Generated by trjconv : CNT in water t=  98.00000
33518
    1C        C    1   2.845   2.770   4.749
    1C        C    2   2.901   2.723   4.870
    1C        C    3   2.855   2.784   4.988
    1C        C    4   2.851   2.775   4.265
    1C        C    5   2.902   2.727   4.388
    1C        C    6   2.844   2.772   4.508
    1C        C    7   3.017   2.646   4.629
    1C        C    8   2.898   2.721   4.628
    1C        C    9   3.078   2.606   4.750
    1C        C   10   3.014   2.639   4.872
    1C        C   11   3.184   2.495   4.978
    1C        C   12   3.065   2.568   4.981
    1C        C   13   2.851   2.773   3.775
    1C        C   14   2.900   2.720   3.897
    1C        C   15   2.847   2.772   4.017
    1C        C   16   3.015   2.647   4.140
    1C        C   17   2.900   2.728   4.141
    1C        C   18   3.079   2.615   4.262
    1C        C   19   3.018   2.647   4.385
    1C        C   20   3.213   2.563   4.506
    1C        C   21   3.080   2.611   4.507
    1C        C   22   3.282   2.541   4.628
    1C        C   23   3.210   2.554   4.749
    1C        C   24   3.414   2.483   4.867
    1C        C   25   3.272   2.502   4.865
    1C        C   26   3.492   2.477   4.983
    1C        C   27   2.856   2.773   3.284
    1C        C   28   2.910   2.732   3.408
    1C        C   29   2.858   2.779   3.531
    1C        C   30   3.023   2.648   3.653
    1C        C   31   2.908   2.729   3.653
    1C        C   32   3.085   2.612   3.774
    1C        C   33   3.018   2.643   3.895
    1C        C   34   3.212   2.564   4.021
    1C        C   35   3.079   2.611   4.019
    1C        C   36   3.279   2.539   4.143
    1C        C   37   3.211   2.564   4.264
    1C        C   38   3.421   2.518   4.387
    1C        C   39   3.282   2.542   4.384
    1C        C   40   3.492   2.503   4.508
    1C        C   41   3.419   2.509   4.629
    1C        C   42   3.635   2.486   4.748
    1C        C   43   3.492   2.488   4.748
    1C        C   44   3.709   2.485   4.868
    1C        C   45   3.631   2.473   4.984
    1C        C   46   2.837   2.749   2.798
    1C        C   47   2.898   2.710   2.919
    1C        C   48   2.846   2.764   3.040
    1C        C   49   3.019   2.640   3.168
    1C        C   50   2.908   2.727   3.161
    1C        C   51   3.085   2.607   3.289
    1C        C   52   3.022   2.645   3.409
    1C        C   53   3.214   2.557   3.529
    1C        C   54   3.083   2.610   3.531
    1C        C   55   3.280   2.538   3.653
    1C        C   56   3.216   2.560   3.777
    1C        C   57   3.421   2.516   3.898
    1C        C   58   3.282   2.543   3.901
    1C        C   59   3.491   2.512   4.020
    1C        C   60   3.418   2.514   4.142
    1C        C   61   3.629   2.499   4.263
    1C        C   62   3.488   2.504   4.264
    1C        C   63   3.701   2.513   4.383
    1C        C   64   3.634   2.505   4.507
    1C        C   65   3.842   2.543   4.628
    1C        C   66   3.707   2.505   4.628
    1C        C   67   3.911   2.564   4.750
    1C        C   68   3.845   2.525   4.868
    1C        C   69   4.052   2.588   4.985
    1C        C   70   3.922   2.535   4.984
    1C        C   71   2.830   2.738   2.310
    1C        C   72   2.886   2.695   2.432
    1C        C   73   2.834   2.747   2.553
    1C        C   74   3.010   2.630   2.677
    1C        C   75   2.888   2.702   2.675
    1C        C   76   3.075   2.595   2.797
    1C        C   77   3.018   2.636   2.920
    1C        C   78   3.211   2.556   3.041
    1C        C   79   3.080   2.609   3.044
    1C        C   80   3.281   2.534   3.161
    1C        C   81   3.216   2.555   3.285
    1C        C   82   3.420   2.500   3.406
    1C        C   83   3.282   2.531   3.408
    1C        C   84   3.489   2.498   3.529
    1C        C   85   3.418   2.507   3.651
    1C        C   86   3.629   2.502   3.775
    1C        C   87   3.488   2.505   3.774
    1C        C   88   3.701   2.513   3.896
    1C        C   89   3.632   2.513   4.020
    1C        C   90   3.836   2.560   4.140
    1C        C   91   3.702   2.515   4.143
    1C        C   92   3.904   2.575   4.263
    1C        C   93   3.838   2.547   4.385
    1C        C   94   4.036   2.630   4.503
    1C        C   95   3.908   2.570   4.506
    1C        C   96   4.100   2.669   4.623
    1C        C   97   4.040   2.623   4.742
    1C        C   98   4.192   2.763   4.867
    1C        C   99   4.099   2.654   4.868
    1C        C  100   4.217   2.843   4.979
    1C        C  101   2.822   2.727   2.072
    1C        C  102   2.993   2.593   2.193
    1C        C  103   2.881   2.681   2.190
    1C        C  104   3.069   2.580   2.313
    1C        C  105   3.008   2.624   2.433
    1C        C  106   3.203   2.540   2.556
    1C        C  107   3.074   2.596   2.555
    1C        C  108   3.275   2.524   2.677
    1C        C  109   3.205   2.541   2.798
    1C        C  110   3.414   2.498   2.918
    1C        C  111   3.276   2.526   2.919
    1C        C  112   3.489   2.497   3.038
    1C        C  113   3.421   2.511   3.161
    1C        C  114   3.631   2.497   3.282
    1C        C  115   3.490   2.497   3.284
    1C        C  116   3.697   2.518   3.406
    1C        C  117   3.630   2.509   3.529
    1C        C  118   3.837   2.545   3.651
    1C        C  119   3.699   2.511   3.653
    1C        C  120   3.903   2.571   3.773
    1C        C  121   3.837   2.548   3.896
    1C        C  122   4.032   2.637   4.018
    1C        C  123   3.905   2.576   4.017
    1C        C  124   4.094   2.672   4.140
    1C        C  125   4.033   2.630   4.261
    1C        C  126   4.202   2.763   4.380
    1C        C  127   4.094   2.673   4.381
    1C        C  128   4.250   2.818   4.501
    1C        C  129   4.198   2.770   4.623
    1C        C  130   4.324   2.937   4.742
    1C        C  131   4.243   2.821   4.747
    1C        C  132   4.354   3.007   4.861
    1C        C  133   4.290   2.961   4.977
    1C        C  134   3.177   2.472   2.085
    1C        C  135   3.043   2.512   2.086
    1C        C  136   3.264   2.490   2.194
    1C        C  137   3.200   2.526   2.315
    1C        C  138   3.409   2.487   2.431
    1C        C  139   3.270   2.506   2.436
    1C        C  140   3.484   2.491   2.551
    1C        C  141   3.415   2.506   2.673
    1C        C  142   3.626   2.502   2.795
    1C        C  143   3.485   2.501   2.796
    1C        C  144   3.700   2.503   2.916
    1C        C  145   3.630   2.501   3.039
    1C        C  146   3.839   2.533   3.159
    1C        C  147   3.702   2.499   3.160
    1C        C  148   3.903   2.561   3.282
    1C        C  149   3.835   2.549   3.406
    1C        C  150   4.031   2.626   3.527
    1C        C  151   3.903   2.565   3.528
    1C        C  152   4.090   2.666   3.648
    1C        C  153   4.028   2.636   3.772
    1C        C  154   4.199   2.763   3.894
    1C        C  155   4.088   2.675   3.893
    1C        C  156   4.252   2.812   4.015
    1C        C  157   4.204   2.760   4.138
    1C        C  158   4.340   2.925   4.257
    1C        C  159   4.256   2.812   4.259
    1C        C  160   4.379   2.985   4.379
    1C        C  161   4.335   2.931   4.502
    1C        C  162   4.434   3.123   4.618
    1C        C  163   4.369   2.997   4.622
    1C        C  164   4.470   3.187   4.739
    1C        C  165   4.432   3.124   4.859
    1C        C  166   4.515   3.325   4.975
    1C        C  167   4.476   3.191   4.974
    1C        C  168   3.477   2.436   2.077
    1C        C  169   3.401   2.458   2.193
    1C        C  170   3.622   2.466   2.313
    1C        C  171   3.479   2.461   2.311
    1C        C  172   3.698   2.485   2.430
    1C        C  173   3.625   2.493   2.551
    1C        C  174   3.834   2.539   2.670
    1C        C  175   3.696   2.507   2.673
    1C        C  176   3.901   2.561   2.792
    1C        C  177   3.836   2.539   2.916
    1C        C  178   4.031   2.624   3.035
    1C        C  179   3.906   2.559   3.037
    1C        C  180   4.089   2.660   3.158
    1C        C  181   4.031   2.621   3.281
    1C        C  182   4.202   2.748   3.402
    1C        C  183   4.091   2.660   3.403
    1C        C  184   4.247   2.804   3.523
    1C        C  185   4.201   2.754   3.647
    1C        C  186   4.337   2.916   3.769
    1C        C  187   4.249   2.806   3.769
    1C        C  188   4.381   2.978   3.888
    1C        C  189   4.341   2.922   4.012
    1C        C  190   4.444   3.107   4.132
    1C        C  191   4.378   2.982   4.134
    1C        C  192   4.473   3.175   4.252
    1C        C  193   4.444   3.111   4.375
    1C        C  194   4.507   3.318   4.495
    1C        C  195   4.464   3.184   4.494
    1C        C  196   4.526   3.389   4.616
    1C        C  197   4.518   3.321   4.739
    1C        C  198   4.563   3.538   4.852
    1C        C  199   4.543   3.396   4.857
    1C        C  200   4.585   3.622   4.965
    1C        C  201   3.616   2.428   2.077
    1C        C  202   3.829   2.515   2.185
    1C        C  203   3.694   2.468   2.190
    1C        C  204   3.904   2.539   2.304
    1C        C  205   3.836   2.516   2.426
    1C        C  206   4.026   2.616   2.549
    1C        C  207   3.901   2.551   2.546
    1C        C  208   4.085   2.663   2.669
    1C        C  209   4.026   2.626   2.792
    1C        C  210   4.204   2.746   2.911
    1C        C  211   4.090   2.663   2.912
    1C        C  212   4.254   2.792   3.035
    1C        C  213   4.200   2.748   3.158
    1C        C  214   4.336   2.911   3.277
    1C        C  215   4.251   2.798   3.279
    1C        C  216   4.366   2.975   3.399
    1C        C  217   4.331   2.918   3.523
    1C        C  218   4.434   3.101   3.644
    1C        C  219   4.378   2.971   3.645
    1C        C  220   4.465   3.168   3.764
    1C        C  221   4.448   3.103   3.888
    1C        C  222   4.503   3.309   4.005
    1C        C  223   4.472   3.171   4.009
    1C        C  224   4.516   3.380   4.127
    1C        C  225   4.509   3.312   4.250
    1C        C  226   4.522   3.526   4.369
    1C        C  227   4.518   3.385   4.371
    1C        C  228   4.522   3.600   4.489
    1C        C  229   4.527   3.531   4.612
    1C        C  230   4.504   3.745   4.730
    1C        C  231   4.539   3.607   4.730
    1C        C  232   4.492   3.820   4.849
    1C        C  233   4.544   3.756   4.962
    1C        C  234   4.019   2.616   2.067
    1C        C  235   3.898   2.549   2.068
    1C        C  236   4.089   2.651   2.183
    1C        C  237   4.029   2.606   2.303
    1C        C  238   4.197   2.737   2.424
    1C        C  239   4.087   2.647   2.425
    1C        C  240   4.254   2.789   2.543
    1C        C  241   4.199   2.745   2.665
    1C        C  242   4.341   2.904   2.788
    1C        C  243   4.252   2.794   2.787
    1C        C  244   4.381   2.961   2.911
    1C        C  245   4.339   2.905   3.033
    1C        C  246   4.440   3.094   3.149
    1C        C  247   4.379   2.967   3.154
    1C        C  248   4.459   3.161   3.272
    1C        C  249   4.429   3.101   3.397
    1C        C  250   4.487   3.304   3.518
    1C        C  251   4.449   3.167   3.520
    1C        C  252   4.502   3.376   3.638
    1C        C  253   4.499   3.305   3.761
    1C        C  254   4.519   3.519   3.881
    1C        C  255   4.511   3.378   3.882
    1C        C  256   4.518   3.591   4.003
    1C        C  257   4.523   3.521   4.125
    1C        C  258   4.484   3.732   4.243
    1C        C  259   4.512   3.594   4.246
    1C        C  260   4.474   3.805   4.363
    1C        C  261   4.493   3.739   4.487
    1C        C  262   4.431   3.944   4.606
    1C        C  263   4.481   3.811   4.607
    1C        C  264   4.403   4.015   4.725
    1C        C  265   4.438   3.951   4.845
    1C        C  266   4.316   4.133   4.961
    1C        C  267   4.384   4.012   4.959
    1C        C  268   4.266   2.777   2.066
    1C        C  269   4.207   2.729   2.183
    1C        C  270   4.351   2.888   2.302
    1C        C  271   4.257   2.782   2.304
    1C        C  272   4.393   2.951   2.421
    1C        C  273   4.344   2.897   2.542
    1C        C  274   4.447   3.084   2.664
    1C        C  275   4.379   2.960   2.664
    1C        C  276   4.476   3.151   2.784
    1C        C  277   4.447   3.086   2.906
    1C        C  278   4.501   3.294   3.030
    1C        C  279   4.472   3.156   3.026
    1C        C  280   4.505   3.366   3.151
    1C        C  281   4.495   3.298   3.274
    1C        C  282   4.511   3.512   3.394
    1C        C  283   4.505   3.371   3.395
    1C        C  284   4.510   3.585   3.515
    1C        C  285   4.510   3.517   3.638
    1C        C  286   4.487   3.728   3.756
    1C        C  287   4.514   3.590   3.759
    1C        C  288   4.469   3.796   3.878
    1C        C  289   4.493   3.730   4.001
    1C        C  290   4.425   3.935   4.118
    1C        C  291   4.475   3.803   4.121
    1C        C  292   4.397   3.998   4.241
    1C        C  293   4.432   3.940   4.365
    1C        C  294   4.327   4.129   4.482
    1C        C  295   4.402   4.009   4.485
    1C        C  296   4.287   4.193   4.601
    1C        C  297   4.336   4.141   4.722
    1C        C  298   4.207   4.318   4.840
    1C        C  299   4.292   4.203   4.842
    1C        C  300   4.170   4.403   4.950
    1C        C  301   4.355   2.884   2.065
    1C        C  302   4.470   3.071   2.179
    1C        C  303   4.404   2.944   2.182
    1C        C  304   4.479   3.144   2.300
    1C        C  305   4.454   3.079   2.423
    1C        C  306   4.508   3.287   2.542
    1C        C  307   4.482   3.148   2.543
    1C        C  308   4.513   3.361   2.663
    1C        C  309   4.504   3.290   2.785
    1C        C  310   4.520   3.503   2.902
    1C        C  311   4.515   3.362   2.906
    1C        C  312   4.512   3.573   3.024
    1C        C  313   4.512   3.507   3.149
    1C        C  314   4.486   3.720   3.265
    1C        C  315   4.510   3.580   3.270
    1C        C  316   4.469   3.790   3.386
    1C        C  317   4.487   3.724   3.510
    1C        C  318   4.424   3.927   3.630
    1C        C  319   4.471   3.794   3.632
    1C        C  320   4.391   3.990   3.752
    1C        C  321   4.423   3.930   3.875
    1C        C  322   4.324   4.120   3.996
    1C        C  323   4.398   4.000   3.995
    1C        C  324   4.283   4.180   4.117
    1C        C  325   4.325   4.120   4.237
    1C        C  326   4.192   4.287   4.357
    1C        C  327   4.287   4.182   4.357
    1C        C  328   4.138   4.340   4.476
    1C        C  329   4.191   4.297   4.599
    1C        C  330   4.031   4.441   4.714
    1C        C  331   4.146   4.358   4.718
    1C        C  332   3.974   4.492   4.833
    1C        C  333   4.053   4.481   4.948
    1C        C  334   4.559   3.271   2.067
    1C        C  335   4.539   3.132   2.070
    1C        C  336   4.534   3.352   2.178
    1C        C  337   4.511   3.283   2.299
    1C        C  338   4.526   3.496   2.415
    1C        C  339   4.520   3.355   2.420
    1C        C  340   4.525   3.570   2.536
    1C        C  341   4.520   3.502   2.660
    1C        C  342   4.497   3.714   2.780
    1C        C  343   4.519   3.575   2.781
    1C        C  344   4.473   3.785   2.899
    1C        C  345   4.488   3.713   3.020
    1C        C  346   4.430   3.919   3.141
    1C        C  347   4.474   3.785   3.140
    1C        C  348   4.395   3.988   3.260
    1C        C  349   4.425   3.924   3.382
    1C        C  350   4.320   4.106   3.507
    1C        C  351   4.396   3.987   3.505
    1C        C  352   4.279   4.170   3.627
    1C        C  353   4.320   4.113   3.749
    1C        C  354   4.180   4.271   3.868
    1C        C  355   4.279   4.170   3.871
    1C        C  356   4.122   4.317   3.988
    1C        C  357   4.178   4.275   4.110
    1C        C  358   4.016   4.404   4.234
    1C        C  359   4.134   4.327   4.234
    1C        C  360   3.956   4.448   4.354
    1C        C  361   4.018   4.415   4.476
    1C        C  362   3.832   4.524   4.596
    1C        C  363   3.962   4.468   4.594
    1C        C  364   3.766   4.555   4.717
    1C        C  365   3.843   4.544   4.835
    1C        C  366   3.634   4.596   4.951
    1C        C  367   3.772   4.577   4.952
    1C        C  368   4.515   3.565   2.054
    1C        C  369   4.528   3.493   2.174
    1C        C  370   4.508   3.708   2.290
    1C        C  371   4.526   3.568   2.294
    1C        C  372   4.487   3.777   2.411
    1C        C  373   4.499   3.709   2.534
    1C        C  374   4.429   3.911   2.652
    1C        C  375   4.481   3.779   2.655
    1C        C  376   4.399   3.979   2.772
    1C        C  377   4.433   3.920   2.896
    1C        C  378   4.325   4.101   3.016
    1C        C  379   4.407   3.985   3.018
    1C        C  380   4.280   4.158   3.137
    1C        C  381   4.320   4.108   3.263
    1C        C  382   4.176   4.262   3.379
    1C        C  383   4.278   4.164   3.385
    1C        C  384   4.124   4.314   3.500
    1C        C  385   4.183   4.273   3.621
    1C        C  386   4.010   4.392   3.743
    1C        C  387   4.131   4.319   3.745
    1C        C  388   3.945   4.430   3.863
    1C        C  389   4.006   4.398   3.986
    1C        C  390   3.822   4.489   4.110
    1C        C  391   3.952   4.434   4.111
    1C        C  392   3.756   4.521   4.231
    1C        C  393   3.828   4.508   4.351
    1C        C  394   3.622   4.558   4.476
    1C        C  395   3.762   4.533   4.474
    1C        C  396   3.551   4.569   4.597
    1C        C  397   3.626   4.572   4.717
    1C        C  398   3.414   4.562   4.841
    1C        C  399   3.554   4.579   4.838
    1C        C  400   3.347   4.514   4.954
    1C        C  401   4.502   3.704   2.053
    1C        C  402   4.457   3.917   2.169
    1C        C  403   4.497   3.781   2.170
    1C        C  404   4.414   3.976   2.290
    1C        C  405   4.436   3.908   2.412
    1C        C  406   4.331   4.098   2.530
    1C        C  407   4.406   3.979   2.530
    1C        C  408   4.281   4.154   2.650
    1C        C  409   4.319   4.096   2.774
    1C        C  410   4.185   4.261   2.893
    1C        C  411   4.281   4.158   2.895
    1C        C  412   4.127   4.307   3.013
    1C        C  413   4.183   4.261   3.135
    1C        C  414   4.008   4.386   3.254
    1C        C  415   4.127   4.310   3.255
    1C        C  416   3.945   4.421   3.375
    1C        C  417   4.005   4.390   3.499
    1C        C  418   3.816   4.483   3.621
    1C        C  419   3.946   4.427   3.622
    1C        C  420   3.750   4.509   3.743
    1C        C  421   3.816   4.488   3.866
    1C        C  422   3.612   4.533   3.989
    1C        C  423   3.752   4.512   3.989
    1C        C  424   3.544   4.544   4.113
    1C        C  425   3.616   4.540   4.234
    1C        C  426   3.406   4.551   4.359
    1C        C  427   3.547   4.553   4.357
    1C        C  428   3.334   4.554   4.481
    1C        C  429   3.410   4.562   4.600
    1C        C  430   3.199   4.526   4.726
    1C        C  431   3.339   4.552   4.721
    1C        C  432   3.127   4.504   4.846
    1C        C  433   3.208   4.506   4.961
    1C        C  434   4.389   4.125   2.057
    1C        C  435   4.452   3.999   2.056
    1C        C  436   4.305   4.161   2.167
    1C        C  437   4.338   4.096   2.289
    1C        C  438   4.186   4.251   2.405
    1C        C  439   4.285   4.151   2.407
    1C        C  440   4.132   4.302   2.526
    1C        C  441   4.181   4.253   2.649
    1C        C  442   4.009   4.379   2.769
    1C        C  443   4.127   4.302   2.770
    1C        C  444   3.947   4.418   2.890
    1C        C  445   4.006   4.380   3.012
    1C        C  446   3.811   4.469   3.134
    1C        C  447   3.940   4.412   3.133
    1C        C  448   3.746   4.497   3.257
    1C        C  449   3.816   4.478   3.378
    1C        C  450   3.611   4.537   3.499
    1C        C  451   3.749   4.508   3.499
    1C        C  452   3.542   4.541   3.623
    1C        C  453   3.612   4.539   3.745
    1C        C  454   3.401   4.553   3.868
    1C        C  455   3.542   4.549   3.867
    1C        C  456   3.332   4.545   3.991
    1C        C  457   3.402   4.547   4.113
    1C        C  458   3.198   4.507   4.240
    1C        C  459   3.336   4.536   4.237
    1C        C  460   3.129   4.493   4.363
    1C        C  461   3.196   4.523   4.483
    1C        C  462   3.001   4.442   4.604
    1C        C  463   3.128   4.505   4.606
    1C        C  464   2.937   4.405   4.724
    1C        C  465   2.994   4.451   4.845
    1C        C  466   2.804   4.345   4.960
    1C        C  467   2.916   4.429   4.963
    1C        C  468   4.126   4.285   2.045
    1C        C  469   4.191   4.247   2.164
    1C        C  470   4.010   4.372   2.281
    1C        C  471   4.130   4.296   2.283
    1C        C  472   3.947   4.404   2.403
    1C        C  473   4.014   4.379   2.525
    1C        C  474   3.815   4.462   2.645
    1C        C  475   3.946   4.407   2.646
    1C        C  476   3.748   4.489   2.766
    1C        C  477   3.817   4.473   2.889
    1C        C  478   3.609   4.522   3.010
    1C        C  479   3.748   4.496   3.010
    1C        C  480   3.538   4.533   3.131
    1C        C  481   3.608   4.526   3.254
    1C        C  482   3.398   4.537   3.376
    1C        C  483   3.540   4.540   3.377
    1C        C  484   3.331   4.531   3.500
    1C        C  485   3.401   4.541   3.623
    1C        C  486   3.193   4.507   3.747
    1C        C  487   3.331   4.537   3.746
    1C        C  488   3.128   4.485   3.871
    1C        C  489   3.196   4.506   3.993
    1C        C  490   3.008   4.418   4.119
    1C        C  491   3.131   4.487   4.117
    1C        C  492   2.944   4.386   4.241
    1C        C  493   3.004   4.429   4.363
    1C        C  494   2.833   4.305   4.487
    1C        C  495   2.942   4.395   4.485
    1C        C  496   2.781   4.258   4.609
    1C        C  497   2.824   4.318   4.730
    1C        C  498   2.668   4.169   4.844
    1C        C  499   2.754   4.281   4.846
    1C        C  500   2.599   4.117   4.955
    1C        C  501   4.007   4.356   2.043
    1C        C  502   3.819   4.467   2.159
    1C        C  503   3.945   4.403   2.159
    1C        C  504   3.748   4.479   2.280
    1C        C  505   3.815   4.454   2.402
    1C        C  506   3.609   4.511   2.521
    1C        C  507   3.747   4.480   2.523
    1C        C  508   3.537   4.528   2.642
    1C        C  509   3.610   4.519   2.762
    1C        C  510   3.401   4.529   2.886
    1C        C  511   3.542   4.532   2.886
    1C        C  512   3.329   4.524   3.007
    1C        C  513   3.397   4.537   3.131
    1C        C  514   3.191   4.499   3.256
    1C        C  515   3.328   4.536   3.254
    1C        C  516   3.126   4.474   3.379
    1C        C  517   3.193   4.499   3.501
    1C        C  518   3.005   4.409   3.627
    1C        C  519   3.128   4.479   3.625
    1C        C  520   2.947   4.375   3.751
    1C        C  521   3.005   4.416   3.873
    1C        C  522   2.843   4.285   3.998
    1C        C  523   2.951   4.376   3.997
    1C        C  524   2.794   4.236   4.121
    1C        C  525   2.838   4.293   4.243
    1C        C  526   2.706   4.132   4.367
    1C        C  527   2.789   4.247   4.366
    1C        C  528   2.662   4.075   4.489
    1C        C  529   2.699   4.143   4.607
    1C        C  530   2.591   3.960   4.733
    1C        C  531   2.647   4.091   4.728
    1C        C  532   2.541   3.907   4.855
    1C        C  533   2.524   4.000   4.962
    1C        C  534   3.618   4.556   2.039
    1C        C  535   3.751   4.512   2.045
    1C        C  536   3.541   4.541   2.158
    1C        C  537   3.609   4.510   2.279
    1C        C  538   3.395   4.517   2.402
    1C        C  539   3.537   4.518   2.400
    1C        C  540   3.323   4.513   2.523
    1C        C  541   3.396   4.527   2.644
    1C        C  542   3.188   4.493   2.767
    1C        C  543   3.326   4.522   2.766
    1C        C  544   3.123   4.469   2.890
    1C        C  545   3.191   4.493   3.012
    1C        C  546   3.000   4.407   3.138
    1C        C  547   3.124   4.474   3.135
    1C        C  548   2.942   4.371   3.262
    1C        C  549   2.999   4.412   3.384
    1C        C  550   2.834   4.279   3.507
    1C        C  551   2.942   4.370   3.507
    1C        C  552   2.786   4.233   3.632
    1C        C  553   2.834   4.289   3.752
    1C        C  554   2.705   4.125   3.878
    1C        C  555   2.789   4.238   3.876
    1C        C  556   2.669   4.064   4.000
    1C        C  557   2.708   4.124   4.122
    1C        C  558   2.600   3.946   4.249
    1C        C  559   2.666   4.071   4.246
    1C        C  560   2.574   3.880   4.371
    1C        C  561   2.593   3.951   4.491
    1C        C  562   2.536   3.749   4.619
    1C        C  563   2.571   3.886   4.614
    1C        C  564   2.520   3.683   4.742
    1C        C  565   2.521   3.765   4.858
    1C        C  566   2.532   3.551   4.980
    1C        C  567   2.528   3.690   4.976
    1C        C  568   3.333   4.470   2.044
    1C        C  569   3.402   4.510   2.159
    1C        C  570   3.188   4.478   2.278
    1C        C  571   3.326   4.510   2.279
    1C        C  572   3.119   4.461   2.401
    1C        C  573   3.185   4.485   2.524
    1C        C  574   2.991   4.408   2.650
    1C        C  575   3.117   4.472   2.647
    1C        C  576   2.933   4.369   2.773
    1C        C  577   2.997   4.405   2.893
    1C        C  578   2.830   4.278   3.018
    1C        C  579   2.937   4.369   3.016
    1C        C  580   2.784   4.225   3.141
    1C        C  581   2.836   4.278   3.261
    1C        C  582   2.704   4.114   3.388
    1C        C  583   2.792   4.224   3.384
    1C        C  584   2.664   4.059   3.512
    1C        C  585   2.702   4.119   3.634
    1C        C  586   2.594   3.940   3.760
    1C        C  587   2.662   4.064   3.757
    1C        C  588   2.567   3.877   3.883
    1C        C  589   2.605   3.938   4.005
    1C        C  590   2.537   3.740   4.131
    1C        C  591   2.577   3.876   4.129
    1C        C  592   2.521   3.672   4.254
    1C        C  593   2.533   3.745   4.374
    1C        C  594   2.518   3.536   4.500
    1C        C  595   2.527   3.677   4.498
    1C        C  596   2.522   3.465   4.622
    1C        C  597   2.516   3.540   4.742
    1C        C  598   2.537   3.331   4.864
    1C        C  599   2.528   3.472   4.865
    1C        C  600   2.533   3.252   4.979
    1C        C  601   3.198   4.438   2.042
    1C        C  602   2.985   4.393   2.160
    1C        C  603   3.121   4.439   2.159
    1C        C  604   2.929   4.366   2.287
    1C        C  605   2.989   4.406   2.408
    1C        C  606   2.825   4.272   2.535
    1C        C  607   2.929   4.367   2.530
    1C        C  608   2.774   4.222   2.657
    1C        C  609   2.827   4.276   2.776
    1C        C  610   2.694   4.111   2.900
    1C        C  611   2.777   4.225   2.898
    1C        C  612   2.655   4.055   3.023
    1C        C  613   2.698   4.114   3.145
    1C        C  614   2.592   3.931   3.269
    1C        C  615   2.657   4.056   3.267
    1C        C  616   2.571   3.868   3.394
    1C        C  617   2.601   3.933   3.516
    1C        C  618   2.536   3.733   3.643
    1C        C  619   2.571   3.870   3.640
    1C        C  620   2.524   3.665   3.766
    1C        C  621   2.531   3.741   3.886
    1C        C  622   2.515   3.531   4.010
    1C        C  623   2.525   3.671   4.009
    1C        C  624   2.514   3.461   4.133
    1C        C  625   2.516   3.531   4.255
    1C        C  626   2.540   3.323   4.380
    1C        C  627   2.521   3.463   4.379
    1C        C  628   2.560   3.255   4.503
    1C        C  629   2.543   3.325   4.624
    1C        C  630   2.606   3.122   4.745
    1C        C  631   2.557   3.256   4.746
    1C        C  632   2.625   3.054   4.868
    1C        C  633   2.564   3.115   4.983
    1C        C  634   2.783   4.304   2.056
    1C        C  635   2.891   4.394   2.052
    1C        C  636   2.752   4.236   2.174
    1C        C  637   2.816   4.280   2.291
    1C        C  638   2.683   4.114   2.412
    1C        C  639   2.771   4.224   2.413
    1C        C  640   2.646   4.052   2.534
    1C        C  641   2.687   4.110   2.657
    1C        C  642   2.584   3.926   2.780
    1C        C  643   2.654   4.048   2.779
    1C        C  644   2.562   3.863   2.904
    1C        C  645   2.591   3.929   3.026
    1C        C  646   2.535   3.725   3.151
    1C        C  647   2.570   3.861   3.148
    1C        C  648   2.519   3.661   3.276
    1C        C  649   2.536   3.732   3.397
    1C        C  650   2.516   3.522   3.519
    1C        C  651   2.527   3.663   3.521
    1C        C  652   2.519   3.455   3.644
    1C        C  653   2.515   3.524   3.767
    1C        C  654   2.532   3.315   3.893
    1C        C  655   2.516   3.456   3.890
    1C        C  656   2.545   3.246   4.015
    1C        C  657   2.532   3.320   4.135
    1C        C  658   2.600   3.121   4.260
    1C        C  659   2.553   3.254   4.258
    1C        C  660   2.637   3.058   4.381
    1C        C  661   2.608   3.122   4.504
    1C        C  662   2.710   2.935   4.626
    1C        C  663   2.635   3.055   4.625
    1C        C  664   2.753   2.879   4.748
    1C        C  665   2.702   2.934   4.869
    1C        C  666   2.750   2.875   4.987
    1C        C  667   2.679   4.029   2.059
    1C        C  668   2.686   4.111   2.172
    1C        C  669   2.591   3.917   2.293
    1C        C  670   2.646   4.049   2.293
    1C        C  671   2.558   3.854   2.415
    1C        C  672   2.591   3.922   2.534
    1C        C  673   2.527   3.723   2.663
    1C        C  674   2.559   3.861   2.657
    1C        C  675   2.511   3.653   2.784
    1C        C  676   2.528   3.725   2.905
    1C        C  677   2.506   3.516   3.032
    1C        C  678   2.522   3.657   3.028
    1C        C  679   2.512   3.446   3.154
    1C        C  680   2.510   3.520   3.275
    1C        C  681   2.535   3.311   3.404
    1C        C  682   2.512   3.450   3.398
    1C        C  683   2.554   3.244   3.528
    1C        C  684   2.541   3.315   3.649
    1C        C  685   2.607   3.116   3.774
    1C        C  686   2.553   3.247   3.772
    1C        C  687   2.633   3.051   3.897
    1C        C  688   2.599   3.116   4.017
    1C        C  689   2.712   2.938   4.141
    1C        C  690   2.631   3.054   4.140
    1C        C  691   2.755   2.879   4.261
    1C        C  692   2.717   2.942   4.382
    1C        C  693   2.751   2.878   4.504
    1C        C  694   2.628   3.898   2.059
    1C        C  695   2.530   3.708   2.180
    1C        C  696   2.574   3.842   2.175
    1C        C  697   2.507   3.642   2.303
    1C        C  698   2.521   3.718   2.422
    1C        C  699   2.500   3.508   2.546
    1C        C  700   2.509   3.648   2.544
    1C        C  701   2.502   3.438   2.669
    1C        C  702   2.503   3.512   2.789
    1C        C  703   2.533   3.304   2.914
    1C        C  704   2.508   3.443   2.911
    1C        C  705   2.551   3.238   3.037
    1C        C  706   2.537   3.307   3.160
    1C        C  707   2.600   3.107   3.282
    1C        C  708   2.555   3.241   3.283
    1C        C  709   2.634   3.047   3.405
    1C        C  710   2.604   3.112   3.527
    1C        C  711   2.712   2.933   3.652
    1C        C  712   2.637   3.052   3.651
    1C        C  713   2.756   2.877   3.774
    1C        C  714   2.715   2.936   3.896
    1C        C  715   2.757   2.881   4.020
    1C        C  716   2.455   3.501   2.070
    1C        C  717   2.502   3.633   2.065
    1C        C  718   2.465   3.423   2.190
    1C        C  719   2.486   3.502   2.306
    1C        C  720   2.519   3.291   2.431
    1C        C  721   2.498   3.431   2.427
    1C        C  722   2.542   3.223   2.553
    1C        C  723   2.524   3.298   2.671
    1C        C  724   2.594   3.099   2.793
    1C        C  725   2.539   3.230   2.793
    1C        C  726   2.626   3.037   2.916
    1C        C  727   2.600   3.105   3.037
    1C        C  728   2.709   2.925   3.162
    1C        C  729   2.629   3.041   3.160
    1C        C  730   2.757   2.874   3.285
    1C        C  731   2.711   2.929   3.407
    1C        C  732   2.754   2.876   3.530
    1C        C  733   2.487   3.197   2.079
    1C        C  734   2.494   3.283   2.190
    1C        C  735   2.588   3.088   2.311
    1C        C  736   2.529   3.218   2.311
    1C        C  737   2.616   3.022   2.432
    1C        C  738   2.587   3.089   2.553
    1C        C  739   2.698   2.908   2.675
    1C        C  740   2.620   3.026   2.675
    1C        C  741   2.746   2.857   2.798
    1C        C  742   2.707   2.922   2.917
    1C        C  743   2.749   2.866   3.040
    1C        C  744   2.552   3.074   2.076
    1C        C  745   2.688   2.900   2.187
    1C        C  746   2.611   3.018   2.190
    1C        C  747   2.734   2.843   2.308
    1C        C  748   2.693   2.903   2.429
    1C        C  749   2.739   2.852   2.552
    1C        C  750   2.741   2.840   2.073
    1C        C  751   3.666   2.317   1.993
    1C        O  752   3.658   2.197   2.031
    1C        O  753   3.665   2.334   1.854
    1C        C  754   4.637   3.054   1.992
    1C        O  755   4.633   3.042   1.867
    1C        O  756   4.764   3.018   2.040
    1C        C  757   4.483   4.221   1.996
    1C        O  758   4.544   4.315   2.055
    1C        O  759   4.463   4.239   1.859
    1C        C  760   3.590   4.657   1.934
    1C        O  761   3.621   4.778   1.953
    1C        O  762   3.592   4.618   1.800
    1C        C  763   2.882   4.497   1.946
    1C        O  764   2.912   4.475   1.825
    1C        O  765   2.838   4.629   1.962
    1C        C  766   2.330   3.499   1.991
    1C        O  767   2.325   3.434   1.883
    1C        O  768   2.209   3.560   2.028
    1C        C  769   4.697   3.609   5.060
    1C        O  770   4.680   3.566   5.178
    1C        O  771   4.832   3.637   5.032
    1C        C  772   4.276   4.459   5.037
    1C        O  773   4.261   4.471   5.161
    1C        O  774   4.399   4.506   4.992
    1C        C  775   4.142   2.504   5.068
    1C        O  776   4.158   2.381   5.047
    1C        O  777   4.223   2.564   5.165
    1C        C  778   2.890   4.528   5.070
    1C        O  779   2.893   4.651   5.043
    1C        O  780   2.953   4.513   5.193
    1C        C  781   2.457   3.039   5.050
    1C        O  782   2.362   2.995   4.980
    1C        O  783   2.445   3.000   5.183
    1C        C  784   2.399   4.005   5.041
    1C        O  785   2.295   4.046   4.981
    1C        O  786   2.401   4.033   5.178
    1C        C  787   2.952   2.424   2.009
    1C        O  788   2.897   2.448   1.898
    1C        O  789   2.931   2.293   2.053
    1C        C  790   3.181   2.394   5.087
    1C        O  791   3.146   2.275   5.064
    1C        O  792   3.178   2.438   5.220
    1C        H  793   4.290   3.025   5.063
    1C        H  794   4.151   2.832   5.063
    1C        H  795   4.477   3.148   5.072
    1C        H  796   4.565   3.360   5.063
    1C        H  797   4.575   3.815   5.046
    1C        H  798   4.394   3.954   5.048
    1C        H  799   4.314   4.189   5.053
    1C        H  800   4.067   4.577   4.992
    1C        H  801   3.814   4.567   5.050
    1C        H  802   3.592   4.592   5.050
    1C        H  803   3.398   4.435   5.005
    1C        H  804   3.160   4.479   5.052
    1C        H  805   3.893   2.477   5.070
    1C        H  806   3.678   2.493   5.078
    1C        H  807   2.991   2.537   5.052
    1C        H  808   3.445   2.468   5.079
    1C        H  809   2.923   2.797   5.069
    1C        H  810   2.696   2.890   5.078
    1C        H  811   2.467   3.284   5.057
    1C        H  812   2.561   3.508   5.074
    1C        H  813   2.497   3.740   5.065
    1C        H  814   2.580   4.186   5.035
    1C        H  815   2.778   4.306   5.056
    1C        H  816   2.707   2.875   1.977
    1C        H  817   2.830   2.667   1.983
    1C        H  818   3.220   2.449   1.990
    1C        H  819   3.428   2.437   1.982
    1C        H  820   3.879   2.484   1.984
    1C        H  821   4.079   2.587   1.983
    1C        H  822   4.244   2.735   1.970
    1C        H  823   4.392   2.918   1.970
    1C        H  824   4.595   3.316   1.976
    1C        H  825   4.517   3.514   1.960
    1C        H  826   4.504   3.748   1.956
    1C        H  827   3.804   4.504   1.952
    1C        H  828   3.940   4.343   1.961
    1C        H  829   4.180   4.281   1.953
    1C        H  830   4.511   3.968   1.972
    1C        H  831   2.645   3.833   1.976
    1C        H  832   2.738   4.055   1.973
    1C        H  833   2.718   4.287   1.973
    1C        H  834   3.387   4.443   1.955
    1C        H  835   3.163   4.393   1.952
    1C        H  836   2.540   3.010   1.992
    1C        H  837   2.428   3.226   1.995
    1C        H  838   2.475   3.687   1.977
    2V3OU   H29  839   2.809   3.547   1.514
    2V3OU   C27  840   2.788   3.510   1.617
    2V3OU   H27  841   2.725   3.570   1.688
    2V3OU   H28  842   2.726   3.416   1.615
    2V3OU   O11  843   2.911   3.478   1.682
    2V3OU   C15  844   2.923   3.399   1.795
    2V3OU   C13  845   3.052   3.380   1.849
    2V3OU   C14  846   3.078   3.272   1.934
    2V3OU   C16  847   2.974   3.186   1.968
    2V3OU    H6  848   2.990   3.113   2.049
    2V3OU   C12  849   3.218   3.235   1.963
    2V3OU    O2  850   3.246   3.138   2.037
    2V3OU   C10  851   3.328   3.316   1.908
    2V3OU    C8  852   3.460   3.273   1.920
    2V3OU   O10  853   3.490   3.161   1.992
    2V3OU   H26  854   3.407   3.119   2.019
    2V3OU    C6  855   3.566   3.354   1.867
    2V3OU    C5  856   3.538   3.472   1.799
    2V3OU    C4  857   3.705   3.300   1.863
    2V3OU    H4  858   3.728   3.229   1.948
    2V3OU    H5  859   3.715   3.236   1.771
    2V3OU    C2  860   3.816   3.405   1.872
    2V3OU    O6  861   3.812   3.476   1.996
    2V3OU   H21  862   3.761   3.553   1.965
    2V3OU    C3  863   3.780   3.500   1.756
    2V3OU    H2  864   3.859   3.579   1.749
    2V3OU    H3  865   3.785   3.438   1.663
    2V3OU   C25  866   3.951   3.335   1.857
    2V3OU    O7  867   4.004   3.298   1.752
    2V3OU   C26  868   4.032   3.291   1.977
    2V3OU   H22  869   4.063   3.390   2.020
    2V3OU   H23  870   4.122   3.234   1.943
    2V3OU    O8  871   3.959   3.214   2.071
    2V3OU   H24  872   3.935   3.264   2.151
    2V3OU    C1  873   3.645   3.569   1.760
    2V3OU    H1  874   3.627   3.620   1.661
    2V3OU    O3  875   3.659   3.656   1.872
    2V3OU   C19  876   3.622   3.793   1.849
    2V3OU    H9  877   3.527   3.810   1.791
    2V3OU    O4  878   3.722   3.843   1.763
    2V3OU   C20  879   3.851   3.875   1.814
    2V3OU   H10  880   3.906   3.777   1.831
    2V3OU   C24  881   3.614   3.861   1.986
    2V3OU   H16  882   3.547   3.801   2.053
    2V3OU   H17  883   3.574   3.963   1.966
    2V3OU   C23  884   3.753   3.881   2.047
    2V3OU   H15  885   3.793   3.775   2.060
    2V3OU    N1  886   3.743   3.960   2.168
    2V3OU   H19  887   3.807   3.925   2.237
    2V3OU   H20  888   3.648   3.937   2.191
    2V3OU   C21  889   3.851   3.951   1.947
    2V3OU   H11  890   3.951   3.935   1.996
    2V3OU    O5  891   3.829   4.091   1.946
    2V3OU   H18  892   3.787   4.111   2.031
    2V3OU   C22  893   3.918   3.951   1.701
    2V3OU   H12  894   3.867   4.050   1.685
    2V3OU   H13  895   3.908   3.893   1.606
    2V3OU   H14  896   4.028   3.967   1.720
    2V3OU   C11  897   3.162   3.473   1.819
    2V3OU    O1  898   3.138   3.584   1.767
    2V3OU    C9  899   3.303   3.431   1.830
    2V3OU    C7  900   3.403   3.512   1.776
    2V3OU    O9  901   3.392   3.623   1.694
    2V3OU   H25  902   3.297   3.635   1.679
    2V3OU   C17  903   2.819   3.315   1.842
    2V3OU    H7  904   2.719   3.343   1.808
    2V3OU   C18  905   2.843   3.209   1.928
    2V3OU    H8  906   2.761   3.139   1.951
    3SOL     OW  907   1.303   3.492   1.352
    3SOL    HW1  908   1.234   3.558   1.324
    3SOL    HW2  909   1.333   3.512   1.446
    4SOL     OW  910   5.954   0.638   1.968
    4SOL    HW1  911   6.008   0.556   1.949
    4SOL    HW2  912   5.975   0.709   1.901
    5SOL     OW  913   4.251   1.808   0.766
    5SOL    HW1  914   4.303   1.843   0.843
    5SOL    HW2  915   4.154   1.828   0.780
    6SOL     OW  916   3.006   2.135   1.840
    6SOL    HW1  917   3.002   2.188   1.925
    6SOL    HW2  918   3.009   2.037   1.861
    7SOL     OW  919   5.483   1.858   2.192
    7SOL    HW1  920   5.542   1.789   2.151
    7SOL    HW2  921   5.537   1.916   2.254
    8SOL     OW  922   2.723   0.403   3.899
    8SOL    HW1  923   2.813   0.407   3.856
    8SOL    HW2  924   2.710   0.485   3.955
    9SOL     OW  925   2.125   5.058   6.119
    9SOL    HW1  926   2.043   5.019   6.160
    9SOL    HW2  927   2.102   5.096   6.029
   10SOL     OW  928   1.046   4.427   6.217
   10SOL    HW1  929   0.974   4.390   6.276
   10SOL    HW2  930   1.129   4.440   6.271
   11SOL     OW  931   4.477   6.564   0.281
   11SOL    HW1  932   4.570   6.576   0.316
   11SOL    HW2  933   4.462   6.626   0.204
   12SOL     OW  934   5.316   5.949   2.988
   12SOL    HW1  935   5.319   5.916   3.082
   12SOL    HW2  936   5.280   5.877   2.928
   13SOL     OW  937   2.814   6.300   3.980
   13SOL    HW1  938   2.903   6.345   3.974
   13SOL    HW2  939   2.827   6.204   4.005
   14SOL     OW  940   3.829   6.454   0.306
   14SOL    HW1  941   3.853   6.551   0.298
   14SOL    HW2  942   3.755   6.432   0.242
   15SOL     OW  943   1.068   6.717   0.058
   15SOL    HW1  944   1.068   6.619   0.079
   15SOL    HW2  945   0.990   6.760   0.104
   16SOL     OW  946   6.535   2.633   6.166
   16SOL    HW1  947   6.497   2.610   6.255
   16SOL    HW2  948   6.615   2.692   6.177
   17SOL     OW  949   5.233   6.502   4.101
   17SOL    HW1  950   5.233   6.556   4.018
   17SOL    HW2  951   5.154   6.526   4.157
   18SOL     OW  952   1.835   2.002   5.636
   18SOL    HW1  953   1.741   1.968   5.633
   18SOL    HW2  954   1.852   2.046   5.724
   19SOL     OW  955   0.380   6.926   2.700
   19SOL    HW1  956   0.317   7.002   2.684
   19SOL    HW2  957   0.471   6.962   2.718
   20SOL     OW  958   3.789   1.485   4.305
   20SOL    HW1  959   3.762   1.442   4.392
   20SOL    HW2  960   3.856   1.557   4.323
   21SOL     OW  961   2.967   1.443   1.367
   21SOL    HW1  962   2.874   1.458   1.332
   21SOL    HW2  963   3.032   1.495   1.313
   22SOL     OW  964   2.101   6.234   6.056
   22SOL    HW1  965   2.015   6.274   6.088
   22SOL    HW2  966   2.136   6.287   5.979
   23SOL     OW  967   4.558   6.757   4.199
   23SOL    HW1  968   4.486   6.695   4.167
   23SOL    HW2  969   4.646   6.709   4.196
   24SOL     OW  970   5.257   1.269   5.307
   24SOL    HW1  971   5.351   1.287   5.278
   24SOL    HW2  972   5.257   1.230   5.399
   25SOL     OW  973   4.030   5.681   0.363
   25SOL    HW1  974   4.043   5.613   0.291
   25SOL    HW2  975   3.936   5.714   0.361
   26SOL     OW  976   6.480   1.189   1.652
   26SOL    HW1  977   6.406   1.148   1.599
   26SOL    HW2  978   6.442   1.255   1.716
   27SOL     OW  979   6.005   0.208   2.834
   27SOL    HW1  980   6.076   0.268   2.871
   27SOL    HW2  981   5.931   0.200   2.901
   28SOL     OW  982   4.500   0.553   7.027
   28SOL    HW1  983   4.401   0.568   7.019
   28SOL    HW2  984   4.536   0.520   6.940
   29SOL     OW  985   4.568   2.561   1.413
   29SOL    HW1  986   4.589   2.515   1.328
   29SOL    HW2  987   4.648   2.611   1.445
   30SOL     OW  988   3.557   0.726   4.963
   30SOL    HW1  989   3.643   0.764   4.996
   30SOL    HW2  990   3.575   0.656   4.894
   31SOL     OW  991   0.661   1.070   5.063
   31SOL    HW1  992   0.713   1.153   5.080
   31SOL    HW2  993   0.567   1.082   5.094
   32SOL     OW  994   0.827   1.861   1.892
   32SOL    HW1  995   0.809   1.816   1.805
   32SOL    HW2  996   0.857   1.955   1.875
   33SOL     OW  997   1.970   2.493   6.601
   33SOL    HW1  998   1.940   2.398   6.592
   33SOL    HW2  999   1.910   2.553   6.549
   34SOL     OW 1000   2.319   0.145   4.696
   34SOL    HW1 1001   2.228   0.160   4.659
   34SOL    HW2 1002   2.312   0.111   4.790
   35SOL     OW 1003   5.076   1.679   0.114
   35SOL    HW1 1004   5.027   1.764   0.092
   35SOL    HW2 1005   5.028   1.601   0.073
   36SOL     OW 1006   1.706   1.214   5.723
   36SOL    HW1 1007   1.697   1.296   5.779
   36SOL    HW2 1008   1.704   1.133   5.781
   37SOL     OW 1009   3.120   6.453   1.329
   37SOL    HW1 1010   3.078   6.519   1.392
   37SOL    HW2 1011   3.161   6.502   1.252
   38SOL     OW 1012   7.023   6.522   3.533
   38SOL    HW1 1013   0.065   6.586   3.563
   38SOL    HW2 1014   6.943   6.573   3.503
   39SOL     OW 1015   6.862   3.235   5.243
   39SOL    HW1 1016   6.853   3.332   5.266
   39SOL    HW2 1017   6.852   3.180   5.326
   40SOL     OW 1018   6.033   0.674   2.673
   40SOL    HW1 1019   5.952   0.617   2.656
   40SOL    HW2 1020   6.090   0.675   2.591
   41SOL     OW 1021   1.477   6.693   5.073
   41SOL    HW1 1022   1.496   6.595   5.080
   41SOL    HW2 1023   1.466   6.717   4.976
   42SOL     OW 1024   3.667   0.568   6.754
   42SOL    HW1 1025   3.658   0.492   6.819
   42SOL    HW2 1026   3.764   0.584   6.735
   43SOL     OW 1027   5.571   6.401   5.284
   43SOL    HW1 1028   5.655   6.386   5.233
   43SOL    HW2 1029   5.583   6.370   5.378
   44SOL     OW 1030   0.162   2.605   6.381
   44SOL    HW1 1031   0.152   2.657   6.296
   44SOL    HW2 1032   0.253   2.619   6.418
   45SOL     OW 1033   2.479   1.280   2.233
   45SOL    HW1 1034   2.549   1.294   2.163
   45SOL    HW2 1035   2.389   1.304   2.196
   46SOL     OW 1036   1.783   3.921   4.505
   46SOL    HW1 1037   1.834   3.964   4.430
   46SOL    HW2 1038   1.770   3.824   4.485
   47SOL     OW 1039   6.820   4.675   3.340
   47SOL    HW1 1040   6.874   4.689   3.257
   47SOL    HW2 1041   6.768   4.590   3.331
   48SOL     OW 1042   0.206   2.261   5.253
   48SOL    HW1 1043   0.145   2.202   5.306
   48SOL    HW2 1044   0.201   2.355   5.288
   49SOL     OW 1045   4.548   3.578   0.860
   49SOL    HW1 1046   4.536   3.671   0.895
   49SOL    HW2 1047   4.645   3.556   0.857
   50SOL     OW 1048   6.380   3.714   4.611
   50SOL    HW1 1049   6.376   3.627   4.562
   50SOL    HW2 1050   6.471   3.726   4.650
   51SOL     OW 1051   3.314   4.931   3.186
   51SOL    HW1 1052   3.343   4.930   3.090
   51SOL    HW2 1053   3.226   4.884   3.195
   52SOL     OW 1054   3.095   1.425   2.115
   52SOL    HW1 1055   3.157   1.398   2.190
   52SOL    HW2 1056   3.124   1.381   2.030
   53SOL     OW 1057   4.979   6.825   4.496
   53SOL    HW1 1058   5.067   6.825   4.544
   53SOL    HW2 1059   4.983   6.887   4.418
   54SOL     OW 1060   3.411   5.052   5.710
   54SOL    HW1 1061   3.450   5.145   5.707
   54SOL    HW2 1062   3.347   5.041   5.634
   55SOL     OW 1063   3.930   1.675   6.224
   55SOL    HW1 1064   3.966   1.759   6.186
   55SOL    HW2 1065   3.898   1.615   6.151
   56SOL     OW 1066   1.025   0.419   2.401
   56SOL    HW1 1067   1.022   0.328   2.444
   56SOL    HW2 1068   0.934   0.444   2.370
   57SOL     OW 1069   4.975   0.987   0.777
   57SOL    HW1 1070   5.044   1.052   0.745
   57SOL    HW2 1071   4.914   0.962   0.701
   58SOL     OW 1072   0.213   6.082   6.515
   58SOL    HW1 1073   0.298   6.085   6.567
   58SOL    HW2 1074   0.197   6.172   6.474
   59SOL     OW 1075   1.145   0.526   6.079
   59SOL    HW1 1076   1.230   0.554   6.036
   59SOL    HW2 1077   1.164   0.466   6.157
   60SOL     OW 1078   4.492   6.883   5.236
   60SOL    HW1 1079   4.392   6.891   5.237
   60SOL    HW2 1080   4.522   6.864   5.142
   61SOL     OW 1081   4.959   0.301   3.937
   61SOL    HW1 1082   5.053   0.302   3.970
   61SOL    HW2 1083   4.941   0.216   3.889
   62SOL     OW 1084   1.836   0.523   3.774
   62SOL    HW1 1085   1.805   0.520   3.869
   62SOL    HW2 1086   1.903   0.596   3.762
   63SOL     OW 1087   6.447   2.993   3.204
   63SOL    HW1 1088   6.419   2.899   3.187
   63SOL    HW2 1089   6.500   3.027   3.127
   64SOL     OW 1090   6.128   3.909   6.390
   64SOL    HW1 1091   6.066   3.831   6.379
   64SOL    HW2 1092   6.120   3.944   6.483
   65SOL     OW 1093   6.952   4.615   4.885
   65SOL    HW1 1094   6.977   4.617   4.982
   65SOL    HW2 1095   6.931   4.707   4.854
   66SOL     OW 1096   3.350   0.448   0.099
   66SOL    HW1 1097   3.261   0.470   0.059
   66SOL    HW2 1098   3.349   0.353   0.130
   67SOL     OW 1099   5.688   5.903   4.992
   67SOL    HW1 1100   5.595   5.938   4.981
   67SOL    HW2 1101   5.717   5.916   5.087
   68SOL     OW 1102   6.079   1.903   6.133
   68SOL    HW1 1103   6.052   1.822   6.185
   68SOL    HW2 1104   6.003   1.967   6.127
   69SOL     OW 1105   2.765   4.440   6.189
   69SOL    HW1 1106   2.743   4.377   6.114
   69SOL    HW2 1107   2.697   4.433   6.261
   70SOL     OW 1108   6.909   5.713   2.539
   70SOL    HW1 1109   6.884   5.645   2.607
   70SOL    HW2 1110   6.833   5.727   2.475
   71SOL     OW 1111   1.982   2.786   3.297
   71SOL    HW1 1112   1.989   2.689   3.272
   71SOL    HW2 1113   2.010   2.798   3.392
   72SOL     OW 1114   2.701   5.345   3.814
   72SOL    HW1 1115   2.796   5.317   3.831
   72SOL    HW2 1116   2.673   5.317   3.723
   73SOL     OW 1117   3.711   1.799   0.463
   73SOL    HW1 1118   3.774   1.858   0.514
   73SOL    HW2 1119   3.659   1.856   0.398
   74SOL     OW 1120   5.113   6.594   6.586
   74SOL    HW1 1121   5.086   6.580   6.681
   74SOL    HW2 1122   5.065   6.674   6.549
   75SOL     OW 1123   3.738   5.785   5.691
   75SOL    HW1 1124   3.739   5.777   5.591
   75SOL    HW2 1125   3.769   5.877   5.717
   76SOL     OW 1126   1.758   2.480   1.253
   76SOL    HW1 1127   1.833   2.501   1.315
   76SOL    HW2 1128   1.793   2.469   1.160
   77SOL     OW 1129   6.150   5.127   5.200
   77SOL    HW1 1130   6.081   5.198   5.212
   77SOL    HW2 1131   6.202   5.145   5.116
   78SOL     OW 1132   6.504   6.072   5.960
   78SOL    HW1 1133   6.424   6.124   5.988
   78SOL    HW2 1134   6.492   6.041   5.866
   79SOL     OW 1135   3.505   6.990   0.526
   79SOL    HW1 1136   3.505   6.981   0.625
   79SOL    HW2 1137   3.483   6.902   0.484
   80SOL     OW 1138   0.009   1.588   4.563
   80SOL    HW1 1139   0.058   1.511   4.603
   80SOL    HW2 1140   0.032   1.672   4.612
   81SOL     OW 1141   1.656   0.969   2.993
   81SOL    HW1 1142   1.638   1.056   3.039
   81SOL    HW2 1143   1.569   0.921   2.980
   82SOL     OW 1144   6.525   4.915   6.793
   82SOL    HW1 1145   6.501   4.879   6.883
   82SOL    HW2 1146   6.593   4.855   6.751
   83SOL     OW 1147   0.050   6.388   0.571
   83SOL    HW1 1148   6.988   6.352   0.593
   83SOL    HW2 1149   0.117   6.314   0.574
   84SOL     OW 1150   5.219   3.802   2.260
   84SOL    HW1 1151   5.128   3.801   2.218
   84SOL    HW2 1152   5.214   3.758   2.350
   85SOL     OW 1153   0.662   1.624   5.452
   85SOL    HW1 1154   0.719   1.703   5.429
   85SOL    HW2 1155   0.592   1.652   5.518
   86SOL     OW 1156   0.347   0.384   5.610
   86SOL    HW1 1157   0.349   0.457   5.679
   86SOL    HW2 1158   0.438   0.374   5.569
   87SOL     OW 1159   4.492   2.322   0.446
   87SOL    HW1 1160   4.579   2.299   0.488
   87SOL    HW2 1161   4.423   2.253   0.471
   88SOL     OW 1162   5.365   1.059   0.960
   88SOL    HW1 1163   5.337   1.108   0.878
   88SOL    HW2 1164   5.458   1.086   0.985
   89SOL     OW 1165   1.773   2.954   6.480
   89SOL    HW1 1166   1.791   3.038   6.531
   89SOL    HW2 1167   1.727   2.888   6.539
   90SOL     OW 1168   6.226   6.178   3.979
   90SOL    HW1 1169   6.169   6.237   4.034
   90SOL    HW2 1170   6.172   6.102   3.943
   91SOL     OW 1171   4.876   4.591   4.307
   91SOL    HW1 1172   4.908   4.505   4.267
   91SOL    HW2 1173   4.789   4.576   4.354
   92SOL     OW 1174   3.172   4.563   0.986
   92SOL    HW1 1175   3.226   4.571   1.070
   92SOL    HW2 1176   3.091   4.621   0.993
   93SOL     OW 1177   3.936   5.017   5.936
   93SOL    HW1 1178   3.852   5.053   5.975
   93SOL    HW2 1179   3.977   4.952   6.000
   94SOL     OW 1180   2.991   5.854   7.026
   94SOL    HW1 1181   3.071   5.841   0.055
   94SOL    HW2 1182   2.913   5.884   0.053
   95SOL     OW 1183   0.400   0.315   4.071
   95SOL    HW1 1184   0.323   0.379   4.066
   95SOL    HW2 1185   0.477   0.352   4.020
   96SOL     OW 1186   2.226   0.261   5.261
   96SOL    HW1 1187   2.263   0.298   5.347
   96SOL    HW2 1188   2.133   0.226   5.277
   97SOL     OW 1189   5.875   3.644   4.212
   97SOL    HW1 1190   5.783   3.629   4.176
   97SOL    HW2 1191   5.871   3.664   4.310
   98SOL     OW 1192   4.991   2.529   6.094
   98SOL    HW1 1193   5.009   2.531   6.193
   98SOL    HW2 1194   5.078   2.528   6.045
   99SOL     OW 1195   3.660   2.692   0.767
   99SOL    HW1 1196   3.649   2.654   0.858
   99SOL    HW2 1197   3.593   2.650   0.705
  100SOL     OW 1198   0.417   6.361   6.448
  100SOL    HW1 1199   0.442   6.297   6.520
  100SOL    HW2 1200   0.500   6.400   6.407
  101SOL     OW 1201   0.620   6.150   4.315
  101SOL    HW1 1202   0.696   6.124   4.255
  101SOL    HW2 1203   0.656   6.193   4.397
  102SOL     OW 1204   3.571   0.608   3.203
  102SOL    HW1 1205   3.622   0.556   3.271
  102SOL    HW2 1206   3.578   0.706   3.224
  103SOL     OW 1207   4.359   2.411   1.494
  103SOL    HW1 1208   4.428   2.369   1.554
  103SOL    HW2 1209   4.403   2.472   1.429
  104SOL     OW 1210   6.671   5.631   2.319
  104SOL    HW1 1211   6.710   5.669   2.235
  104SOL    HW2 1212   6.610   5.698   2.361
  105SOL     OW 1213   6.322   1.218   6.726
  105SOL    HW1 1214   6.404   1.253   6.681
  105SOL    HW2 1215   6.341   1.128   6.766
  106SOL     OW 1216   2.558   6.061   6.471
  106SOL    HW1 1217   2.476   6.119   6.463
  106SOL    HW2 1218   2.595   6.043   6.380
  107SOL     OW 1219   1.150   2.637   0.967
  107SOL    HW1 1220   1.151   2.632   1.067
  107SOL    HW2 1221   1.243   2.620   0.933
  108SOL     OW 1222   4.816   4.833   6.874
  108SOL    HW1 1223   4.722   4.832   6.908
  108SOL    HW2 1224   4.832   4.917   6.822
  109SOL     OW 1225   0.614   0.260   0.709
  109SOL    HW1 1226   0.637   0.357   0.716
  109SOL    HW2 1227   0.626   0.216   0.798
  110SOL     OW 1228   3.663   6.042   5.788
  110SOL    HW1 1229   3.663   6.012   5.883
  110SOL    HW2 1230   3.570   6.046   5.753
  111SOL     OW 1231   3.739   0.669   3.529
  111SOL    HW1 1232   3.721   0.593   3.468
  111SOL    HW2 1233   3.782   0.635   3.613
  112SOL     OW 1234   6.145   5.628   5.765
  112SOL    HW1 1235   6.078   5.561   5.733
  112SOL    HW2 1236   6.124   5.652   5.860
  113SOL     OW 1237   6.780   4.685   3.750
  113SOL    HW1 1238   6.735   4.704   3.663
  113SOL    HW2 1239   6.766   4.589   3.775
  114SOL     OW 1240   0.528   6.835   0.535
  114SOL    HW1 1241   0.598   6.902   0.558
  114SOL    HW2 1242   0.530   6.760   0.601
  115SOL     OW 1243   4.675   1.286   4.138
  115SOL    HW1 1244   4.654   1.373   4.093
  115SOL    HW2 1245   4.685   1.301   4.236
  116SOL     OW 1246   6.192   5.000   2.226
  116SOL    HW1 1247   6.155   5.037   2.311
  116SOL    HW2 1248   6.198   4.900   2.234
  117SOL     OW 1249   1.206   0.700   6.542
  117SOL    HW1 1250   1.230   0.777   6.482
  117SOL    HW2 1251   1.145   0.638   6.493
  118SOL     OW 1252   0.466   0.609   1.775
  118SOL    HW1 1253   0.403   0.644   1.844
  118SOL    HW2 1254   0.416   0.547   1.713
  119SOL     OW 1255   6.829   2.681   6.521
  119SOL    HW1 1256   6.742   2.635   6.541
  119SOL    HW2 1257   6.889   2.673   6.601
  120SOL     OW 1258   6.203   6.743   0.891
  120SOL    HW1 1259   6.295   6.770   0.919
  120SOL    HW2 1260   6.195   6.644   0.895
  121SOL     OW 1261   2.533   3.820   6.338
  121SOL    HW1 1262   2.594   3.789   6.265
  121SOL    HW2 1263   2.508   3.743   6.396
  122SOL     OW 1264   1.109   3.590   5.186
  122SOL    HW1 1265   1.163   3.654   5.242
  122SOL    HW2 1266   1.121   3.612   5.089
  123SOL     OW 1267   6.856   1.606   1.436
  123SOL    HW1 1268   6.877   1.653   1.350
  123SOL    HW2 1269   6.939   1.561   1.470
  124SOL     OW 1270   5.324   3.243   7.029
  124SOL    HW1 1271   5.235   3.198   0.010
  124SOL    HW2 1272   5.394   3.174   7.009
  125SOL     OW 1273   1.627   2.431   2.023
  125SOL    HW1 1274   1.643   2.435   2.122
  125SOL    HW2 1275   1.532   2.405   2.007
  126SOL     OW 1276   2.535   4.501   0.852
  126SOL    HW1 1277   2.489   4.587   0.827
  126SOL    HW2 1278   2.470   4.440   0.896
  127SOL     OW 1279   0.076   5.312   5.903
  127SOL    HW1 1280   0.000   5.252   5.926
  127SOL    HW2 1281   0.115   5.285   5.815
  128SOL     OW 1282   4.488   3.021   1.485
  128SOL    HW1 1283   4.429   3.057   1.558
  128SOL    HW2 1284   4.525   2.932   1.512
  129SOL     OW 1285   3.366   3.838   6.213
  129SOL    HW1 1286   3.456   3.830   6.255
  129SOL    HW2 1287   3.367   3.795   6.123
  130SOL     OW 1288   1.093   0.903   3.973
  130SOL    HW1 1289   1.037   0.973   4.018
  130SOL    HW2 1290   1.141   0.943   3.895
  131SOL     OW 1291   4.700   1.461   2.656
  131SOL    HW1 1292   4.710   1.423   2.564
  131SOL    HW2 1293   4.618   1.518   2.660
  132SOL     OW 1294   0.801   2.873   1.586
  132SOL    HW1 1295   0.841   2.902   1.673
  132SOL    HW2 1296   0.847   2.919   1.510
  133SOL     OW 1297   6.028   6.097   2.699
  133SOL    HW1 1298   5.962   6.171   2.705
  133SOL    HW2 1299   6.099   6.120   2.632
  134SOL     OW 1300   6.787   3.277   3.291
  134SOL    HW1 1301   6.727   3.327   3.229
  134SOL    HW2 1302   6.733   3.212   3.345
  135SOL     OW 1303   5.253   1.593   3.836
  135SOL    HW1 1304   5.164   1.550   3.820
  135SOL    HW2 1305   5.314   1.570   3.760
  136SOL     OW 1306   5.556   4.177   5.602
  136SOL    HW1 1307   5.471   4.177   5.654
  136SOL    HW2 1308   5.541   4.219   5.512
  137SOL     OW 1309   5.338   0.077   5.748
  137SOL    HW1 1310   5.404   0.093   5.821
  137SOL    HW2 1311   5.291   0.163   5.726
  138SOL     OW 1312   6.766   4.785   4.566
  138SOL    HW1 1313   6.859   4.748   4.562
  138SOL    HW2 1314   6.758   4.862   4.503
  139SOL     OW 1315   2.957   4.970   5.341
  139SOL    HW1 1316   2.885   4.955   5.273
  139SOL    HW2 1317   2.947   5.061   5.381
  140SOL     OW 1318   5.263   5.249   4.008
  140SOL    HW1 1319   5.186   5.303   4.043
  140SOL    HW2 1320   5.314   5.211   4.085
  141SOL     OW 1321   1.072   1.825   4.854
  141SOL    HW1 1322   1.140   1.772   4.805
  141SOL    HW2 1323   1.010   1.869   4.789
  142SOL     OW 1324   1.384   6.159   1.664
  142SOL    HW1 1325   1.451   6.225   1.699
  142SOL    HW2 1326   1.429   6.094   1.604
  143SOL     OW 1327   5.043   5.063   2.381
  143SOL    HW1 1328   4.993   5.125   2.321
  143SOL    HW2 1329   5.031   4.969   2.348
  144SOL     OW 1330   1.557   6.786   6.498
  144SOL    HW1 1331   1.517   6.794   6.406
  144SOL    HW2 1332   1.656   6.799   6.491
  145SOL     OW 1333   0.419   5.547   0.726
  145SOL    HW1 1334   0.387   5.622   0.668
  145SOL    HW2 1335   0.341   5.488   0.749
  146SOL     OW 1336   5.022   6.675   0.247
  146SOL    HW1 1337   5.024   6.693   0.149
  146SOL    HW2 1338   5.086   6.601   0.269
  147SOL     OW 1339   6.672   2.918   0.485
  147SOL    HW1 1340   6.588   2.888   0.440
  147SOL    HW2 1341   6.751   2.899   0.425
  148SOL     OW 1342   0.987   4.982   5.763
  148SOL    HW1 1343   0.926   5.015   5.834
  148SOL    HW2 1344   0.997   4.882   5.770
  149SOL     OW 1345   3.019   1.131   4.513
  149SOL    HW1 1346   2.961   1.115   4.593
  149SOL    HW2 1347   2.975   1.199   4.454
  150SOL     OW 1348   6.808   4.973   6.855
  150SOL    HW1 1349   6.850   5.021   6.778
  150SOL    HW2 1350   6.752   4.898   6.822
  151SOL     OW 1351   3.852   1.524   1.345
  151SOL    HW1 1352   3.903   1.504   1.260
  151SOL    HW2 1353   3.755   1.508   1.330
  152SOL     OW 1354   3.033   0.804   4.628
  152SOL    HW1 1355   2.975   0.800   4.546
  152SOL    HW2 1356   3.005   0.883   4.683
  153SOL     OW 1357   2.315   0.885   2.852
  153SOL    HW1 1358   2.256   0.881   2.933
  153SOL    HW2 1359   2.295   0.968   2.800
  154SOL     OW 1360   6.925   2.289   1.890
  154SOL    HW1 1361   6.854   2.347   1.928
  154SOL    HW2 1362   6.985   2.344   1.832
  155SOL     OW 1363   0.042   0.762   3.004
  155SOL    HW1 1364   7.007   0.812   3.062
  155SOL    HW2 1365   0.117   0.822   2.978
  156SOL     OW 1366   6.212   1.671   1.370
  156SOL    HW1 1367   6.140   1.727   1.411
  156SOL    HW2 1368   6.175   1.624   1.290
  157SOL     OW 1369   6.152   3.518   2.757
  157SOL    HW1 1370   6.177   3.588   2.823
  157SOL    HW2 1371   6.211   3.438   2.769
  158SOL     OW 1372   3.007   0.995   2.758
  158SOL    HW1 1373   2.921   1.041   2.737
  158SOL    HW2 1374   3.030   1.010   2.854
  159SOL     OW 1375   4.694   4.483   1.819
  159SOL    HW1 1376   4.603   4.478   1.860
  159SOL    HW2 1377   4.712   4.399   1.767
  160SOL     OW 1378   6.631   4.395   5.844
  160SOL    HW1 1379   6.649   4.297   5.848
  160SOL    HW2 1380   6.703   4.441   5.792
  161SOL     OW 1381   2.286   4.950   5.116
  161SOL    HW1 1382   2.367   4.912   5.161
  161SOL    HW2 1383   2.314   5.027   5.057
  162SOL     OW 1384   4.842   5.958   0.748
  162SOL    HW1 1385   4.815   5.862   0.752
  162SOL    HW2 1386   4.776   6.008   0.692
  163SOL     OW 1387   4.276   6.719   1.640
  163SOL    HW1 1388   4.347   6.789   1.646
  163SOL    HW2 1389   4.224   6.732   1.555
  164SOL     OW 1390   6.225   3.548   0.928
  164SOL    HW1 1391   6.188   3.641   0.921
  164SOL    HW2 1392   6.215   3.515   1.022
  165SOL     OW 1393   4.871   3.689   6.582
  165SOL    HW1 1394   4.818   3.604   6.576
  165SOL    HW2 1395   4.897   3.719   6.490
  166SOL     OW 1396   0.170   6.423   2.850
  166SOL    HW1 1397   0.089   6.479   2.834
  166SOL    HW2 1398   0.142   6.333   2.884
  167SOL     OW 1399   6.696   2.308   6.971
  167SOL    HW1 1400   6.677   2.242   0.015
  167SOL    HW2 1401   6.653   2.278   6.886
  168SOL     OW 1402   2.099   5.265   0.926
  168SOL    HW1 1403   2.022   5.225   0.975
  168SOL    HW2 1404   2.167   5.298   0.991
  169SOL     OW 1405   2.190   0.300   2.211
  169SOL    HW1 1406   2.275   0.331   2.252
  169SOL    HW2 1407   2.182   0.336   2.118
  170SOL     OW 1408   0.085   1.926   3.666
  170SOL    HW1 1409   0.020   1.920   3.743
  170SOL    HW2 1410   0.171   1.882   3.692
  171SOL     OW 1411   3.946   3.696   0.530
  171SOL    HW1 1412   4.038   3.734   0.545
  171SOL    HW2 1413   3.922   3.704   0.434
  172SOL     OW 1414   6.723   2.147   5.242
  172SOL    HW1 1415   6.740   2.244   5.221
  172SOL    HW2 1416   6.810   2.099   5.252
  173SOL     OW 1417   6.936   6.617   4.749
  173SOL    HW1 1418   6.957   6.705   4.792
  173SOL    HW2 1419   7.017   6.584   4.700
  174SOL     OW 1420   2.647   5.227   3.547
  174SOL    HW1 1421   2.599   5.159   3.492
  174SOL    HW2 1422   2.716   5.273   3.491
  175SOL     OW 1423   1.849   5.992   2.001
  175SOL    HW1 1424   1.765   5.975   1.950
  175SOL    HW2 1425   1.853   5.931   2.080
  176SOL     OW 1426   2.025   4.225   1.404
  176SOL    HW1 1427   2.093   4.291   1.438
  176SOL    HW2 1428   1.939   4.273   1.387
  177SOL     OW 1429   4.745   2.202   3.118
  177SOL    HW1 1430   4.825   2.211   3.059
  177SOL    HW2 1431   4.663   2.191   3.061
  178SOL     OW 1432   4.759   4.517   6.556
  178SOL    HW1 1433   4.659   4.521   6.567
  178SOL    HW2 1434   4.802   4.517   6.646
  179SOL     OW 1435   3.228   0.527   0.642
  179SOL    HW1 1436   3.254   0.619   0.671
  179SOL    HW2 1437   3.136   0.506   0.676
  180SOL     OW 1438   0.928   0.940   6.644
  180SOL    HW1 1439   0.980   0.914   6.725
  180SOL    HW2 1440   0.901   1.036   6.653
  181SOL     OW 1441   3.583   2.191   6.189
  181SOL    HW1 1442   3.675   2.185   6.151
  181SOL    HW2 1443   3.516   2.191   6.114
  182SOL     OW 1444   4.072   2.262   4.232
  182SOL    HW1 1445   4.020   2.177   4.239
  182SOL    HW2 1446   4.084   2.286   4.135
  183SOL     OW 1447   4.715   1.084   1.581
  183SOL    HW1 1448   4.770   1.154   1.626
  183SOL    HW2 1449   4.747   0.994   1.609
  184SOL     OW 1450   1.518   4.805   3.235
  184SOL    HW1 1451   1.594   4.843   3.181
  184SOL    HW2 1452   1.540   4.811   3.332
  185SOL     OW 1453   1.768   3.599   6.429
  185SOL    HW1 1454   1.805   3.627   6.518
  185SOL    HW2 1455   1.759   3.680   6.370
  186SOL     OW 1456   5.842   0.225   3.085
  186SOL    HW1 1457   5.795   0.159   3.143
  186SOL    HW2 1458   5.914   0.270   3.138
  187SOL     OW 1459   5.548   0.780   4.068
  187SOL    HW1 1460   5.472   0.786   4.004
  187SOL    HW2 1461   5.514   0.799   4.161
  188SOL     OW 1462   6.082   2.461   3.239
  188SOL    HW1 1463   5.987   2.481   3.264
  188SOL    HW2 1464   6.091   2.364   3.216
  189SOL     OW 1465   2.210   4.887   2.772
  189SOL    HW1 1466   2.206   4.936   2.860
  189SOL    HW2 1467   2.129   4.908   2.719
  190SOL     OW 1468   4.039   1.275   5.272
  190SOL    HW1 1469   3.951   1.293   5.227
  190SOL    HW2 1470   4.112   1.321   5.222
  191SOL     OW 1471   6.033   5.888   6.393
  191SOL    HW1 1472   5.940   5.864   6.366
  191SOL    HW2 1473   6.040   5.889   6.493
  192SOL     OW 1474   6.594   0.161   2.014
  192SOL    HW1 1475   6.606   0.103   1.934
  192SOL    HW2 1476   6.538   0.240   1.990
  193SOL     OW 1477   5.375   3.497   7.008
  193SOL    HW1 1478   5.318   3.518   6.928
  193SOL    HW2 1479   5.375   3.399   7.024
  194SOL     OW 1480   2.895   1.037   3.068
  194SOL    HW1 1481   2.897   0.941   3.095
  194SOL    HW2 1482   2.814   1.081   3.107
  195SOL     OW 1483   1.690   5.583   3.751
  195SOL    HW1 1484   1.692   5.650   3.677
  195SOL    HW2 1485   1.721   5.626   3.836
  196SOL     OW 1486   1.610   1.959   6.649
  196SOL    HW1 1487   1.513   1.956   6.671
  196SOL    HW2 1488   1.629   2.040   6.594
  197SOL     OW 1489   1.873   1.115   1.161
  197SOL    HW1 1490   1.970   1.112   1.183
  197SOL    HW2 1491   1.821   1.141   1.243
  198SOL     OW 1492   3.701   1.412   3.170
  198SOL    HW1 1493   3.697   1.502   3.126
  198SOL    HW2 1494   3.789   1.369   3.149
  199SOL     OW 1495   1.025   2.395   3.974
  199SOL    HW1 1496   1.079   2.334   4.032
  199SOL    HW2 1497   0.989   2.470   4.030
  200SOL     OW 1498   0.246   2.621   0.520
  200SOL    HW1 1499   0.215   2.715   0.503
  200SOL    HW2 1500   0.224   2.596   0.614
  201SOL     OW 1501   0.553   0.386   5.925
  201SOL    HW1 1502   0.595   0.424   5.843
  201SOL    HW2 1503   0.611   0.404   6.004
  202SOL     OW 1504   4.571   0.351   6.067
  202SOL    HW1 1505   4.493   0.360   6.129
  202SOL    HW2 1506   4.546   0.293   5.989
  203SOL     OW 1507   5.507   3.232   5.429
  203SOL    HW1 1508   5.487   3.134   5.430
  203SOL    HW2 1509   5.431   3.281   5.387
  204SOL     OW 1510   7.016   0.468   6.141
  204SOL    HW1 1511   6.960   0.468   6.223
  204SOL    HW2 1512   0.078   0.504   6.162
  205SOL     OW 1513   0.906   2.786   2.078
  205SOL    HW1 1514   0.976   2.715   2.067
  205SOL    HW2 1515   0.835   2.774   2.008
  206SOL     OW 1516   0.303   3.269   0.862
  206SOL    HW1 1517   0.390   3.222   0.847
  206SOL    HW2 1518   0.307   3.320   0.948
  207SOL     OW 1519   4.918   1.852   3.673
  207SOL    HW1 1520   4.876   1.762   3.666
  207SOL    HW2 1521   4.904   1.902   3.587
  208SOL     OW 1522   1.155   4.093   4.807
  208SOL    HW1 1523   1.232   4.030   4.801
  208SOL    HW2 1524   1.069   4.042   4.798
  209SOL     OW 1525   6.725   4.854   2.455
  209SOL    HW1 1526   6.701   4.764   2.417
  209SOL    HW2 1527   6.663   4.923   2.418
  210SOL     OW 1528   4.659   2.201   0.219
  210SOL    HW1 1529   4.598   2.236   0.290
  210SOL    HW2 1530   4.640   2.247   0.133
  211SOL     OW 1531   1.428   0.445   3.340
  211SOL    HW1 1532   1.378   0.531   3.353
  211SOL    HW2 1533   1.467   0.442   3.248
  212SOL     OW 1534   1.617   4.161   3.289
  212SOL    HW1 1535   1.626   4.077   3.237
  212SOL    HW2 1536   1.591   4.140   3.383
  213SOL     OW 1537   2.199   5.404   1.142
  213SOL    HW1 1538   2.223   5.344   1.218
  213SOL    HW2 1539   2.100   5.415   1.139
  214SOL     OW 1540   4.682   5.872   2.492
  214SOL    HW1 1541   4.642   5.928   2.420
  214SOL    HW2 1542   4.739   5.929   2.551
  215SOL     OW 1543   2.419   4.995   2.013
  215SOL    HW1 1544   2.380   5.078   1.973
  215SOL    HW2 1545   2.444   4.931   1.940
  216SOL     OW 1546   1.295   0.026   2.089
  216SOL    HW1 1547   1.232   0.052   2.162
  216SOL    HW2 1548   1.361   6.988   2.124
  217SOL     OW 1549   1.612   3.950   6.658
  217SOL    HW1 1550   1.668   3.993   6.729
  217SOL    HW2 1551   1.620   4.002   6.573
  218SOL     OW 1552   0.676   2.328   5.661
  218SOL    HW1 1553   0.651   2.379   5.579
  218SOL    HW2 1554   0.772   2.301   5.656
  219SOL     OW 1555   3.844   0.887   0.792
  219SOL    HW1 1556   3.858   0.924   0.884
  219SOL    HW2 1557   3.932   0.861   0.753
  220SOL     OW 1558   3.162   0.007   0.472
  220SOL    HW1 1559   3.224   0.084   0.489
  220SOL    HW2 1560   3.155   6.981   0.555
  221SOL     OW 1561   5.047   5.437   1.068
  221SOL    HW1 1562   5.127   5.380   1.050
  221SOL    HW2 1563   5.069   5.533   1.047
  222SOL     OW 1564   2.182   4.260   6.168
  222SOL    HW1 1565   2.170   4.168   6.129
  222SOL    HW2 1566   2.279   4.281   6.176
  223SOL     OW 1567   6.364   2.692   5.278
  223SOL    HW1 1568   6.398   2.614   5.330
  223SOL    HW2 1569   6.428   2.769   5.288
  224SOL     OW 1570   2.145   1.629   5.904
  224SOL    HW1 1571   2.200   1.713   5.905
  224SOL    HW2 1572   2.161   1.578   5.988
  225SOL     OW 1573   4.990   3.854   6.169
  225SOL    HW1 1574   5.028   3.913   6.097
  225SOL    HW2 1575   4.902   3.891   6.198
  226SOL     OW 1576   1.148   1.707   6.343
  226SOL    HW1 1577   1.075   1.648   6.308
  226SOL    HW2 1578   1.201   1.744   6.267
  227SOL     OW 1579   2.112   3.770   2.440
  227SOL    HW1 1580   2.116   3.738   2.534
  227SOL    HW2 1581   2.202   3.804   2.413
  228SOL     OW 1582   1.570   0.315   2.868
  228SOL    HW1 1583   1.644   0.335   2.804
  228SOL    HW2 1584   1.558   0.216   2.876
  229SOL     OW 1585   5.140   4.696   6.674
  229SOL    HW1 1586   5.217   4.696   6.737
  229SOL    HW2 1587   5.139   4.781   6.621
  230SOL     OW 1588   4.627   5.952   4.871
  230SOL    HW1 1589   4.608   6.046   4.842
  230SOL    HW2 1590   4.581   5.888   4.809
  231SOL     OW 1591   4.909   1.462   0.006
  231SOL    HW1 1592   4.921   1.444   6.938
  231SOL    HW2 1593   4.848   1.394   0.046
  232SOL     OW 1594   1.281   2.234   6.031
  232SOL    HW1 1595   1.342   2.188   5.966
  232SOL    HW2 1596   1.199   2.266   5.983
  233SOL     OW 1597   2.770   1.566   3.721
  233SOL    HW1 1598   2.750   1.516   3.637
  233SOL    HW2 1599   2.869   1.570   3.735
  234SOL     OW 1600   4.980   1.258   6.208
  234SOL    HW1 1601   5.046   1.331   6.191
  234SOL    HW2 1602   4.900   1.271   6.149
  235SOL     OW 1603   4.962   3.123   2.223
  235SOL    HW1 1604   4.906   3.085   2.150
  235SOL    HW2 1605   5.056   3.092   2.214
  236SOL     OW 1606   4.234   3.758   6.476
  236SOL    HW1 1607   4.181   3.706   6.410
  236SOL    HW2 1608   4.214   3.855   6.466
  237SOL     OW 1609   5.863   3.925   2.393
  237SOL    HW1 1610   5.892   3.986   2.320
  237SOL    HW2 1611   5.767   3.899   2.380
  238SOL     OW 1612   6.058   1.523   0.373
  238SOL    HW1 1613   6.110   1.594   0.421
  238SOL    HW2 1614   6.084   1.433   0.409
  239SOL     OW 1615   1.406   4.030   0.603
  239SOL    HW1 1616   1.447   4.035   0.694
  239SOL    HW2 1617   1.466   4.076   0.537
  240SOL     OW 1618   6.156   3.791   3.309
  240SOL    HW1 1619   6.093   3.856   3.352
  240SOL    HW2 1620   6.240   3.839   3.284
  241SOL     OW 1621   2.972   1.350   4.152
  241SOL    HW1 1622   3.072   1.338   4.145
  241SOL    HW2 1623   2.944   1.331   4.247
  242SOL     OW 1624   3.443   4.053   3.578
  242SOL    HW1 1625   3.492   3.982   3.527
  242SOL    HW2 1626   3.349   4.060   3.545
  243SOL     OW 1627   4.750   2.817   6.258
  243SOL    HW1 1628   4.743   2.909   6.296
  243SOL    HW2 1629   4.783   2.754   6.328
  244SOL     OW 1630   6.198   3.549   6.042
  244SOL    HW1 1631   6.198   3.550   5.942
  244SOL    HW2 1632   6.236   3.463   6.075
  245SOL     OW 1633   3.185   1.975   2.730
  245SOL    HW1 1634   3.175   1.903   2.662
  245SOL    HW2 1635   3.105   1.976   2.791
  246SOL     OW 1636   6.089   1.440   3.590
  246SOL    HW1 1637   6.101   1.532   3.554
  246SOL    HW2 1638   6.177   1.404   3.621
  247SOL     OW 1639   2.271   1.834   0.693
  247SOL    HW1 1640   2.341   1.869   0.629
  247SOL    HW2 1641   2.227   1.754   0.653
  248SOL     OW 1642   1.977   1.689   2.166
  248SOL    HW1 1643   1.956   1.598   2.131
  248SOL    HW2 1644   2.050   1.682   2.235
  249SOL     OW 1645   5.504   6.855   4.771
  249SOL    HW1 1646   5.477   6.759   4.765
  249SOL    HW2 1647   5.450   6.901   4.841
  250SOL     OW 1648   3.356   2.880   0.403
  250SOL    HW1 1649   3.303   2.802   0.435
  250SOL    HW2 1650   3.334   2.898   0.307
  251SOL     OW 1651   4.288   3.775   5.248
  251SOL    HW1 1652   4.275   3.723   5.332
  251SOL    HW2 1653   4.352   3.726   5.188
  252SOL     OW 1654   6.106   6.486   5.847
  252SOL    HW1 1655   6.034   6.479   5.916
  252SOL    HW2 1656   6.067   6.516   5.761
  253SOL     OW 1657   4.273   5.194   5.883
  253SOL    HW1 1658   4.359   5.156   5.916
  253SOL    HW2 1659   4.227   5.126   5.825
  254SOL     OW 1660   6.056   2.786   4.382
  254SOL    HW1 1661   6.066   2.697   4.426
  254SOL    HW2 1662   5.963   2.796   4.348
  255SOL     OW 1663   2.302   4.845   6.048
  255SOL    HW1 1664   2.274   4.807   5.959
  255SOL    HW2 1665   2.232   4.910   6.079
  256SOL     OW 1666   4.780   3.065   5.590
  256SOL    HW1 1667   4.738   3.059   5.681
  256SOL    HW2 1668   4.725   3.126   5.533
  257SOL     OW 1669   4.920   6.203   3.104
  257SOL    HW1 1670   4.955   6.284   3.057
  257SOL    HW2 1671   4.954   6.121   3.058
  258SOL     OW 1672   2.663   3.598   6.143
  258SOL    HW1 1673   2.609   3.524   6.102
  258SOL    HW2 1674   2.726   3.635   6.076
  259SOL     OW 1675   4.316   0.017   2.644
  259SOL    HW1 1676   4.233   7.008   2.603
  259SOL    HW2 1677   4.325   7.013   2.738
  260SOL     OW 1678   4.148   5.325   3.631
  260SOL    HW1 1679   4.137   5.277   3.718
  260SOL    HW2 1680   4.205   5.270   3.569
  261SOL     OW 1681   4.698   5.115   0.610
  261SOL    HW1 1682   4.673   5.170   0.690
  261SOL    HW2 1683   4.616   5.078   0.568
  262SOL     OW 1684   2.180   4.167   0.647
  262SOL    HW1 1685   2.087   4.187   0.618
  262SOL    HW2 1686   2.184   4.077   0.690
  263SOL     OW 1687   1.403   6.780   4.230
  263SOL    HW1 1688   1.457   6.787   4.146
  263SOL    HW2 1689   1.425   6.857   4.290
  264SOL     OW 1690   0.144   3.132   6.732
  264SOL    HW1 1691   0.110   3.223   6.752
  264SOL    HW2 1692   0.067   3.070   6.718
  265SOL     OW 1693   5.674   0.149   3.786
  265SOL    HW1 1694   5.648   0.242   3.811
  265SOL    HW2 1695   5.678   0.093   3.869
  266SOL     OW 1696   4.876   2.162   5.298
  266SOL    HW1 1697   4.924   2.138   5.382
  266SOL    HW2 1698   4.927   2.128   5.219
  267SOL     OW 1699   1.186   0.470   5.117
  267SOL    HW1 1700   1.171   0.450   5.020
  267SOL    HW2 1701   1.103   0.507   5.157
  268SOL     OW 1702   3.619   1.163   0.883
  268SOL    HW1 1703   3.650   1.150   0.789
  268SOL    HW2 1704   3.692   1.140   0.946
  269SOL     OW 1705   3.452   2.225   0.402
  269SOL    HW1 1706   3.364   2.237   0.356
  269SOL    HW2 1707   3.510   2.305   0.386
  270SOL     OW 1708   0.066   6.752   0.301
  270SOL    HW1 1709   0.110   6.667   0.330
  270SOL    HW2 1710   7.000   6.734   0.276
  271SOL     OW 1711   0.286   2.048   6.212
  271SOL    HW1 1712   0.383   2.069   6.224
  271SOL    HW2 1713   0.233   2.094   6.283
  272SOL     OW 1714   3.054   6.137   3.797
  272SOL    HW1 1715   3.057   6.230   3.833
  272SOL    HW2 1716   3.125   6.126   3.727
  273SOL     OW 1717   2.116   5.249   5.563
  273SOL    HW1 1718   2.185   5.203   5.507
  273SOL    HW2 1719   2.118   5.347   5.544
  274SOL     OW 1720   4.163   0.904   4.340
  274SOL    HW1 1721   4.113   0.920   4.425
  274SOL    HW2 1722   4.185   0.992   4.298
  275SOL     OW 1723   0.329   6.747   3.051
  275SOL    HW1 1724   0.234   6.735   3.023
  275SOL    HW2 1725   0.353   6.844   3.050
  276SOL     OW 1726   0.067   0.206   4.452
  276SOL    HW1 1727   0.093   0.177   4.360
  276SOL    HW2 1728   0.148   0.236   4.502
  277SOL     OW 1729   2.280   2.864   0.751
  277SOL    HW1 1730   2.211   2.803   0.789
  277SOL    HW2 1731   2.343   2.812   0.694
  278SOL     OW 1732   7.000   2.531   2.700
  278SOL    HW1 1733   0.017   2.481   2.774
  278SOL    HW2 1734   6.919   2.577   2.736
  279SOL     OW 1735   5.747   2.505   3.971
  279SOL    HW1 1736   5.823   2.544   4.023
  279SOL    HW2 1737   5.707   2.429   4.023
  280SOL     OW 1738   1.932   5.015   1.952
  280SOL    HW1 1739   2.025   5.020   1.987
  280SOL    HW2 1740   1.875   4.965   2.018
  281SOL     OW 1741   2.207   3.765   0.891
  281SOL    HW1 1742   2.108   3.753   0.890
  281SOL    HW2 1743   2.229   3.862   0.907
  282SOL     OW 1744   3.351   1.699   5.996
  282SOL    HW1 1745   3.427   1.757   6.027
  282SOL    HW2 1746   3.360   1.681   5.899
  283SOL     OW 1747   5.191   2.838   6.415
  283SOL    HW1 1748   5.273   2.894   6.401
  283SOL    HW2 1749   5.144   2.826   6.328
  284SOL     OW 1750   0.586   3.201   3.714
  284SOL    HW1 1751   0.670   3.172   3.759
  284SOL    HW2 1752   0.508   3.155   3.755
  285SOL     OW 1753   5.726   4.526   3.646
  285SOL    HW1 1754   5.667   4.547   3.568
  285SOL    HW2 1755   5.822   4.539   3.620
  286SOL     OW 1756   3.219   3.753   6.850
  286SOL    HW1 1757   3.155   3.698   6.797
  286SOL    HW2 1758   3.203   3.738   6.948
  287SOL     OW 1759   1.928   3.951   1.053
  287SOL    HW1 1760   1.986   3.955   1.134
  287SOL    HW2 1761   1.937   3.860   1.011
  288SOL     OW 1762   4.609   1.801   0.114
  288SOL    HW1 1763   4.651   1.755   0.037
  288SOL    HW2 1764   4.679   1.834   0.176
  289SOL     OW 1765   2.594   4.683   5.976
  289SOL    HW1 1766   2.501   4.661   6.006
  289SOL    HW2 1767   2.654   4.606   5.996
  290SOL     OW 1768   0.211   2.221   5.913
  290SOL    HW1 1769   0.152   2.151   5.954
  290SOL    HW2 1770   0.232   2.291   5.981
  291SOL     OW 1771   6.996   1.522   2.638
  291SOL    HW1 1772   0.029   1.544   2.563
  291SOL    HW2 1773   6.960   1.607   2.677
  292SOL     OW 1774   2.178   0.666   3.232
  292SOL    HW1 1775   2.179   0.620   3.321
  292SOL    HW2 1776   2.223   0.608   3.164
  293SOL     OW 1777   4.283   5.344   4.412
  293SOL    HW1 1778   4.310   5.298   4.497
  293SOL    HW2 1779   4.352   5.326   4.342
  294SOL     OW 1780   5.353   6.486   6.466
  294SOL    HW1 1781   5.283   6.527   6.525
  294SOL    HW2 1782   5.324   6.493   6.371
  295SOL     OW 1783   4.832   0.720   3.726
  295SOL    HW1 1784   4.774   0.748   3.649
  295SOL    HW2 1785   4.824   0.788   3.799
  296SOL     OW 1786   3.012   2.254   3.474
  296SOL    HW1 1787   2.980   2.325   3.537
  296SOL    HW2 1788   3.110   2.269   3.455
  297SOL     OW 1789   1.433   3.805   3.501
  297SOL    HW1 1790   1.443   3.707   3.522
  297SOL    HW2 1791   1.512   3.854   3.538
  298SOL     OW 1792   6.276   5.120   1.102
  298SOL    HW1 1793   6.370   5.155   1.105
  298SOL    HW2 1794   6.244   5.120   1.007
  299SOL     OW 1795   6.544   2.363   4.867
  299SOL    HW1 1796   6.559   2.287   4.930
  299SOL    HW2 1797   6.591   2.444   4.900
  300SOL     OW 1798   6.032   0.618   3.269
  300SOL    HW1 1799   6.081   0.594   3.353
  300SOL    HW2 1800   6.060   0.709   3.240
  301SOL     OW 1801   5.379   3.637   6.116
  301SOL    HW1 1802   5.385   3.687   6.030
  301SOL    HW2 1803   5.468   3.639   6.162
  302SOL     OW 1804   0.669   0.099   3.739
  302SOL    HW1 1805   0.758   0.117   3.697
  302SOL    HW2 1806   0.668   0.138   3.831
  303SOL     OW 1807   4.981   0.705   3.447
  303SOL    HW1 1808   4.948   0.735   3.536
  303SOL    HW2 1809   5.063   0.757   3.422
  304SOL     OW 1810   2.370   0.181   3.633
  304SOL    HW1 1811   2.327   0.091   3.624
  304SOL    HW2 1812   2.440   0.178   3.703
  305SOL     OW 1813   1.508   3.296   0.601
  305SOL    HW1 1814   1.422   3.340   0.574
  305SOL    HW2 1815   1.512   3.290   0.701
  306SOL     OW 1816   2.092   1.097   3.990
  306SOL    HW1 1817   2.117   1.104   3.894
  306SOL    HW2 1818   2.030   1.020   4.003
  307SOL     OW 1819   3.829   0.439   1.220
  307SOL    HW1 1820   3.798   0.510   1.157
  307SOL    HW2 1821   3.924   0.415   1.199
  308SOL     OW 1822   0.984   6.022   3.894
  308SOL    HW1 1823   0.897   5.991   3.855
  308SOL    HW2 1824   1.051   5.949   3.887
  309SOL     OW 1825   3.455   5.058   5.038
  309SOL    HW1 1826   3.423   5.149   5.014
  309SOL    HW2 1827   3.467   5.003   4.956
  310SOL     OW 1828   0.434   6.541   5.715
  310SOL    HW1 1829   0.335   6.558   5.719
  310SOL    HW2 1830   0.461   6.486   5.793
  311SOL     OW 1831   0.525   6.326   1.152
  311SOL    HW1 1832   0.559   6.397   1.090
  311SOL    HW2 1833   0.425   6.329   1.154
  312SOL     OW 1834   4.813   2.093   4.785
  312SOL    HW1 1835   4.760   2.177   4.795
  312SOL    HW2 1836   4.771   2.020   4.839
  313SOL     OW 1837   1.486   4.178   1.568
  313SOL    HW1 1838   1.509   4.081   1.556
  313SOL    HW2 1839   1.416   4.186   1.639
  314SOL     OW 1840   3.822   6.221   0.794
  314SOL    HW1 1841   3.752   6.160   0.756
  314SOL    HW2 1842   3.786   6.266   0.876
  315SOL     OW 1843   0.494   2.176   3.315
  315SOL    HW1 1844   0.520   2.250   3.253
  315SOL    HW2 1845   0.543   2.092   3.289
  316SOL     OW 1846   2.630   2.479   3.833
  316SOL    HW1 1847   2.645   2.388   3.870
  316SOL    HW2 1848   2.654   2.548   3.902
  317SOL     OW 1849   0.137   1.739   6.681
  317SOL    HW1 1850   0.106   1.712   6.590
  317SOL    HW2 1851   0.127   1.662   6.744
  318SOL     OW 1852   2.159   4.488   0.721
  318SOL    HW1 1853   2.200   4.483   0.813
  318SOL    HW2 1854   2.196   4.414   0.665
  319SOL     OW 1855   1.622   6.212   0.921
  319SOL    HW1 1856   1.679   6.182   0.844
  319SOL    HW2 1857   1.551   6.144   0.938
  320SOL     OW 1858   6.016   3.742   0.583
  320SOL    HW1 1859   6.007   3.646   0.610
  320SOL    HW2 1860   6.098   3.754   0.527
  321SOL     OW 1861   1.998   2.652   1.438
  321SOL    HW1 1862   1.926   2.719   1.452
  321SOL    HW2 1863   2.087   2.698   1.437
  322SOL     OW 1864   3.726   3.173   5.267
  322SOL    HW1 1865   3.747   3.251   5.208
  322SOL    HW2 1866   3.810   3.142   5.312
  323SOL     OW 1867   0.562   3.840   1.905
  323SOL    HW1 1868   0.583   3.937   1.893
  323SOL    HW2 1869   0.582   3.791   1.820
  324SOL     OW 1870   0.901   2.280   4.739
  324SOL    HW1 1871   0.826   2.299   4.803
  324SOL    HW2 1872   0.988   2.287   4.788
  325SOL     OW 1873   2.390   2.583   1.937
  325SOL    HW1 1874   2.421   2.642   2.012
  325SOL    HW2 1875   2.468   2.533   1.899
  326SOL     OW 1876   1.605   5.004   6.542
  326SOL    HW1 1877   1.511   5.020   6.511
  326SOL    HW2 1878   1.604   4.939   6.618
  327SOL     OW 1879   6.302   5.231   5.015
  327SOL    HW1 1880   6.335   5.325   5.004
  327SOL    HW2 1881   6.376   5.167   4.995
  328SOL     OW 1882   3.925   5.427   2.463
  328SOL    HW1 1883   3.862   5.354   2.438
  328SOL    HW2 1884   3.942   5.425   2.561
  329SOL     OW 1885   3.206   3.696   3.014
  329SOL    HW1 1886   3.164   3.688   2.924
  329SOL    HW2 1887   3.242   3.788   3.026
  330SOL     OW 1888   3.476   0.336   1.942
  330SOL    HW1 1889   3.433   0.258   1.989
  330SOL    HW2 1890   3.409   0.378   1.881
  331SOL     OW 1891   5.175   5.378   6.037
  331SOL    HW1 1892   5.184   5.474   6.011
  331SOL    HW2 1893   5.266   5.336   6.040
  332SOL     OW 1894   3.463   1.983   2.724
  332SOL    HW1 1895   3.370   2.002   2.757
  332SOL    HW2 1896   3.462   1.974   2.624
  333SOL     OW 1897   4.283   6.165   6.228
  333SOL    HW1 1898   4.315   6.135   6.139
  333SOL    HW2 1899   4.208   6.230   6.217
  334SOL     OW 1900   4.204   7.027   2.262
  334SOL    HW1 1901   4.304   7.017   2.266
  334SOL    HW2 1902   4.181   0.073   2.200
  335SOL     OW 1903   2.767   6.713   3.488
  335SOL    HW1 1904   2.732   6.791   3.435
  335SOL    HW2 1905   2.717   6.630   3.462
  336SOL     OW 1906   2.794   0.861   3.840
  336SOL    HW1 1907   2.769   0.867   3.743
  336SOL    HW2 1908   2.760   0.941   3.888
  337SOL     OW 1909   6.635   3.960   1.371
  337SOL    HW1 1910   6.544   3.991   1.343
  337SOL    HW2 1911   6.644   3.863   1.348
  338SOL     OW 1912   3.178   2.962   1.373
  338SOL    HW1 1913   3.185   3.036   1.306
  338SOL    HW2 1914   3.167   3.001   1.465
  339SOL     OW 1915   4.317   6.481   3.117
  339SOL    HW1 1916   4.410   6.481   3.154
  339SOL    HW2 1917   4.295   6.390   3.083
  340SOL     OW 1918   4.818   3.995   4.262
  340SOL    HW1 1919   4.836   3.897   4.261
  340SOL    HW2 1920   4.791   4.025   4.170
  341SOL     OW 1921   5.275   5.194   4.515
  341SOL    HW1 1922   5.299   5.291   4.513
  341SOL    HW2 1923   5.358   5.138   4.513
  342SOL     OW 1924   6.340   4.376   0.791
  342SOL    HW1 1925   6.425   4.328   0.811
  342SOL    HW2 1926   6.358   4.474   0.783
  343SOL     OW 1927   3.084   0.249   2.424
  343SOL    HW1 1928   3.173   0.263   2.467
  343SOL    HW2 1929   3.091   0.264   2.326
  344SOL     OW 1930   2.929   5.426   0.513
  344SOL    HW1 1931   2.852   5.366   0.531
  344SOL    HW2 1932   2.971   5.454   0.599
  345SOL     OW 1933   0.808   6.822   5.128
  345SOL    HW1 1934   0.739   6.894   5.134
  345SOL    HW2 1935   0.765   6.736   5.101
  346SOL     OW 1936   1.340   0.100   3.189
  346SOL    HW1 1937   1.348   0.133   3.283
  346SOL    HW2 1938   1.430   0.070   3.157
  347SOL     OW 1939   4.969   6.793   6.393
  347SOL    HW1 1940   4.916   6.782   6.477
  347SOL    HW2 1941   4.949   6.882   6.352
  348SOL     OW 1942   3.878   5.350   1.713
  348SOL    HW1 1943   3.941   5.407   1.660
  348SOL    HW2 1944   3.798   5.404   1.739
  349SOL     OW 1945   1.056   4.859   2.086
  349SOL    HW1 1946   1.001   4.932   2.126
  349SOL    HW2 1947   1.126   4.899   2.026
  350SOL     OW 1948   4.402   3.499   1.170
  350SOL    HW1 1949   4.432   3.404   1.161
  350SOL    HW2 1950   4.425   3.533   1.262
  351SOL     OW 1951   3.333   1.852   0.367
  351SOL    HW1 1952   3.281   1.885   0.446
  351SOL    HW2 1953   3.422   1.897   0.364
  352SOL     OW 1954   3.014   0.748   6.589
  352SOL    HW1 1955   2.977   0.715   6.676
  352SOL    HW2 1956   2.942   0.795   6.538
  353SOL     OW 1957   2.303   5.967   1.351
  353SOL    HW1 1958   2.210   5.982   1.386
  353SOL    HW2 1959   2.356   6.051   1.361
  354SOL     OW 1960   4.951   1.627   1.251
  354SOL    HW1 1961   4.950   1.629   1.151
  354SOL    HW2 1962   4.909   1.542   1.283
  355SOL     OW 1963   0.017   2.471   2.442
  355SOL    HW1 1964   0.116   2.465   2.432
  355SOL    HW2 1965   7.024   2.494   2.537
  356SOL     OW 1966   4.285   5.562   3.628
  356SOL    HW1 1967   4.340   5.559   3.712
  356SOL    HW2 1968   4.233   5.477   3.619
  357SOL     OW 1969   0.377   5.224   5.478
  357SOL    HW1 1970   0.433   5.296   5.518
  357SOL    HW2 1971   0.283   5.255   5.470
  358SOL     OW 1972   5.654   0.436   1.447
  358SOL    HW1 1973   5.704   0.350   1.460
  358SOL    HW2 1974   5.642   0.453   1.349
  359SOL     OW 1975   1.489   1.599   1.908
  359SOL    HW1 1976   1.402   1.605   1.860
  359SOL    HW2 1977   1.524   1.506   1.903
  360SOL     OW 1978   4.052   6.855   0.385
  360SOL    HW1 1979   4.050   6.813   0.476
  360SOL    HW2 1980   4.143   6.892   0.367
  361SOL     OW 1981   4.736   0.045   2.605
  361SOL    HW1 1982   4.645   0.034   2.565
  361SOL    HW2 1983   4.792   0.102   2.545
  362SOL     OW 1984   3.168   3.334   0.958
  362SOL    HW1 1985   3.149   3.385   0.874
  362SOL    HW2 1986   3.198   3.397   1.029
  363SOL     OW 1987   4.240   4.657   4.178
  363SOL    HW1 1988   4.185   4.732   4.140
  363SOL    HW2 1989   4.188   4.572   4.173
  364SOL     OW 1990   1.240   5.420   5.949
  364SOL    HW1 1991   1.220   5.516   5.971
  364SOL    HW2 1992   1.247   5.367   6.034
  365SOL     OW 1993   4.568   6.405   1.821
  365SOL    HW1 1994   4.560   6.448   1.731
  365SOL    HW2 1995   4.571   6.306   1.810
  366SOL     OW 1996   5.766   0.699   0.030
  366SOL    HW1 1997   5.763   0.727   0.126
  366SOL    HW2 1998   5.800   0.775   7.004
  367SOL     OW 1999   5.217   2.792   0.886
  367SOL    HW1 2000   5.170   2.733   0.952
  367SOL    HW2 2001   5.313   2.804   0.914
  368SOL     OW 2002   1.095   4.686   5.126
  368SOL    HW1 2003   1.101   4.772   5.075
  368SOL    HW2 2004   1.050   4.617   5.070
  369SOL     OW 2005   1.068   3.731   2.009
  369SOL    HW1 2006   1.099   3.688   2.094
  369SOL    HW2 2007   1.146   3.768   1.959
  370SOL     OW 2008   3.704   1.374   5.956
  370SOL    HW1 2009   3.780   1.436   5.974
  370SOL    HW2 2010   3.675   1.383   5.860
  371SOL     OW 2011   4.106   2.772   6.832
  371SOL    HW1 2012   4.028   2.742   6.886
  371SOL    HW2 2013   4.113   2.872   6.837
  372SOL     OW 2014   0.786   6.297   6.317
  372SOL    HW1 2015   0.728   6.376   6.298
  372SOL    HW2 2016   0.775   6.270   6.413
  373SOL     OW 2017   0.105   6.884   0.538
  373SOL    HW1 2018   0.095   6.838   0.450
  373SOL    HW2 2019   0.173   6.957   0.530
  374SOL     OW 2020   3.192   0.904   1.482
  374SOL    HW1 2021   3.167   0.997   1.457
  374SOL    HW2 2022   3.235   0.904   1.572
  375SOL     OW 2023   0.088   4.608   2.941
  375SOL    HW1 2024   0.093   4.694   2.890
  375SOL    HW2 2025   0.172   4.556   2.927
  376SOL     OW 2026   2.210   2.837   3.862
  376SOL    HW1 2027   2.269   2.780   3.804
  376SOL    HW2 2028   2.214   2.932   3.830
  377SOL     OW 2029   4.976   1.493   3.866
  377SOL    HW1 2030   4.902   1.522   3.805
  377SOL    HW2 2031   4.953   1.519   3.960
  378SOL     OW 2032   5.010   2.770   4.992
  378SOL    HW1 2033   5.011   2.856   5.043
  378SOL    HW2 2034   5.087   2.713   5.020
  379SOL     OW 2035   6.312   3.803   1.113
  379SOL    HW1 2036   6.225   3.761   1.138
  379SOL    HW2 2037   6.380   3.732   1.095
  380SOL     OW 2038   0.888   2.397   1.069
  380SOL    HW1 2039   0.857   2.483   1.028
  380SOL    HW2 2040   0.966   2.415   1.129
  381SOL     OW 2041   3.531   3.483   1.056
  381SOL    HW1 2042   3.490   3.403   1.100
  381SOL    HW2 2043   3.490   3.567   1.092
  382SOL     OW 2044   2.978   6.000   0.515
  382SOL    HW1 2045   3.001   6.019   0.420
  382SOL    HW2 2046   2.938   5.909   0.522
  383SOL     OW 2047   6.469   2.489   0.003
  383SOL    HW1 2048   6.548   2.467   6.974
  383SOL    HW2 2049   6.450   2.587   7.025
  384SOL     OW 2050   1.467   5.669   5.352
  384SOL    HW1 2051   1.502   5.591   5.300
  384SOL    HW2 2052   1.536   5.741   5.356
  385SOL     OW 2053   4.483   5.473   0.672
  385SOL    HW1 2054   4.421   5.399   0.700
  385SOL    HW2 2055   4.572   5.460   0.716
  386SOL     OW 2056   3.381   6.440   5.782
  386SOL    HW1 2057   3.331   6.494   5.713
  386SOL    HW2 2058   3.461   6.397   5.739
  387SOL     OW 2059   0.345   0.422   5.304
  387SOL    HW1 2060   0.430   0.475   5.316
  387SOL    HW2 2061   0.367   0.332   5.266
  388SOL     OW 2062   6.995   2.285   4.706
  388SOL    HW1 2063   0.047   2.297   4.649
  388SOL    HW2 2064   6.991   2.190   4.739
  389SOL     OW 2065   4.359   4.544   1.569
  389SOL    HW1 2066   4.320   4.533   1.660
  389SOL    HW2 2067   4.456   4.565   1.576
  390SOL     OW 2068   3.566   1.979   0.344
  390SOL    HW1 2069   3.519   2.064   0.367
  390SOL    HW2 2070   3.644   1.999   0.284
  391SOL     OW 2071   3.218   4.188   5.467
  391SOL    HW1 2072   3.210   4.172   5.369
  391SOL    HW2 2073   3.192   4.282   5.488
  392SOL     OW 2074   1.438   3.487   1.576
  392SOL    HW1 2075   1.483   3.575   1.584
  392SOL    HW2 2076   1.502   3.414   1.601
  393SOL     OW 2077   1.199   4.197   1.730
  393SOL    HW1 2078   1.207   4.295   1.744
  393SOL    HW2 2079   1.199   4.150   1.819
  394SOL     OW 2080   0.064   0.872   6.494
  394SOL    HW1 2081   7.005   0.827   6.476
  394SOL    HW2 2082   0.058   0.926   6.577
  395SOL     OW 2083   5.447   4.646   1.075
  395SOL    HW1 2084   5.370   4.660   1.013
  395SOL    HW2 2085   5.513   4.584   1.032
  396SOL     OW 2086   1.928   0.934   1.498
  396SOL    HW1 2087   1.934   0.980   1.586
  396SOL    HW2 2088   1.984   0.982   1.430
  397SOL     OW 2089   4.420   2.091   5.283
  397SOL    HW1 2090   4.514   2.058   5.294
  397SOL    HW2 2091   4.417   2.156   5.207
  398SOL     OW 2092   1.431   1.279   4.172
  398SOL    HW1 2093   1.524   1.316   4.163
  398SOL    HW2 2094   1.375   1.310   4.096
  399SOL     OW 2095   5.668   6.425   4.006
  399SOL    HW1 2096   5.759   6.389   3.988
  399SOL    HW2 2097   5.622   6.444   3.919
  400SOL     OW 2098   5.865   0.284   4.369
  400SOL    HW1 2099   5.910   0.250   4.287
  400SOL    HW2 2100   5.931   0.336   4.424
  401SOL     OW 2101   0.291   4.974   5.793
  401SOL    HW1 2102   0.193   4.957   5.783
  401SOL    HW2 2103   0.310   5.012   5.883
  402SOL     OW 2104   6.036   1.206   3.113
  402SOL    HW1 2105   6.074   1.210   3.020
  402SOL    HW2 2106   6.095   1.257   3.175
  403SOL     OW 2107   3.043   1.261   5.199
  403SOL    HW1 2108   3.139   1.244   5.178
  403SOL    HW2 2109   3.030   1.263   5.299
  404SOL     OW 2110   3.339   5.421   3.731
  404SOL    HW1 2111   3.285   5.349   3.775
  404SOL    HW2 2112   3.436   5.401   3.742
  405SOL     OW 2113   2.065   4.848   3.928
  405SOL    HW1 2114   1.989   4.815   3.984
  405SOL    HW2 2115   2.151   4.830   3.975
  406SOL     OW 2116   0.144   5.847   5.368
  406SOL    HW1 2117   0.233   5.803   5.371
  406SOL    HW2 2118   0.150   5.930   5.312
  407SOL     OW 2119   2.002   3.071   4.297
  407SOL    HW1 2120   2.081   3.060   4.358
  407SOL    HW2 2121   1.918   3.069   4.351
  408SOL     OW 2122   2.315   1.738   3.653
  408SOL    HW1 2123   2.275   1.726   3.562
  408SOL    HW2 2124   2.355   1.829   3.660
  409SOL     OW 2125   0.622   3.319   2.637
  409SOL    HW1 2126   0.692   3.266   2.589
  409SOL    HW2 2127   0.573   3.260   2.701
  410SOL     OW 2128   1.396   1.146   1.244
  410SOL    HW1 2129   1.369   1.101   1.329
  410SOL    HW2 2130   1.481   1.104   1.210
  411SOL     OW 2131   7.022   3.042   1.715
  411SOL    HW1 2132   7.012   2.962   1.776
  411SOL    HW2 2133   0.018   3.122   1.769
  412SOL     OW 2134   1.323   5.059   2.549
  412SOL    HW1 2135   1.278   4.994   2.487
  412SOL    HW2 2136   1.270   5.067   2.633
  413SOL     OW 2137   5.783   6.025   2.423
  413SOL    HW1 2138   5.806   5.973   2.505
  413SOL    HW2 2139   5.743   6.113   2.449
  414SOL     OW 2140   1.729   6.476   3.155
  414SOL    HW1 2141   1.703   6.498   3.249
  414SOL    HW2 2142   1.650   6.439   3.106
  415SOL     OW 2143   6.166   1.037   0.404
  415SOL    HW1 2144   6.164   1.015   0.306
  415SOL    HW2 2145   6.252   1.005   0.443
  416SOL     OW 2146   5.436   3.560   4.950
  416SOL    HW1 2147   5.501   3.634   4.931
  416SOL    HW2 2148   5.478   3.493   5.011
  417SOL     OW 2149   2.255   1.716   6.307
  417SOL    HW1 2150   2.308   1.746   6.386
  417SOL    HW2 2151   2.278   1.622   6.284
  418SOL     OW 2152   4.066   7.010   4.652
  418SOL    HW1 2153   4.049   0.070   4.610
  418SOL    HW2 2154   3.987   6.986   4.709
  419SOL     OW 2155   0.316   0.134   0.710
  419SOL    HW1 2156   0.251   0.102   0.779
  419SOL    HW2 2157   0.345   0.227   0.731
  420SOL     OW 2158   4.224   0.916   6.692
  420SOL    HW1 2159   4.148   0.941   6.753
  420SOL    HW2 2160   4.193   0.919   6.597
  421SOL     OW 2161   5.263   4.165   2.647
  421SOL    HW1 2162   5.286   4.250   2.599
  421SOL    HW2 2163   5.164   4.149   2.642
  422SOL     OW 2164   5.156   2.649   1.528
  422SOL    HW1 2165   5.150   2.718   1.600
  422SOL    HW2 2166   5.112   2.564   1.559
  423SOL     OW 2167   3.626   0.935   6.494
  423SOL    HW1 2168   3.543   0.882   6.478
  423SOL    HW2 2169   3.648   0.988   6.412
  424SOL     OW 2170   1.213   3.891   4.143
  424SOL    HW1 2171   1.146   3.864   4.212
  424SOL    HW2 2172   1.296   3.837   4.156
  425SOL     OW 2173   2.942   1.029   6.437
  425SOL    HW1 2174   2.885   1.003   6.359
  425SOL    HW2 2175   3.038   1.011   6.417
  426SOL     OW 2176   2.492   2.188   4.235
  426SOL    HW1 2177   2.536   2.099   4.232
  426SOL    HW2 2178   2.561   2.260   4.245
  427SOL     OW 2179   4.189   2.079   3.074
  427SOL    HW1 2180   4.119   2.097   3.004
  427SOL    HW2 2181   4.171   1.990   3.116
  428SOL     OW 2182   2.882   2.150   6.025
  428SOL    HW1 2183   2.967   2.183   5.983
  428SOL    HW2 2184   2.850   2.069   5.977
  429SOL     OW 2185   0.225   5.552   4.160
  429SOL    HW1 2186   0.305   5.609   4.179
  429SOL    HW2 2187   0.142   5.607   4.169
  430SOL     OW 2188   1.563   6.947   3.787
  430SOL    HW1 2189   1.650   6.997   3.787
  430SOL    HW2 2190   1.548   6.908   3.696
  431SOL     OW 2191   2.319   1.725   1.675
  431SOL    HW1 2192   2.417   1.721   1.655
  431SOL    HW2 2193   2.268   1.718   1.589
  432SOL     OW 2194   4.723   1.951   1.288
  432SOL    HW1 2195   4.820   1.924   1.289
  432SOL    HW2 2196   4.716   2.050   1.299
  433SOL     OW 2197   1.511   5.509   1.165
  433SOL    HW1 2198   1.522   5.561   1.249
  433SOL    HW2 2199   1.526   5.412   1.183
  434SOL     OW 2200   4.828   5.674   3.747
  434SOL    HW1 2201   4.820   5.625   3.661
  434SOL    HW2 2202   4.925   5.686   3.770
  435SOL     OW 2203   3.718   1.670   5.741
  435SOL    HW1 2204   3.702   1.731   5.819
  435SOL    HW2 2205   3.730   1.725   5.659
  436SOL     OW 2206   4.813   6.739   2.938
  436SOL    HW1 2207   4.807   6.770   2.843
  436SOL    HW2 2208   4.785   6.812   2.999
  437SOL     OW 2209   6.393   0.815   4.800
  437SOL    HW1 2210   6.392   0.732   4.746
  437SOL    HW2 2211   6.481   0.826   4.845
  438SOL     OW 2212   0.404   4.695   2.479
  438SOL    HW1 2213   0.491   4.648   2.493
  438SOL    HW2 2214   0.329   4.629   2.482
  439SOL     OW 2215   0.043   0.651   4.705
  439SOL    HW1 2216   0.107   0.633   4.780
  439SOL    HW2 2217   6.999   0.584   4.707
  440SOL     OW 2218   4.279   1.671   0.492
  440SOL    HW1 2219   4.374   1.697   0.473
  440SOL    HW2 2220   4.255   1.702   0.584
  441SOL     OW 2221   0.482   4.445   2.650
  441SOL    HW1 2222   0.487   4.491   2.739
  441SOL    HW2 2223   0.543   4.366   2.650
  442SOL     OW 2224   5.522   2.641   5.527
  442SOL    HW1 2225   5.576   2.685   5.455
  442SOL    HW2 2226   5.507   2.705   5.602
  443SOL     OW 2227   5.131   3.059   1.936
  443SOL    HW1 2228   5.131   3.152   1.899
  443SOL    HW2 2229   5.221   3.038   1.973
  444SOL     OW 2230   4.357   1.477   1.787
  444SOL    HW1 2231   4.308   1.504   1.870
  444SOL    HW2 2232   4.455   1.491   1.800
  445SOL     OW 2233   1.592   5.183   2.511
  445SOL    HW1 2234   1.567   5.273   2.475
  445SOL    HW2 2235   1.513   5.122   2.505
  446SOL     OW 2236   5.643   6.917   1.421
  446SOL    HW1 2237   5.602   6.944   1.508
  446SOL    HW2 2238   5.725   6.862   1.439
  447SOL     OW 2239   6.055   4.670   0.758
  447SOL    HW1 2240   6.059   4.576   0.792
  447SOL    HW2 2241   6.117   4.680   0.680
  448SOL     OW 2242   2.986   6.724   3.271
  448SOL    HW1 2243   3.010   6.821   3.272
  448SOL    HW2 2244   2.901   6.710   3.321
  449SOL     OW 2245   1.663   3.677   5.002
  449SOL    HW1 2246   1.721   3.749   4.963
  449SOL    HW2 2247   1.662   3.684   5.101
  450SOL     OW 2248   0.015   5.245   3.591
  450SOL    HW1 2249   6.966   5.287   3.638
  450SOL    HW2 2250   0.098   5.259   3.645
  451SOL     OW 2251   0.883   1.901   1.345
  451SOL    HW1 2252   0.825   1.966   1.297
  451SOL    HW2 2253   0.926   1.840   1.280
  452SOL     OW 2254   4.810   5.631   2.482
  452SOL    HW1 2255   4.753   5.601   2.406
  452SOL    HW2 2256   4.783   5.723   2.510
  453SOL     OW 2257   3.234   0.939   6.406
  453SOL    HW1 2258   3.294   0.878   6.458
  453SOL    HW2 2259   3.172   0.885   6.350
  454SOL     OW 2260   6.641   3.292   6.250
  454SOL    HW1 2261   6.624   3.285   6.349
  454SOL    HW2 2262   6.738   3.307   6.234
  455SOL     OW 2263   5.563   5.041   5.654
  455SOL    HW1 2264   5.485   5.094   5.621
  455SOL    HW2 2265   5.533   4.948   5.676
  456SOL     OW 2266   2.489   1.344   2.948
  456SOL    HW1 2267   2.410   1.394   2.910
  456SOL    HW2 2268   2.460   1.252   2.974
  457SOL     OW 2269   2.331   6.737   0.010
  457SOL    HW1 2270   2.370   6.805   0.072
  457SOL    HW2 2271   2.238   6.763   7.014
  458SOL     OW 2272   2.872   1.826   3.199
  458SOL    HW1 2273   2.942   1.850   3.132
  458SOL    HW2 2274   2.880   1.887   3.278
  459SOL     OW 2275   3.982   0.370   3.309
  459SOL    HW1 2276   4.040   0.411   3.238
  459SOL    HW2 2277   4.021   0.282   3.337
  460SOL     OW 2278   0.892   1.516   6.188
  460SOL    HW1 2279   0.874   1.609   6.156
  460SOL    HW2 2280   0.805   1.468   6.202
  461SOL     OW 2281   1.250   4.884   5.518
  461SOL    HW1 2282   1.237   4.965   5.574
  461SOL    HW2 2283   1.162   4.852   5.484
  462SOL     OW 2284   3.672   4.106   4.620
  462SOL    HW1 2285   3.710   4.169   4.687
  462SOL    HW2 2286   3.579   4.080   4.647
  463SOL     OW 2287   5.136   6.264   3.454
  463SOL    HW1 2288   5.171   6.196   3.390
  463SOL    HW2 2289   5.036   6.257   3.458
  464SOL     OW 2290   3.983   5.070   6.555
  464SOL    HW1 2291   4.023   5.025   6.475
  464SOL    HW2 2292   4.003   5.167   6.552
  465SOL     OW 2293   0.740   3.927   1.131
  465SOL    HW1 2294   0.733   4.026   1.146
  465SOL    HW2 2295   0.833   3.906   1.099
  466SOL     OW 2296   4.031   5.362   4.696
  466SOL    HW1 2297   4.086   5.434   4.740
  466SOL    HW2 2298   3.948   5.346   4.749
  467SOL     OW 2299   6.214   6.913   2.115
  467SOL    HW1 2300   6.148   6.936   2.186
  467SOL    HW2 2301   6.178   6.941   2.026
  468SOL     OW 2302   2.875   6.186   6.359
  468SOL    HW1 2303   2.945   6.134   6.408
  468SOL    HW2 2304   2.802   6.124   6.330
  469SOL     OW 2305   3.016   4.884   4.544
  469SOL    HW1 2306   2.967   4.802   4.513
  469SOL    HW2 2307   3.023   4.949   4.469
  470SOL     OW 2308   2.387   4.433   2.764
  470SOL    HW1 2309   2.378   4.351   2.708
  470SOL    HW2 2310   2.330   4.506   2.728
  471SOL     OW 2311   1.497   2.339   4.228
  471SOL    HW1 2312   1.566   2.389   4.280
  471SOL    HW2 2313   1.524   2.243   4.220
  472SOL     OW 2314   5.598   3.662   6.434
  472SOL    HW1 2315   5.561   3.639   6.525
  472SOL    HW2 2316   5.555   3.746   6.401
  473SOL     OW 2317   6.435   2.835   1.799
  473SOL    HW1 2318   6.396   2.926   1.807
  473SOL    HW2 2319   6.361   2.767   1.794
  474SOL     OW 2320   4.709   6.522   4.222
  474SOL    HW1 2321   4.735   6.469   4.303
  474SOL    HW2 2322   4.792   6.553   4.175
  475SOL     OW 2323   5.714   1.725   0.247
  475SOL    HW1 2324   5.668   1.647   0.203
  475SOL    HW2 2325   5.684   1.810   0.203
  476SOL     OW 2326   1.000   4.070   0.818
  476SOL    HW1 2327   1.078   4.044   0.761
  476SOL    HW2 2328   0.928   4.109   0.761
  477SOL     OW 2329   1.709   4.881   3.856
  477SOL    HW1 2330   1.749   4.871   3.947
  477SOL    HW2 2331   1.691   4.978   3.838
  478SOL     OW 2332   4.923   6.123   2.349
  478SOL    HW1 2333   4.974   6.041   2.374
  478SOL    HW2 2334   4.938   6.143   2.252
  479SOL     OW 2335   3.333   4.153   3.300
  479SOL    HW1 2336   3.276   4.080   3.337
  479SOL    HW2 2337   3.279   4.236   3.289
  480SOL     OW 2338   1.028   0.760   2.826
  480SOL    HW1 2339   0.991   0.670   2.850
  480SOL    HW2 2340   0.968   0.832   2.861
  481SOL     OW 2341   0.326   0.013   0.479
  481SOL    HW1 2342   0.336   0.055   0.569
  481SOL    HW2 2343   0.409   6.990   0.458
  482SOL     OW 2344   4.057   4.961   1.937
  482SOL    HW1 2345   3.958   4.975   1.934
  482SOL    HW2 2346   4.076   4.871   1.976
  483SOL     OW 2347   6.017   2.495   4.130
  483SOL    HW1 2348   5.998   2.463   4.223
  483SOL    HW2 2349   6.042   2.417   4.073
  484SOL     OW 2350   2.756   4.780   3.722
  484SOL    HW1 2351   2.777   4.761   3.626
  484SOL    HW2 2352   2.657   4.789   3.734
  485SOL     OW 2353   5.664   3.092   1.082
  485SOL    HW1 2354   5.610   3.121   1.160
  485SOL    HW2 2355   5.758   3.124   1.092
  486SOL     OW 2356   5.852   6.116   6.466
  486SOL    HW1 2357   5.881   6.075   6.379
  486SOL    HW2 2358   5.913   6.084   6.539
  487SOL     OW 2359   0.203   6.464   5.884
  487SOL    HW1 2360   0.216   6.419   5.795
  487SOL    HW2 2361   0.110   6.448   5.916
  488SOL     OW 2362   2.011   5.600   3.747
  488SOL    HW1 2363   1.957   5.613   3.831
  488SOL    HW2 2364   1.958   5.546   3.682
  489SOL     OW 2365   1.960   5.777   6.196
  489SOL    HW1 2366   2.023   5.704   6.170
  489SOL    HW2 2367   1.998   5.829   6.272
  490SOL     OW 2368   0.894   3.729   4.518
  490SOL    HW1 2369   0.822   3.768   4.460
  490SOL    HW2 2370   0.892   3.630   4.511
  491SOL     OW 2371   0.177   2.906   0.478
  491SOL    HW1 2372   0.171   2.931   0.382
  491SOL    HW2 2373   0.147   2.983   0.535
  492SOL     OW 2374   1.062   2.561   5.873
  492SOL    HW1 2375   1.023   2.587   5.961
  492SOL    HW2 2376   1.124   2.633   5.842
  493SOL     OW 2377   1.969   5.509   4.865
  493SOL    HW1 2378   2.001   5.465   4.948
  493SOL    HW2 2379   1.870   5.525   4.872
  494SOL     OW 2380   2.658   6.906   4.397
  494SOL    HW1 2381   2.732   6.868   4.452
  494SOL    HW2 2382   2.698   6.964   4.325
  495SOL     OW 2383   3.593   4.117   6.530
  495SOL    HW1 2384   3.508   4.092   6.484
  495SOL    HW2 2385   3.575   4.189   6.597
  496SOL     OW 2386   4.921   1.432   3.039
  496SOL    HW1 2387   4.893   1.526   3.058
  496SOL    HW2 2388   4.848   1.384   2.990
  497SOL     OW 2389   4.760   1.707   0.382
  497SOL    HW1 2390   4.858   1.697   0.404
  497SOL    HW2 2391   4.719   1.617   0.371
  498SOL     OW 2392   0.082   6.787   1.167
  498SOL    HW1 2393   0.169   6.756   1.206
  498SOL    HW2 2394   0.006   6.746   1.217
  499SOL     OW 2395   3.085   6.068   0.267
  499SOL    HW1 2396   3.110   5.978   0.231
  499SOL    HW2 2397   3.076   6.133   0.191
  500SOL     OW 2398   5.471   2.203   6.997
  500SOL    HW1 2399   5.537   2.199   0.043
  500SOL    HW2 2400   5.399   2.268   7.019
  501SOL     OW 2401   0.955   1.545   4.664
  501SOL    HW1 2402   1.003   1.572   4.581
  501SOL    HW2 2403   0.888   1.616   4.688
  502SOL     OW 2404   2.740   4.195   6.839
  502SOL    HW1 2405   2.668   4.256   6.805
  502SOL    HW2 2406   2.770   4.227   6.929
  503SOL     OW 2407   3.858   4.883   0.968
  503SOL    HW1 2408   3.854   4.949   0.893
  503SOL    HW2 2409   3.953   4.859   0.987
  504SOL     OW 2410   6.681   6.049   1.434
  504SOL    HW1 2411   6.744   5.972   1.424
  504SOL    HW2 2412   6.673   6.073   1.531
  505SOL     OW 2413   5.062   5.749   5.399
  505SOL    HW1 2414   4.999   5.818   5.363
  505SOL    HW2 2415   5.107   5.702   5.323
  506SOL     OW 2416   4.230   5.233   2.690
  506SOL    HW1 2417   4.231   5.173   2.610
  506SOL    HW2 2418   4.138   5.272   2.701
  507SOL     OW 2419   3.051   0.653   1.407
  507SOL    HW1 2420   2.981   0.691   1.468
  507SOL    HW2 2421   3.133   0.709   1.412
  508SOL     OW 2422   0.362   3.926   2.938
  508SOL    HW1 2423   0.326   3.833   2.947
  508SOL    HW2 2424   0.292   3.992   2.967
  509SOL     OW 2425   4.712   0.559   5.863
  509SOL    HW1 2426   4.776   0.627   5.898
  509SOL    HW2 2427   4.683   0.499   5.937
  510SOL     OW 2428   6.698   3.727   6.878
  510SOL    HW1 2429   6.731   3.761   6.791
  510SOL    HW2 2430   6.605   3.760   6.894
  511SOL     OW 2431   0.603   2.080   0.384
  511SOL    HW1 2432   0.505   2.059   0.388
  511SOL    HW2 2433   0.652   1.999   0.350
  512SOL     OW 2434   0.424   2.103   4.111
  512SOL    HW1 2435   0.481   2.026   4.139
  512SOL    HW2 2436   0.482   2.178   4.080
  513SOL     OW 2437   4.979   0.980   3.189
  513SOL    HW1 2438   5.033   0.897   3.176
  513SOL    HW2 2439   5.029   1.059   3.152
  514SOL     OW 2440   5.629   0.910   4.645
  514SOL    HW1 2441   5.665   0.954   4.727
  514SOL    HW2 2442   5.644   0.812   4.649
  515SOL     OW 2443   3.876   0.291   5.829
  515SOL    HW1 2444   3.829   0.369   5.787
  515SOL    HW2 2445   3.975   0.307   5.824
  516SOL     OW 2446   2.053   5.926   2.489
  516SOL    HW1 2447   2.103   5.887   2.411
  516SOL    HW2 2448   2.080   6.022   2.500
  517SOL     OW 2449   3.029   5.840   1.508
  517SOL    HW1 2450   3.002   5.799   1.421
  517SOL    HW2 2451   2.948   5.874   1.556
  518SOL     OW 2452   2.123   4.010   4.209
  518SOL    HW1 2453   2.117   4.090   4.268
  518SOL    HW2 2454   2.144   3.929   4.264
  519SOL     OW 2455   6.775   0.656   1.811
  519SOL    HW1 2456   6.828   0.605   1.879
  519SOL    HW2 2457   6.829   0.666   1.728
  520SOL     OW 2458   1.990   4.198   0.899
  520SOL    HW1 2459   1.988   4.146   0.813
  520SOL    HW2 2460   1.959   4.140   0.974
  521SOL     OW 2461   6.677   6.518   5.109
  521SOL    HW1 2462   6.679   6.421   5.083
  521SOL    HW2 2463   6.666   6.574   5.028
  522SOL     OW 2464   3.731   4.553   1.474
  522SOL    HW1 2465   3.815   4.606   1.482
  522SOL    HW2 2466   3.725   4.488   1.550
  523SOL     OW 2467   0.873   0.185   0.606
  523SOL    HW1 2468   0.850   0.176   0.702
  523SOL    HW2 2469   0.813   0.127   0.551
  524SOL     OW 2470   6.549   1.968   1.494
  524SOL    HW1 2471   6.470   2.019   1.460
  524SOL    HW2 2472   6.579   2.007   1.581
  525SOL     OW 2473   0.685   3.386   4.685
  525SOL    HW1 2474   0.588   3.404   4.703
  525SOL    HW2 2475   0.695   3.293   4.650
  526SOL     OW 2476   3.608   0.370   3.753
  526SOL    HW1 2477   3.613   0.394   3.850
  526SOL    HW2 2478   3.600   0.271   3.744
  527SOL     OW 2479   0.277   1.288   0.639
  527SOL    HW1 2480   0.267   1.378   0.597
  527SOL    HW2 2481   0.374   1.264   0.643
  528SOL     OW 2482   6.884   2.862   4.647
  528SOL    HW1 2483   6.876   2.926   4.571
  528SOL    HW2 2484   6.795   2.848   4.690
  529SOL     OW 2485   1.820   0.018   0.140
  529SOL    HW1 2486   1.918   0.023   0.122
  529SOL    HW2 2487   1.781   6.967   0.094
  530SOL     OW 2488   3.520   4.580   1.043
  530SOL    HW1 2489   3.424   4.553   1.050
  530SOL    HW2 2490   3.534   4.628   0.956
  531SOL     OW 2491   1.841   0.316   0.565
  531SOL    HW1 2492   1.795   0.376   0.500
  531SOL    HW2 2493   1.826   0.221   0.539
  532SOL     OW 2494   1.410   2.285   6.247
  532SOL    HW1 2495   1.378   2.216   6.312
  532SOL    HW2 2496   1.369   2.268   6.157
  533SOL     OW 2497   4.056   0.248   4.036
  533SOL    HW1 2498   4.013   0.273   3.949
  533SOL    HW2 2499   4.153   0.272   4.032
  534SOL     OW 2500   2.282   4.285   2.070
  534SOL    HW1 2501   2.305   4.190   2.047
  534SOL    HW2 2502   2.339   4.347   2.016
  535SOL     OW 2503   5.074   3.359   3.796
  535SOL    HW1 2504   5.041   3.384   3.887
  535SOL    HW2 2505   5.126   3.274   3.802
  536SOL     OW 2506   6.503   6.977   2.174
  536SOL    HW1 2507   6.408   6.948   2.182
  536SOL    HW2 2508   6.512   0.013   2.098
  537SOL     OW 2509   3.106   1.853   3.737
  537SOL    HW1 2510   3.200   1.867   3.706
  537SOL    HW2 2511   3.044   1.907   3.679
  538SOL     OW 2512   3.545   5.056   5.314
  538SOL    HW1 2513   3.521   5.080   5.220
  538SOL    HW2 2514   3.466   5.018   5.361
  539SOL     OW 2515   0.930   6.944   0.195
  539SOL    HW1 2516   1.022   6.905   0.195
  539SOL    HW2 2517   0.867   6.882   0.242
  540SOL     OW 2518   1.377   0.259   4.065
  540SOL    HW1 2519   1.378   0.297   3.972
  540SOL    HW2 2520   1.290   0.283   4.109
  541SOL     OW 2521   4.647   5.538   3.925
  541SOL    HW1 2522   4.635   5.601   4.001
  541SOL    HW2 2523   4.699   5.584   3.852
  542SOL     OW 2524   3.489   0.460   5.172
  542SOL    HW1 2525   3.582   0.426   5.183
  542SOL    HW2 2526   3.490   0.545   5.119
  543SOL     OW 2527   6.217   2.374   3.822
  543SOL    HW1 2528   6.131   2.331   3.796
  543SOL    HW2 2529   6.237   2.354   3.918
  544SOL     OW 2530   1.554   3.423   1.292
  544SOL    HW1 2531   1.579   3.327   1.288
  544SOL    HW2 2532   1.458   3.433   1.266
  545SOL     OW 2533   5.991   0.065   1.470
  545SOL    HW1 2534   5.984   6.995   1.456
  545SOL    HW2 2535   6.056   0.103   1.404
  546SOL     OW 2536   0.161   4.504   2.593
  546SOL    HW1 2537   0.179   4.484   2.496
  546SOL    HW2 2538   0.240   4.475   2.647
  547SOL     OW 2539   4.867   1.017   6.302
  547SOL    HW1 2540   4.847   1.009   6.400
  547SOL    HW2 2541   4.905   1.108   6.284
  548SOL     OW 2542   3.950   2.141   0.312
  548SOL    HW1 2543   3.916   2.088   0.234
  548SOL    HW2 2544   3.897   2.226   0.321
  549SOL     OW 2545   6.026   1.218   1.389
  549SOL    HW1 2546   6.038   1.258   1.480
  549SOL    HW2 2547   6.115   1.196   1.350
  550SOL     OW 2548   0.286   6.114   3.348
  550SOL    HW1 2549   0.191   6.137   3.325
  550SOL    HW2 2550   0.300   6.016   3.340
  551SOL     OW 2551   6.077   0.615   0.231
  551SOL    HW1 2552   6.103   0.549   0.302
  551SOL    HW2 2553   6.001   0.671   0.265
  552SOL     OW 2554   0.420   5.687   5.473
  552SOL    HW1 2555   0.354   5.711   5.544
  552SOL    HW2 2556   0.486   5.762   5.463
  553SOL     OW 2557   3.062   1.454   0.134
  553SOL    HW1 2558   3.117   1.396   0.194
  553SOL    HW2 2559   3.118   1.530   0.101
  554SOL     OW 2560   5.268   6.433   1.009
  554SOL    HW1 2561   5.194   6.488   0.971
  554SOL    HW2 2562   5.233   6.379   1.086
  555SOL     OW 2563   1.414   3.679   5.770
  555SOL    HW1 2564   1.482   3.628   5.823
  555SOL    HW2 2565   1.327   3.678   5.818
  556SOL     OW 2566   5.907   0.531   4.104
  556SOL    HW1 2567   6.003   0.508   4.119
  556SOL    HW2 2568   5.853   0.448   4.102
  557SOL     OW 2569   6.791   4.143   6.705
  557SOL    HW1 2570   6.745   4.231   6.710
  557SOL    HW2 2571   6.772   4.090   6.787
  558SOL     OW 2572   3.036   3.940   2.457
  558SOL    HW1 2573   2.971   4.004   2.416
  558SOL    HW2 2574   2.994   3.849   2.463
  559SOL     OW 2575   6.725   6.200   5.852
  559SOL    HW1 2576   6.668   6.149   5.916
  559SOL    HW2 2577   6.705   6.170   5.759
  560SOL     OW 2578   6.884   3.218   4.243
  560SOL    HW1 2579   6.970   3.255   4.208
  560SOL    HW2 2580   6.818   3.211   4.169
  561SOL     OW 2581   0.815   3.051   0.166
  561SOL    HW1 2582   0.868   3.031   0.249
  561SOL    HW2 2583   0.863   3.122   0.113
  562SOL     OW 2584   4.202   0.020   5.091
  562SOL    HW1 2585   4.175   0.092   5.155
  562SOL    HW2 2586   4.230   0.061   5.004
  563SOL     OW 2587   1.558   0.674   4.397
  563SOL    HW1 2588   1.604   0.666   4.486
  563SOL    HW2 2589   1.583   0.762   4.355
  564SOL     OW 2590   6.823   1.533   6.437
  564SOL    HW1 2591   6.807   1.528   6.536
  564SOL    HW2 2592   6.877   1.454   6.408
  565SOL     OW 2593   3.452   3.409   3.799
  565SOL    HW1 2594   3.357   3.427   3.824
  565SOL    HW2 2595   3.461   3.314   3.769
  566SOL     OW 2596   2.949   0.807   3.498
  566SOL    HW1 2597   3.002   0.877   3.545
  566SOL    HW2 2598   2.851   0.821   3.516
  567SOL     OW 2599   2.327   2.603   5.694
  567SOL    HW1 2600   2.335   2.510   5.659
  567SOL    HW2 2601   2.351   2.668   5.621
  568SOL     OW 2602   0.594   6.359   0.037
  568SOL    HW1 2603   0.543   6.297   7.007
  568SOL    HW2 2604   0.552   6.450   0.036
  569SOL     OW 2605   6.240   2.454   0.173
  569SOL    HW1 2606   6.230   2.406   0.260
  569SOL    HW2 2607   6.336   2.453   0.145
  570SOL     OW 2608   2.378   0.303   6.376
  570SOL    HW1 2609   2.441   0.264   6.309
  570SOL    HW2 2610   2.422   0.380   6.422
  571SOL     OW 2611   1.940   4.689   1.860
  571SOL    HW1 2612   1.964   4.670   1.765
  571SOL    HW2 2613   2.023   4.711   1.911
  572SOL     OW 2614   2.981   0.589   4.354
  572SOL    HW1 2615   3.052   0.541   4.303
  572SOL    HW2 2616   3.005   0.686   4.362
  573SOL     OW 2617   0.184   1.035   5.342
  573SOL    HW1 2618   0.142   1.124   5.327
  573SOL    HW2 2619   0.247   1.040   5.419
  574SOL     OW 2620   2.513   1.867   5.679
  574SOL    HW1 2621   2.551   1.815   5.603
  574SOL    HW2 2622   2.546   1.962   5.674
  575SOL     OW 2623   4.032   2.985   0.155
  575SOL    HW1 2624   3.974   2.959   0.078
  575SOL    HW2 2625   4.028   2.913   0.226
  576SOL     OW 2626   2.350   2.775   2.899
  576SOL    HW1 2627   2.322   2.850   2.959
  576SOL    HW2 2628   2.269   2.722   2.871
  577SOL     OW 2629   0.829   1.041   1.882
  577SOL    HW1 2630   0.850   1.013   1.976
  577SOL    HW2 2631   0.745   0.996   1.852
  578SOL     OW 2632   2.402   6.681   6.483
  578SOL    HW1 2633   2.413   6.619   6.561
  578SOL    HW2 2634   2.329   6.746   6.503
  579SOL     OW 2635   2.154   3.778   2.148
  579SOL    HW1 2636   2.073   3.779   2.206
  579SOL    HW2 2637   2.169   3.686   2.113
  580SOL     OW 2638   4.534   5.777   4.699
  580SOL    HW1 2639   4.612   5.719   4.672
  580SOL    HW2 2640   4.461   5.769   4.632
  581SOL     OW 2641   1.682   2.800   4.349
  581SOL    HW1 2642   1.655   2.842   4.262
  581SOL    HW2 2643   1.630   2.841   4.424
  582SOL     OW 2644   5.052   5.492   4.023
  582SOL    HW1 2645   5.002   5.429   4.083
  582SOL    HW2 2646   5.070   5.577   4.072
  583SOL     OW 2647   4.176   5.946   5.824
  583SOL    HW1 2648   4.084   5.984   5.810
  583SOL    HW2 2649   4.168   5.856   5.869
  584SOL     OW 2650   4.941   0.694   5.067
  584SOL    HW1 2651   4.904   0.657   5.153
  584SOL    HW2 2652   4.969   0.789   5.082
  585SOL     OW 2653   2.920   0.832   1.969
  585SOL    HW1 2654   2.991   0.841   1.900
  585SOL    HW2 2655   2.849   0.769   1.936
  586SOL     OW 2656   4.004   0.408   0.961
  586SOL    HW1 2657   4.028   0.311   0.963
  586SOL    HW2 2658   3.906   0.418   0.942
  587SOL     OW 2659   4.865   2.055   1.612
  587SOL    HW1 2660   4.883   1.978   1.551
  587SOL    HW2 2661   4.800   2.028   1.683
  588SOL     OW 2662   1.966   5.362   3.179
  588SOL    HW1 2663   2.007   5.434   3.123
  588SOL    HW2 2664   1.867   5.370   3.176
  589SOL     OW 2665   2.924   5.765   1.275
  589SOL    HW1 2666   2.857   5.692   1.262
  589SOL    HW2 2667   2.895   5.846   1.224
  590SOL     OW 2668   4.354   2.101   0.611
  590SOL    HW1 2669   4.439   2.093   0.663
  590SOL    HW2 2670   4.279   2.060   0.663
  591SOL     OW 2671   3.297   6.208   4.449
  591SOL    HW1 2672   3.284   6.296   4.404
  591SOL    HW2 2673   3.238   6.203   4.530
  592SOL     OW 2674   3.791   2.155   4.391
  592SOL    HW1 2675   3.846   2.185   4.469
  592SOL    HW2 2676   3.694   2.168   4.413
  593SOL     OW 2677   3.216   2.424   6.453
  593SOL    HW1 2678   3.171   2.491   6.394
  593SOL    HW2 2679   3.179   2.433   6.546
  594SOL     OW 2680   4.889   1.285   1.673
  594SOL    HW1 2681   4.914   1.382   1.674
  594SOL    HW2 2682   4.944   1.237   1.741
  595SOL     OW 2683   5.854   5.883   2.659
  595SOL    HW1 2684   5.815   5.853   2.746
  595SOL    HW2 2685   5.926   5.951   2.676
  596SOL     OW 2686   5.998   4.743   3.978
  596SOL    HW1 2687   5.931   4.730   4.051
  596SOL    HW2 2688   6.085   4.702   4.004
  597SOL     OW 2689   2.450   0.634   6.493
  597SOL    HW1 2690   2.449   0.564   6.565
  597SOL    HW2 2691   2.371   0.694   6.504
  598SOL     OW 2692   2.943   3.462   4.185
  598SOL    HW1 2693   2.912   3.429   4.096
  598SOL    HW2 2694   3.023   3.409   4.215
  599SOL     OW 2695   1.079   4.649   1.624
  599SOL    HW1 2696   1.058   4.696   1.710
  599SOL    HW2 2697   1.148   4.579   1.640
  600SOL     OW 2698   6.343   3.542   4.986
  600SOL    HW1 2699   6.270   3.596   4.945
  600SOL    HW2 2700   6.431   3.588   4.974
  601SOL     OW 2701   1.481   6.407   5.439
  601SOL    HW1 2702   1.407   6.431   5.501
  601SOL    HW2 2703   1.517   6.316   5.464
  602SOL     OW 2704   2.040   0.023   3.850
  602SOL    HW1 2705   2.008   0.074   3.930
  602SOL    HW2 2706   2.137   0.045   3.834
  603SOL     OW 2707   1.263   1.421   5.195
  603SOL    HW1 2708   1.246   1.369   5.111
  603SOL    HW2 2709   1.262   1.519   5.175
  604SOL     OW 2710   6.474   2.196   1.988
  604SOL    HW1 2711   6.424   2.282   1.977
  604SOL    HW2 2712   6.419   2.133   2.042
  605SOL     OW 2713   6.614   6.604   1.406
  605SOL    HW1 2714   6.685   6.637   1.468
  605SOL    HW2 2715   6.598   6.672   1.335
  606SOL     OW 2716   3.720   6.842   4.409
  606SOL    HW1 2717   3.711   6.792   4.495
  606SOL    HW2 2718   3.686   6.785   4.334
  607SOL     OW 2719   1.694   4.295   6.212
  607SOL    HW1 2720   1.679   4.210   6.162
  607SOL    HW2 2721   1.635   4.367   6.175
  608SOL     OW 2722   2.790   1.220   5.383
  608SOL    HW1 2723   2.817   1.132   5.342
  608SOL    HW2 2724   2.777   1.208   5.481
  609SOL     OW 2725   3.414   2.873   2.055
  609SOL    HW1 2726   3.319   2.904   2.058
  609SOL    HW2 2727   3.428   2.815   1.975
  610SOL     OW 2728   4.802   3.570   1.422
  610SOL    HW1 2729   4.855   3.645   1.381
  610SOL    HW2 2730   4.854   3.484   1.413
  611SOL     OW 2731   3.333   0.157   2.549
  611SOL    HW1 2732   3.334   0.071   2.600
  611SOL    HW2 2733   3.394   0.223   2.593
  612SOL     OW 2734   4.185   4.827   5.092
  612SOL    HW1 2735   4.128   4.850   5.013
  612SOL    HW2 2736   4.133   4.846   5.176
  613SOL     OW 2737   4.554   4.789   5.565
  613SOL    HW1 2738   4.469   4.834   5.538
  613SOL    HW2 2739   4.631   4.836   5.521
  614SOL     OW 2740   3.553   5.678   5.861
  614SOL    HW1 2741   3.456   5.684   5.836
  614SOL    HW2 2742   3.608   5.727   5.794
  615SOL     OW 2743   0.924   5.092   2.227
  615SOL    HW1 2744   0.835   5.050   2.243
  615SOL    HW2 2745   0.912   5.187   2.198
  616SOL     OW 2746   6.504   3.815   3.655
  616SOL    HW1 2747   6.449   3.778   3.730
  616SOL    HW2 2748   6.571   3.747   3.625
  617SOL     OW 2749   3.323   5.946   6.313
  617SOL    HW1 2750   3.288   5.858   6.344
  617SOL    HW2 2751   3.346   6.003   6.392
  618SOL     OW 2752   1.499   1.115   2.629
  618SOL    HW1 2753   1.468   1.209   2.623
  618SOL    HW2 2754   1.502   1.087   2.725
  619SOL     OW 2755   0.543   1.153   0.083
  619SOL    HW1 2756   0.561   1.205   7.029
  619SOL    HW2 2757   0.506   1.214   0.153
  620SOL     OW 2758   4.656   3.836   1.244
  620SOL    HW1 2759   4.682   3.746   1.209
  620SOL    HW2 2760   4.631   3.828   1.341
  621SOL     OW 2761   0.455   4.818   1.474
  621SOL    HW1 2762   0.523   4.755   1.511
  621SOL    HW2 2763   0.496   4.908   1.461
  622SOL     OW 2764   1.202   0.197   0.045
  622SOL    HW1 2765   1.157   0.262   0.106
  622SOL    HW2 2766   1.149   0.187   6.990
  623SOL     OW 2767   0.545   4.655   6.256
  623SOL    HW1 2768   0.592   4.692   6.175
  623SOL    HW2 2769   0.542   4.555   6.248
  624SOL     OW 2770   0.355   2.361   2.088
  624SOL    HW1 2771   0.373   2.380   1.991
  624SOL    HW2 2772   0.259   2.375   2.108
  625SOL     OW 2773   2.381   1.028   1.980
  625SOL    HW1 2774   2.384   1.107   1.919
  625SOL    HW2 2775   2.392   0.944   1.926
  626SOL     OW 2776   3.123   6.620   4.446
  626SOL    HW1 2777   3.041   6.651   4.399
  626SOL    HW2 2778   3.150   6.531   4.411
  627SOL     OW 2779   4.601   1.105   6.988
  627SOL    HW1 2780   4.655   1.024   6.964
  627SOL    HW2 2781   4.507   1.093   6.953
  628SOL     OW 2782   5.081   3.984   3.894
  628SOL    HW1 2783   5.079   3.892   3.934
  628SOL    HW2 2784   5.172   4.022   3.904
  629SOL     OW 2785   1.734   6.248   0.346
  629SOL    HW1 2786   1.726   6.309   0.425
  629SOL    HW2 2787   1.830   6.246   0.316
  630SOL     OW 2788   3.679   1.992   0.938
  630SOL    HW1 2789   3.649   2.063   0.875
  630SOL    HW2 2790   3.771   2.014   0.971
  631SOL     OW 2791   2.344   6.743   5.098
  631SOL    HW1 2792   2.413   6.676   5.127
  631SOL    HW2 2793   2.365   6.774   5.006
  632SOL     OW 2794   1.782   1.360   1.023
  632SOL    HW1 2795   1.852   1.431   1.027
  632SOL    HW2 2796   1.823   1.272   1.044
  633SOL     OW 2797   2.293   0.251   6.044
  633SOL    HW1 2798   2.374   0.303   6.071
  633SOL    HW2 2799   2.258   0.287   5.957
  634SOL     OW 2800   3.662   5.981   0.123
  634SOL    HW1 2801   3.649   6.033   0.039
  634SOL    HW2 2802   3.714   6.035   0.189
  635SOL     OW 2803   2.641   0.784   3.156
  635SOL    HW1 2804   2.740   0.795   3.162
  635SOL    HW2 2805   2.609   0.824   3.069
  636SOL     OW 2806   5.314   5.240   0.407
  636SOL    HW1 2807   5.395   5.258   0.463
  636SOL    HW2 2808   5.315   5.299   0.327
  637SOL     OW 2809   5.220   4.661   0.931
  637SOL    HW1 2810   5.234   4.586   0.865
  637SOL    HW2 2811   5.162   4.629   1.005
  638SOL     OW 2812   5.456   1.608   2.722
  638SOL    HW1 2813   5.401   1.534   2.760
  638SOL    HW2 2814   5.550   1.600   2.757
  639SOL     OW 2815   4.085   4.752   2.099
  639SOL    HW1 2816   4.038   4.673   2.062
  639SOL    HW2 2817   4.169   4.723   2.145
  640SOL     OW 2818   3.079   4.143   5.809
  640SOL    HW1 2819   3.122   4.114   5.894
  640SOL    HW2 2820   3.146   4.190   5.751
  641SOL     OW 2821   6.712   5.845   4.931
  641SOL    HW1 2822   6.790   5.892   4.892
  641SOL    HW2 2823   6.713   5.749   4.901
  642SOL     OW 2824   1.533   5.071   5.897
  642SOL    HW1 2825   1.551   5.169   5.884
  642SOL    HW2 2826   1.561   5.044   5.989
  643SOL     OW 2827   5.624   6.529   4.896
  643SOL    HW1 2828   5.556   6.497   4.831
  643SOL    HW2 2829   5.641   6.458   4.964
  644SOL     OW 2830   1.603   6.250   2.119
  644SOL    HW1 2831   1.621   6.156   2.148
  644SOL    HW2 2832   1.678   6.281   2.061
  645SOL     OW 2833   6.114   3.610   3.580
  645SOL    HW1 2834   6.090   3.513   3.591
  645SOL    HW2 2835   6.186   3.634   3.646
  646SOL     OW 2836   1.631   1.617   4.840
  646SOL    HW1 2837   1.602   1.521   4.834
  646SOL    HW2 2838   1.561   1.669   4.889
  647SOL     OW 2839   5.720   3.287   0.461
  647SOL    HW1 2840   5.681   3.249   0.544
  647SOL    HW2 2841   5.716   3.219   0.387
  648SOL     OW 2842   5.628   2.209   2.868
  648SOL    HW1 2843   5.554   2.264   2.830
  648SOL    HW2 2844   5.686   2.267   2.925
  649SOL     OW 2845   4.200   4.795   1.716
  649SOL    HW1 2846   4.274   4.756   1.770
  649SOL    HW2 2847   4.113   4.752   1.741
  650SOL     OW 2848   3.920   4.084   1.002
  650SOL    HW1 2849   3.879   3.993   1.005
  650SOL    HW2 2850   3.977   4.092   0.920
  651SOL     OW 2851   0.700   5.340   6.133
  651SOL    HW1 2852   0.732   5.417   6.078
  651SOL    HW2 2853   0.601   5.347   6.144
  652SOL     OW 2854   3.727   1.091   2.621
  652SOL    HW1 2855   3.680   1.043   2.547
  652SOL    HW2 2856   3.683   1.068   2.708
  653SOL     OW 2857   3.975   5.372   3.410
  653SOL    HW1 2858   4.036   5.359   3.488
  653SOL    HW2 2859   4.026   5.408   3.332
  654SOL     OW 2860   6.272   4.783   0.348
  654SOL    HW1 2861   6.223   4.868   0.366
  654SOL    HW2 2862   6.370   4.800   0.343
  655SOL     OW 2863   1.007   0.912   0.330
  655SOL    HW1 2864   1.000   0.813   0.335
  655SOL    HW2 2865   0.925   0.949   0.286
  656SOL     OW 2866   2.639   6.078   2.147
  656SOL    HW1 2867   2.704   6.106   2.218
  656SOL    HW2 2868   2.586   6.158   2.117
  657SOL     OW 2869   3.626   1.336   6.825
  657SOL    HW1 2870   3.707   1.294   6.865
  657SOL    HW2 2871   3.654   1.408   6.761
  658SOL     OW 2872   3.717   5.151   6.029
  658SOL    HW1 2873   3.755   5.234   6.070
  658SOL    HW2 2874   3.642   5.176   5.967
  659SOL     OW 2875   2.351   0.009   6.703
  659SOL    HW1 2876   2.438   6.994   6.725
  659SOL    HW2 2877   2.364   0.108   6.697
  660SOL     OW 2878   4.052   5.580   3.228
  660SOL    HW1 2879   3.981   5.595   3.160
  660SOL    HW2 2880   4.033   5.635   3.310
  661SOL     OW 2881   5.735   5.474   2.788
  661SOL    HW1 2882   5.752   5.563   2.746
  661SOL    HW2 2883   5.813   5.414   2.770
  662SOL     OW 2884   3.583   1.277   0.264
  662SOL    HW1 2885   3.640   1.358   0.249
  662SOL    HW2 2886   3.563   1.268   0.362
  663SOL     OW 2887   2.511   4.592   5.094
  663SOL    HW1 2888   2.502   4.676   5.146
  663SOL    HW2 2889   2.533   4.516   5.156
  664SOL     OW 2890   6.188   1.058   0.137
  664SOL    HW1 2891   6.230   1.144   0.110
  664SOL    HW2 2892   6.106   1.042   0.082
  665SOL     OW 2893   2.294   5.411   2.541
  665SOL    HW1 2894   2.252   5.451   2.459
  665SOL    HW2 2895   2.269   5.314   2.547
  666SOL     OW 2896   3.834   0.950   1.831
  666SOL    HW1 2897   3.816   1.005   1.750
  666SOL    HW2 2898   3.829   0.853   1.807
  667SOL     OW 2899   1.219   6.705   2.503
  667SOL    HW1 2900   1.182   6.612   2.505
  667SOL    HW2 2901   1.212   6.743   2.411
  668SOL     OW 2902   5.389   3.588   0.509
  668SOL    HW1 2903   5.434   3.589   0.420
  668SOL    HW2 2904   5.457   3.605   0.581
  669SOL     OW 2905   4.940   1.563   2.259
  669SOL    HW1 2906   5.034   1.579   2.230
  669SOL    HW2 2907   4.910   1.637   2.319
  670SOL     OW 2908   2.678   1.904   2.956
  670SOL    HW1 2909   2.642   1.820   2.914
  670SOL    HW2 2910   2.730   1.880   3.038
  671SOL     OW 2911   3.548   6.646   0.987
  671SOL    HW1 2912   3.477   6.687   0.929
  671SOL    HW2 2913   3.638   6.676   0.956
  672SOL     OW 2914   1.210   6.727   2.224
  672SOL    HW1 2915   1.305   6.738   2.196
  672SOL    HW2 2916   1.160   6.677   2.154
  673SOL     OW 2917   5.851   6.802   0.358
  673SOL    HW1 2918   5.752   6.790   0.346
  673SOL    HW2 2919   5.887   6.731   0.418
  674SOL     OW 2920   6.827   1.255   4.311
  674SOL    HW1 2921   6.756   1.249   4.381
  674SOL    HW2 2922   6.917   1.242   4.352
  675SOL     OW 2923   6.777   2.697   2.719
  675SOL    HW1 2924   6.681   2.688   2.693
  675SOL    HW2 2925   6.816   2.780   2.678
  676SOL     OW 2926   2.486   5.797   6.057
  676SOL    HW1 2927   2.529   5.868   6.001
  676SOL    HW2 2928   2.543   5.778   6.137
  677SOL     OW 2929   5.044   1.288   0.964
  677SOL    HW1 2930   4.945   1.277   0.955
  677SOL    HW2 2931   5.066   1.331   1.052
  678SOL     OW 2932   1.839   4.865   4.762
  678SOL    HW1 2933   1.923   4.833   4.805
  678SOL    HW2 2934   1.771   4.885   4.833
  679SOL     OW 2935   5.140   1.972   5.219
  679SOL    HW1 2936   5.115   2.023   5.137
  679SOL    HW2 2937   5.191   2.032   5.281
  680SOL     OW 2938   5.198   0.141   4.249
  680SOL    HW1 2939   5.188   0.228   4.296
  680SOL    HW2 2940   5.293   0.129   4.220
  681SOL     OW 2941   4.214   5.075   2.472
  681SOL    HW1 2942   4.301   5.097   2.430
  681SOL    HW2 2943   4.149   5.044   2.402
  682SOL     OW 2944   0.675   0.970   3.324
  682SOL    HW1 2945   0.670   1.068   3.346
  682SOL    HW2 2946   0.582   0.936   3.306
  683SOL     OW 2947   4.230   3.708   1.056
  683SOL    HW1 2948   4.144   3.656   1.047
  683SOL    HW2 2949   4.301   3.647   1.089
  684SOL     OW 2950   6.737   0.921   6.521
  684SOL    HW1 2951   6.679   0.851   6.480
  684SOL    HW2 2952   6.741   0.906   6.620
  685SOL     OW 2953   3.275   0.378   2.819
  685SOL    HW1 2954   3.366   0.347   2.792
  685SOL    HW2 2955   3.274   0.478   2.825
  686SOL     OW 2956   4.805   0.463   4.750
  686SOL    HW1 2957   4.745   0.398   4.796
  686SOL    HW2 2958   4.894   0.466   4.797
  687SOL     OW 2959   0.949   1.965   3.941
  687SOL    HW1 2960   1.000   2.020   3.875
  687SOL    HW2 2961   0.866   1.930   3.899
  688SOL     OW 2962   6.688   1.152   6.927
  688SOL    HW1 2963   6.669   1.056   6.948
  688SOL    HW2 2964   6.694   1.164   6.828
  689SOL     OW 2965   1.523   5.575   5.753
  689SOL    HW1 2966   1.535   5.658   5.699
  689SOL    HW2 2967   1.497   5.499   5.694
  690SOL     OW 2968   5.838   3.641   2.195
  690SOL    HW1 2969   5.801   3.603   2.280
  690SOL    HW2 2970   5.787   3.722   2.169
  691SOL     OW 2971   5.428   1.516   0.747
  691SOL    HW1 2972   5.351   1.485   0.692
  691SOL    HW2 2973   5.394   1.557   0.831
  692SOL     OW 2974   2.219   0.603   4.946
  692SOL    HW1 2975   2.281   0.552   4.887
  692SOL    HW2 2976   2.164   0.666   4.891
  693SOL     OW 2977   5.425   6.086   3.709
  693SOL    HW1 2978   5.429   5.989   3.686
  693SOL    HW2 2979   5.500   6.134   3.663
  694SOL     OW 2980   4.467   6.595   5.290
  694SOL    HW1 2981   4.484   6.690   5.263
  694SOL    HW2 2982   4.553   6.551   5.313
  695SOL     OW 2983   3.306   0.434   3.861
  695SOL    HW1 2984   3.403   0.414   3.876
  695SOL    HW2 2985   3.297   0.518   3.809
  696SOL     OW 2986   5.467   4.526   3.118
  696SOL    HW1 2987   5.538   4.576   3.168
  696SOL    HW2 2988   5.382   4.527   3.171
  697SOL     OW 2989   0.976   5.803   1.977
  697SOL    HW1 2990   0.922   5.883   2.003
  697SOL    HW2 2991   1.069   5.833   1.954
  698SOL     OW 2992   5.887   6.480   0.320
  698SOL    HW1 2993   5.871   6.487   0.221
  698SOL    HW2 2994   5.981   6.509   0.340
  699SOL     OW 2995   2.560   2.681   0.979
  699SOL    HW1 2996   2.639   2.712   0.926
  699SOL    HW2 2997   2.591   2.644   1.067
  700SOL     OW 2998   3.358   0.650   3.485
  700SOL    HW1 2999   3.366   0.750   3.488
  700SOL    HW2 3000   3.287   0.621   3.549
  701SOL     OW 3001   5.491   5.251   1.340
  701SOL    HW1 3002   5.413   5.189   1.329
  701SOL    HW2 3003   5.576   5.199   1.343
  702SOL     OW 3004   3.432   1.013   4.477
  702SOL    HW1 3005   3.375   1.083   4.520
  702SOL    HW2 3006   3.387   0.978   4.395
  703SOL     OW 3007   2.881   2.181   6.291
  703SOL    HW1 3008   2.875   2.088   6.329
  703SOL    HW2 3009   2.914   2.176   6.197
  704SOL     OW 3010   1.473   2.613   5.541
  704SOL    HW1 3011   1.502   2.629   5.635
  704SOL    HW2 3012   1.496   2.693   5.485
  705SOL     OW 3013   0.257   6.548   5.192
  705SOL    HW1 3014   0.261   6.602   5.276
  705SOL    HW2 3015   0.228   6.455   5.214
  706SOL     OW 3016   4.424   1.063   5.228
  706SOL    HW1 3017   4.468   1.148   5.255
  706SOL    HW2 3018   4.436   1.048   5.130
  707SOL     OW 3019   3.535   5.252   4.200
  707SOL    HW1 3020   3.529   5.157   4.231
  707SOL    HW2 3021   3.455   5.302   4.233
  708SOL     OW 3022   3.975   6.594   4.090
  708SOL    HW1 3023   3.991   6.566   4.185
  708SOL    HW2 3024   3.899   6.542   4.051
  709SOL     OW 3025   2.915   6.890   1.575
  709SOL    HW1 3026   2.816   6.898   1.585
  709SOL    HW2 3027   2.951   6.970   1.527
  710SOL     OW 3028   4.657   2.799   1.734
  710SOL    HW1 3029   4.753   2.775   1.716
  710SOL    HW2 3030   4.653   2.862   1.811
  711SOL     OW 3031   0.346   2.320   6.559
  711SOL    HW1 3032   0.438   2.359   6.561
  711SOL    HW2 3033   0.310   2.321   6.466
  712SOL     OW 3034   5.265   4.465   0.765
  712SOL    HW1 3035   5.312   4.496   0.683
  712SOL    HW2 3036   5.234   4.371   0.753
  713SOL     OW 3037   4.057   2.673   5.340
  713SOL    HW1 3038   4.093   2.679   5.433
  713SOL    HW2 3039   4.114   2.611   5.286
  714SOL     OW 3040   5.388   5.283   3.013
  714SOL    HW1 3041   5.318   5.240   3.071
  714SOL    HW2 3042   5.453   5.213   2.982
  715SOL     OW 3043   6.304   5.384   5.377
  715SOL    HW1 3044   6.279   5.415   5.469
  715SOL    HW2 3045   6.368   5.308   5.383
  716SOL     OW 3046   1.782   2.106   3.086
  716SOL    HW1 3047   1.799   2.162   3.004
  716SOL    HW2 3048   1.731   2.160   3.153
  717SOL     OW 3049   5.195   3.860   4.208
  717SOL    HW1 3050   5.158   3.774   4.173
  717SOL    HW2 3051   5.283   3.879   4.164
  718SOL     OW 3052   6.087   1.473   5.574
  718SOL    HW1 3053   6.003   1.523   5.555
  718SOL    HW2 3054   6.163   1.515   5.524
  719SOL     OW 3055   5.258   0.464   3.382
  719SOL    HW1 3056   5.176   0.432   3.430
  719SOL    HW2 3057   5.272   0.409   3.300
  720SOL     OW 3058   2.825   1.400   0.689
  720SOL    HW1 3059   2.856   1.330   0.625
  720SOL    HW2 3060   2.790   1.356   0.772
  721SOL     OW 3061   0.272   1.587   3.367
  721SOL    HW1 3062   0.270   1.508   3.305
  721SOL    HW2 3063   0.356   1.639   3.352
  722SOL     OW 3064   4.696   6.629   0.434
  722SOL    HW1 3065   4.676   6.600   0.528
  722SOL    HW2 3066   4.767   6.570   0.396
  723SOL     OW 3067   2.635   5.648   3.845
  723SOL    HW1 3068   2.542   5.683   3.854
  723SOL    HW2 3069   2.635   5.549   3.859
  724SOL     OW 3070   1.052   1.584   4.401
  724SOL    HW1 3071   1.147   1.614   4.395
  724SOL    HW2 3072   1.045   1.488   4.375
  725SOL     OW 3073   1.472   3.766   2.667
  725SOL    HW1 3074   1.393   3.714   2.633
  725SOL    HW2 3075   1.440   3.846   2.717
  726SOL     OW 3076   1.919   4.269   0.562
  726SOL    HW1 3077   1.904   4.368   0.567
  726SOL    HW2 3078   1.835   4.222   0.588
  727SOL     OW 3079   4.453   5.906   5.336
  727SOL    HW1 3080   4.497   5.936   5.421
  727SOL    HW2 3081   4.516   5.918   5.260
  728SOL     OW 3082   6.751   3.764   3.936
  728SOL    HW1 3083   6.821   3.831   3.913
  728SOL    HW2 3084   6.782   3.673   3.908
  729SOL     OW 3085   0.573   4.233   1.386
  729SOL    HW1 3086   0.612   4.292   1.457
  729SOL    HW2 3087   0.638   4.226   1.309
  730SOL     OW 3088   4.529   0.600   3.297
  730SOL    HW1 3089   4.490   0.589   3.205
  730SOL    HW2 3090   4.596   0.528   3.313
  731SOL     OW 3091   4.522   5.278   6.247
  731SOL    HW1 3092   4.532   5.253   6.150
  731SOL    HW2 3093   4.484   5.370   6.254
  732SOL     OW 3094   4.649   1.667   4.763
  732SOL    HW1 3095   4.580   1.603   4.728
  732SOL    HW2 3096   4.729   1.666   4.703
  733SOL     OW 3097   6.166   6.361   3.328
  733SOL    HW1 3098   6.217   6.418   3.263
  733SOL    HW2 3099   6.176   6.265   3.303
  734SOL     OW 3100   6.059   6.405   2.295
  734SOL    HW1 3101   6.079   6.307   2.303
  734SOL    HW2 3102   5.960   6.418   2.289
  735SOL     OW 3103   4.668   0.489   2.555
  735SOL    HW1 3104   4.599   0.556   2.582
  735SOL    HW2 3105   4.759   0.532   2.558
  736SOL     OW 3106   1.825   1.653   4.039
  736SOL    HW1 3107   1.770   1.676   4.119
  736SOL    HW2 3108   1.915   1.695   4.047
  737SOL     OW 3109   4.518   1.184   6.400
  737SOL    HW1 3110   4.533   1.088   6.424
  737SOL    HW2 3111   4.500   1.191   6.302
  738SOL     OW 3112   1.839   4.693   0.849
  738SOL    HW1 3113   1.851   4.623   0.920
  738SOL    HW2 3114   1.826   4.782   0.893
  739SOL     OW 3115   2.990   0.109   4.372
  739SOL    HW1 3116   2.927   0.052   4.319
  739SOL    HW2 3117   2.938   0.177   4.423
  740SOL     OW 3118   5.629   3.462   2.666
  740SOL    HW1 3119   5.594   3.501   2.751
  740SOL    HW2 3120   5.619   3.362   2.668
  741SOL     OW 3121   2.188   0.930   3.083
  741SOL    HW1 3122   2.186   0.843   3.133
  741SOL    HW2 3123   2.098   0.974   3.091
  742SOL     OW 3124   1.924   6.898   1.892
  742SOL    HW1 3125   1.967   6.982   1.924
  742SOL    HW2 3126   1.827   6.916   1.871
  743SOL     OW 3127   1.149   6.236   3.478
  743SOL    HW1 3128   1.102   6.238   3.567
  743SOL    HW2 3129   1.125   6.152   3.430
  744SOL     OW 3130   4.936   1.911   0.000
  744SOL    HW1 3131   4.938   2.010   7.018
  744SOL    HW2 3132   4.915   1.868   6.942
  745SOL     OW 3133   2.527   6.541   5.181
  745SOL    HW1 3134   2.563   6.539   5.088
  745SOL    HW2 3135   2.594   6.583   5.242
  746SOL     OW 3136   6.632   4.705   5.524
  746SOL    HW1 3137   6.538   4.712   5.489
  746SOL    HW2 3138   6.675   4.622   5.489
  747SOL     OW 3139   5.097   5.884   3.181
  747SOL    HW1 3140   5.034   5.917   3.110
  747SOL    HW2 3141   5.054   5.808   3.230
  748SOL     OW 3142   5.641   5.505   2.170
  748SOL    HW1 3143   5.580   5.492   2.248
  748SOL    HW2 3144   5.587   5.515   2.087
  749SOL     OW 3145   4.895   3.740   3.811
  749SOL    HW1 3146   4.881   3.644   3.786
  749SOL    HW2 3147   4.847   3.798   3.746
  750SOL     OW 3148   2.228   2.070   1.861
  750SOL    HW1 3149   2.267   2.119   1.939
  750SOL    HW2 3150   2.270   2.102   1.776
  751SOL     OW 3151   3.952   0.167   0.650
  751SOL    HW1 3152   3.941   0.263   0.625
  751SOL    HW2 3153   3.950   0.157   0.749
  752SOL     OW 3154   3.521   2.462   5.358
  752SOL    HW1 3155   3.463   2.397   5.406
  752SOL    HW2 3156   3.471   2.547   5.342
  753SOL     OW 3157   3.697   3.820   4.977
  753SOL    HW1 3158   3.772   3.887   4.979
  753SOL    HW2 3159   3.636   3.836   5.055
  754SOL     OW 3160   5.690   0.150   0.224
  754SOL    HW1 3161   5.711   0.245   0.246
  754SOL    HW2 3162   5.603   0.124   0.266
  755SOL     OW 3163   4.044   4.563   5.292
  755SOL    HW1 3164   4.126   4.532   5.244
  755SOL    HW2 3165   4.032   4.661   5.277
  756SOL     OW 3166   1.908   5.389   6.308
  756SOL    HW1 3167   1.887   5.471   6.361
  756SOL    HW2 3168   1.856   5.311   6.344
  757SOL     OW 3169   2.608   6.070   2.973
  757SOL    HW1 3170   2.684   6.055   3.036
  757SOL    HW2 3171   2.541   5.996   2.981
  758SOL     OW 3172   3.430   0.972   3.990
  758SOL    HW1 3173   3.406   0.898   3.927
  758SOL    HW2 3174   3.407   1.060   3.948
  759SOL     OW 3175   0.265   2.828   4.066
  759SOL    HW1 3176   0.320   2.854   3.986
  759SOL    HW2 3177   0.223   2.739   4.051
  760SOL     OW 3178   6.015   5.577   3.250
  760SOL    HW1 3179   6.024   5.647   3.178
  760SOL    HW2 3180   6.104   5.562   3.293
  761SOL     OW 3181   4.084   3.425   6.238
  761SOL    HW1 3182   4.129   3.378   6.163
  761SOL    HW2 3183   4.129   3.402   6.324
  762SOL     OW 3184   3.345   5.810   3.989
  762SOL    HW1 3185   3.256   5.805   4.034
  762SOL    HW2 3186   3.341   5.763   3.901
  763SOL     OW 3187   5.569   0.593   0.446
  763SOL    HW1 3188   5.500   0.589   0.373
  763SOL    HW2 3189   5.591   0.501   0.476
  764SOL     OW 3190   5.748   0.371   5.679
  764SOL    HW1 3191   5.796   0.311   5.615
  764SOL    HW2 3192   5.670   0.413   5.633
  765SOL     OW 3193   6.596   6.432   0.616
  765SOL    HW1 3194   6.662   6.506   0.603
  765SOL    HW2 3195   6.513   6.451   0.564
  766SOL     OW 3196   2.344   2.342   4.998
  766SOL    HW1 3197   2.430   2.386   4.971
  766SOL    HW2 3198   2.272   2.411   5.003
  767SOL     OW 3199   6.510   6.234   4.299
  767SOL    HW1 3200   6.454   6.280   4.368
  767SOL    HW2 3201   6.495   6.135   4.303
  768SOL     OW 3202   2.202   5.150   2.249
  768SOL    HW1 3203   2.202   5.075   2.183
  768SOL    HW2 3204   2.109   5.185   2.260
  769SOL     OW 3205   2.630   2.340   4.674
  769SOL    HW1 3206   2.616   2.250   4.631
  769SOL    HW2 3207   2.714   2.338   4.728
  770SOL     OW 3208   1.439   4.321   5.465
  770SOL    HW1 3209   1.470   4.403   5.417
  770SOL    HW2 3210   1.399   4.347   5.553
  771SOL     OW 3211   1.357   5.726   3.190
  771SOL    HW1 3212   1.287   5.727   3.262
  771SOL    HW2 3213   1.338   5.799   3.125
  772SOL     OW 3214   5.571   4.390   0.519
  772SOL    HW1 3215   5.595   4.336   0.600
  772SOL    HW2 3216   5.571   4.487   0.544
  773SOL     OW 3217   0.884   3.993   3.342
  773SOL    HW1 3218   0.917   3.903   3.371
  773SOL    HW2 3219   0.870   4.051   3.422
  774SOL     OW 3220   2.328   0.352   3.280
  774SOL    HW1 3221   2.271   0.271   3.264
  774SOL    HW2 3222   2.412   0.345   3.227
  775SOL     OW 3223   1.901   4.658   2.652
  775SOL    HW1 3224   1.856   4.593   2.589
  775SOL    HW2 3225   1.841   4.677   2.729
  776SOL     OW 3226   3.172   5.204   6.547
  776SOL    HW1 3227   3.245   5.235   6.609
  776SOL    HW2 3228   3.085   5.241   6.577
  777SOL     OW 3229   2.398   4.200   0.260
  777SOL    HW1 3230   2.469   4.193   0.189
  777SOL    HW2 3231   2.332   4.126   0.248
  778SOL     OW 3232   2.866   6.554   0.512
  778SOL    HW1 3233   2.849   6.487   0.585
  778SOL    HW2 3234   2.953   6.600   0.529
  779SOL     OW 3235   6.751   2.473   3.315
  779SOL    HW1 3236   6.771   2.448   3.220
  779SOL    HW2 3237   6.663   2.436   3.342
  780SOL     OW 3238   0.570   1.870   4.075
  780SOL    HW1 3239   0.520   1.802   4.022
  780SOL    HW2 3240   0.660   1.834   4.100
  781SOL     OW 3241   0.786   4.622   0.331
  781SOL    HW1 3242   0.697   4.631   0.286
  781SOL    HW2 3243   0.851   4.580   0.268
  782SOL     OW 3244   1.793   3.407   5.193
  782SOL    HW1 3245   1.873   3.368   5.239
  782SOL    HW2 3246   1.755   3.482   5.248
  783SOL     OW 3247   6.203   4.675   6.517
  783SOL    HW1 3248   6.232   4.587   6.480
  783SOL    HW2 3249   6.172   4.734   6.442
  784SOL     OW 3250   2.732   6.128   0.647
  784SOL    HW1 3251   2.670   6.135   0.568
  784SOL    HW2 3252   2.826   6.122   0.615
  785SOL     OW 3253   1.338   6.881   4.899
  785SOL    HW1 3254   1.265   6.813   4.909
  785SOL    HW2 3255   1.298   6.973   4.905
  786SOL     OW 3256   6.684   1.281   3.557
  786SOL    HW1 3257   6.747   1.247   3.627
  786SOL    HW2 3258   6.617   1.343   3.599
  787SOL     OW 3259   2.092   7.014   0.756
  787SOL    HW1 3260   2.132   0.043   0.827
  787SOL    HW2 3261   2.065   6.926   0.795
  788SOL     OW 3262   2.318   2.198   1.637
  788SOL    HW1 3263   2.369   2.148   1.567
  788SOL    HW2 3264   2.282   2.283   1.597
  789SOL     OW 3265   4.407   4.899   2.212
  789SOL    HW1 3266   4.452   4.965   2.272
  789SOL    HW2 3267   4.475   4.835   2.176
  790SOL     OW 3268   0.537   2.049   2.486
  790SOL    HW1 3269   0.508   2.117   2.552
  790SOL    HW2 3270   0.607   1.990   2.527
  791SOL     OW 3271   3.065   5.675   4.527
  791SOL    HW1 3272   3.082   5.774   4.529
  791SOL    HW2 3273   2.979   5.657   4.479
  792SOL     OW 3274   1.517   0.640   0.355
  792SOL    HW1 3275   1.432   0.642   0.409
  792SOL    HW2 3276   1.526   0.725   0.303
  793SOL     OW 3277   2.952   6.025   4.026
  793SOL    HW1 3278   2.994   6.054   3.940
  793SOL    HW2 3279   2.908   5.936   4.013
  794SOL     OW 3280   3.555   3.217   2.792
  794SOL    HW1 3281   3.566   3.127   2.750
  794SOL    HW2 3282   3.639   3.270   2.780
  795SOL     OW 3283   3.554   0.377   6.200
  795SOL    HW1 3284   3.590   0.284   6.192
  795SOL    HW2 3285   3.533   0.397   6.296
  796SOL     OW 3286   1.175   3.426   0.219
  796SOL    HW1 3287   1.169   3.516   0.262
  796SOL    HW2 3288   1.262   3.383   0.243
  797SOL     OW 3289   4.543   0.018   0.616
  797SOL    HW1 3290   4.482   6.970   0.599
  797SOL    HW2 3291   4.494   0.090   0.666
  798SOL     OW 3292   4.381   6.576   0.674
  798SOL    HW1 3293   4.302   6.586   0.733
  798SOL    HW2 3294   4.382   6.650   0.606
  799SOL     OW 3295   2.101   2.023   5.963
  799SOL    HW1 3296   2.126   2.115   5.994
  799SOL    HW2 3297   2.184   1.971   5.940
  800SOL     OW 3298   6.189   3.536   2.480
  800SOL    HW1 3299   6.175   3.520   2.578
  800SOL    HW2 3300   6.204   3.449   2.434
  801SOL     OW 3301   2.349   5.549   5.793
  801SOL    HW1 3302   2.261   5.502   5.801
  801SOL    HW2 3303   2.396   5.549   5.881
  802SOL     OW 3304   5.088   2.512   6.345
  802SOL    HW1 3305   5.182   2.544   6.352
  802SOL    HW2 3306   5.087   2.414   6.323
  803SOL     OW 3307   2.483   1.300   4.992
  803SOL    HW1 3308   2.464   1.296   5.091
  803SOL    HW2 3309   2.416   1.245   4.943
  804SOL     OW 3310   5.464   0.475   2.684
  804SOL    HW1 3311   5.554   0.474   2.641
  804SOL    HW2 3312   5.406   0.406   2.642
  805SOL     OW 3313   3.634   0.874   3.299
  805SOL    HW1 3314   3.648   0.894   3.396
  805SOL    HW2 3315   3.541   0.901   3.273
  806SOL     OW 3316   2.354   6.051   5.811
  806SOL    HW1 3317   2.409   6.026   5.891
  806SOL    HW2 3318   2.273   6.101   5.841
  807SOL     OW 3319   1.047   6.088   6.187
  807SOL    HW1 3320   0.963   6.115   6.233
  807SOL    HW2 3321   1.029   6.075   6.089
  808SOL     OW 3322   5.449   2.939   6.352
  808SOL    HW1 3323   5.511   2.860   6.348
  808SOL    HW2 3324   5.460   2.994   6.270
  809SOL     OW 3325   2.415   4.771   7.024
  809SOL    HW1 3326   2.470   4.848   6.993
  809SOL    HW2 3327   2.409   4.703   6.951
  810SOL     OW 3328   3.506   3.209   6.920
  810SOL    HW1 3329   3.419   3.244   6.955
  810SOL    HW2 3330   3.524   3.250   6.830
  811SOL     OW 3331   5.775   4.833   4.577
  811SOL    HW1 3332   5.733   4.870   4.494
  811SOL    HW2 3333   5.727   4.868   4.658
  812SOL     OW 3334   0.681   3.117   1.957
  812SOL    HW1 3335   0.705   3.146   2.050
  812SOL    HW2 3336   0.759   3.073   1.914
  813SOL     OW 3337   1.255   2.045   4.534
  813SOL    HW1 3338   1.281   1.984   4.459
  813SOL    HW2 3339   1.157   2.035   4.552
  814SOL     OW 3340   0.449   5.341   3.007
  814SOL    HW1 3341   0.456   5.327   3.105
  814SOL    HW2 3342   0.536   5.319   2.963
  815SOL     OW 3343   4.940   1.880   4.501
  815SOL    HW1 3344   4.937   1.803   4.565
  815SOL    HW2 3345   5.035   1.904   4.483
  816SOL     OW 3346   5.235   4.917   6.516
  816SOL    HW1 3347   5.177   4.997   6.501
  816SOL    HW2 3348   5.293   4.933   6.596
  817SOL     OW 3349   1.381   4.056   6.776
  817SOL    HW1 3350   1.427   3.983   6.826
  817SOL    HW2 3351   1.286   4.063   6.805
  818SOL     OW 3352   6.549   2.117   5.016
  818SOL    HW1 3353   6.476   2.049   5.018
  818SOL    HW2 3354   6.600   2.114   5.102
  819SOL     OW 3355   4.828   2.593   1.462
  819SOL    HW1 3356   4.863   2.574   1.554
  819SOL    HW2 3357   4.864   2.526   1.398
  820SOL     OW 3358   2.235   2.112   4.931
  820SOL    HW1 3359   2.167   2.100   5.004
  820SOL    HW2 3360   2.278   2.202   4.939
  821SOL     OW 3361   5.003   3.746   5.536
  821SOL    HW1 3362   5.057   3.750   5.621
  821SOL    HW2 3363   4.914   3.788   5.552
  822SOL     OW 3364   0.809   4.353   3.261
  822SOL    HW1 3365   0.909   4.347   3.269
  822SOL    HW2 3366   0.769   4.375   3.350
  823SOL     OW 3367   1.091   3.340   5.325
  823SOL    HW1 3368   1.097   3.422   5.266
  823SOL    HW2 3369   1.178   3.291   5.322
  824SOL     OW 3370   5.709   1.195   6.181
  824SOL    HW1 3371   5.699   1.221   6.277
  824SOL    HW2 3372   5.763   1.265   6.133
  825SOL     OW 3373   5.665   5.315   0.898
  825SOL    HW1 3374   5.685   5.250   0.971
  825SOL    HW2 3375   5.670   5.408   0.934
  826SOL     OW 3376   3.826   2.189   6.923
  826SOL    HW1 3377   3.875   2.253   6.864
  826SOL    HW2 3378   3.843   2.096   6.890
  827SOL     OW 3379   3.907   4.010   4.991
  827SOL    HW1 3380   3.850   4.090   4.972
  827SOL    HW2 3381   3.959   4.024   5.075
  828SOL     OW 3382   6.604   5.838   6.097
  828SOL    HW1 3383   6.654   5.827   6.011
  828SOL    HW2 3384   6.568   5.931   6.103
  829SOL     OW 3385   3.265   3.601   2.728
  829SOL    HW1 3386   3.278   3.677   2.665
  829SOL    HW2 3387   3.351   3.581   2.775
  830SOL     OW 3388   6.278   4.537   0.230
  830SOL    HW1 3389   6.235   4.618   0.271
  830SOL    HW2 3390   6.378   4.544   0.239
  831SOL     OW 3391   4.335   0.342   1.558
  831SOL    HW1 3392   4.332   0.247   1.589
  831SOL    HW2 3393   4.242   0.374   1.540
  832SOL     OW 3394   2.779   1.896   4.652
  832SOL    HW1 3395   2.836   1.910   4.733
  832SOL    HW2 3396   2.806   1.810   4.608
  833SOL     OW 3397   2.973   1.962   0.110
  833SOL    HW1 3398   2.982   1.967   0.011
  833SOL    HW2 3399   2.896   1.902   0.134
  834SOL     OW 3400   5.520   3.130   6.784
  834SOL    HW1 3401   5.439   3.189   6.793
  834SOL    HW2 3402   5.495   3.047   6.733
  835SOL     OW 3403   0.443   0.017   4.047
  835SOL    HW1 3404   0.493   6.961   4.058
  835SOL    HW2 3405   0.508   0.093   4.036
  836SOL     OW 3406   3.899   1.257   4.238
  836SOL    HW1 3407   3.847   1.341   4.255
  836SOL    HW2 3408   3.860   1.182   4.292
  837SOL     OW 3409   1.775   0.653   0.769
  837SOL    HW1 3410   1.733   0.740   0.797
  837SOL    HW2 3411   1.846   0.671   0.701
  838SOL     OW 3412   1.832   5.315   3.761
  838SOL    HW1 3413   1.877   5.269   3.837
  838SOL    HW2 3414   1.785   5.397   3.794
  839SOL     OW 3415   1.413   1.819   0.488
  839SOL    HW1 3416   1.477   1.800   0.413
  839SOL    HW2 3417   1.324   1.845   0.450
  840SOL     OW 3418   5.323   5.133   6.800
  840SOL    HW1 3419   5.399   5.087   6.756
  840SOL    HW2 3420   5.356   5.184   6.879
  841SOL     OW 3421   3.456   4.912   6.698
  841SOL    HW1 3422   3.380   4.927   6.635
  841SOL    HW2 3423   3.527   4.857   6.654
  842SOL     OW 3424   4.056   6.321   0.212
  842SOL    HW1 3425   4.127   6.326   0.283
  842SOL    HW2 3426   3.977   6.375   0.241
  843SOL     OW 3427   1.281   1.339   2.248
  843SOL    HW1 3428   1.288   1.257   2.191
  843SOL    HW2 3429   1.259   1.418   2.191
  844SOL     OW 3430   6.885   1.125   1.695
  844SOL    HW1 3431   6.844   1.211   1.665
  844SOL    HW2 3432   6.839   1.049   1.648
  845SOL     OW 3433   3.318   0.933   2.329
  845SOL    HW1 3434   3.254   0.936   2.405
  845SOL    HW2 3435   3.389   1.002   2.342
  846SOL     OW 3436   2.780   1.582   0.474
  846SOL    HW1 3437   2.816   1.510   0.533
  846SOL    HW2 3438   2.727   1.646   0.528
  847SOL     OW 3439   2.678   4.054   1.696
  847SOL    HW1 3440   2.675   3.982   1.627
  847SOL    HW2 3441   2.772   4.066   1.728
  848SOL     OW 3442   6.941   5.762   0.479
  848SOL    HW1 3443   6.849   5.738   0.509
  848SOL    HW2 3444   7.001   5.683   0.488
  849SOL     OW 3445   5.938   3.708   6.348
  849SOL    HW1 3446   5.853   3.724   6.399
  849SOL    HW2 3447   5.920   3.647   6.270
  850SOL     OW 3448   0.974   0.400   4.856
  850SOL    HW1 3449   0.922   0.429   4.775
  850SOL    HW2 3450   1.071   0.395   4.833
  851SOL     OW 3451   6.271   3.304   6.136
  851SOL    HW1 3452   6.338   3.260   6.197
  851SOL    HW2 3453   6.188   3.247   6.132
  852SOL     OW 3454   0.579   4.099   2.252
  852SOL    HW1 3455   0.651   4.168   2.241
  852SOL    HW2 3456   0.613   4.025   2.310
  853SOL     OW 3457   2.806   2.428   6.869
  853SOL    HW1 3458   2.732   2.458   6.929
  853SOL    HW2 3459   2.885   2.400   6.925
  854SOL     OW 3460   5.652   6.640   6.508
  854SOL    HW1 3461   5.649   6.540   6.513
  854SOL    HW2 3462   5.597   6.671   6.430
  855SOL     OW 3463   5.560   1.309   0.520
  855SOL    HW1 3464   5.639   1.369   0.502
  855SOL    HW2 3465   5.515   1.339   0.604
  856SOL     OW 3466   2.095   5.699   1.169
  856SOL    HW1 3467   2.054   5.790   1.175
  856SOL    HW2 3468   2.169   5.691   1.236
  857SOL     OW 3469   6.320   5.458   5.650
  857SOL    HW1 3470   6.267   5.491   5.728
  857SOL    HW2 3471   6.318   5.358   5.648
  858SOL     OW 3472   4.642   3.348   0.472
  858SOL    HW1 3473   4.685   3.421   0.418
  858SOL    HW2 3474   4.711   3.305   0.531
  859SOL     OW 3475   4.726   6.539   5.412
  859SOL    HW1 3476   4.811   6.559   5.362
  859SOL    HW2 3477   4.728   6.586   5.500
  860SOL     OW 3478   5.139   3.759   5.810
  860SOL    HW1 3479   5.086   3.705   5.876
  860SOL    HW2 3480   5.214   3.805   5.857
  861SOL     OW 3481   2.245   5.876   2.292
  861SOL    HW1 3482   2.254   5.971   2.263
  861SOL    HW2 3483   2.198   5.823   2.221
  862SOL     OW 3484   0.624   4.167   3.327
  862SOL    HW1 3485   0.699   4.218   3.284
  862SOL    HW2 3486   0.564   4.230   3.375
  863SOL     OW 3487   6.814   0.748   0.303
  863SOL    HW1 3488   6.813   0.848   0.297
  863SOL    HW2 3489   6.827   0.710   0.211
  864SOL     OW 3490   5.781   6.864   4.741
  864SOL    HW1 3491   5.682   6.878   4.734
  864SOL    HW2 3492   5.809   6.875   4.837
  865SOL     OW 3493   1.718   6.152   5.044
  865SOL    HW1 3494   1.649   6.079   5.046
  865SOL    HW2 3495   1.748   6.172   5.138
  866SOL     OW 3496   3.398   6.453   2.015
  866SOL    HW1 3497   3.380   6.517   2.089
  866SOL    HW2 3498   3.496   6.449   1.997
  867SOL     OW 3499   5.890   2.650   6.640
  867SOL    HW1 3500   5.912   2.572   6.700
  867SOL    HW2 3501   5.791   2.667   6.642
  868SOL     OW 3502   6.941   1.782   2.783
  868SOL    HW1 3503   6.916   1.879   2.771
  868SOL    HW2 3504   6.860   1.731   2.812
  869SOL     OW 3505   6.777   4.233   3.564
  869SOL    HW1 3506   6.737   4.210   3.475
  869SOL    HW2 3507   6.721   4.192   3.637
  870SOL     OW 3508   3.822   5.161   2.152
  870SOL    HW1 3509   3.827   5.149   2.251
  870SOL    HW2 3510   3.794   5.075   2.109
  871SOL     OW 3511   4.405   1.817   3.008
  871SOL    HW1 3512   4.339   1.748   2.978
  871SOL    HW2 3513   4.430   1.799   3.103
  872SOL     OW 3514   6.966   2.872   5.166
  872SOL    HW1 3515   6.897   2.856   5.237
  872SOL    HW2 3516   6.932   2.938   5.100
  873SOL     OW 3517   4.807   6.744   5.964
  873SOL    HW1 3518   4.900   6.778   5.950
  873SOL    HW2 3519   4.749   6.818   5.997
  874SOL     OW 3520   4.410   4.404   0.415
  874SOL    HW1 3521   4.337   4.351   0.370
  874SOL    HW2 3522   4.374   4.494   0.440
  875SOL     OW 3523   5.153   5.414   0.678
  875SOL    HW1 3524   5.237   5.388   0.725
  875SOL    HW2 3525   5.126   5.340   0.616
  876SOL     OW 3526   6.917   6.616   1.286
  876SOL    HW1 3527   6.879   6.571   1.367
  876SOL    HW2 3528   6.842   6.635   1.221
  877SOL     OW 3529   2.433   3.300   6.561
  877SOL    HW1 3530   2.459   3.353   6.641
  877SOL    HW2 3531   2.347   3.252   6.579
  878SOL     OW 3532   4.090   6.840   4.146
  878SOL    HW1 3533   4.084   6.878   4.238
  878SOL    HW2 3534   4.055   6.747   4.146
  879SOL     OW 3535   5.928   0.556   0.572
  879SOL    HW1 3536   5.958   0.652   0.577
  879SOL    HW2 3537   5.995   0.498   0.619
  880SOL     OW 3538   2.955   3.347   3.228
  880SOL    HW1 3539   2.889   3.421   3.240
  880SOL    HW2 3540   2.969   3.301   3.316
  881SOL     OW 3541   4.116   1.576   6.756
  881SOL    HW1 3542   4.088   1.577   6.852
  881SOL    HW2 3543   4.131   1.670   6.725
  882SOL     OW 3544   1.376   3.583   4.499
  882SOL    HW1 3545   1.302   3.516   4.495
  882SOL    HW2 3546   1.377   3.626   4.589
  883SOL     OW 3547   3.050   0.262   2.727
  883SOL    HW1 3548   3.039   0.173   2.683
  883SOL    HW2 3549   3.145   0.271   2.759
  884SOL     OW 3550   4.593   3.233   5.452
  884SOL    HW1 3551   4.574   3.324   5.417
  884SOL    HW2 3552   4.508   3.187   5.475
  885SOL     OW 3553   3.809   2.722   6.083
  885SOL    HW1 3554   3.870   2.643   6.088
  885SOL    HW2 3555   3.716   2.693   6.105
  886SOL     OW 3556   3.610   6.933   0.139
  886SOL    HW1 3557   3.525   6.888   0.111
  886SOL    HW2 3558   3.591   6.991   0.219
  887SOL     OW 3559   4.756   1.826   4.268
  887SOL    HW1 3560   4.798   1.854   4.354
  887SOL    HW2 3561   4.705   1.903   4.229
  888SOL     OW 3562   6.908   6.843   3.385
  888SOL    HW1 3563   6.920   6.920   3.322
  888SOL    HW2 3564   6.863   6.768   3.337
  889SOL     OW 3565   0.604   3.516   0.017
  889SOL    HW1 3566   0.671   3.441   0.016
  889SOL    HW2 3567   0.513   3.479   0.036
  890SOL     OW 3568   2.728   5.552   4.154
  890SOL    HW1 3569   2.673   5.469   4.167
  890SOL    HW2 3570   2.825   5.530   4.161
  891SOL     OW 3571   5.638   5.595   1.042
  891SOL    HW1 3572   5.703   5.579   1.116
  891SOL    HW2 3573   5.585   5.677   1.060
  892SOL     OW 3574   3.266   4.965   6.528
  892SOL    HW1 3575   3.207   5.043   6.547
  892SOL    HW2 3576   3.214   4.894   6.481
  893SOL     OW 3577   2.561   6.513   2.768
  893SOL    HW1 3578   2.574   6.612   2.758
  893SOL    HW2 3579   2.463   6.492   2.769
  894SOL     OW 3580   1.491   3.901   1.586
  894SOL    HW1 3581   1.427   3.859   1.649
  894SOL    HW2 3582   1.516   3.836   1.514
  895SOL     OW 3583   0.831   6.287   3.556
  895SOL    HW1 3584   0.817   6.286   3.655
  895SOL    HW2 3585   0.775   6.359   3.515
  896SOL     OW 3586   6.423   6.196   5.331
  896SOL    HW1 3587   6.510   6.230   5.365
  896SOL    HW2 3588   6.353   6.205   5.402
  897SOL     OW 3589   5.313   0.843   6.759
  897SOL    HW1 3590   5.252   0.900   6.703
  897SOL    HW2 3591   5.295   0.747   6.739
  898SOL     OW 3592   4.085   5.986   3.273
  898SOL    HW1 3593   4.053   6.013   3.182
  898SOL    HW2 3594   4.008   5.983   3.337
  899SOL     OW 3595   6.743   4.748   6.701
  899SOL    HW1 3596   6.720   4.712   6.610
  899SOL    HW2 3597   6.841   4.737   6.717
  900SOL     OW 3598   5.507   6.101   0.606
  900SOL    HW1 3599   5.477   6.025   0.664
  900SOL    HW2 3600   5.596   6.079   0.566
  901SOL     OW 3601   1.622   0.981   2.167
  901SOL    HW1 3602   1.528   1.014   2.157
  901SOL    HW2 3603   1.666   1.030   2.242
  902SOL     OW 3604   6.093   4.182   1.611
  902SOL    HW1 3605   6.155   4.188   1.532
  902SOL    HW2 3606   6.128   4.239   1.685
  903SOL     OW 3607   6.795   2.836   0.229
  903SOL    HW1 3608   6.846   2.761   0.188
  903SOL    HW2 3609   6.860   2.902   0.269
  904SOL     OW 3610   3.136   1.833   2.492
  904SOL    HW1 3611   3.055   1.826   2.434
  904SOL    HW2 3612   3.195   1.753   2.478
  905SOL     OW 3613   6.018   2.400   6.720
  905SOL    HW1 3614   6.033   2.313   6.766
  905SOL    HW2 3615   6.060   2.474   6.774
  906SOL     OW 3616   6.591   3.301   6.534
  906SOL    HW1 3617   6.584   3.392   6.575
  906SOL    HW2 3618   6.523   3.241   6.576
  907SOL     OW 3619   5.082   3.631   6.736
  907SOL    HW1 3620   4.992   3.657   6.699
  907SOL    HW2 3621   5.116   3.705   6.794
  908SOL     OW 3622   2.451   4.820   2.655
  908SOL    HW1 3623   2.367   4.845   2.703
  908SOL    HW2 3624   2.465   4.882   2.577
  909SOL     OW 3625   5.080   5.123   6.422
  909SOL    HW1 3626   5.073   5.078   6.334
  909SOL    HW2 3627   5.110   5.218   6.409
  910SOL     OW 3628   2.597   3.395   1.384
  910SOL    HW1 3629   2.584   3.346   1.471
  910SOL    HW2 3630   2.521   3.376   1.323
  911SOL     OW 3631   1.006   5.356   6.512
  911SOL    HW1 3632   1.022   5.327   6.418
  911SOL    HW2 3633   0.958   5.444   6.513
  912SOL     OW 3634   4.676   2.174   2.804
  912SOL    HW1 3635   4.588   2.126   2.799
  912SOL    HW2 3636   4.750   2.110   2.784
  913SOL     OW 3637   4.951   0.097   3.494
  913SOL    HW1 3638   4.926   0.171   3.432
  913SOL    HW2 3639   4.945   0.010   3.445
  914SOL     OW 3640   2.653   6.771   0.298
  914SOL    HW1 3641   2.656   6.672   0.283
  914SOL    HW2 3642   2.589   6.791   0.372
  915SOL     OW 3643   6.262   5.893   0.699
  915SOL    HW1 3644   6.344   5.928   0.745
  915SOL    HW2 3645   6.265   5.920   0.602
  916SOL     OW 3646   0.626   2.324   2.146
  916SOL    HW1 3647   0.662   2.232   2.130
  916SOL    HW2 3648   0.526   2.322   2.141
  917SOL     OW 3649   6.837   6.860   0.579
  917SOL    HW1 3650   6.820   6.958   0.586
  917SOL    HW2 3651   6.935   6.842   0.585
  918SOL     OW 3652   1.561   5.375   0.369
  918SOL    HW1 3653   1.560   5.473   0.392
  918SOL    HW2 3654   1.479   5.352   0.317
  919SOL     OW 3655   5.744   1.862   4.517
  919SOL    HW1 3656   5.736   1.962   4.516
  919SOL    HW2 3657   5.671   1.823   4.573
  920SOL     OW 3658   2.846   4.799   2.144
  920SOL    HW1 3659   2.851   4.735   2.068
  920SOL    HW2 3660   2.837   4.749   2.230
  921SOL     OW 3661   5.034   5.587   4.702
  921SOL    HW1 3662   5.117   5.532   4.713
  921SOL    HW2 3663   5.059   5.681   4.678
  922SOL     OW 3664   4.087   3.557   3.872
  922SOL    HW1 3665   4.096   3.502   3.789
  922SOL    HW2 3666   4.090   3.654   3.849
  923SOL     OW 3667   2.237   3.352   5.646
  923SOL    HW1 3668   2.159   3.359   5.709
  923SOL    HW2 3669   2.211   3.387   5.557
  924SOL     OW 3670   0.198   3.713   3.003
  924SOL    HW1 3671   0.154   3.682   2.919
  924SOL    HW2 3672   0.225   3.634   3.058
  925SOL     OW 3673   6.202   1.757   0.370
  925SOL    HW1 3674   6.180   1.812   0.451
  925SOL    HW2 3675   6.129   1.765   0.303
  926SOL     OW 3676   0.667   1.522   2.061
  926SOL    HW1 3677   0.648   1.513   1.964
  926SOL    HW2 3678   0.661   1.619   2.088
  927SOL     OW 3679   5.683   3.957   3.441
  927SOL    HW1 3680   5.644   4.027   3.501
  927SOL    HW2 3681   5.667   3.867   3.480
  928SOL     OW 3682   2.829   5.017   6.809
  928SOL    HW1 3683   2.899   4.968   6.862
  928SOL    HW2 3684   2.816   4.971   6.721
  929SOL     OW 3685   6.724   1.303   5.498
  929SOL    HW1 3686   6.701   1.400   5.504
  929SOL    HW2 3687   6.754   1.282   5.405
  930SOL     OW 3688   5.620   5.355   5.566
  930SOL    HW1 3689   5.554   5.335   5.639
  930SOL    HW2 3690   5.588   5.315   5.480
  931SOL     OW 3691   6.324   2.717   2.961
  931SOL    HW1 3692   6.271   2.801   2.968
  931SOL    HW2 3693   6.263   2.638   2.961
  932SOL     OW 3694   3.495   0.389   3.500
  932SOL    HW1 3695   3.443   0.470   3.474
  932SOL    HW2 3696   3.523   0.397   3.596
  933SOL     OW 3697   1.396   4.653   2.014
  933SOL    HW1 3698   1.398   4.730   1.950
  933SOL    HW2 3699   1.482   4.603   2.009
  934SOL     OW 3700   1.800   4.605   6.739
  934SOL    HW1 3701   1.753   4.556   6.812
  934SOL    HW2 3702   1.733   4.631   6.669
  935SOL     OW 3703   5.873   3.351   3.909
  935SOL    HW1 3704   5.815   3.286   3.958
  935SOL    HW2 3705   5.950   3.377   3.967
  936SOL     OW 3706   1.474   0.103   6.115
  936SOL    HW1 3707   1.498   0.022   6.168
  936SOL    HW2 3708   1.555   0.160   6.103
  937SOL     OW 3709   4.466   1.402   5.524
  937SOL    HW1 3710   4.514   1.315   5.533
  937SOL    HW2 3711   4.368   1.388   5.533
  938SOL     OW 3712   5.350   5.711   4.219
  938SOL    HW1 3713   5.363   5.673   4.127
  938SOL    HW2 3714   5.315   5.804   4.212
  939SOL     OW 3715   0.565   6.784   5.652
  939SOL    HW1 3716   0.545   6.686   5.663
  939SOL    HW2 3717   0.480   6.836   5.654
  940SOL     OW 3718   1.767   5.223   0.037
  940SOL    HW1 3719   1.841   5.199   7.003
  940SOL    HW2 3720   1.785   5.181   0.127
  941SOL     OW 3721   3.335   0.256   6.558
  941SOL    HW1 3722   3.301   0.349   6.572
  941SOL    HW2 3723   3.274   0.207   6.495
  942SOL     OW 3724   0.466   5.435   0.462
  942SOL    HW1 3725   0.540   5.475   0.517
  942SOL    HW2 3726   0.493   5.433   0.366
  943SOL     OW 3727   3.121   5.396   2.504
  943SOL    HW1 3728   3.166   5.381   2.591
  943SOL    HW2 3729   3.042   5.335   2.496
  944SOL     OW 3730   7.000   6.553   4.293
  944SOL    HW1 3731   6.980   6.462   4.330
  944SOL    HW2 3732   6.914   6.603   4.280
  945SOL     OW 3733   0.735   5.313   6.958
  945SOL    HW1 3734   0.647   5.302   6.911
  945SOL    HW2 3735   0.806   5.337   6.892
  946SOL     OW 3736   4.936   3.214   3.616
  946SOL    HW1 3737   4.981   3.275   3.681
  946SOL    HW2 3738   4.901   3.268   3.539
  947SOL     OW 3739   3.463   4.169   4.253
  947SOL    HW1 3740   3.448   4.071   4.263
  947SOL    HW2 3741   3.552   4.193   4.293
  948SOL     OW 3742   4.067   0.526   2.816
  948SOL    HW1 3743   4.115   0.580   2.747
  948SOL    HW2 3744   3.996   0.470   2.772
  949SOL     OW 3745   2.412   6.952   6.239
  949SOL    HW1 3746   2.369   6.938   6.328
  949SOL    HW2 3747   2.458   6.868   6.210
  950SOL     OW 3748   0.092   7.020   1.782
  950SOL    HW1 3749   0.095   0.058   1.708
  950SOL    HW2 3750   0.147   0.024   1.859
  951SOL     OW 3751   2.129   6.681   3.635
  951SOL    HW1 3752   2.092   6.606   3.581
  951SOL    HW2 3753   2.063   6.709   3.704
  952SOL     OW 3754   3.075   1.153   1.922
  952SOL    HW1 3755   3.052   1.239   1.877
  952SOL    HW2 3756   3.163   1.163   1.970
  953SOL     OW 3757   6.167   4.539   5.720
  953SOL    HW1 3758   6.147   4.606   5.648
  953SOL    HW2 3759   6.094   4.541   5.788
  954SOL     OW 3760   4.800   6.086   2.603
  954SOL    HW1 3761   4.850   6.096   2.517
  954SOL    HW2 3762   4.865   6.077   2.678
  955SOL     OW 3763   1.289   4.857   6.817
  955SOL    HW1 3764   1.216   4.893   6.875
  955SOL    HW2 3765   1.264   4.868   6.721
  956SOL     OW 3766   5.901   0.237   1.155
  956SOL    HW1 3767   5.850   0.204   1.235
  956SOL    HW2 3768   5.964   0.309   1.183
  957SOL     OW 3769   5.759   1.359   3.016
  957SOL    HW1 3770   5.668   1.356   3.058
  957SOL    HW2 3771   5.823   1.308   3.072
  958SOL     OW 3772   5.355   0.111   1.900
  958SOL    HW1 3773   5.355   0.210   1.907
  958SOL    HW2 3774   5.331   0.071   1.988
  959SOL     OW 3775   4.070   6.609   4.619
  959SOL    HW1 3776   4.144   6.543   4.633
  959SOL    HW2 3777   4.015   6.615   4.703
  960SOL     OW 3778   1.059   0.162   6.828
  960SOL    HW1 3779   1.041   0.248   6.781
  960SOL    HW2 3780   0.973   0.122   6.858
  961SOL     OW 3781   3.602   6.914   3.198
  961SOL    HW1 3782   3.505   6.894   3.192
  961SOL    HW2 3783   3.619   7.007   3.165
  962SOL     OW 3784   6.384   0.597   5.009
  962SOL    HW1 3785   6.332   0.536   4.950
  962SOL    HW2 3786   6.377   0.691   4.976
  963SOL     OW 3787   5.954   3.124   0.712
  963SOL    HW1 3788   6.022   3.166   0.772
  963SOL    HW2 3789   6.001   3.071   0.641
  964SOL     OW 3790   4.930   4.444   5.250
  964SOL    HW1 3791   5.006   4.508   5.264
  964SOL    HW2 3792   4.940   4.366   5.311
  965SOL     OW 3793   5.991   3.320   3.666
  965SOL    HW1 3794   5.956   3.338   3.758
  965SOL    HW2 3795   5.979   3.223   3.644
  966SOL     OW 3796   4.625   2.294   4.399
  966SOL    HW1 3797   4.654   2.333   4.312
  966SOL    HW2 3798   4.526   2.299   4.407
  967SOL     OW 3799   5.078   4.095   6.360
  967SOL    HW1 3800   4.981   4.085   6.340
  967SOL    HW2 3801   5.122   4.005   6.355
  968SOL     OW 3802   3.579   0.460   1.646
  968SOL    HW1 3803   3.490   0.425   1.616
  968SOL    HW2 3804   3.650   0.427   1.584
  969SOL     OW 3805   3.506   4.098   6.216
  969SOL    HW1 3806   3.474   4.019   6.163
  969SOL    HW2 3807   3.591   4.133   6.175
  970SOL     OW 3808   6.388   0.189   6.307
  970SOL    HW1 3809   6.308   0.240   6.337
  970SOL    HW2 3810   6.402   0.109   6.366
  971SOL     OW 3811   5.725   4.451   2.897
  971SOL    HW1 3812   5.628   4.457   2.876
  971SOL    HW2 3813   5.740   4.476   2.993
  972SOL     OW 3814   0.135   3.096   0.692
  972SOL    HW1 3815   0.085   3.171   0.648
  972SOL    HW2 3816   0.125   3.103   0.791
  973SOL     OW 3817   0.032   3.637   6.053
  973SOL    HW1 3818   0.012   3.589   6.138
  973SOL    HW2 3819   0.003   3.733   6.061
  974SOL     OW 3820   6.816   5.277   3.739
  974SOL    HW1 3821   6.781   5.184   3.751
  974SOL    HW2 3822   6.744   5.336   3.703
  975SOL     OW 3823   2.583   0.306   1.974
  975SOL    HW1 3824   2.491   0.337   1.949
  975SOL    HW2 3825   2.577   0.220   2.024
  976SOL     OW 3826   6.366   3.475   2.998
  976SOL    HW1 3827   6.323   3.386   2.984
  976SOL    HW2 3828   6.296   3.544   3.012
  977SOL     OW 3829   0.321   0.657   2.474
  977SOL    HW1 3830   0.313   0.590   2.548
  977SOL    HW2 3831   0.268   0.738   2.496
  978SOL     OW 3832   5.332   3.243   2.125
  978SOL    HW1 3833   5.416   3.294   2.110
  978SOL    HW2 3834   5.265   3.266   2.054
  979SOL     OW 3835   0.644   4.009   6.639
  979SOL    HW1 3836   0.556   3.988   6.682
  979SOL    HW2 3837   0.631   4.077   6.567
  980SOL     OW 3838   3.124   1.516   4.494
  980SOL    HW1 3839   3.159   1.459   4.568
  980SOL    HW2 3840   3.160   1.483   4.407
  981SOL     OW 3841   6.905   6.565   5.261
  981SOL    HW1 3842   6.827   6.547   5.201
  981SOL    HW2 3843   6.942   6.656   5.242
  982SOL     OW 3844   6.177   0.822   5.883
  982SOL    HW1 3845   6.258   0.827   5.823
  982SOL    HW2 3846   6.126   0.907   5.876
  983SOL     OW 3847   6.982   4.863   4.765
  983SOL    HW1 3848   0.028   4.886   4.828
  983SOL    HW2 3849   6.991   4.920   4.683
  984SOL     OW 3850   0.505   2.563   3.171
  984SOL    HW1 3851   0.447   2.552   3.090
  984SOL    HW2 3852   0.579   2.495   3.168
  985SOL     OW 3853   6.433   4.869   5.371
  985SOL    HW1 3854   6.356   4.871   5.307
  985SOL    HW2 3855   6.459   4.962   5.396
  986SOL     OW 3856   5.442   4.924   1.108
  986SOL    HW1 3857   5.446   4.825   1.097
  986SOL    HW2 3858   5.530   4.964   1.084
  987SOL     OW 3859   5.044   4.719   4.126
  987SOL    HW1 3860   5.053   4.813   4.159
  987SOL    HW2 3861   4.974   4.671   4.178
  988SOL     OW 3862   2.607   4.266   1.534
  988SOL    HW1 3863   2.624   4.348   1.587
  988SOL    HW2 3864   2.618   4.185   1.593
  989SOL     OW 3865   0.589   1.729   1.221
  989SOL    HW1 3866   0.573   1.797   1.293
  989SOL    HW2 3867   0.560   1.767   1.133
  990SOL     OW 3868   3.817   0.069   3.669
  990SOL    HW1 3869   3.835   7.007   3.705
  990SOL    HW2 3870   3.724   0.097   3.693
  991SOL     OW 3871   0.042   5.186   3.309
  991SOL    HW1 3872   0.111   5.114   3.303
  991SOL    HW2 3873   0.030   5.213   3.405
  992SOL     OW 3874   0.362   2.649   1.032
  992SOL    HW1 3875   0.375   2.742   0.998
  992SOL    HW2 3876   0.332   2.591   0.956
  993SOL     OW 3877   1.113   5.188   0.290
  993SOL    HW1 3878   1.027   5.227   0.259
  993SOL    HW2 3879   1.122   5.200   0.389
  994SOL     OW 3880   3.284   6.262   7.013
  994SOL    HW1 3881   3.188   6.247   0.010
  994SOL    HW2 3882   3.313   6.352   0.018
  995SOL     OW 3883   5.992   3.723   5.640
  995SOL    HW1 3884   5.908   3.737   5.588
  995SOL    HW2 3885   6.069   3.712   5.577
  996SOL     OW 3886   3.610   6.330   5.717
  996SOL    HW1 3887   3.682   6.399   5.728
  996SOL    HW2 3888   3.651   6.239   5.724
  997SOL     OW 3889   1.541   6.095   3.926
  997SOL    HW1 3890   1.579   6.045   4.005
  997SOL    HW2 3891   1.572   6.190   3.928
  998SOL     OW 3892   6.397   0.548   6.516
  998SOL    HW1 3893   6.312   0.565   6.468
  998SOL    HW2 3894   6.381   0.551   6.615
  999SOL     OW 3895   5.007   4.204   2.705
  999SOL    HW1 3896   4.921   4.207   2.755
  999SOL    HW2 3897   5.045   4.297   2.697
 1000SOL     OW 3898   4.432   1.938   0.948
 1000SOL    HW1 3899   4.489   1.882   1.008
 1000SOL    HW2 3900   4.488   2.009   0.906
 1001SOL     OW 3901   3.425   6.382   2.669
 1001SOL    HW1 3902   3.431   6.359   2.766
 1001SOL    HW2 3903   3.455   6.476   2.655
 1002SOL     OW 3904   5.129   2.411   1.061
 1002SOL    HW1 3905   5.218   2.420   1.017
 1002SOL    HW2 3906   5.092   2.320   1.042
 1003SOL     OW 3907   0.506   0.272   3.281
 1003SOL    HW1 3908   0.494   0.173   3.287
 1003SOL    HW2 3909   0.604   0.294   3.285
 1004SOL     OW 3910   5.623   1.529   3.475
 1004SOL    HW1 3911   5.705   1.498   3.524
 1004SOL    HW2 3912   5.648   1.602   3.411
 1005SOL     OW 3913   1.241   4.638   2.833
 1005SOL    HW1 3914   1.212   4.636   2.738
 1005SOL    HW2 3915   1.188   4.572   2.886
 1006SOL     OW 3916   2.702   3.590   1.002
 1006SOL    HW1 3917   2.717   3.688   1.014
 1006SOL    HW2 3918   2.615   3.574   0.957
 1007SOL     OW 3919   4.647   0.846   6.884
 1007SOL    HW1 3920   4.626   0.764   6.936
 1007SOL    HW2 3921   4.624   0.832   6.788
 1008SOL     OW 3922   0.019   4.743   5.479
 1008SOL    HW1 3923   0.070   4.658   5.496
 1008SOL    HW2 3924   0.084   4.819   5.475
 1009SOL     OW 3925   6.973   5.317   6.596
 1009SOL    HW1 3926   0.017   5.382   6.574
 1009SOL    HW2 3927   6.929   5.286   6.512
 1010SOL     OW 3928   2.590   3.180   0.969
 1010SOL    HW1 3929   2.544   3.091   0.961
 1010SOL    HW2 3930   2.669   3.171   1.029
 1011SOL     OW 3931   6.499   5.416   2.316
 1011SOL    HW1 3932   6.531   5.339   2.372
 1011SOL    HW2 3933   6.570   5.486   2.311
 1012SOL     OW 3934   4.806   0.472   3.367
 1012SOL    HW1 3935   4.853   0.452   3.280
 1012SOL    HW2 3936   4.868   0.523   3.427
 1013SOL     OW 3937   0.179   6.710   6.653
 1013SOL    HW1 3938   0.179   6.691   6.555
 1013SOL    HW2 3939   0.139   6.632   6.702
 1014SOL     OW 3940   0.991   4.769   5.388
 1014SOL    HW1 3941   0.891   4.766   5.378
 1014SOL    HW2 3942   1.034   4.758   5.299
 1015SOL     OW 3943   3.087   6.237   6.773
 1015SOL    HW1 3944   3.008   6.177   6.776
 1015SOL    HW2 3945   3.169   6.187   6.802
 1016SOL     OW 3946   5.817   4.220   1.704
 1016SOL    HW1 3947   5.798   4.304   1.653
 1016SOL    HW2 3948   5.915   4.199   1.698
 1017SOL     OW 3949   2.050   1.946   2.138
 1017SOL    HW1 3950   2.005   1.856   2.136
 1017SOL    HW2 3951   2.072   1.969   2.233
 1018SOL     OW 3952   6.918   5.865   3.745
 1018SOL    HW1 3953   6.833   5.896   3.703
 1018SOL    HW2 3954   6.920   5.895   3.841
 1019SOL     OW 3955   6.721   4.722   0.766
 1019SOL    HW1 3956   6.810   4.745   0.728
 1019SOL    HW2 3957   6.707   4.771   0.852
 1020SOL     OW 3958   6.106   1.021   0.748
 1020SOL    HW1 3959   6.043   1.093   0.717
 1020SOL    HW2 3960   6.199   1.043   0.717
 1021SOL     OW 3961   6.980   6.161   1.291
 1021SOL    HW1 3962   7.016   6.148   1.383
 1021SOL    HW2 3963   6.986   6.257   1.266
 1022SOL     OW 3964   2.515   5.520   6.816
 1022SOL    HW1 3965   2.536   5.551   6.723
 1022SOL    HW2 3966   2.514   5.598   6.878
 1023SOL     OW 3967   0.497   1.776   3.352
 1023SOL    HW1 3968   0.533   1.738   3.437
 1023SOL    HW2 3969   0.419   1.836   3.373
 1024SOL     OW 3970   1.879   1.958   4.875
 1024SOL    HW1 3971   1.911   2.036   4.822
 1024SOL    HW2 3972   1.780   1.967   4.890
 1025SOL     OW 3973   4.847   3.711   0.528
 1025SOL    HW1 3974   4.865   3.732   0.431
 1025SOL    HW2 3975   4.761   3.660   0.535
 1026SOL     OW 3976   2.930   2.624   0.846
 1026SOL    HW1 3977   2.947   2.616   0.748
 1026SOL    HW2 3978   2.850   2.682   0.861
 1027SOL     OW 3979   0.804   6.689   0.900
 1027SOL    HW1 3980   0.815   6.631   0.819
 1027SOL    HW2 3981   0.756   6.773   0.876
 1028SOL     OW 3982   1.547   6.110   2.591
 1028SOL    HW1 3983   1.638   6.097   2.553
 1028SOL    HW2 3984   1.478   6.077   2.526
 1029SOL     OW 3985   0.727   0.896   6.041
 1029SOL    HW1 3986   0.780   0.980   6.025
 1029SOL    HW2 3987   0.788   0.817   6.041
 1030SOL     OW 3988   3.617   3.110   1.220
 1030SOL    HW1 3989   3.703   3.101   1.171
 1030SOL    HW2 3990   3.604   3.031   1.280
 1031SOL     OW 3991   3.477   3.560   1.330
 1031SOL    HW1 3992   3.509   3.651   1.305
 1031SOL    HW2 3993   3.551   3.509   1.375
 1032SOL     OW 3994   2.429   2.132   6.416
 1032SOL    HW1 3995   2.330   2.144   6.426
 1032SOL    HW2 3996   2.453   2.037   6.433
 1033SOL     OW 3997   1.113   6.541   2.048
 1033SOL    HW1 3998   1.191   6.489   2.082
 1033SOL    HW2 3999   1.141   6.594   1.968
 1034SOL     OW 4000   3.188   0.282   4.274
 1034SOL    HW1 4001   3.248   0.273   4.353
 1034SOL    HW2 4002   3.100   0.239   4.295
 1035SOL     OW 4003   0.991   1.923   5.787
 1035SOL    HW1 4004   0.976   1.948   5.883
 1035SOL    HW2 4005   1.085   1.891   5.775
 1036SOL     OW 4006   5.476   1.752   1.197
 1036SOL    HW1 4007   5.440   1.835   1.154
 1036SOL    HW2 4008   5.400   1.695   1.228
 1037SOL     OW 4009   1.406   2.707   2.198
 1037SOL    HW1 4010   1.501   2.687   2.223
 1037SOL    HW2 4011   1.403   2.777   2.127
 1038SOL     OW 4012   2.818   6.073   0.096
 1038SOL    HW1 4013   2.880   6.138   0.052
 1038SOL    HW2 4014   2.726   6.083   0.058
 1039SOL     OW 4015   3.792   2.969   3.660
 1039SOL    HW1 4016   3.877   3.019   3.674
 1039SOL    HW2 4017   3.772   2.964   3.562
 1040SOL     OW 4018   3.559   1.160   3.069
 1040SOL    HW1 4019   3.501   1.119   3.139
 1040SOL    HW2 4020   3.631   1.214   3.113
 1041SOL     OW 4021   0.055   5.682   6.367
 1041SOL    HW1 4022   0.080   5.771   6.328
 1041SOL    HW2 4023   7.000   5.649   6.325
 1042SOL     OW 4024   5.594   4.924   2.780
 1042SOL    HW1 4025   5.596   5.017   2.818
 1042SOL    HW2 4026   5.658   4.918   2.703
 1043SOL     OW 4027   3.223   2.174   3.690
 1043SOL    HW1 4028   3.260   2.153   3.781
 1043SOL    HW2 4029   3.124   2.190   3.698
 1044SOL     OW 4030   5.355   4.821   2.086
 1044SOL    HW1 4031   5.327   4.917   2.093
 1044SOL    HW2 4032   5.434   4.813   2.025
 1045SOL     OW 4033   1.814   0.800   2.851
 1045SOL    HW1 4034   1.796   0.706   2.883
 1045SOL    HW2 4035   1.779   0.865   2.918
 1046SOL     OW 4036   3.139   1.116   0.814
 1046SOL    HW1 4037   3.144   1.215   0.822
 1046SOL    HW2 4038   3.044   1.087   0.806
 1047SOL     OW 4039   3.822   6.371   3.920
 1047SOL    HW1 4040   3.873   6.378   3.834
 1047SOL    HW2 4041   3.853   6.291   3.971
 1048SOL     OW 4042   1.263   6.346   2.160
 1048SOL    HW1 4043   1.315   6.274   2.113
 1048SOL    HW2 4044   1.253   6.323   2.257
 1049SOL     OW 4045   4.435   6.248   5.289
 1049SOL    HW1 4046   4.361   6.183   5.270
 1049SOL    HW2 4047   4.402   6.322   5.347
 1050SOL     OW 4048   3.655   5.433   2.773
 1050SOL    HW1 4049   3.655   5.495   2.695
 1050SOL    HW2 4050   3.594   5.468   2.844
 1051SOL     OW 4051   0.991   0.065   6.268
 1051SOL    HW1 4052   0.943   0.100   6.188
 1051SOL    HW2 4053   0.944   7.013   6.302
 1052SOL     OW 4054   3.076   0.790   0.024
 1052SOL    HW1 4055   3.171   0.819   0.014
 1052SOL    HW2 4056   3.018   0.871   0.035
 1053SOL     OW 4057   5.701   2.815   3.331
 1053SOL    HW1 4058   5.651   2.795   3.415
 1053SOL    HW2 4059   5.672   2.904   3.295
 1054SOL     OW 4060   3.204   4.906   5.998
 1054SOL    HW1 4061   3.293   4.949   6.015
 1054SOL    HW2 4062   3.178   4.852   6.079
 1055SOL     OW 4063   5.037   6.344   6.516
 1055SOL    HW1 4064   5.066   6.439   6.529
 1055SOL    HW2 4065   4.970   6.320   6.585
 1056SOL     OW 4066   3.048   3.590   6.271
 1056SOL    HW1 4067   3.142   3.572   6.300
 1056SOL    HW2 4068   2.986   3.568   6.346
 1057SOL     OW 4069   2.621   2.065   0.842
 1057SOL    HW1 4070   2.645   2.001   0.915
 1057SOL    HW2 4071   2.647   2.026   0.754
 1058SOL     OW 4072   2.377   2.590   2.426
 1058SOL    HW1 4073   2.305   2.639   2.378
 1058SOL    HW2 4074   2.451   2.568   2.362
 1059SOL     OW 4075   2.740   6.790   1.933
 1059SOL    HW1 4076   2.707   6.848   2.008
 1059SOL    HW2 4077   2.662   6.752   1.883
 1060SOL     OW 4078   5.918   6.295   5.655
 1060SOL    HW1 4079   5.916   6.393   5.635
 1060SOL    HW2 4080   5.957   6.246   5.578
 1061SOL     OW 4081   0.037   3.828   0.218
 1061SOL    HW1 4082   0.087   3.914   0.225
 1061SOL    HW2 4083   0.035   3.797   0.123
 1062SOL     OW 4084   3.513   6.435   4.964
 1062SOL    HW1 4085   3.521   6.519   5.017
 1062SOL    HW2 4086   3.604   6.404   4.936
 1063SOL     OW 4087   2.894   6.616   6.193
 1063SOL    HW1 4088   2.872   6.534   6.141
 1063SOL    HW2 4089   2.905   6.594   6.289
 1064SOL     OW 4090   1.689   3.606   0.746
 1064SOL    HW1 4091   1.681   3.534   0.815
 1064SOL    HW2 4092   1.600   3.621   0.704
 1065SOL     OW 4093   4.226   1.133   4.204
 1065SOL    HW1 4094   4.317   1.103   4.177
 1065SOL    HW2 4095   4.178   1.170   4.124
 1066SOL     OW 4096   5.135   7.015   1.731
 1066SOL    HW1 4097   5.135   0.070   1.676
 1066SOL    HW2 4098   5.208   7.022   1.800
 1067SOL     OW 4099   2.609   1.298   0.120
 1067SOL    HW1 4100   2.695   1.341   0.147
 1067SOL    HW2 4101   2.546   1.298   0.198
 1068SOL     OW 4102   6.467   3.369   1.440
 1068SOL    HW1 4103   6.561   3.335   1.435
 1068SOL    HW2 4104   6.404   3.298   1.409
 1069SOL     OW 4105   6.363   3.943   1.731
 1069SOL    HW1 4106   6.293   3.877   1.759
 1069SOL    HW2 4107   6.348   4.030   1.778
 1070SOL     OW 4108   0.896   0.098   1.999
 1070SOL    HW1 4109   0.962   0.150   1.945
 1070SOL    HW2 4110   0.940   0.066   2.083
 1071SOL     OW 4111   6.881   3.011   5.710
 1071SOL    HW1 4112   6.966   3.032   5.661
 1071SOL    HW2 4113   6.806   3.000   5.645
 1072SOL     OW 4114   2.266   1.338   2.094
 1072SOL    HW1 4115   2.185   1.294   2.055
 1072SOL    HW2 4116   2.317   1.384   2.022
 1073SOL     OW 4117   4.983   1.860   3.002
 1073SOL    HW1 4118   5.064   1.812   3.036
 1073SOL    HW2 4119   4.919   1.875   3.078
 1074SOL     OW 4120   2.673   4.479   1.688
 1074SOL    HW1 4121   2.762   4.494   1.730
 1074SOL    HW2 4122   2.653   4.553   1.624
 1075SOL     OW 4123   5.731   3.715   5.535
 1075SOL    HW1 4124   5.748   3.806   5.497
 1075SOL    HW2 4125   5.675   3.662   5.470
 1076SOL     OW 4126   2.278   4.149   4.722
 1076SOL    HW1 4127   2.343   4.221   4.699
 1076SOL    HW2 4128   2.301   4.111   4.811
 1077SOL     OW 4129   0.447   0.003   0.104
 1077SOL    HW1 4130   0.360   7.014   0.149
 1077SOL    HW2 4131   0.436   0.079   0.039
 1078SOL     OW 4132   6.793   6.746   4.207
 1078SOL    HW1 4133   6.705   6.730   4.250
 1078SOL    HW2 4134   6.798   6.697   4.119
 1079SOL     OW 4135   0.671   6.764   2.580
 1079SOL    HW1 4136   0.604   6.723   2.643
 1079SOL    HW2 4137   0.759   6.772   2.626
 1080SOL     OW 4138   2.747   5.463   6.095
 1080SOL    HW1 4139   2.651   5.444   6.117
 1080SOL    HW2 4140   2.761   5.457   5.996
 1081SOL     OW 4141   6.754   5.570   4.191
 1081SOL    HW1 4142   6.722   5.489   4.240
 1081SOL    HW2 4143   6.687   5.594   4.120
 1082SOL     OW 4144   4.953   6.604   6.174
 1082SOL    HW1 4145   4.905   6.655   6.102
 1082SOL    HW2 4146   4.985   6.668   6.244
 1083SOL     OW 4147   5.220   4.360   1.083
 1083SOL    HW1 4148   5.227   4.315   1.172
 1083SOL    HW2 4149   5.311   4.391   1.054
 1084SOL     OW 4150   6.812   0.236   5.615
 1084SOL    HW1 4151   6.905   0.209   5.592
 1084SOL    HW2 4152   6.784   0.314   5.560
 1085SOL     OW 4153   1.266   4.014   4.523
 1085SOL    HW1 4154   1.339   3.963   4.477
 1085SOL    HW2 4155   1.281   4.112   4.511
 1086SOL     OW 4156   5.824   5.235   0.696
 1086SOL    HW1 4157   5.777   5.147   0.706
 1086SOL    HW2 4158   5.792   5.298   0.767
 1087SOL     OW 4159   3.366   0.544   5.467
 1087SOL    HW1 4160   3.298   0.571   5.535
 1087SOL    HW2 4161   3.328   0.472   5.409
 1088SOL     OW 4162   6.875   5.025   3.541
 1088SOL    HW1 4163   6.922   5.109   3.567
 1088SOL    HW2 4164   6.943   4.954   3.519
 1089SOL     OW 4165   6.538   4.163   4.003
 1089SOL    HW1 4166   6.626   4.194   4.039
 1089SOL    HW2 4167   6.482   4.127   4.078
 1090SOL     OW 4168   5.464   1.668   4.995
 1090SOL    HW1 4169   5.412   1.753   4.997
 1090SOL    HW2 4170   5.468   1.634   4.901
 1091SOL     OW 4171   2.303   2.835   3.343
 1091SOL    HW1 4172   2.214   2.788   3.344
 1091SOL    HW2 4173   2.334   2.849   3.437
 1092SOL     OW 4174   0.691   5.656   1.248
 1092SOL    HW1 4175   0.684   5.558   1.230
 1092SOL    HW2 4176   0.662   5.674   1.342
 1093SOL     OW 4177   2.029   6.813   2.732
 1093SOL    HW1 4178   1.986   6.748   2.670
 1093SOL    HW2 4179   2.081   6.763   2.801
 1094SOL     OW 4180   1.101   0.222   3.051
 1094SOL    HW1 4181   1.122   0.314   3.016
 1094SOL    HW2 4182   1.182   0.185   3.096
 1095SOL     OW 4183   5.881   3.449   0.158
 1095SOL    HW1 4184   5.899   3.356   0.191
 1095SOL    HW2 4185   5.819   3.495   0.222
 1096SOL     OW 4186   2.780   5.682   1.780
 1096SOL    HW1 4187   2.734   5.637   1.703
 1096SOL    HW2 4188   2.841   5.753   1.744
 1097SOL     OW 4189   3.427   5.115   4.507
 1097SOL    HW1 4190   3.480   5.172   4.571
 1097SOL    HW2 4191   3.385   5.174   4.438
 1098SOL     OW 4192   6.366   4.698   1.054
 1098SOL    HW1 4193   6.277   4.734   1.029
 1098SOL    HW2 4194   6.409   4.756   1.123
 1099SOL     OW 4195   4.684   0.698   5.542
 1099SOL    HW1 4196   4.746   0.703   5.620
 1099SOL    HW2 4197   4.632   0.613   5.545
 1100SOL     OW 4198   3.329   1.843   4.005
 1100SOL    HW1 4199   3.249   1.784   3.991
 1100SOL    HW2 4200   3.412   1.794   3.979
 1101SOL     OW 4201   6.296   3.009   6.092
 1101SOL    HW1 4202   6.331   3.016   6.185
 1101SOL    HW2 4203   6.225   3.077   6.077
 1102SOL     OW 4204   2.884   1.571   4.018
 1102SOL    HW1 4205   2.928   1.505   4.078
 1102SOL    HW2 4206   2.796   1.535   3.986
 1103SOL     OW 4207   2.294   0.052   7.002
 1103SOL    HW1 4208   2.373   7.021   7.011
 1103SOL    HW2 4209   2.257   0.044   6.909
 1104SOL     OW 4210   0.760   3.212   4.112
 1104SOL    HW1 4211   0.847   3.193   4.065
 1104SOL    HW2 4212   0.778   3.239   4.206
 1105SOL     OW 4213   5.668   1.094   5.729
 1105SOL    HW1 4214   5.737   1.060   5.792
 1105SOL    HW2 4215   5.662   1.194   5.736
 1106SOL     OW 4216   0.424   2.218   0.973
 1106SOL    HW1 4217   0.471   2.143   0.927
 1106SOL    HW2 4218   0.418   2.198   1.071
 1107SOL     OW 4219   1.015   1.297   0.166
 1107SOL    HW1 4220   1.056   1.300   0.257
 1107SOL    HW2 4221   0.918   1.321   0.172
 1108SOL     OW 4222   2.801   6.479   4.178
 1108SOL    HW1 4223   2.862   6.400   4.176
 1108SOL    HW2 4224   2.744   6.479   4.095
 1109SOL     OW 4225   4.816   1.719   4.031
 1109SOL    HW1 4226   4.908   1.745   4.002
 1109SOL    HW2 4227   4.798   1.757   4.122
 1110SOL     OW 4228   2.999   0.749   2.295
 1110SOL    HW1 4229   2.987   0.669   2.236
 1110SOL    HW2 4230   2.911   0.793   2.310
 1111SOL     OW 4231   5.467   4.149   6.422
 1111SOL    HW1 4232   5.402   4.219   6.452
 1111SOL    HW2 4233   5.556   4.191   6.406
 1112SOL     OW 4234   4.848   0.185   2.350
 1112SOL    HW1 4235   4.911   0.242   2.297
 1112SOL    HW2 4236   4.858   0.090   2.320
 1113SOL     OW 4237   5.417   4.762   2.345
 1113SOL    HW1 4238   5.352   4.782   2.419
 1113SOL    HW2 4239   5.366   4.740   2.262
 1114SOL     OW 4240   3.999   3.603   5.316
 1114SOL    HW1 4241   4.000   3.697   5.349
 1114SOL    HW2 4242   3.951   3.598   5.229
 1115SOL     OW 4243   2.903   4.475   5.604
 1115SOL    HW1 4244   2.829   4.533   5.570
 1115SOL    HW2 4245   2.976   4.471   5.536
 1116SOL     OW 4246   4.668   6.985   6.036
 1116SOL    HW1 4247   4.586   0.001   6.002
 1116SOL    HW2 4248   4.749   0.008   6.010
 1117SOL     OW 4249   1.023   2.730   1.763
 1117SOL    HW1 4250   1.096   2.692   1.821
 1117SOL    HW2 4251   1.045   2.713   1.667
 1118SOL     OW 4252   3.318   4.894   6.942
 1118SOL    HW1 4253   3.334   4.990   6.965
 1118SOL    HW2 4254   3.351   4.875   6.849
 1119SOL     OW 4255   3.533   4.970   4.285
 1119SOL    HW1 4256   3.453   4.944   4.232
 1119SOL    HW2 4257   3.506   4.987   4.380
 1120SOL     OW 4258   6.821   4.368   0.600
 1120SOL    HW1 4259   6.866   4.340   0.685
 1120SOL    HW2 4260   6.846   4.462   0.579
 1121SOL     OW 4261   6.237   4.687   4.469
 1121SOL    HW1 4262   6.169   4.741   4.520
 1121SOL    HW2 4263   6.217   4.590   4.480
 1122SOL     OW 4264   5.667   2.775   1.737
 1122SOL    HW1 4265   5.690   2.682   1.708
 1122SOL    HW2 4266   5.672   2.781   1.836
 1123SOL     OW 4267   3.621   1.515   2.721
 1123SOL    HW1 4268   3.563   1.578   2.772
 1123SOL    HW2 4269   3.568   1.434   2.696
 1124SOL     OW 4270   2.245   2.963   4.715
 1124SOL    HW1 4271   2.288   2.972   4.805
 1124SOL    HW2 4272   2.302   2.905   4.656
 1125SOL     OW 4273   1.097   3.693   3.975
 1125SOL    HW1 4274   1.171   3.754   4.002
 1125SOL    HW2 4275   1.024   3.746   3.932
 1126SOL     OW 4276   3.243   5.285   4.761
 1126SOL    HW1 4277   3.276   5.325   4.846
 1126SOL    HW2 4278   3.320   5.270   4.699
 1127SOL     OW 4279   5.856   6.775   3.013
 1127SOL    HW1 4280   5.788   6.844   2.988
 1127SOL    HW2 4281   5.813   6.707   3.074
 1128SOL     OW 4282   5.806   1.207   3.429
 1128SOL    HW1 4283   5.898   1.173   3.410
 1128SOL    HW2 4284   5.812   1.294   3.479
 1129SOL     OW 4285   1.683   0.388   0.781
 1129SOL    HW1 4286   1.746   0.331   0.729
 1129SOL    HW2 4287   1.724   0.479   0.793
 1130SOL     OW 4288   2.113   4.903   2.165
 1130SOL    HW1 4289   2.123   4.904   2.265
 1130SOL    HW2 4290   2.191   4.855   2.125
 1131SOL     OW 4291   1.431   5.516   4.787
 1131SOL    HW1 4292   1.435   5.609   4.749
 1131SOL    HW2 4293   1.394   5.454   4.718
 1132SOL     OW 4294   2.706   1.315   2.058
 1132SOL    HW1 4295   2.763   1.378   2.110
 1132SOL    HW2 4296   2.762   1.240   2.023
 1133SOL     OW 4297   1.002   6.819   4.879
 1133SOL    HW1 4298   0.929   6.820   4.947
 1133SOL    HW2 4299   1.020   6.912   4.847
 1134SOL     OW 4300   3.768   6.760   1.584
 1134SOL    HW1 4301   3.765   6.725   1.678
 1134SOL    HW2 4302   3.773   6.860   1.586
 1135SOL     OW 4303   1.799   5.732   3.984
 1135SOL    HW1 4304   1.805   5.832   3.984
 1135SOL    HW2 4305   1.773   5.701   4.075
 1136SOL     OW 4306   2.056   5.718   2.100
 1136SOL    HW1 4307   2.062   5.740   2.003
 1136SOL    HW2 4308   1.973   5.664   2.116
 1137SOL     OW 4309   0.862   5.187   5.374
 1137SOL    HW1 4310   0.937   5.250   5.392
 1137SOL    HW2 4311   0.777   5.238   5.363
 1138SOL     OW 4312   2.030   2.724   4.813
 1138SOL    HW1 4313   1.996   2.807   4.856
 1138SOL    HW2 4314   2.110   2.745   4.756
 1139SOL     OW 4315   2.784   5.589   4.433
 1139SOL    HW1 4316   2.753   5.521   4.498
 1139SOL    HW2 4317   2.744   5.570   4.343
 1140SOL     OW 4318   1.149   1.654   0.682
 1140SOL    HW1 4319   1.133   1.589   0.607
 1140SOL    HW2 4320   1.228   1.623   0.736
 1141SOL     OW 4321   6.108   4.919   6.370
 1141SOL    HW1 4322   6.084   4.928   6.467
 1141SOL    HW2 4323   6.050   4.850   6.327
 1142SOL     OW 4324   2.116   6.228   2.899
 1142SOL    HW1 4325   2.207   6.269   2.911
 1142SOL    HW2 4326   2.126   6.137   2.858
 1143SOL     OW 4327   1.476   3.819   1.938
 1143SOL    HW1 4328   1.558   3.863   1.974
 1143SOL    HW2 4329   1.432   3.880   1.872
 1144SOL     OW 4330   5.526   4.385   1.533
 1144SOL    HW1 4331   5.477   4.462   1.492
 1144SOL    HW2 4332   5.500   4.300   1.486
 1145SOL     OW 4333   6.830   1.321   1.121
 1145SOL    HW1 4334   6.777   1.245   1.159
 1145SOL    HW2 4335   6.914   1.332   1.174
 1146SOL     OW 4336   0.929   1.300   1.825
 1146SOL    HW1 4337   0.871   1.220   1.842
 1146SOL    HW2 4338   0.892   1.353   1.749
 1147SOL     OW 4339   3.427   6.519   1.431
 1147SOL    HW1 4340   3.430   6.553   1.337
 1147SOL    HW2 4341   3.373   6.435   1.435
 1148SOL     OW 4342   4.443   5.147   3.728
 1148SOL    HW1 4343   4.356   5.177   3.767
 1148SOL    HW2 4344   4.454   5.049   3.744
 1149SOL     OW 4345   4.665   2.985   1.088
 1149SOL    HW1 4346   4.576   2.943   1.070
 1149SOL    HW2 4347   4.707   2.942   1.168
 1150SOL     OW 4348   2.138   4.381   7.004
 1150SOL    HW1 4349   2.118   4.415   6.912
 1150SOL    HW2 4350   2.139   4.281   7.003
 1151SOL     OW 4351   6.474   5.923   4.032
 1151SOL    HW1 4352   6.467   5.932   4.132
 1151SOL    HW2 4353   6.545   5.985   3.998
 1152SOL     OW 4354   3.838   7.009   6.705
 1152SOL    HW1 4355   3.738   6.999   6.704
 1152SOL    HW2 4356   3.864   0.041   6.780
 1153SOL     OW 4357   6.368   0.716   0.962
 1153SOL    HW1 4358   6.329   0.634   0.919
 1153SOL    HW2 4359   6.467   0.704   0.973
 1154SOL     OW 4360   2.017   2.305   1.400
 1154SOL    HW1 4361   2.092   2.368   1.380
 1154SOL    HW2 4362   1.973   2.334   1.486
 1155SOL     OW 4363   2.857   6.333   5.027
 1155SOL    HW1 4364   2.785   6.398   5.004
 1155SOL    HW2 4365   2.941   6.357   4.978
 1156SOL     OW 4366   3.053   2.244   4.040
 1156SOL    HW1 4367   3.135   2.187   4.037
 1156SOL    HW2 4368   2.982   2.197   4.091
 1157SOL     OW 4369   3.762   1.105   6.002
 1157SOL    HW1 4370   3.678   1.052   6.000
 1157SOL    HW2 4371   3.741   1.202   5.990
 1158SOL     OW 4372   5.977   6.083   3.009
 1158SOL    HW1 4373   6.056   6.072   3.069
 1158SOL    HW2 4374   5.993   6.035   2.923
 1159SOL     OW 4375   6.340   6.143   1.640
 1159SOL    HW1 4376   6.357   6.148   1.542
 1159SOL    HW2 4377   6.303   6.230   1.672
 1160SOL     OW 4378   5.816   1.139   0.880
 1160SOL    HW1 4379   5.834   1.041   0.890
 1160SOL    HW2 4380   5.743   1.166   0.943
 1161SOL     OW 4381   0.749   5.482   0.444
 1161SOL    HW1 4382   0.706   5.467   0.355
 1161SOL    HW2 4383   0.718   5.570   0.481
 1162SOL     OW 4384   2.526   2.604   4.768
 1162SOL    HW1 4385   2.469   2.655   4.704
 1162SOL    HW2 4386   2.553   2.517   4.726
 1163SOL     OW 4387   5.761   3.271   1.839
 1163SOL    HW1 4388   5.810   3.266   1.926
 1163SOL    HW2 4389   5.816   3.320   1.772
 1164SOL     OW 4390   4.680   2.300   4.874
 1164SOL    HW1 4391   4.604   2.316   4.811
 1164SOL    HW2 4392   4.650   2.319   4.968
 1165SOL     OW 4393   4.051   6.303   3.246
 1165SOL    HW1 4394   4.025   6.260   3.333
 1165SOL    HW2 4395   4.006   6.256   3.170
 1166SOL     OW 4396   2.697   5.379   6.442
 1166SOL    HW1 4397   2.618   5.335   6.484
 1166SOL    HW2 4398   2.709   5.343   6.350
 1167SOL     OW 4399   5.916   4.811   2.226
 1167SOL    HW1 4400   5.879   4.792   2.317
 1167SOL    HW2 4401   5.848   4.859   2.171
 1168SOL     OW 4402   6.198   1.651   3.201
 1168SOL    HW1 4403   6.167   1.720   3.135
 1168SOL    HW2 4404   6.152   1.665   3.288
 1169SOL     OW 4405   5.595   0.972   5.301
 1169SOL    HW1 4406   5.508   0.931   5.272
 1169SOL    HW2 4407   5.577   1.041   5.372
 1170SOL     OW 4408   4.736   6.524   3.864
 1170SOL    HW1 4409   4.639   6.541   3.842
 1170SOL    HW2 4410   4.746   6.434   3.905
 1171SOL     OW 4411   1.129   0.128   1.033
 1171SOL    HW1 4412   1.098   0.079   0.951
 1171SOL    HW2 4413   1.143   0.064   1.108
 1172SOL     OW 4414   6.857   3.509   6.383
 1172SOL    HW1 4415   6.815   3.593   6.350
 1172SOL    HW2 4416   6.886   3.453   6.305
 1173SOL     OW 4417   3.650   1.553   0.392
 1173SOL    HW1 4418   3.550   1.562   0.401
 1173SOL    HW2 4419   3.691   1.644   0.388
 1174SOL     OW 4420   3.625   3.281   0.703
 1174SOL    HW1 4421   3.679   3.197   0.716
 1174SOL    HW2 4422   3.528   3.260   0.717
 1175SOL     OW 4423   3.089   3.203   3.975
 1175SOL    HW1 4424   3.099   3.110   3.938
 1175SOL    HW2 4425   3.077   3.198   4.074
 1176SOL     OW 4426   5.397   3.890   6.349
 1176SOL    HW1 4427   5.314   3.870   6.401
 1176SOL    HW2 4428   5.435   3.977   6.380
 1177SOL     OW 4429   6.815   2.412   5.126
 1177SOL    HW1 4430   6.915   2.408   5.123
 1177SOL    HW2 4431   6.783   2.494   5.078
 1178SOL     OW 4432   3.383   5.058   0.564
 1178SOL    HW1 4433   3.333   4.985   0.519
 1178SOL    HW2 4434   3.342   5.078   0.653
 1179SOL     OW 4435   2.472   5.741   0.214
 1179SOL    HW1 4436   2.553   5.796   0.235
 1179SOL    HW2 4437   2.393   5.781   0.260
 1180SOL     OW 4438   4.017   5.997   0.859
 1180SOL    HW1 4439   3.970   6.080   0.829
 1180SOL    HW2 4440   4.044   5.944   0.778
 1181SOL     OW 4441   0.675   5.744   0.543
 1181SOL    HW1 4442   0.584   5.748   0.584
 1181SOL    HW2 4443   0.689   5.825   0.487
 1182SOL     OW 4444   4.403   4.997   3.055
 1182SOL    HW1 4445   4.323   4.958   3.010
 1182SOL    HW2 4446   4.376   5.075   3.111
 1183SOL     OW 4447   2.009   3.659   6.101
 1183SOL    HW1 4448   2.096   3.612   6.112
 1183SOL    HW2 4449   1.955   3.614   6.030
 1184SOL     OW 4450   1.672   6.581   5.317
 1184SOL    HW1 4451   1.646   6.538   5.230
 1184SOL    HW2 4452   1.640   6.524   5.393
 1185SOL     OW 4453   6.947   1.327   6.352
 1185SOL    HW1 4454   7.012   1.340   6.277
 1185SOL    HW2 4455   6.902   1.238   6.342
 1186SOL     OW 4456   5.408   6.085   5.017
 1186SOL    HW1 4457   5.387   6.182   5.005
 1186SOL    HW2 4458   5.391   6.058   5.112
 1187SOL     OW 4459   5.973   0.398   5.847
 1187SOL    HW1 4460   5.894   0.398   5.785
 1187SOL    HW2 4461   6.037   0.327   5.819
 1188SOL     OW 4462   2.374   6.710   5.505
 1188SOL    HW1 4463   2.467   6.744   5.519
 1188SOL    HW2 4464   2.340   6.741   5.416
 1189SOL     OW 4465   5.900   3.639   3.301
 1189SOL    HW1 4466   5.823   3.700   3.281
 1189SOL    HW2 4467   5.977   3.692   3.335
 1190SOL     OW 4468   1.812   6.087   2.475
 1190SOL    HW1 4469   1.878   6.029   2.524
 1190SOL    HW2 4470   1.861   6.155   2.421
 1191SOL     OW 4471   5.041   5.558   2.575
 1191SOL    HW1 4472   5.044   5.473   2.629
 1191SOL    HW2 4473   4.945   5.585   2.562
 1192SOL     OW 4474   4.524   6.218   3.543
 1192SOL    HW1 4475   4.589   6.165   3.598
 1192SOL    HW2 4476   4.438   6.168   3.535
 1193SOL     OW 4477   6.643   5.466   3.635
 1193SOL    HW1 4478   6.616   5.520   3.555
 1193SOL    HW2 4479   6.564   5.456   3.696
 1194SOL     OW 4480   4.231   0.803   1.405
 1194SOL    HW1 4481   4.318   0.850   1.391
 1194SOL    HW2 4482   4.215   0.792   1.503
 1195SOL     OW 4483   5.940   2.355   2.634
 1195SOL    HW1 4484   5.848   2.318   2.641
 1195SOL    HW2 4485   6.005   2.281   2.621
 1196SOL     OW 4486   6.422   6.652   4.799
 1196SOL    HW1 4487   6.355   6.634   4.871
 1196SOL    HW2 4488   6.393   6.731   4.745
 1197SOL     OW 4489   3.096   6.364   0.722
 1197SOL    HW1 4490   3.116   6.266   0.719
 1197SOL    HW2 4491   2.999   6.377   0.746
 1198SOL     OW 4492   0.931   1.875   0.498
 1198SOL    HW1 4493   0.936   1.884   0.597
 1198SOL    HW2 4494   1.024   1.865   0.461
 1199SOL     OW 4495   5.031   4.784   2.270
 1199SOL    HW1 4496   5.105   4.758   2.332
 1199SOL    HW2 4497   5.050   4.750   2.178
 1200SOL     OW 4498   2.950   3.684   2.521
 1200SOL    HW1 4499   2.959   3.643   2.612
 1200SOL    HW2 4500   2.916   3.616   2.456
 1201SOL     OW 4501   1.626   1.876   4.425
 1201SOL    HW1 4502   1.530   1.890   4.401
 1201SOL    HW2 4503   1.646   1.921   4.511
 1202SOL     OW 4504   0.082   5.060   6.665
 1202SOL    HW1 4505   0.166   5.057   6.719
 1202SOL    HW2 4506   0.059   5.155   6.643
 1203SOL     OW 4507   4.853   5.834   5.722
 1203SOL    HW1 4508   4.849   5.883   5.809
 1203SOL    HW2 4509   4.766   5.846   5.673
 1204SOL     OW 4510   1.910   0.301   2.235
 1204SOL    HW1 4511   1.866   0.294   2.324
 1204SOL    HW2 4512   2.009   0.309   2.247
 1205SOL     OW 4513   5.215   4.086   1.978
 1205SOL    HW1 4514   5.203   4.093   2.077
 1205SOL    HW2 4515   5.298   4.136   1.951
 1206SOL     OW 4516   3.204   2.973   5.158
 1206SOL    HW1 4517   3.188   2.894   5.217
 1206SOL    HW2 4518   3.118   3.023   5.146
 1207SOL     OW 4519   1.944   6.832   2.336
 1207SOL    HW1 4520   2.002   6.907   2.303
 1207SOL    HW2 4521   1.935   6.763   2.264
 1208SOL     OW 4522   3.300   3.551   6.374
 1208SOL    HW1 4523   3.383   3.552   6.318
 1208SOL    HW2 4524   3.301   3.472   6.435
 1209SOL     OW 4525   3.865   0.117   5.387
 1209SOL    HW1 4526   3.877   0.030   5.436
 1209SOL    HW2 4527   3.953   0.146   5.348
 1210SOL     OW 4528   2.940   1.300   3.014
 1210SOL    HW1 4529   2.933   1.202   3.033
 1210SOL    HW2 4530   3.035   1.329   3.022
 1211SOL     OW 4531   0.879   3.690   0.860
 1211SOL    HW1 4532   0.866   3.599   0.821
 1211SOL    HW2 4533   0.795   3.742   0.850
 1212SOL     OW 4534   0.903   6.930   6.820
 1212SOL    HW1 4535   0.850   6.961   6.899
 1212SOL    HW2 4536   0.998   6.915   6.848
 1213SOL     OW 4537   5.419   2.799   0.577
 1213SOL    HW1 4538   5.341   2.740   0.599
 1213SOL    HW2 4539   5.386   2.892   0.560
 1214SOL     OW 4540   0.200   2.181   1.559
 1214SOL    HW1 4541   0.184   2.084   1.544
 1214SOL    HW2 4542   0.138   2.234   1.500
 1215SOL     OW 4543   0.946   5.107   3.933
 1215SOL    HW1 4544   0.967   5.113   4.031
 1215SOL    HW2 4545   1.022   5.063   3.886
 1216SOL     OW 4546   4.383   6.900   6.465
 1216SOL    HW1 4547   4.354   6.853   6.548
 1216SOL    HW2 4548   4.336   6.988   6.459
 1217SOL     OW 4549   2.475   4.640   0.520
 1217SOL    HW1 4550   2.478   4.546   0.487
 1217SOL    HW2 4551   2.524   4.699   0.456
 1218SOL     OW 4552   1.433   4.135   3.893
 1218SOL    HW1 4553   1.356   4.146   3.955
 1218SOL    HW2 4554   1.422   4.197   3.815
 1219SOL     OW 4555   4.257   5.987   2.491
 1219SOL    HW1 4556   4.291   6.078   2.468
 1219SOL    HW2 4557   4.174   5.995   2.545
 1220SOL     OW 4558   1.018   4.757   2.576
 1220SOL    HW1 4559   1.031   4.661   2.597
 1220SOL    HW2 4560   0.962   4.800   2.646
 1221SOL     OW 4561   5.944   3.498   6.175
 1221SOL    HW1 4562   5.925   3.415   6.122
 1221SOL    HW2 4563   6.033   3.536   6.147
 1222SOL     OW 4564   0.009   6.098   0.053
 1222SOL    HW1 4565   6.988   6.184   0.062
 1222SOL    HW2 4566   0.022   6.057   0.143
 1223SOL     OW 4567   3.658   6.110   0.571
 1223SOL    HW1 4568   3.645   6.176   0.497
 1223SOL    HW2 4569   3.655   6.017   0.534
 1224SOL     OW 4570   2.653   6.894   1.640
 1224SOL    HW1 4571   2.649   6.967   1.708
 1224SOL    HW2 4572   2.588   6.822   1.664
 1225SOL     OW 4573   3.130   4.289   6.536
 1225SOL    HW1 4574   3.214   4.262   6.583
 1225SOL    HW2 4575   3.139   4.269   6.438
 1226SOL     OW 4576   1.843   4.889   1.076
 1226SOL    HW1 4577   1.845   4.985   1.106
 1226SOL    HW2 4578   1.790   4.835   1.140
 1227SOL     OW 4579   6.950   3.943   6.401
 1227SOL    HW1 4580   7.007   3.871   6.440
 1227SOL    HW2 4581   6.972   4.030   6.444
 1228SOL     OW 4582   4.307   2.185   6.026
 1228SOL    HW1 4583   4.280   2.205   6.120
 1228SOL    HW2 4584   4.358   2.099   6.023
 1229SOL     OW 4585   3.553   4.666   6.328
 1229SOL    HW1 4586   3.515   4.745   6.376
 1229SOL    HW2 4587   3.501   4.584   6.353
 1230SOL     OW 4588   4.419   6.831   3.414
 1230SOL    HW1 4589   4.495   6.783   3.457
 1230SOL    HW2 4590   4.446   6.924   3.392
 1231SOL     OW 4591   1.893   3.582   4.847
 1231SOL    HW1 4592   1.854   3.650   4.908
 1231SOL    HW2 4593   1.841   3.496   4.855
 1232SOL     OW 4594   1.477   2.615   4.544
 1232SOL    HW1 4595   1.546   2.547   4.520
 1232SOL    HW2 4596   1.521   2.699   4.576
 1233SOL     OW 4597   0.803   3.577   4.855
 1233SOL    HW1 4598   0.768   3.499   4.803
 1233SOL    HW2 4599   0.896   3.558   4.885
 1234SOL     OW 4600   6.128   4.144   4.318
 1234SOL    HW1 4601   6.159   4.212   4.251
 1234SOL    HW2 4602   6.203   4.080   4.336
 1235SOL     OW 4603   6.597   5.626   3.415
 1235SOL    HW1 4604   6.526   5.695   3.426
 1235SOL    HW2 4605   6.687   5.670   3.420
 1236SOL     OW 4606   5.422   0.292   6.981
 1236SOL    HW1 4607   5.449   0.361   0.019
 1236SOL    HW2 4608   5.348   0.328   6.924
 1237SOL     OW 4609   3.434   5.117   6.356
 1237SOL    HW1 4610   3.515   5.060   6.347
 1237SOL    HW2 4611   3.358   5.062   6.392
 1238SOL     OW 4612   1.547   1.504   1.199
 1238SOL    HW1 4613   1.451   1.479   1.211
 1238SOL    HW2 4614   1.598   1.424   1.165
 1239SOL     OW 4615   6.795   5.957   6.990
 1239SOL    HW1 4616   6.809   5.920   6.898
 1239SOL    HW2 4617   6.884   5.980   0.001
 1240SOL     OW 4618   4.884   6.162   1.780
 1240SOL    HW1 4619   4.972   6.150   1.734
 1240SOL    HW2 4620   4.810   6.154   1.713
 1241SOL     OW 4621   6.449   3.824   3.966
 1241SOL    HW1 4622   6.544   3.795   3.954
 1241SOL    HW2 4623   6.415   3.791   4.054
 1242SOL     OW 4624   2.218   3.954   0.251
 1242SOL    HW1 4625   2.130   3.999   0.264
 1242SOL    HW2 4626   2.210   3.857   0.271
 1243SOL     OW 4627   2.492   5.287   5.278
 1243SOL    HW1 4628   2.562   5.323   5.340
 1243SOL    HW2 4629   2.537   5.241   5.201
 1244SOL     OW 4630   0.808   1.245   4.039
 1244SOL    HW1 4631   0.800   1.178   3.965
 1244SOL    HW2 4632   0.817   1.196   4.126
 1245SOL     OW 4633   3.138   3.656   0.252
 1245SOL    HW1 4634   3.236   3.639   0.259
 1245SOL    HW2 4635   3.119   3.709   0.170
 1246SOL     OW 4636   1.646   6.412   2.342
 1246SOL    HW1 4637   1.608   6.379   2.255
 1246SOL    HW2 4638   1.691   6.337   2.389
 1247SOL     OW 4639   1.705   6.473   6.475
 1247SOL    HW1 4640   1.663   6.509   6.392
 1247SOL    HW2 4641   1.653   6.394   6.507
 1248SOL     OW 4642   2.028   5.523   4.080
 1248SOL    HW1 4643   1.936   5.508   4.044
 1248SOL    HW2 4644   2.032   5.492   4.175
 1249SOL     OW 4645   5.893   3.390   3.391
 1249SOL    HW1 4646   5.914   3.386   3.489
 1249SOL    HW2 4647   5.891   3.486   3.362
 1250SOL     OW 4648   1.022   4.806   4.522
 1250SOL    HW1 4649   0.981   4.897   4.509
 1250SOL    HW2 4650   1.008   4.777   4.617
 1251SOL     OW 4651   3.844   0.416   4.736
 1251SOL    HW1 4652   3.931   0.465   4.726
 1251SOL    HW2 4653   3.835   0.349   4.662
 1252SOL     OW 4654   3.593   3.975   5.842
 1252SOL    HW1 4655   3.602   3.890   5.894
 1252SOL    HW2 4656   3.515   3.967   5.779
 1253SOL     OW 4657   3.885   5.658   3.027
 1253SOL    HW1 4658   3.851   5.746   2.994
 1253SOL    HW2 4659   3.970   5.635   2.980
 1254SOL     OW 4660   6.500   2.032   2.941
 1254SOL    HW1 4661   6.522   2.127   2.918
 1254SOL    HW2 4662   6.452   1.990   2.865
 1255SOL     OW 4663   6.754   6.866   6.916
 1255SOL    HW1 4664   6.791   6.867   6.823
 1255SOL    HW2 4665   6.710   6.954   6.936
 1256SOL     OW 4666   4.281   0.879   3.456
 1256SOL    HW1 4667   4.219   0.909   3.384
 1256SOL    HW2 4668   4.303   0.783   3.444
 1257SOL     OW 4669   6.606   1.215   3.935
 1257SOL    HW1 4670   6.645   1.145   3.995
 1257SOL    HW2 4671   6.556   1.170   3.861
 1258SOL     OW 4672   0.366   6.609   3.497
 1258SOL    HW1 4673   0.290   6.639   3.553
 1258SOL    HW2 4674   0.333   6.589   3.404
 1259SOL     OW 4675   4.362   1.751   4.428
 1259SOL    HW1 4676   4.383   1.832   4.375
 1259SOL    HW2 4677   4.304   1.776   4.505
 1260SOL     OW 4678   1.309   0.751   0.060
 1260SOL    HW1 4679   1.318   0.716   6.996
 1260SOL    HW2 4680   1.397   0.785   0.092
 1261SOL     OW 4681   6.710   4.831   1.020
 1261SOL    HW1 4682   6.658   4.824   1.106
 1261SOL    HW2 4683   6.808   4.822   1.040
 1262SOL     OW 4684   5.203   5.829   1.136
 1262SOL    HW1 4685   5.185   5.783   1.049
 1262SOL    HW2 4686   5.215   5.761   1.208
 1263SOL     OW 4687   1.224   2.124   3.491
 1263SOL    HW1 4688   1.218   2.053   3.421
 1263SOL    HW2 4689   1.140   2.178   3.491
 1264SOL     OW 4690   0.713   2.519   5.386
 1264SOL    HW1 4691   0.796   2.499   5.334
 1264SOL    HW2 4692   0.738   2.555   5.476
 1265SOL     OW 4693   6.007   6.572   4.690
 1265SOL    HW1 4694   6.002   6.621   4.777
 1265SOL    HW2 4695   5.946   6.493   4.693
 1266SOL     OW 4696   1.920   0.673   5.105
 1266SOL    HW1 4697   1.900   0.694   5.200
 1266SOL    HW2 4698   1.945   0.576   5.097
 1267SOL     OW 4699   4.273   6.931   2.877
 1267SOL    HW1 4700   4.279   6.831   2.870
 1267SOL    HW2 4701   4.231   6.955   2.965
 1268SOL     OW 4702   4.328   2.716   5.588
 1268SOL    HW1 4703   4.258   2.786   5.603
 1268SOL    HW2 4704   4.301   2.631   5.632
 1269SOL     OW 4705   6.296   2.263   4.053
 1269SOL    HW1 4706   6.288   2.248   4.151
 1269SOL    HW2 4707   6.315   2.176   4.007
 1270SOL     OW 4708   6.767   5.960   2.717
 1270SOL    HW1 4709   6.780   5.988   2.622
 1270SOL    HW2 4710   6.844   5.903   2.746
 1271SOL     OW 4711   1.216   1.425   0.943
 1271SOL    HW1 4712   1.298   1.394   0.894
 1271SOL    HW2 4713   1.205   1.523   0.930
 1272SOL     OW 4714   6.541   4.000   6.997
 1272SOL    HW1 4715   6.472   3.944   6.953
 1272SOL    HW2 4716   6.616   3.942   0.000
 1273SOL     OW 4717   1.377   4.735   5.053
 1273SOL    HW1 4718   1.334   4.686   5.129
 1273SOL    HW2 4719   1.329   4.821   5.038
 1274SOL     OW 4720   0.235   5.655   2.762
 1274SOL    HW1 4721   0.181   5.736   2.740
 1274SOL    HW2 4722   0.189   5.573   2.727
 1275SOL     OW 4723   2.228   1.425   2.825
 1275SOL    HW1 4724   2.285   1.507   2.836
 1275SOL    HW2 4725   2.184   1.427   2.736
 1276SOL     OW 4726   5.153   4.802   3.894
 1276SOL    HW1 4727   5.238   4.751   3.904
 1276SOL    HW2 4728   5.093   4.782   3.972
 1277SOL     OW 4729   0.391   6.005   0.468
 1277SOL    HW1 4730   0.440   6.007   0.555
 1277SOL    HW2 4731   0.438   6.064   0.402
 1278SOL     OW 4732   1.088   5.898   2.747
 1278SOL    HW1 4733   1.167   5.865   2.798
 1278SOL    HW2 4734   1.085   5.998   2.750
 1279SOL     OW 4735   1.914   2.384   0.682
 1279SOL    HW1 4736   1.871   2.467   0.715
 1279SOL    HW2 4737   1.876   2.305   0.729
 1280SOL     OW 4738   2.025   2.342   3.741
 1280SOL    HW1 4739   1.945   2.349   3.800
 1280SOL    HW2 4740   2.082   2.266   3.772
 1281SOL     OW 4741   4.234   6.290   4.661
 1281SOL    HW1 4742   4.230   6.249   4.570
 1281SOL    HW2 4743   4.282   6.377   4.657
 1282SOL     OW 4744   6.608   2.307   1.420
 1282SOL    HW1 4745   6.535   2.249   1.386
 1282SOL    HW2 4746   6.664   2.256   1.485
 1283SOL     OW 4747   6.879   3.067   5.032
 1283SOL    HW1 4748   6.875   3.134   5.107
 1283SOL    HW2 4749   6.912   3.112   4.949
 1284SOL     OW 4750   4.235   1.763   1.795
 1284SOL    HW1 4751   4.281   1.841   1.754
 1284SOL    HW2 4752   4.249   1.765   1.894
 1285SOL     OW 4753   4.392   1.045   4.902
 1285SOL    HW1 4754   4.343   1.047   4.815
 1285SOL    HW2 4755   4.414   1.138   4.930
 1286SOL     OW 4756   5.041   1.990   1.801
 1286SOL    HW1 4757   5.046   2.053   1.879
 1286SOL    HW2 4758   4.987   2.033   1.728
 1287SOL     OW 4759   6.375   4.220   4.633
 1287SOL    HW1 4760   6.314   4.141   4.635
 1287SOL    HW2 4761   6.409   4.234   4.540
 1288SOL     OW 4762   4.304   3.879   0.069
 1288SOL    HW1 4763   4.227   3.918   0.121
 1288SOL    HW2 4764   4.336   3.945   0.002
 1289SOL     OW 4765   6.821   0.347   1.819
 1289SOL    HW1 4766   6.820   0.420   1.888
 1289SOL    HW2 4767   6.910   0.348   1.772
 1290SOL     OW 4768   1.762   6.886   6.240
 1290SOL    HW1 4769   1.756   6.903   6.142
 1290SOL    HW2 4770   1.688   6.932   6.287
 1291SOL     OW 4771   6.765   5.420   2.961
 1291SOL    HW1 4772   6.817   5.339   2.984
 1291SOL    HW2 4773   6.679   5.393   2.916
 1292SOL     OW 4774   1.010   6.958   2.188
 1292SOL    HW1 4775   1.067   6.876   2.196
 1292SOL    HW2 4776   0.957   6.971   2.272
 1293SOL     OW 4777   3.495   1.670   0.003
 1293SOL    HW1 4778   3.486   1.762   0.040
 1293SOL    HW2 4779   3.458   1.666   6.939
 1294SOL     OW 4780   2.419   3.632   5.368
 1294SOL    HW1 4781   2.487   3.566   5.398
 1294SOL    HW2 4782   2.453   3.725   5.385
 1295SOL     OW 4783   6.497   4.599   0.660
 1295SOL    HW1 4784   6.531   4.510   0.632
 1295SOL    HW2 4785   6.572   4.654   0.696
 1296SOL     OW 4786   5.564   0.014   5.555
 1296SOL    HW1 4787   5.501   0.059   5.619
 1296SOL    HW2 4788   5.523   0.013   5.464
 1297SOL     OW 4789   0.521   0.350   2.273
 1297SOL    HW1 4790   0.488   0.438   2.306
 1297SOL    HW2 4791   0.518   0.348   2.173
 1298SOL     OW 4792   5.296   6.468   2.395
 1298SOL    HW1 4793   5.334   6.415   2.471
 1298SOL    HW2 4794   5.196   6.460   2.395
 1299SOL     OW 4795   1.332   3.314   5.102
 1299SOL    HW1 4796   1.344   3.265   5.188
 1299SOL    HW2 4797   1.356   3.411   5.115
 1300SOL     OW 4798   1.024   4.389   1.941
 1300SOL    HW1 4799   0.981   4.370   1.852
 1300SOL    HW2 4800   0.980   4.469   1.982
 1301SOL     OW 4801   0.665   0.534   0.765
 1301SOL    HW1 4802   0.594   0.602   0.783
 1301SOL    HW2 4803   0.745   0.553   0.821
 1302SOL     OW 4804   5.373   6.986   4.444
 1302SOL    HW1 4805   5.331   6.946   4.525
 1302SOL    HW2 4806   5.393   0.054   4.461
 1303SOL     OW 4807   3.859   6.230   2.009
 1303SOL    HW1 4808   3.885   6.159   1.944
 1303SOL    HW2 4809   3.941   6.262   2.057
 1304SOL     OW 4810   0.542   1.214   0.597
 1304SOL    HW1 4811   0.636   1.209   0.561
 1304SOL    HW2 4812   0.545   1.205   0.697
 1305SOL     OW 4813   5.151   3.662   6.244
 1305SOL    HW1 4814   5.242   3.663   6.204
 1305SOL    HW2 4815   5.103   3.747   6.221
 1306SOL     OW 4816   2.542   5.399   4.351
 1306SOL    HW1 4817   2.599   5.321   4.378
 1306SOL    HW2 4818   2.456   5.366   4.312
 1307SOL     OW 4819   2.678   2.171   3.466
 1307SOL    HW1 4820   2.633   2.257   3.491
 1307SOL    HW2 4821   2.743   2.145   3.537
 1308SOL     OW 4822   0.676   4.488   5.905
 1308SOL    HW1 4823   0.692   4.529   5.816
 1308SOL    HW2 4824   0.584   4.447   5.907
 1309SOL     OW 4825   5.363   4.487   6.856
 1309SOL    HW1 4826   5.323   4.398   6.837
 1309SOL    HW2 4827   5.370   4.540   6.771
 1310SOL     OW 4828   1.075   3.728   3.205
 1310SOL    HW1 4829   1.037   3.720   3.113
 1310SOL    HW2 4830   1.164   3.772   3.201
 1311SOL     OW 4831   0.075   5.573   0.670
 1311SOL    HW1 4832   0.095   5.647   0.734
 1311SOL    HW2 4833   0.011   5.508   0.712
 1312SOL     OW 4834   2.203   1.111   6.275
 1312SOL    HW1 4835   2.182   1.146   6.183
 1312SOL    HW2 4836   2.239   1.018   6.268
 1313SOL     OW 4837   6.467   6.377   2.853
 1313SOL    HW1 4838   6.542   6.312   2.837
 1313SOL    HW2 4839   6.439   6.417   2.765
 1314SOL     OW 4840   2.220   1.886   5.210
 1314SOL    HW1 4841   2.220   1.841   5.299
 1314SOL    HW2 4842   2.259   1.824   5.142
 1315SOL     OW 4843   6.228   1.372   3.229
 1315SOL    HW1 4844   6.183   1.458   3.253
 1315SOL    HW2 4845   6.316   1.366   3.275
 1316SOL     OW 4846   4.079   0.532   5.208
 1316SOL    HW1 4847   4.170   0.516   5.247
 1316SOL    HW2 4848   4.039   0.614   5.248
 1317SOL     OW 4849   2.830   3.364   5.937
 1317SOL    HW1 4850   2.829   3.311   5.853
 1317SOL    HW2 4851   2.837   3.462   5.916
 1318SOL     OW 4852   1.990   2.326   6.241
 1318SOL    HW1 4853   1.898   2.298   6.269
 1318SOL    HW2 4854   2.025   2.395   6.305
 1319SOL     OW 4855   6.729   6.621   1.080
 1319SOL    HW1 4856   6.689   6.529   1.084
 1319SOL    HW2 4857   6.765   6.637   0.988
 1320SOL     OW 4858   3.453   3.014   6.102
 1320SOL    HW1 4859   3.409   2.972   6.023
 1320SOL    HW2 4860   3.411   3.103   6.121
 1321SOL     OW 4861   5.149   2.713   0.071
 1321SOL    HW1 4862   5.248   2.707   0.078
 1321SOL    HW2 4863   5.124   2.778   7.028
 1322SOL     OW 4864   3.384   1.622   0.463
 1322SOL    HW1 4865   3.350   1.711   0.433
 1322SOL    HW2 4866   3.434   1.633   0.549
 1323SOL     OW 4867   3.834   6.911   0.696
 1323SOL    HW1 4868   3.909   6.847   0.678
 1323SOL    HW2 4869   3.847   6.993   0.642
 1324SOL     OW 4870   1.493   3.533   0.084
 1324SOL    HW1 4871   1.529   3.553   7.022
 1324SOL    HW2 4872   1.520   3.605   0.147
 1325SOL     OW 4873   2.565   5.347   5.716
 1325SOL    HW1 4874   2.493   5.329   5.782
 1325SOL    HW2 4875   2.651   5.365   5.763
 1326SOL     OW 4876   4.876   2.966   3.528
 1326SOL    HW1 4877   4.874   3.062   3.556
 1326SOL    HW2 4878   4.811   2.913   3.581
 1327SOL     OW 4879   6.009   5.623   1.430
 1327SOL    HW1 4880   6.047   5.569   1.505
 1327SOL    HW2 4881   6.081   5.676   1.386
 1328SOL     OW 4882   1.919   3.502   5.464
 1328SOL    HW1 4883   1.908   3.587   5.515
 1328SOL    HW2 4884   2.016   3.485   5.449
 1329SOL     OW 4885   0.738   2.849   3.117
 1329SOL    HW1 4886   0.805   2.883   3.052
 1329SOL    HW2 4887   0.728   2.750   3.107
 1330SOL     OW 4888   6.268   3.206   1.362
 1330SOL    HW1 4889   6.334   3.131   1.362
 1330SOL    HW2 4890   6.182   3.175   1.322
 1331SOL     OW 4891   4.560   1.721   3.240
 1331SOL    HW1 4892   4.525   1.648   3.181
 1331SOL    HW2 4893   4.528   1.705   3.334
 1332SOL     OW 4894   1.532   6.095   0.195
 1332SOL    HW1 4895   1.489   6.008   0.216
 1332SOL    HW2 4896   1.570   6.135   0.278
 1333SOL     OW 4897   3.991   3.963   3.066
 1333SOL    HW1 4898   3.997   3.916   2.978
 1333SOL    HW2 4899   3.914   4.026   3.064
 1334SOL     OW 4900   0.020   3.549   2.339
 1334SOL    HW1 4901   6.971   3.516   2.286
 1334SOL    HW2 4902   0.051   3.636   2.301
 1335SOL     OW 4903   1.360   3.390   2.101
 1335SOL    HW1 4904   1.404   3.317   2.153
 1335SOL    HW2 4905   1.392   3.387   2.006
 1336SOL     OW 4906   3.080   0.638   5.206
 1336SOL    HW1 4907   3.110   0.554   5.161
 1336SOL    HW2 4908   3.019   0.688   5.145
 1337SOL     OW 4909   0.072   1.287   3.983
 1337SOL    HW1 4910   0.023   1.369   4.013
 1337SOL    HW2 4911   0.123   1.248   4.060
 1338SOL     OW 4912   6.596   3.916   4.979
 1338SOL    HW1 4913   6.513   3.952   5.022
 1338SOL    HW2 4914   6.674   3.974   5.003
 1339SOL     OW 4915   0.253   0.591   7.006
 1339SOL    HW1 4916   0.250   0.493   7.024
 1339SOL    HW2 4917   0.340   0.613   6.960
 1340SOL     OW 4918   4.307   2.542   1.755
 1340SOL    HW1 4919   4.340   2.501   1.840
 1340SOL    HW2 4920   4.268   2.471   1.697
 1341SOL     OW 4921   4.789   0.200   6.943
 1341SOL    HW1 4922   4.793   0.272   7.012
 1341SOL    HW2 4923   4.829   0.116   6.980
 1342SOL     OW 4924   2.631   6.346   1.331
 1342SOL    HW1 4925   2.635   6.434   1.378
 1342SOL    HW2 4926   2.564   6.287   1.375
 1343SOL     OW 4927   5.794   6.245   3.118
 1343SOL    HW1 4928   5.863   6.187   3.076
 1343SOL    HW2 4929   5.740   6.191   3.183
 1344SOL     OW 4930   0.131   0.569   5.166
 1344SOL    HW1 4931   0.062   0.513   5.212
 1344SOL    HW2 4932   0.221   0.548   5.204
 1345SOL     OW 4933   0.212   6.157   0.584
 1345SOL    HW1 4934   0.282   6.102   0.540
 1345SOL    HW2 4935   0.125   6.106   0.586
 1346SOL     OW 4936   3.163   5.326   5.508
 1346SOL    HW1 4937   3.163   5.334   5.408
 1346SOL    HW2 4938   3.114   5.243   5.535
 1347SOL     OW 4939   1.233   6.916   6.364
 1347SOL    HW1 4940   1.173   6.980   6.317
 1347SOL    HW2 4941   1.188   6.882   6.447
 1348SOL     OW 4942   0.775   6.207   5.360
 1348SOL    HW1 4943   0.822   6.294   5.348
 1348SOL    HW2 4944   0.692   6.222   5.414
 1349SOL     OW 4945   4.836   3.082   3.845
 1349SOL    HW1 4946   4.803   2.997   3.805
 1349SOL    HW2 4947   4.879   3.138   3.774
 1350SOL     OW 4948   3.895   3.707   0.250
 1350SOL    HW1 4949   3.962   3.646   0.208
 1350SOL    HW2 4950   3.808   3.701   0.201
 1351SOL     OW 4951   6.598   2.509   5.701
 1351SOL    HW1 4952   6.608   2.480   5.796
 1351SOL    HW2 4953   6.556   2.600   5.699
 1352SOL     OW 4954   6.860   0.727   2.426
 1352SOL    HW1 4955   6.893   0.780   2.504
 1352SOL    HW2 4956   6.907   0.757   2.343
 1353SOL     OW 4957   0.658   0.844   0.696
 1353SOL    HW1 4958   0.686   0.940   0.705
 1353SOL    HW2 4959   0.712   0.800   0.625
 1354SOL     OW 4960   5.317   5.105   2.369
 1354SOL    HW1 4961   5.352   5.194   2.397
 1354SOL    HW2 4962   5.222   5.097   2.399
 1355SOL     OW 4963   6.408   3.671   5.793
 1355SOL    HW1 4964   6.460   3.614   5.729
 1355SOL    HW2 4965   6.315   3.636   5.800
 1356SOL     OW 4966   3.420   3.008   1.042
 1356SOL    HW1 4967   3.329   3.026   1.079
 1356SOL    HW2 4968   3.489   3.053   1.098
 1357SOL     OW 4969   0.157   3.501   5.417
 1357SOL    HW1 4970   0.150   3.599   5.401
 1357SOL    HW2 4971   0.124   3.480   5.509
 1358SOL     OW 4972   1.345   6.533   6.872
 1358SOL    HW1 4973   1.342   6.582   6.784
 1358SOL    HW2 4974   1.252   6.505   6.896
 1359SOL     OW 4975   6.822   4.479   1.690
 1359SOL    HW1 4976   6.758   4.553   1.671
 1359SOL    HW2 4977   6.871   4.498   1.774
 1360SOL     OW 4978   2.049   2.146   0.086
 1360SOL    HW1 4979   2.000   2.231   0.105
 1360SOL    HW2 4980   2.147   2.164   0.083
 1361SOL     OW 4981   6.657   4.945   4.781
 1361SOL    HW1 4982   6.700   4.871   4.730
 1361SOL    HW2 4983   6.721   4.981   4.848
 1362SOL     OW 4984   3.301   2.984   2.873
 1362SOL    HW1 4985   3.361   3.062   2.887
 1362SOL    HW2 4986   3.247   2.998   2.789
 1363SOL     OW 4987   1.040   5.637   5.072
 1363SOL    HW1 4988   0.992   5.564   5.121
 1363SOL    HW2 4989   1.137   5.635   5.095
 1364SOL     OW 4990   3.474   3.943   0.932
 1364SOL    HW1 4991   3.415   3.936   0.851
 1364SOL    HW2 4992   3.500   4.039   0.945
 1365SOL     OW 4993   0.122   3.845   6.680
 1365SOL    HW1 4994   0.116   3.783   6.602
 1365SOL    HW2 4995   0.075   3.804   6.759
 1366SOL     OW 4996   2.762   0.279   5.205
 1366SOL    HW1 4997   2.736   0.297   5.110
 1366SOL    HW2 4998   2.705   0.205   5.241
 1367SOL     OW 4999   2.051   0.845   2.738
 1367SOL    HW1 5000   1.963   0.808   2.766
 1367SOL    HW2 5001   2.078   0.919   2.800
 1368SOL     OW 5002   5.662   6.977   3.974
 1368SOL    HW1 5003   5.701   6.986   4.066
 1368SOL    HW2 5004   5.601   6.898   3.972
 1369SOL     OW 5005   0.839   0.670   3.291
 1369SOL    HW1 5006   0.752   0.676   3.340
 1369SOL    HW2 5007   0.844   0.744   3.224
 1370SOL     OW 5008   2.658   0.731   1.754
 1370SOL    HW1 5009   2.603   0.660   1.711
 1370SOL    HW2 5010   2.682   0.703   1.847
 1371SOL     OW 5011   4.281   0.626   6.730
 1371SOL    HW1 5012   4.259   0.717   6.767
 1371SOL    HW2 5013   4.272   0.628   6.630
 1372SOL     OW 5014   3.295   1.998   1.954
 1372SOL    HW1 5015   3.260   2.077   2.004
 1372SOL    HW2 5016   3.395   1.998   1.958
 1373SOL     OW 5017   1.423   6.059   1.096
 1373SOL    HW1 5018   1.329   6.093   1.090
 1373SOL    HW2 5019   1.422   5.964   1.127
 1374SOL     OW 5020   5.011   2.870   0.521
 1374SOL    HW1 5021   5.025   2.852   0.424
 1374SOL    HW2 5022   4.914   2.866   0.543
 1375SOL     OW 5023   0.402   4.264   5.623
 1375SOL    HW1 5024   0.401   4.362   5.643
 1375SOL    HW2 5025   0.317   4.239   5.577
 1376SOL     OW 5026   4.798   1.960   1.931
 1376SOL    HW1 5027   4.763   1.910   2.011
 1376SOL    HW2 5028   4.884   1.919   1.901
 1377SOL     OW 5029   0.584   5.221   4.971
 1377SOL    HW1 5030   0.521   5.177   5.035
 1377SOL    HW2 5031   0.592   5.318   4.995
 1378SOL     OW 5032   1.463   2.493   7.017
 1378SOL    HW1 5033   1.376   2.519   6.975
 1378SOL    HW2 5034   1.482   2.553   0.066
 1379SOL     OW 5035   3.989   6.232   1.658
 1379SOL    HW1 5036   4.001   6.331   1.648
 1379SOL    HW2 5037   3.957   6.193   1.571
 1380SOL     OW 5038   6.342   6.687   2.945
 1380SOL    HW1 5039   6.422   6.730   2.988
 1380SOL    HW2 5040   6.311   6.611   3.002
 1381SOL     OW 5041   6.320   0.850   1.345
 1381SOL    HW1 5042   6.340   0.881   1.253
 1381SOL    HW2 5043   6.224   0.823   1.351
 1382SOL     OW 5044   6.230   4.764   6.785
 1382SOL    HW1 5045   6.207   4.856   6.818
 1382SOL    HW2 5046   6.238   4.765   6.686
 1383SOL     OW 5047   2.775   0.009   0.724
 1383SOL    HW1 5048   2.855   0.033   0.780
 1383SOL    HW2 5049   2.796   6.956   0.671
 1384SOL     OW 5050   2.914   1.866   2.298
 1384SOL    HW1 5051   2.949   1.959   2.284
 1384SOL    HW2 5052   2.855   1.865   2.379
 1385SOL     OW 5053   5.765   3.184   2.789
 1385SOL    HW1 5054   5.709   3.169   2.708
 1385SOL    HW2 5055   5.707   3.178   2.871
 1386SOL     OW 5056   2.308   2.399   4.013
 1386SOL    HW1 5057   2.316   2.321   3.952
 1386SOL    HW2 5058   2.397   2.422   4.051
 1387SOL     OW 5059   2.499   0.948   5.249
 1387SOL    HW1 5060   2.578   0.897   5.214
 1387SOL    HW2 5061   2.426   0.946   5.181
 1388SOL     OW 5062   6.407   0.682   5.393
 1388SOL    HW1 5063   6.471   0.641   5.458
 1388SOL    HW2 5064   6.319   0.698   5.438
 1389SOL     OW 5065   6.642   0.831   4.936
 1389SOL    HW1 5066   6.680   0.739   4.931
 1389SOL    HW2 5067   6.716   0.897   4.951
 1390SOL     OW 5068   5.087   2.582   2.358
 1390SOL    HW1 5069   4.996   2.557   2.324
 1390SOL    HW2 5070   5.103   2.536   2.446
 1391SOL     OW 5071   6.142   1.466   4.662
 1391SOL    HW1 5072   6.194   1.511   4.590
 1391SOL    HW2 5073   6.143   1.523   4.744
 1392SOL     OW 5074   4.654   5.680   6.236
 1392SOL    HW1 5075   4.603   5.599   6.208
 1392SOL    HW2 5076   4.591   5.756   6.251
 1393SOL     OW 5077   5.839   0.402   6.398
 1393SOL    HW1 5078   5.763   0.462   6.375
 1393SOL    HW2 5079   5.839   0.322   6.338
 1394SOL     OW 5080   4.333   0.290   4.049
 1394SOL    HW1 5081   4.334   0.386   4.020
 1394SOL    HW2 5082   4.363   0.285   4.144
 1395SOL     OW 5083   1.065   5.429   2.160
 1395SOL    HW1 5084   1.050   5.354   2.096
 1395SOL    HW2 5085   0.981   5.483   2.169
 1396SOL     OW 5086   2.030   1.470   3.698
 1396SOL    HW1 5087   2.008   1.454   3.602
 1396SOL    HW2 5088   1.952   1.447   3.756
 1397SOL     OW 5089   1.144   5.561   4.827
 1397SOL    HW1 5090   1.128   5.575   4.924
 1397SOL    HW2 5091   1.117   5.643   4.776
 1398SOL     OW 5092   1.430   6.275   0.597
 1398SOL    HW1 5093   1.411   6.327   0.514
 1398SOL    HW2 5094   1.528   6.281   0.618
 1399SOL     OW 5095   4.168   0.378   0.459
 1399SOL    HW1 5096   4.167   0.440   0.380
 1399SOL    HW2 5097   4.080   0.383   0.507
 1400SOL     OW 5098   0.211   0.631   4.914
 1400SOL    HW1 5099   0.271   0.552   4.906
 1400SOL    HW2 5100   0.157   0.624   4.998
 1401SOL     OW 5101   5.348   0.257   2.515
 1401SOL    HW1 5102   5.280   0.319   2.554
 1401SOL    HW2 5103   5.352   0.174   2.570
 1402SOL     OW 5104   7.027   4.724   2.639
 1402SOL    HW1 5105   0.061   4.650   2.616
 1402SOL    HW2 5106   0.041   4.786   2.704
 1403SOL     OW 5107   3.236   3.515   5.979
 1403SOL    HW1 5108   3.156   3.521   6.039
 1403SOL    HW2 5109   3.305   3.457   6.021
 1404SOL     OW 5110   3.706   6.409   0.563
 1404SOL    HW1 5111   3.782   6.429   0.502
 1404SOL    HW2 5112   3.721   6.320   0.607
 1405SOL     OW 5113   0.707   4.211   1.144
 1405SOL    HW1 5114   0.613   4.224   1.112
 1405SOL    HW2 5115   0.771   4.223   1.068
 1406SOL     OW 5116   2.084   2.920   0.523
 1406SOL    HW1 5117   2.093   2.848   0.592
 1406SOL    HW2 5118   2.149   2.993   0.543
 1407SOL     OW 5119   0.121   3.145   1.479
 1407SOL    HW1 5120   0.074   3.123   1.564
 1407SOL    HW2 5121   0.129   3.245   1.470
 1408SOL     OW 5122   5.762   6.629   0.852
 1408SOL    HW1 5123   5.709   6.710   0.877
 1408SOL    HW2 5124   5.702   6.561   0.811
 1409SOL     OW 5125   6.549   1.160   5.899
 1409SOL    HW1 5126   6.615   1.153   5.824
 1409SOL    HW2 5127   6.476   1.224   5.873
 1410SOL     OW 5128   3.257   0.397   6.277
 1410SOL    HW1 5129   3.174   0.440   6.315
 1410SOL    HW2 5130   3.311   0.466   6.230
 1411SOL     OW 5131   3.746   4.898   6.943
 1411SOL    HW1 5132   3.721   4.970   6.879
 1411SOL    HW2 5133   3.804   4.936   7.016
 1412SOL     OW 5134   2.798   2.553   6.618
 1412SOL    HW1 5135   2.785   2.550   6.717
 1412SOL    HW2 5136   2.814   2.648   6.590
 1413SOL     OW 5137   1.630   2.007   4.920
 1413SOL    HW1 5138   1.550   1.948   4.932
 1413SOL    HW2 5139   1.657   2.045   5.009
 1414SOL     OW 5140   0.810   4.573   2.808
 1414SOL    HW1 5141   0.846   4.593   2.899
 1414SOL    HW2 5142   0.883   4.535   2.751
 1415SOL     OW 5143   2.620   1.492   4.866
 1415SOL    HW1 5144   2.551   1.545   4.817
 1415SOL    HW2 5145   2.575   1.419   4.917
 1416SOL     OW 5146   4.690   0.855   4.632
 1416SOL    HW1 5147   4.722   0.765   4.603
 1416SOL    HW2 5148   4.624   0.890   4.565
 1417SOL     OW 5149   3.725   3.653   5.523
 1417SOL    HW1 5150   3.727   3.745   5.482
 1417SOL    HW2 5151   3.697   3.587   5.454
 1418SOL     OW 5152   3.940   4.224   5.685
 1418SOL    HW1 5153   3.852   4.207   5.729
 1418SOL    HW2 5154   3.939   4.314   5.642
 1419SOL     OW 5155   1.456   5.793   1.984
 1419SOL    HW1 5156   1.423   5.719   1.926
 1419SOL    HW2 5157   1.380   5.856   2.004
 1420SOL     OW 5158   2.749   6.341   2.869
 1420SOL    HW1 5159   2.677   6.410   2.862
 1420SOL    HW2 5160   2.718   6.266   2.926
 1421SOL     OW 5161   1.424   4.982   6.335
 1421SOL    HW1 5162   1.437   4.890   6.298
 1421SOL    HW2 5163   1.329   5.009   6.322
 1422SOL     OW 5164   2.066   3.255   6.648
 1422SOL    HW1 5165   2.111   3.179   6.602
 1422SOL    HW2 5166   2.134   3.313   6.692
 1423SOL     OW 5167   4.024   1.083   4.779
 1423SOL    HW1 5168   3.955   1.014   4.800
 1423SOL    HW2 5169   3.990   1.144   4.707
 1424SOL     OW 5170   6.256   2.909   0.777
 1424SOL    HW1 5171   6.348   2.930   0.744
 1424SOL    HW2 5172   6.222   2.984   0.834
 1425SOL     OW 5173   5.286   0.336   3.703
 1425SOL    HW1 5174   5.371   0.376   3.671
 1425SOL    HW2 5175   5.214   0.350   3.635
 1426SOL     OW 5176   3.872   1.035   0.395
 1426SOL    HW1 5177   3.942   1.023   0.324
 1426SOL    HW2 5178   3.906   1.098   0.465
 1427SOL     OW 5179   1.909   0.294   3.664
 1427SOL    HW1 5180   1.863   0.379   3.689
 1427SOL    HW2 5181   1.999   0.291   3.707
 1428SOL     OW 5182   0.725   2.869   3.869
 1428SOL    HW1 5183   0.776   2.951   3.844
 1428SOL    HW2 5184   0.759   2.791   3.817
 1429SOL     OW 5185   6.354   0.907   2.098
 1429SOL    HW1 5186   6.327   0.914   2.002
 1429SOL    HW2 5187   6.273   0.897   2.155
 1430SOL     OW 5188   2.139   3.546   4.372
 1430SOL    HW1 5189   2.162   3.643   4.379
 1430SOL    HW2 5190   2.112   3.511   4.462
 1431SOL     OW 5191   2.955   1.231   0.505
 1431SOL    HW1 5192   2.968   1.204   0.410
 1431SOL    HW2 5193   3.021   1.302   0.529
 1432SOL     OW 5194   3.055   7.022   2.547
 1432SOL    HW1 5195   3.055   6.961   2.468
 1432SOL    HW2 5196   3.067   0.088   2.516
 1433SOL     OW 5197   2.671   0.645   3.987
 1433SOL    HW1 5198   2.609   0.684   4.056
 1433SOL    HW2 5199   2.696   0.716   3.921
 1434SOL     OW 5200   6.135   4.033   0.308
 1434SOL    HW1 5201   6.203   4.106   0.301
 1434SOL    HW2 5202   6.180   3.947   0.335
 1435SOL     OW 5203   1.337   0.049   3.769
 1435SOL    HW1 5204   1.302   7.012   3.702
 1435SOL    HW2 5205   1.426   0.019   3.802
 1436SOL     OW 5206   5.330   1.164   0.487
 1436SOL    HW1 5207   5.269   1.185   0.564
 1436SOL    HW2 5208   5.420   1.205   0.503
 1437SOL     OW 5209   3.697   0.778   0.132
 1437SOL    HW1 5210   3.620   0.721   0.161
 1437SOL    HW2 5211   3.736   0.824   0.212
 1438SOL     OW 5212   2.302   0.379   2.737
 1438SOL    HW1 5213   2.353   0.465   2.746
 1438SOL    HW2 5214   2.222   0.382   2.797
 1439SOL     OW 5215   0.024   4.628   6.974
 1439SOL    HW1 5216   0.055   4.538   6.942
 1439SOL    HW2 5217   6.962   4.646   6.937
 1440SOL     OW 5218   3.431   2.872   3.136
 1440SOL    HW1 5219   3.359   2.890   3.203
 1440SOL    HW2 5220   3.398   2.894   3.044
 1441SOL     OW 5221   6.242   2.780   4.176
 1441SOL    HW1 5222   6.173   2.784   4.248
 1441SOL    HW2 5223   6.303   2.702   4.192
 1442SOL     OW 5224   5.482   6.750   6.743
 1442SOL    HW1 5225   5.395   6.729   6.697
 1442SOL    HW2 5226   5.555   6.757   6.675
 1443SOL     OW 5227   0.807   2.571   3.075
 1443SOL    HW1 5228   0.777   2.593   2.982
 1443SOL    HW2 5229   0.900   2.603   3.089
 1444SOL     OW 5230   5.568   0.344   5.343
 1444SOL    HW1 5231   5.559   0.424   5.285
 1444SOL    HW2 5232   5.556   0.371   5.439
 1445SOL     OW 5233   6.487   2.045   0.570
 1445SOL    HW1 5234   6.524   2.101   0.496
 1445SOL    HW2 5235   6.548   1.967   0.587
 1446SOL     OW 5236   3.952   0.044   1.202
 1446SOL    HW1 5237   4.016   0.121   1.207
 1446SOL    HW2 5238   3.978   7.004   1.270
 1447SOL     OW 5239   5.319   1.443   4.887
 1447SOL    HW1 5240   5.396   1.427   4.949
 1447SOL    HW2 5241   5.259   1.512   4.926
 1448SOL     OW 5242   5.595   0.177   6.747
 1448SOL    HW1 5243   5.641   0.115   6.811
 1448SOL    HW2 5244   5.625   0.271   6.764
 1449SOL     OW 5245   4.814   5.685   0.772
 1449SOL    HW1 5246   4.866   5.621   0.716
 1449SOL    HW2 5247   4.740   5.637   0.819
 1450SOL     OW 5248   5.959   2.277   3.941
 1450SOL    HW1 5249   5.960   2.180   3.915
 1450SOL    HW2 5250   5.874   2.319   3.910
 1451SOL     OW 5251   1.752   7.027   2.407
 1451SOL    HW1 5252   1.782   6.935   2.432
 1451SOL    HW2 5253   1.723   7.028   2.311
 1452SOL     OW 5254   4.544   0.638   4.899
 1452SOL    HW1 5255   4.555   0.594   4.811
 1452SOL    HW2 5256   4.479   0.714   4.891
 1453SOL     OW 5257   4.585   4.397   4.230
 1453SOL    HW1 5258   4.590   4.482   4.282
 1453SOL    HW2 5259   4.641   4.327   4.274
 1454SOL     OW 5260   4.996   4.482   1.101
 1454SOL    HW1 5261   4.993   4.479   1.201
 1454SOL    HW2 5262   5.083   4.443   1.070
 1455SOL     OW 5263   2.464   1.933   1.236
 1455SOL    HW1 5264   2.477   1.944   1.335
 1455SOL    HW2 5265   2.391   1.993   1.204
 1456SOL     OW 5266   6.181   5.548   4.028
 1456SOL    HW1 5267   6.185   5.528   4.126
 1456SOL    HW2 5268   6.224   5.636   4.010
 1457SOL     OW 5269   1.929   6.995   3.508
 1457SOL    HW1 5270   1.905   6.899   3.523
 1457SOL    HW2 5271   1.899   0.021   3.585
 1458SOL     OW 5272   6.835   5.419   0.361
 1458SOL    HW1 5273   6.764   5.376   0.305
 1458SOL    HW2 5274   6.852   5.512   0.329
 1459SOL     OW 5275   2.706   0.066   1.456
 1459SOL    HW1 5276   2.664   0.149   1.491
 1459SOL    HW2 5277   2.675   7.016   1.510
 1460SOL     OW 5278   0.807   6.469   0.376
 1460SOL    HW1 5279   0.716   6.432   0.355
 1460SOL    HW2 5280   0.875   6.424   0.318
 1461SOL     OW 5281   4.464   4.804   1.570
 1461SOL    HW1 5282   4.383   4.745   1.563
 1461SOL    HW2 5283   4.546   4.747   1.563
 1462SOL     OW 5284   5.287   0.499   5.271
 1462SOL    HW1 5285   5.249   0.589   5.295
 1462SOL    HW2 5286   5.386   0.507   5.258
 1463SOL     OW 5287   0.394   1.111   5.103
 1463SOL    HW1 5288   0.298   1.100   5.078
 1463SOL    HW2 5289   0.401   1.166   5.186
 1464SOL     OW 5290   0.076   0.039   1.500
 1464SOL    HW1 5291   0.151   7.011   1.465
 1464SOL    HW2 5292   7.021   7.015   1.503
 1465SOL     OW 5293   0.272   6.943   4.754
 1465SOL    HW1 5294   0.236   7.020   4.808
 1465SOL    HW2 5295   0.272   6.968   4.657
 1466SOL     OW 5296   5.536   4.717   4.262
 1466SOL    HW1 5297   5.559   4.645   4.328
 1466SOL    HW2 5298   5.445   4.700   4.225
 1467SOL     OW 5299   6.200   4.005   2.699
 1467SOL    HW1 5300   6.113   4.048   2.724
 1467SOL    HW2 5301   6.203   3.991   2.600
 1468SOL     OW 5302   5.468   6.579   3.066
 1468SOL    HW1 5303   5.437   6.496   3.112
 1468SOL    HW2 5304   5.519   6.636   3.131
 1469SOL     OW 5305   0.272   1.058   2.759
 1469SOL    HW1 5306   0.343   1.085   2.694
 1469SOL    HW2 5307   0.311   0.993   2.825
 1470SOL     OW 5308   0.183   0.897   3.523
 1470SOL    HW1 5309   0.174   0.992   3.491
 1470SOL    HW2 5310   0.095   0.867   3.560
 1471SOL     OW 5311   6.592   0.820   0.651
 1471SOL    HW1 5312   6.630   0.886   0.716
 1471SOL    HW2 5313   6.637   0.732   0.663
 1472SOL     OW 5314   4.366   5.656   5.260
 1472SOL    HW1 5315   4.429   5.586   5.292
 1472SOL    HW2 5316   4.388   5.743   5.304
 1473SOL     OW 5317   6.063   4.212   3.089
 1473SOL    HW1 5318   6.128   4.213   3.165
 1473SOL    HW2 5319   6.113   4.209   3.002
 1474SOL     OW 5320   4.488   5.210   4.025
 1474SOL    HW1 5321   4.582   5.193   3.995
 1474SOL    HW2 5322   4.460   5.139   4.089
 1475SOL     OW 5323   6.853   1.110   3.352
 1475SOL    HW1 5324   6.786   1.157   3.409
 1475SOL    HW2 5325   6.819   1.106   3.257
 1476SOL     OW 5326   6.346   2.232   1.658
 1476SOL    HW1 5327   6.397   2.186   1.731
 1476SOL    HW2 5328   6.260   2.269   1.695
 1477SOL     OW 5329   3.171   6.204   3.523
 1477SOL    HW1 5330   3.121   6.286   3.550
 1477SOL    HW2 5331   3.266   6.227   3.504
 1478SOL     OW 5332   6.863   4.931   1.998
 1478SOL    HW1 5333   6.839   5.022   1.967
 1478SOL    HW2 5334   6.959   4.930   2.027
 1479SOL     OW 5335   0.732   5.168   0.901
 1479SOL    HW1 5336   0.783   5.218   0.971
 1479SOL    HW2 5337   0.758   5.202   0.810
 1480SOL     OW 5338   3.219   0.775   0.324
 1480SOL    HW1 5339   3.177   0.771   0.233
 1480SOL    HW2 5340   3.316   0.797   0.315
 1481SOL     OW 5341   0.066   2.072   6.063
 1481SOL    HW1 5342   0.138   2.031   6.120
 1481SOL    HW2 5343   7.009   2.023   6.077
 1482SOL     OW 5344   5.416   1.285   6.530
 1482SOL    HW1 5345   5.412   1.288   6.629
 1482SOL    HW2 5346   5.511   1.293   6.500
 1483SOL     OW 5347   6.314   2.240   6.937
 1483SOL    HW1 5348   6.395   2.253   6.880
 1483SOL    HW2 5349   6.325   2.291   7.023
 1484SOL     OW 5350   0.068   6.787   3.023
 1484SOL    HW1 5351   6.997   6.776   3.028
 1484SOL    HW2 5352   0.100   6.831   3.107
 1485SOL     OW 5353   5.909   2.780   3.646
 1485SOL    HW1 5354   5.826   2.728   3.626
 1485SOL    HW2 5355   5.950   2.747   3.731
 1486SOL     OW 5356   5.283   2.319   1.562
 1486SOL    HW1 5357   5.206   2.278   1.514
 1486SOL    HW2 5358   5.342   2.367   1.496
 1487SOL     OW 5359   6.443   0.870   5.750
 1487SOL    HW1 5360   6.447   0.904   5.656
 1487SOL    HW2 5361   6.455   0.947   5.813
 1488SOL     OW 5362   4.485   1.946   2.792
 1488SOL    HW1 5363   4.535   1.879   2.737
 1488SOL    HW2 5364   4.435   1.900   2.865
 1489SOL     OW 5365   4.044   4.936   4.894
 1489SOL    HW1 5366   3.945   4.935   4.885
 1489SOL    HW2 5367   4.084   4.990   4.820
 1490SOL     OW 5368   2.335   2.203   1.183
 1490SOL    HW1 5369   2.369   2.279   1.239
 1490SOL    HW2 5370   2.361   2.217   1.088
 1491SOL     OW 5371   6.797   2.112   5.717
 1491SOL    HW1 5372   6.763   2.176   5.786
 1491SOL    HW2 5373   6.895   2.128   5.702
 1492SOL     OW 5374   5.742   2.986   1.590
 1492SOL    HW1 5375   5.711   2.896   1.621
 1492SOL    HW2 5376   5.830   3.008   1.634
 1493SOL     OW 5377   5.508   1.160   5.468
 1493SOL    HW1 5378   5.423   1.147   5.520
 1493SOL    HW2 5379   5.582   1.182   5.531
 1494SOL     OW 5380   5.432   2.269   3.893
 1494SOL    HW1 5381   5.513   2.299   3.842
 1494SOL    HW2 5382   5.350   2.289   3.839
 1495SOL     OW 5383   1.624   2.036   2.691
 1495SOL    HW1 5384   1.534   2.053   2.650
 1495SOL    HW2 5385   1.658   1.947   2.660
 1496SOL     OW 5386   1.109   0.997   3.261
 1496SOL    HW1 5387   1.175   1.031   3.195
 1496SOL    HW2 5388   1.032   0.955   3.213
 1497SOL     OW 5389   5.369   4.123   5.907
 1497SOL    HW1 5390   5.454   4.172   5.928
 1497SOL    HW2 5391   5.297   4.153   5.970
 1498SOL     OW 5392   2.084   5.695   0.114
 1498SOL    HW1 5393   2.054   5.788   0.136
 1498SOL    HW2 5394   2.131   5.695   0.025
 1499SOL     OW 5395   0.606   4.444   4.960
 1499SOL    HW1 5396   0.644   4.404   4.876
 1499SOL    HW2 5397   0.678   4.457   5.027
 1500SOL     OW 5398   3.979   6.745   5.208
 1500SOL    HW1 5399   3.970   6.802   5.289
 1500SOL    HW2 5400   4.053   6.781   5.150
 1501SOL     OW 5401   4.230   0.107   6.441
 1501SOL    HW1 5402   4.145   0.055   6.439
 1501SOL    HW2 5403   4.227   0.172   6.517
 1502SOL     OW 5404   0.241   6.255   0.220
 1502SOL    HW1 5405   0.331   6.213   0.231
 1502SOL    HW2 5406   0.172   6.200   0.266
 1503SOL     OW 5407   3.407   4.204   5.241
 1503SOL    HW1 5408   3.451   4.281   5.288
 1503SOL    HW2 5409   3.312   4.228   5.220
 1504SOL     OW 5410   2.802   6.442   4.501
 1504SOL    HW1 5411   2.766   6.503   4.431
 1504SOL    HW2 5412   2.875   6.487   4.551
 1505SOL     OW 5413   4.689   5.332   2.177
 1505SOL    HW1 5414   4.624   5.401   2.145
 1505SOL    HW2 5415   4.685   5.252   2.119
 1506SOL     OW 5416   0.473   6.455   2.957
 1506SOL    HW1 5417   0.502   6.364   2.926
 1506SOL    HW2 5418   0.394   6.445   3.018
 1507SOL     OW 5419   2.318   1.413   6.344
 1507SOL    HW1 5420   2.376   1.441   6.421
 1507SOL    HW2 5421   2.270   1.328   6.368
 1508SOL     OW 5422   4.205   0.084   0.504
 1508SOL    HW1 5423   4.218   0.181   0.483
 1508SOL    HW2 5424   4.136   0.074   0.576
 1509SOL     OW 5425   5.208   1.578   0.333
 1509SOL    HW1 5426   5.164   1.613   0.250
 1509SOL    HW2 5427   5.271   1.647   0.368
 1510SOL     OW 5428   6.875   2.323   3.523
 1510SOL    HW1 5429   6.965   2.343   3.560
 1510SOL    HW2 5430   6.861   2.376   3.439
 1511SOL     OW 5431   1.215   2.555   0.410
 1511SOL    HW1 5432   1.156   2.506   0.474
 1511SOL    HW2 5433   1.279   2.491   0.368
 1512SOL     OW 5434   5.651   0.342   2.421
 1512SOL    HW1 5435   5.581   0.278   2.389
 1512SOL    HW2 5436   5.724   0.291   2.467
 1513SOL     OW 5437   3.742   0.996   2.166
 1513SOL    HW1 5438   3.781   0.930   2.231
 1513SOL    HW2 5439   3.811   1.018   2.096
 1514SOL     OW 5440   5.427   1.201   6.122
 1514SOL    HW1 5441   5.405   1.256   6.203
 1514SOL    HW2 5442   5.515   1.156   6.137
 1515SOL     OW 5443   6.595   5.193   5.090
 1515SOL    HW1 5444   6.643   5.234   5.167
 1515SOL    HW2 5445   6.614   5.095   5.086
 1516SOL     OW 5446   0.549   1.159   0.867
 1516SOL    HW1 5447   0.564   1.195   0.959
 1516SOL    HW2 5448   0.504   1.070   0.873
 1517SOL     OW 5449   3.849   5.109   3.736
 1517SOL    HW1 5450   3.766   5.080   3.785
 1517SOL    HW2 5451   3.864   5.206   3.750
 1518SOL     OW 5452   1.316   4.633   1.248
 1518SOL    HW1 5453   1.306   4.552   1.306
 1518SOL    HW2 5454   1.320   4.606   1.152
 1519SOL     OW 5455   6.866   4.424   1.170
 1519SOL    HW1 5456   6.941   4.365   1.141
 1519SOL    HW2 5457   6.814   4.378   1.242
 1520SOL     OW 5458   1.896   2.777   2.437
 1520SOL    HW1 5459   1.894   2.870   2.403
 1520SOL    HW2 5460   1.931   2.776   2.531
 1521SOL     OW 5461   2.664   3.955   6.008
 1521SOL    HW1 5462   2.694   3.933   6.101
 1521SOL    HW2 5463   2.742   3.950   5.946
 1522SOL     OW 5464   0.976   2.751   6.475
 1522SOL    HW1 5465   1.002   2.772   6.569
 1522SOL    HW2 5466   0.937   2.833   6.432
 1523SOL     OW 5467   6.748   1.463   0.571
 1523SOL    HW1 5468   6.829   1.427   0.524
 1523SOL    HW2 5469   6.695   1.388   0.610
 1524SOL     OW 5470   6.302   0.995   3.077
 1524SOL    HW1 5471   6.280   1.083   3.119
 1524SOL    HW2 5472   6.382   1.006   3.018
 1525SOL     OW 5473   4.524   1.674   5.837
 1525SOL    HW1 5474   4.591   1.656   5.908
 1525SOL    HW2 5475   4.432   1.672   5.877
 1526SOL     OW 5476   6.862   1.688   0.433
 1526SOL    HW1 5477   6.801   1.610   0.442
 1526SOL    HW2 5478   6.896   1.693   0.339
 1527SOL     OW 5479   2.809   1.995   5.657
 1527SOL    HW1 5480   2.731   2.058   5.663
 1527SOL    HW2 5481   2.812   1.955   5.565
 1528SOL     OW 5482   5.094   5.869   3.625
 1528SOL    HW1 5483   5.182   5.874   3.578
 1528SOL    HW2 5484   5.020   5.881   3.559
 1529SOL     OW 5485   3.249   0.841   5.270
 1529SOL    HW1 5486   3.194   0.757   5.271
 1529SOL    HW2 5487   3.318   0.834   5.198
 1530SOL     OW 5488   3.102   7.021   2.085
 1530SOL    HW1 5489   3.133   6.954   2.018
 1530SOL    HW2 5490   3.027   0.046   2.046
 1531SOL     OW 5491   6.508   0.050   6.096
 1531SOL    HW1 5492   6.435   0.098   6.145
 1531SOL    HW2 5493   6.520   6.988   6.135
 1532SOL     OW 5494   3.304   2.313   5.421
 1532SOL    HW1 5495   3.264   2.321   5.330
 1532SOL    HW2 5496   3.238   2.346   5.489
 1533SOL     OW 5497   5.872   2.667   7.021
 1533SOL    HW1 5498   5.963   2.665   6.980
 1533SOL    HW2 5499   5.807   2.705   6.956
 1534SOL     OW 5500   6.845   6.966   1.547
 1534SOL    HW1 5501   6.787   7.029   1.598
 1534SOL    HW2 5502   6.801   6.876   1.541
 1535SOL     OW 5503   4.656   5.283   3.794
 1535SOL    HW1 5504   4.609   5.368   3.819
 1535SOL    HW2 5505   4.588   5.213   3.772
 1536SOL     OW 5506   2.807   5.420   3.420
 1536SOL    HW1 5507   2.900   5.417   3.457
 1536SOL    HW2 5508   2.764   5.507   3.444
 1537SOL     OW 5509   2.181   5.348   4.692
 1537SOL    HW1 5510   2.241   5.417   4.731
 1537SOL    HW2 5511   2.090   5.356   4.732
 1538SOL     OW 5512   3.371   5.340   6.686
 1538SOL    HW1 5513   3.311   5.392   6.746
 1538SOL    HW2 5514   3.411   5.400   6.617
 1539SOL     OW 5515   3.488   5.197   1.851
 1539SOL    HW1 5516   3.429   5.267   1.812
 1539SOL    HW2 5517   3.572   5.239   1.884
 1540SOL     OW 5518   6.342   6.960   5.593
 1540SOL    HW1 5519   6.391   6.961   5.680
 1540SOL    HW2 5520   6.313   6.867   5.572
 1541SOL     OW 5521   4.850   2.117   0.622
 1541SOL    HW1 5522   4.875   2.204   0.581
 1541SOL    HW2 5523   4.933   2.064   0.642
 1542SOL     OW 5524   0.867   6.284   0.858
 1542SOL    HW1 5525   0.903   6.192   0.875
 1542SOL    HW2 5526   0.900   6.346   0.928
 1543SOL     OW 5527   3.018   3.934   4.016
 1543SOL    HW1 5528   2.970   3.872   4.079
 1543SOL    HW2 5529   3.064   4.005   4.069
 1544SOL     OW 5530   3.621   3.952   2.597
 1544SOL    HW1 5531   3.691   3.899   2.645
 1544SOL    HW2 5532   3.582   4.020   2.660
 1545SOL     OW 5533   6.694   0.603   4.481
 1545SOL    HW1 5534   6.726   0.686   4.527
 1545SOL    HW2 5535   6.773   0.553   4.444
 1546SOL     OW 5536   0.067   6.698   6.167
 1546SOL    HW1 5537   0.051   6.600   6.177
 1546SOL    HW2 5538   0.132   6.714   6.093
 1547SOL     OW 5539   3.733   6.352   6.908
 1547SOL    HW1 5540   3.665   6.405   6.859
 1547SOL    HW2 5541   3.818   6.405   6.914
 1548SOL     OW 5542   5.975   4.635   3.727
 1548SOL    HW1 5543   5.987   4.660   3.823
 1548SOL    HW2 5544   6.060   4.650   3.677
 1549SOL     OW 5545   6.497   1.736   1.351
 1549SOL    HW1 5546   6.398   1.731   1.338
 1549SOL    HW2 5547   6.518   1.809   1.417
 1550SOL     OW 5548   2.354   5.862   3.048
 1550SOL    HW1 5549   2.394   5.781   3.091
 1550SOL    HW2 5550   2.309   5.918   3.117
 1551SOL     OW 5551   0.372   3.705   1.202
 1551SOL    HW1 5552   0.464   3.689   1.166
 1551SOL    HW2 5553   0.365   3.799   1.234
 1552SOL     OW 5554   1.255   6.798   0.851
 1552SOL    HW1 5555   1.354   6.788   0.851
 1552SOL    HW2 5556   1.220   6.781   0.944
 1553SOL     OW 5557   5.524   1.878   5.781
 1553SOL    HW1 5558   5.493   1.865   5.687
 1553SOL    HW2 5559   5.606   1.934   5.782
 1554SOL     OW 5560   2.939   1.887   1.370
 1554SOL    HW1 5561   2.901   1.881   1.463
 1554SOL    HW2 5562   3.035   1.915   1.375
 1555SOL     OW 5563   3.961   0.932   6.179
 1555SOL    HW1 5564   3.874   0.897   6.214
 1555SOL    HW2 5565   3.947   0.971   6.088
 1556SOL     OW 5566   3.595   2.263   0.040
 1556SOL    HW1 5567   3.644   2.335   0.087
 1556SOL    HW2 5568   3.656   2.218   7.003
 1557SOL     OW 5569   1.624   2.974   0.264
 1557SOL    HW1 5570   1.720   2.990   0.241
 1557SOL    HW2 5571   1.610   2.994   0.361
 1558SOL     OW 5572   4.997   3.281   5.907
 1558SOL    HW1 5573   4.998   3.314   6.002
 1558SOL    HW2 5574   4.942   3.198   5.901
 1559SOL     OW 5575   2.928   5.247   3.084
 1559SOL    HW1 5576   3.026   5.255   3.098
 1559SOL    HW2 5577   2.896   5.323   3.027
 1560SOL     OW 5578   3.993   1.897   0.775
 1560SOL    HW1 5579   3.941   1.922   0.693
 1560SOL    HW2 5580   3.986   1.971   0.842
 1561SOL     OW 5581   5.905   5.949   1.245
 1561SOL    HW1 5582   5.956   5.928   1.328
 1561SOL    HW2 5583   5.947   6.026   1.198
 1562SOL     OW 5584   3.237   6.856   2.808
 1562SOL    HW1 5585   3.188   6.843   2.722
 1562SOL    HW2 5586   3.285   6.771   2.832
 1563SOL     OW 5587   2.676   2.200   3.916
 1563SOL    HW1 5588   2.710   2.180   4.008
 1563SOL    HW2 5589   2.621   2.124   3.883
 1564SOL     OW 5590   0.588   1.151   2.938
 1564SOL    HW1 5591   0.513   1.210   2.968
 1564SOL    HW2 5592   0.675   1.190   2.968
 1565SOL     OW 5593   3.930   1.505   4.704
 1565SOL    HW1 5594   4.022   1.481   4.736
 1565SOL    HW2 5595   3.867   1.510   4.781
 1566SOL     OW 5596   5.801   4.270   3.239
 1566SOL    HW1 5597   5.862   4.298   3.313
 1566SOL    HW2 5598   5.854   4.230   3.164
 1567SOL     OW 5599   5.346   0.650   4.998
 1567SOL    HW1 5600   5.329   0.720   4.928
 1567SOL    HW2 5601   5.310   0.562   4.966
 1568SOL     OW 5602   3.039   5.037   1.132
 1568SOL    HW1 5603   3.121   5.020   1.186
 1568SOL    HW2 5604   3.050   5.122   1.080
 1569SOL     OW 5605   2.752   1.092   2.649
 1569SOL    HW1 5606   2.797   1.123   2.565
 1569SOL    HW2 5607   2.667   1.143   2.662
 1570SOL     OW 5608   3.159   5.772   6.134
 1570SOL    HW1 5609   3.128   5.697   6.075
 1570SOL    HW2 5610   3.092   5.847   6.131
 1571SOL     OW 5611   0.321   3.337   3.600
 1571SOL    HW1 5612   0.245   3.342   3.664
 1571SOL    HW2 5613   0.390   3.405   3.624
 1572SOL     OW 5614   2.985   5.651   2.481
 1572SOL    HW1 5615   2.901   5.640   2.427
 1572SOL    HW2 5616   3.026   5.561   2.497
 1573SOL     OW 5617   5.522   5.888   0.172
 1573SOL    HW1 5618   5.505   5.967   0.114
 1573SOL    HW2 5619   5.470   5.810   0.138
 1574SOL     OW 5620   0.427   4.219   3.000
 1574SOL    HW1 5621   0.519   4.220   2.960
 1574SOL    HW2 5622   0.374   4.146   2.956
 1575SOL     OW 5623   6.758   2.539   0.061
 1575SOL    HW1 5624   6.738   2.456   0.010
 1575SOL    HW2 5625   6.697   2.546   0.140
 1576SOL     OW 5626   1.206   6.760   1.428
 1576SOL    HW1 5627   1.294   6.796   1.457
 1576SOL    HW2 5628   1.194   6.668   1.466
 1577SOL     OW 5629   3.756   5.818   5.419
 1577SOL    HW1 5630   3.754   5.797   5.321
 1577SOL    HW2 5631   3.779   5.914   5.432
 1578SOL     OW 5632   4.955   1.203   1.420
 1578SOL    HW1 5633   4.879   1.221   1.358
 1578SOL    HW2 5634   4.927   1.224   1.514
 1579SOL     OW 5635   1.845   2.461   1.586
 1579SOL    HW1 5636   1.856   2.452   1.685
 1579SOL    HW2 5637   1.908   2.530   1.552
 1580SOL     OW 5638   2.927   3.350   2.928
 1580SOL    HW1 5639   2.891   3.341   3.021
 1580SOL    HW2 5640   3.026   3.338   2.930
 1581SOL     OW 5641   6.280   4.329   5.541
 1581SOL    HW1 5642   6.333   4.282   5.610
 1581SOL    HW2 5643   6.262   4.423   5.571
 1582SOL     OW 5644   4.600   6.040   5.136
 1582SOL    HW1 5645   4.579   5.985   5.055
 1582SOL    HW2 5646   4.533   6.114   5.145
 1583SOL     OW 5647   1.158   4.932   4.987
 1583SOL    HW1 5648   1.189   5.004   5.050
 1583SOL    HW2 5649   1.126   4.974   4.902
 1584SOL     OW 5650   0.122   4.083   0.246
 1584SOL    HW1 5651   0.166   4.139   0.176
 1584SOL    HW2 5652   0.038   4.129   0.277
 1585SOL     OW 5653   4.142   6.787   3.538
 1585SOL    HW1 5654   4.058   6.797   3.486
 1585SOL    HW2 5655   4.216   6.837   3.493
 1586SOL     OW 5656   3.551   6.075   3.780
 1586SOL    HW1 5657   3.640   6.047   3.817
 1586SOL    HW2 5658   3.521   6.007   3.713
 1587SOL     OW 5659   2.899   6.531   6.829
 1587SOL    HW1 5660   2.838   6.478   6.770
 1587SOL    HW2 5661   2.992   6.526   6.793
 1588SOL     OW 5662   6.537   1.457   4.056
 1588SOL    HW1 5663   6.625   1.504   4.064
 1588SOL    HW2 5664   6.549   1.374   4.002
 1589SOL     OW 5665   6.434   4.456   3.395
 1589SOL    HW1 5666   6.363   4.489   3.333
 1589SOL    HW2 5667   6.408   4.366   3.431
 1590SOL     OW 5668   6.744   2.427   4.078
 1590SOL    HW1 5669   6.734   2.328   4.067
 1590SOL    HW2 5670   6.807   2.462   4.008
 1591SOL     OW 5671   1.077   6.054   1.297
 1591SOL    HW1 5672   1.061   6.136   1.352
 1591SOL    HW2 5673   1.083   6.080   1.200
 1592SOL     OW 5674   0.153   4.262   5.980
 1592SOL    HW1 5675   0.208   4.183   5.952
 1592SOL    HW2 5676   0.165   4.278   6.078
 1593SOL     OW 5677   3.464   6.787   6.985
 1593SOL    HW1 5678   3.484   6.872   6.937
 1593SOL    HW2 5679   3.370   6.759   6.965
 1594SOL     OW 5680   5.887   0.302   2.572
 1594SOL    HW1 5681   5.907   0.248   2.654
 1594SOL    HW2 5682   5.970   0.316   2.520
 1595SOL     OW 5683   0.346   3.650   0.357
 1595SOL    HW1 5684   0.259   3.682   0.396
 1595SOL    HW2 5685   0.371   3.562   0.398
 1596SOL     OW 5686   4.512   4.882   3.708
 1596SOL    HW1 5687   4.552   4.862   3.619
 1596SOL    HW2 5688   4.472   4.799   3.746
 1597SOL     OW 5689   4.068   6.169   6.681
 1597SOL    HW1 5690   4.118   6.237   6.627
 1597SOL    HW2 5691   4.074   6.193   6.778
 1598SOL     OW 5692   1.269   4.539   6.632
 1598SOL    HW1 5693   1.267   4.613   6.700
 1598SOL    HW2 5694   1.215   4.462   6.665
 1599SOL     OW 5695   4.366   5.521   3.249
 1599SOL    HW1 5696   4.273   5.557   3.257
 1599SOL    HW2 5697   4.412   5.564   3.171
 1600SOL     OW 5698   3.900   0.281   2.166
 1600SOL    HW1 5699   3.880   0.273   2.069
 1600SOL    HW2 5700   3.852   0.360   2.204
 1601SOL     OW 5701   6.331   0.286   5.573
 1601SOL    HW1 5702   6.263   0.254   5.638
 1601SOL    HW2 5703   6.395   0.348   5.619
 1602SOL     OW 5704   4.090   6.144   3.887
 1602SOL    HW1 5705   4.093   6.223   3.826
 1602SOL    HW2 5706   4.146   6.070   3.850
 1603SOL     OW 5707   3.471   5.421   3.210
 1603SOL    HW1 5708   3.535   5.453   3.280
 1603SOL    HW2 5709   3.479   5.322   3.200
 1604SOL     OW 5710   4.411   5.190   2.090
 1604SOL    HW1 5711   4.426   5.284   2.059
 1604SOL    HW2 5712   4.383   5.191   2.186
 1605SOL     OW 5713   4.619   5.411   0.327
 1605SOL    HW1 5714   4.548   5.362   0.276
 1605SOL    HW2 5715   4.579   5.492   0.370
 1606SOL     OW 5716   3.527   5.878   4.682
 1606SOL    HW1 5717   3.482   5.880   4.593
 1606SOL    HW2 5718   3.614   5.927   4.677
 1607SOL     OW 5719   4.709   5.363   3.011
 1607SOL    HW1 5720   4.785   5.336   3.070
 1607SOL    HW2 5721   4.656   5.282   2.987
 1608SOL     OW 5722   5.180   1.536   3.365
 1608SOL    HW1 5723   5.215   1.470   3.298
 1608SOL    HW2 5724   5.235   1.531   3.448
 1609SOL     OW 5725   2.622   6.739   0.892
 1609SOL    HW1 5726   2.718   6.749   0.867
 1609SOL    HW2 5727   2.583   6.828   0.914
 1610SOL     OW 5728   5.494   6.945   1.159
 1610SOL    HW1 5729   5.444   0.003   1.161
 1610SOL    HW2 5730   5.502   6.909   1.251
 1611SOL     OW 5731   1.461   4.637   0.552
 1611SOL    HW1 5732   1.388   4.584   0.508
 1611SOL    HW2 5733   1.449   4.734   0.531
 1612SOL     OW 5734   4.124   0.396   1.900
 1612SOL    HW1 5735   4.111   0.494   1.881
 1612SOL    HW2 5736   4.041   0.347   1.874
 1613SOL     OW 5737   6.441   6.038   2.243
 1613SOL    HW1 5738   6.455   6.053   2.145
 1613SOL    HW2 5739   6.465   6.121   2.293
 1614SOL     OW 5740   6.365   1.073   6.274
 1614SOL    HW1 5741   6.362   1.040   6.368
 1614SOL    HW2 5742   6.458   1.062   6.238
 1615SOL     OW 5743   0.689   4.104   6.379
 1615SOL    HW1 5744   0.736   4.098   6.291
 1615SOL    HW2 5745   0.608   4.046   6.378
 1616SOL     OW 5746   1.317   1.183   4.445
 1616SOL    HW1 5747   1.378   1.240   4.391
 1616SOL    HW2 5748   1.361   1.095   4.463
 1617SOL     OW 5749   6.334   6.762   3.354
 1617SOL    HW1 5750   6.316   6.683   3.413
 1617SOL    HW2 5751   6.250   6.812   3.337
 1618SOL     OW 5752   3.494   5.720   3.416
 1618SOL    HW1 5753   3.463   5.754   3.328
 1618SOL    HW2 5754   3.579   5.669   3.404
 1619SOL     OW 5755   1.393   4.312   0.054
 1619SOL    HW1 5756   1.465   4.354   0.109
 1619SOL    HW2 5757   1.434   4.252   7.014
 1620SOL     OW 5758   3.424   5.318   5.014
 1620SOL    HW1 5759   3.441   5.353   5.106
 1620SOL    HW2 5760   3.479   5.368   4.948
 1621SOL     OW 5761   5.174   6.465   0.375
 1621SOL    HW1 5762   5.117   6.456   0.456
 1621SOL    HW2 5763   5.260   6.417   0.389
 1622SOL     OW 5764   6.494   4.489   4.325
 1622SOL    HW1 5765   6.493   4.390   4.343
 1622SOL    HW2 5766   6.515   4.504   4.229
 1623SOL     OW 5767   6.813   2.348   3.100
 1623SOL    HW1 5768   6.776   2.257   3.120
 1623SOL    HW2 5769   6.806   2.366   3.002
 1624SOL     OW 5770   3.869   2.812   0.941
 1624SOL    HW1 5771   3.810   2.770   0.872
 1624SOL    HW2 5772   3.934   2.744   0.975
 1625SOL     OW 5773   0.231   6.367   0.833
 1625SOL    HW1 5774   0.138   6.361   0.869
 1625SOL    HW2 5775   0.273   6.276   0.834
 1626SOL     OW 5776   2.513   1.982   1.497
 1626SOL    HW1 5777   2.517   1.896   1.548
 1626SOL    HW2 5778   2.576   2.048   1.537
 1627SOL     OW 5779   3.932   2.017   5.370
 1627SOL    HW1 5780   4.013   1.960   5.372
 1627SOL    HW2 5781   3.901   2.036   5.463
 1628SOL     OW 5782   5.631   6.856   0.954
 1628SOL    HW1 5783   5.581   6.829   0.872
 1628SOL    HW2 5784   5.567   6.898   1.020
 1629SOL     OW 5785   2.025   0.727   3.779
 1629SOL    HW1 5786   2.064   0.792   3.713
 1629SOL    HW2 5787   2.098   0.668   3.813
 1630SOL     OW 5788   0.406   3.838   6.401
 1630SOL    HW1 5789   0.420   3.774   6.325
 1630SOL    HW2 5790   0.413   3.789   6.487
 1631SOL     OW 5791   6.777   3.675   0.114
 1631SOL    HW1 5792   6.861   3.621   0.122
 1631SOL    HW2 5793   6.757   3.692   0.017
 1632SOL     OW 5794   6.790   6.048   2.081
 1632SOL    HW1 5795   6.757   6.123   2.138
 1632SOL    HW2 5796   6.890   6.043   2.088
 1633SOL     OW 5797   5.869   3.370   4.603
 1633SOL    HW1 5798   5.914   3.399   4.687
 1633SOL    HW2 5799   5.836   3.449   4.552
 1634SOL     OW 5800   6.486   1.698   5.312
 1634SOL    HW1 5801   6.481   1.613   5.261
 1634SOL    HW2 5802   6.582   1.725   5.324
 1635SOL     OW 5803   3.993   6.094   3.041
 1635SOL    HW1 5804   4.079   6.062   3.001
 1635SOL    HW2 5805   3.922   6.094   2.970
 1636SOL     OW 5806   6.056   5.946   1.490
 1636SOL    HW1 5807   6.148   5.924   1.457
 1636SOL    HW2 5808   6.050   6.044   1.507
 1637SOL     OW 5809   0.808   0.212   2.640
 1637SOL    HW1 5810   0.871   0.211   2.563
 1637SOL    HW2 5811   0.855   0.249   2.721
 1638SOL     OW 5812   6.186   2.222   1.992
 1638SOL    HW1 5813   6.250   2.299   1.989
 1638SOL    HW2 5814   6.116   2.235   1.922
 1639SOL     OW 5815   5.234   2.820   2.568
 1639SOL    HW1 5816   5.185   2.803   2.654
 1639SOL    HW2 5817   5.181   2.782   2.493
 1640SOL     OW 5818   6.763   0.193   6.873
 1640SOL    HW1 5819   6.813   0.179   6.958
 1640SOL    HW2 5820   6.678   0.139   6.875
 1641SOL     OW 5821   6.147   2.495   2.965
 1641SOL    HW1 5822   6.120   2.476   3.060
 1641SOL    HW2 5823   6.195   2.415   2.928
 1642SOL     OW 5824   6.769   2.767   6.255
 1642SOL    HW1 5825   6.816   2.720   6.180
 1642SOL    HW2 5826   6.811   2.740   6.342
 1643SOL     OW 5827   2.209   6.027   3.999
 1643SOL    HW1 5828   2.167   5.937   3.982
 1643SOL    HW2 5829   2.207   6.080   3.914
 1644SOL     OW 5830   6.107   2.799   1.348
 1644SOL    HW1 5831   6.163   2.718   1.331
 1644SOL    HW2 5832   6.134   2.841   1.435
 1645SOL     OW 5833   2.002   0.576   5.612
 1645SOL    HW1 5834   1.966   0.512   5.545
 1645SOL    HW2 5835   2.102   0.573   5.609
 1646SOL     OW 5836   1.397   4.743   0.872
 1646SOL    HW1 5837   1.309   4.762   0.828
 1646SOL    HW2 5838   1.420   4.817   0.935
 1647SOL     OW 5839   5.682   2.767   4.018
 1647SOL    HW1 5840   5.694   2.673   3.987
 1647SOL    HW2 5841   5.765   2.819   3.997
 1648SOL     OW 5842   5.392   5.959   0.974
 1648SOL    HW1 5843   5.292   5.959   0.978
 1648SOL    HW2 5844   5.422   5.912   0.891
 1649SOL     OW 5845   3.698   0.585   2.938
 1649SOL    HW1 5846   3.709   0.586   3.038
 1649SOL    HW2 5847   3.602   0.599   2.915
 1650SOL     OW 5848   2.731   3.971   6.533
 1650SOL    HW1 5849   2.830   3.964   6.529
 1650SOL    HW2 5850   2.690   3.895   6.482
 1651SOL     OW 5851   0.908   2.630   3.398
 1651SOL    HW1 5852   0.812   2.647   3.376
 1651SOL    HW2 5853   0.960   2.619   3.313
 1652SOL     OW 5854   7.016   3.405   1.478
 1652SOL    HW1 5855   6.944   3.425   1.544
 1652SOL    HW2 5856   0.033   3.489   1.450
 1653SOL     OW 5857   0.536   4.617   2.884
 1653SOL    HW1 5858   0.632   4.621   2.857
 1653SOL    HW2 5859   0.506   4.708   2.914
 1654SOL     OW 5860   0.174   3.066   2.512
 1654SOL    HW1 5861   0.083   3.066   2.470
 1654SOL    HW2 5862   0.167   3.096   2.607
 1655SOL     OW 5863   6.523   0.453   5.211
 1655SOL    HW1 5864   6.504   0.530   5.151
 1655SOL    HW2 5865   6.440   0.429   5.262
 1656SOL     OW 5866   1.949   4.485   3.415
 1656SOL    HW1 5867   2.046   4.510   3.410
 1656SOL    HW2 5868   1.928   4.419   3.343
 1657SOL     OW 5869   0.632   6.720   5.382
 1657SOL    HW1 5870   0.638   6.628   5.421
 1657SOL    HW2 5871   0.627   6.787   5.455
 1658SOL     OW 5872   5.740   6.793   5.901
 1658SOL    HW1 5873   5.735   6.716   5.964
 1658SOL    HW2 5874   5.834   6.808   5.873
 1659SOL     OW 5875   4.151   7.021   6.058
 1659SOL    HW1 5876   4.204   0.041   6.127
 1659SOL    HW2 5877   4.064   0.040   6.044
 1660SOL     OW 5878   2.435   1.016   2.543
 1660SOL    HW1 5879   2.379   1.044   2.465
 1660SOL    HW2 5880   2.447   1.094   2.605
 1661SOL     OW 5881   4.795   4.569   2.690
 1661SOL    HW1 5882   4.805   4.604   2.596
 1661SOL    HW2 5883   4.884   4.565   2.734
 1662SOL     OW 5884   0.482   1.839   4.431
 1662SOL    HW1 5885   0.530   1.756   4.459
 1662SOL    HW2 5886   0.549   1.912   4.414
 1663SOL     OW 5887   4.850   4.740   0.092
 1663SOL    HW1 5888   4.878   4.754   7.026
 1663SOL    HW2 5889   4.889   4.812   0.149
 1664SOL     OW 5890   1.250   6.835   5.593
 1664SOL    HW1 5891   1.227   6.930   5.575
 1664SOL    HW2 5892   1.222   6.778   5.515
 1665SOL     OW 5893   2.954   4.430   0.316
 1665SOL    HW1 5894   2.945   4.335   0.287
 1665SOL    HW2 5895   2.891   4.487   0.263
 1666SOL     OW 5896   5.703   6.624   6.113
 1666SOL    HW1 5897   5.668   6.642   6.205
 1666SOL    HW2 5898   5.698   6.525   6.094
 1667SOL     OW 5899   0.328   6.165   1.475
 1667SOL    HW1 5900   0.247   6.114   1.504
 1667SOL    HW2 5901   0.381   6.109   1.411
 1668SOL     OW 5902   5.822   4.736   2.521
 1668SOL    HW1 5903   5.840   4.818   2.575
 1668SOL    HW2 5904   5.798   4.661   2.581
 1669SOL     OW 5905   6.148   3.918   5.764
 1669SOL    HW1 5906   6.238   3.876   5.757
 1669SOL    HW2 5907   6.080   3.859   5.720
 1670SOL     OW 5908   2.427   4.550   6.488
 1670SOL    HW1 5909   2.520   4.518   6.504
 1670SOL    HW2 5910   2.423   4.602   6.404
 1671SOL     OW 5911   6.111   2.170   1.075
 1671SOL    HW1 5912   6.106   2.134   0.982
 1671SOL    HW2 5913   6.065   2.108   1.138
 1672SOL     OW 5914   0.397   3.352   0.131
 1672SOL    HW1 5915   0.303   3.380   0.147
 1672SOL    HW2 5916   0.405   3.253   0.143
 1673SOL     OW 5917   1.537   0.433   4.597
 1673SOL    HW1 5918   1.456   0.477   4.559
 1673SOL    HW2 5919   1.598   0.502   4.635
 1674SOL     OW 5920   4.667   1.851   2.165
 1674SOL    HW1 5921   4.611   1.770   2.152
 1674SOL    HW2 5922   4.609   1.930   2.181
 1675SOL     OW 5923   5.626   0.505   1.175
 1675SOL    HW1 5924   5.577   0.589   1.151
 1675SOL    HW2 5925   5.698   0.488   1.107
 1676SOL     OW 5926   1.228   2.283   2.529
 1676SOL    HW1 5927   1.259   2.326   2.444
 1676SOL    HW2 5928   1.163   2.211   2.509
 1677SOL     OW 5929   3.987   3.141   3.399
 1677SOL    HW1 5930   4.000   3.108   3.492
 1677SOL    HW2 5931   3.936   3.227   3.401
 1678SOL     OW 5932   0.901   0.007   1.365
 1678SOL    HW1 5933   0.814   0.003   1.315
 1678SOL    HW2 5934   0.920   0.102   1.390
 1679SOL     OW 5935   0.734   1.936   6.654
 1679SOL    HW1 5936   0.634   1.939   6.650
 1679SOL    HW2 5937   0.769   1.892   6.570
 1680SOL     OW 5938   5.200   2.550   3.847
 1680SOL    HW1 5939   5.184   2.457   3.812
 1680SOL    HW2 5940   5.221   2.544   3.945
 1681SOL     OW 5941   2.603   6.275   4.563
 1681SOL    HW1 5942   2.671   6.349   4.559
 1681SOL    HW2 5943   2.619   6.219   4.644
 1682SOL     OW 5944   3.479   0.417   4.237
 1682SOL    HW1 5945   3.461   0.365   4.320
 1682SOL    HW2 5946   3.451   0.512   4.250
 1683SOL     OW 5947   6.208   4.965   2.837
 1683SOL    HW1 5948   6.286   4.939   2.895
 1683SOL    HW2 5949   6.180   5.059   2.858
 1684SOL     OW 5950   2.571   4.574   2.128
 1684SOL    HW1 5951   2.667   4.572   2.101
 1684SOL    HW2 5952   2.543   4.669   2.145
 1685SOL     OW 5953   0.076   1.295   5.250
 1685SOL    HW1 5954   0.117   1.369   5.304
 1685SOL    HW2 5955   7.005   1.300   5.260
 1686SOL     OW 5956   4.502   5.528   2.980
 1686SOL    HW1 5957   4.594   5.490   2.983
 1686SOL    HW2 5958   4.451   5.487   2.904
 1687SOL     OW 5959   5.000   4.037   1.374
 1687SOL    HW1 5960   4.907   4.036   1.411
 1687SOL    HW2 5961   4.996   4.044   1.275
 1688SOL     OW 5962   1.298   0.911   2.430
 1688SOL    HW1 5963   1.362   0.878   2.498
 1688SOL    HW2 5964   1.255   0.834   2.383
 1689SOL     OW 5965   4.636   0.617   1.241
 1689SOL    HW1 5966   4.575   0.562   1.299
 1689SOL    HW2 5967   4.653   0.705   1.284
 1690SOL     OW 5968   0.553   4.489   3.670
 1690SOL    HW1 5969   0.469   4.437   3.654
 1690SOL    HW2 5970   0.530   4.584   3.692
 1691SOL     OW 5971   4.487   2.439   5.100
 1691SOL    HW1 5972   4.448   2.352   5.070
 1691SOL    HW2 5973   4.413   2.499   5.132
 1692SOL     OW 5974   4.777   4.885   1.759
 1692SOL    HW1 5975   4.760   4.984   1.759
 1692SOL    HW2 5976   4.768   4.850   1.852
 1693SOL     OW 5977   5.212   0.008   5.154
 1693SOL    HW1 5978   5.250   0.080   5.213
 1693SOL    HW2 5979   5.132   0.044   5.106
 1694SOL     OW 5980   4.607   1.635   5.562
 1694SOL    HW1 5981   4.555   1.550   5.561
 1694SOL    HW2 5982   4.599   1.678   5.652
 1695SOL     OW 5983   3.994   1.027   6.818
 1695SOL    HW1 5984   3.949   0.973   6.889
 1695SOL    HW2 5985   3.924   1.071   6.761
 1696SOL     OW 5986   5.365   6.615   0.535
 1696SOL    HW1 5987   5.414   6.547   0.589
 1696SOL    HW2 5988   5.280   6.575   0.501
 1697SOL     OW 5989   4.989   2.426   2.099
 1697SOL    HW1 5990   4.893   2.443   2.120
 1697SOL    HW2 5991   5.031   2.511   2.068
 1698SOL     OW 5992   4.268   0.767   1.698
 1698SOL    HW1 5993   4.334   0.812   1.638
 1698SOL    HW2 5994   4.316   0.723   1.774
 1699SOL     OW 5995   2.443   6.924   0.165
 1699SOL    HW1 5996   2.415   6.992   0.233
 1699SOL    HW2 5997   2.530   6.882   0.193
 1700SOL     OW 5998   5.667   2.608   3.107
 1700SOL    HW1 5999   5.659   2.667   3.187
 1700SOL    HW2 6000   5.754   2.627   3.060
 1701SOL     OW 6001   7.001   5.869   4.820
 1701SOL    HW1 6002   7.022   5.939   4.752
 1701SOL    HW2 6003   0.013   5.894   4.908
 1702SOL     OW 6004   1.816   1.958   6.325
 1702SOL    HW1 6005   1.880   1.901   6.273
 1702SOL    HW2 6006   1.835   1.949   6.423
 1703SOL     OW 6007   2.148   1.608   1.455
 1703SOL    HW1 6008   2.152   1.707   1.438
 1703SOL    HW2 6009   2.097   1.565   1.380
 1704SOL     OW 6010   2.940   1.884   0.936
 1704SOL    HW1 6011   2.873   1.810   0.932
 1704SOL    HW2 6012   3.022   1.853   0.985
 1705SOL     OW 6013   4.152   2.395   0.760
 1705SOL    HW1 6014   4.161   2.469   0.828
 1705SOL    HW2 6015   4.241   2.374   0.721
 1706SOL     OW 6016   5.613   2.241   6.759
 1706SOL    HW1 6017   5.549   2.202   6.692
 1706SOL    HW2 6018   5.572   2.236   6.850
 1707SOL     OW 6019   4.700   1.501   2.110
 1707SOL    HW1 6020   4.780   1.545   2.152
 1707SOL    HW2 6021   4.712   1.402   2.113
 1708SOL     OW 6022   3.402   4.937   1.869
 1708SOL    HW1 6023   3.450   5.019   1.837
 1708SOL    HW2 6024   3.461   4.857   1.858
 1709SOL     OW 6025   4.588   5.254   0.815
 1709SOL    HW1 6026   4.547   5.242   0.905
 1709SOL    HW2 6027   4.685   5.278   0.825
 1710SOL     OW 6028   5.062   5.024   3.354
 1710SOL    HW1 6029   5.113   5.101   3.315
 1710SOL    HW2 6030   5.122   4.973   3.416
 1711SOL     OW 6031   4.339   5.006   6.617
 1711SOL    HW1 6032   4.302   4.937   6.679
 1711SOL    HW2 6033   4.333   5.096   6.660
 1712SOL     OW 6034   0.715   1.389   2.335
 1712SOL    HW1 6035   0.672   1.427   2.253
 1712SOL    HW2 6036   0.645   1.373   2.405
 1713SOL     OW 6037   3.979   0.903   2.612
 1713SOL    HW1 6038   3.976   1.000   2.587
 1713SOL    HW2 6039   3.910   0.885   2.682
 1714SOL     OW 6040   3.408   3.924   0.361
 1714SOL    HW1 6041   3.339   3.961   0.300
 1714SOL    HW2 6042   3.428   3.829   0.336
 1715SOL     OW 6043   2.297   6.527   2.704
 1715SOL    HW1 6044   2.239   6.547   2.783
 1715SOL    HW2 6045   2.254   6.457   2.647
 1716SOL     OW 6046   4.694   1.207   3.623
 1716SOL    HW1 6047   4.738   1.137   3.567
 1716SOL    HW2 6048   4.720   1.298   3.590
 1717SOL     OW 6049   3.294   6.450   5.179
 1717SOL    HW1 6050   3.295   6.424   5.276
 1717SOL    HW2 6051   3.378   6.420   5.135
 1718SOL     OW 6052   1.093   3.109   1.286
 1718SOL    HW1 6053   1.136   3.164   1.357
 1718SOL    HW2 6054   1.098   3.012   1.311
 1719SOL     OW 6055   1.301   5.288   2.807
 1719SOL    HW1 6056   1.385   5.238   2.788
 1719SOL    HW2 6057   1.233   5.268   2.736
 1720SOL     OW 6058   0.713   3.072   5.874
 1720SOL    HW1 6059   0.799   3.046   5.918
 1720SOL    HW2 6060   0.731   3.102   5.781
 1721SOL     OW 6061   1.312   2.303   0.822
 1721SOL    HW1 6062   1.236   2.336   0.765
 1721SOL    HW2 6063   1.356   2.381   0.867
 1722SOL     OW 6064   2.375   2.662   3.758
 1722SOL    HW1 6065   2.371   2.589   3.826
 1722SOL    HW2 6066   2.451   2.645   3.696
 1723SOL     OW 6067   5.854   4.254   0.797
 1723SOL    HW1 6068   5.874   4.188   0.725
 1723SOL    HW2 6069   5.940   4.284   0.840
 1724SOL     OW 6070   5.956   2.743   1.114
 1724SOL    HW1 6071   6.005   2.738   1.201
 1724SOL    HW2 6072   6.022   2.756   1.040
 1725SOL     OW 6073   1.635   6.027   6.775
 1725SOL    HW1 6074   1.646   6.067   6.684
 1725SOL    HW2 6075   1.656   5.930   6.772
 1726SOL     OW 6076   5.559   4.541   2.493
 1726SOL    HW1 6077   5.548   4.638   2.472
 1726SOL    HW2 6078   5.629   4.529   2.563
 1727SOL     OW 6079   3.036   3.875   3.178
 1727SOL    HW1 6080   3.067   3.922   3.261
 1727SOL    HW2 6081   3.059   3.932   3.099
 1728SOL     OW 6082   5.323   2.445   4.091
 1728SOL    HW1 6083   5.376   2.396   4.022
 1728SOL    HW2 6084   5.371   2.444   4.178
 1729SOL     OW 6085   1.267   2.846   2.382
 1729SOL    HW1 6086   1.325   2.789   2.323
 1729SOL    HW2 6087   1.307   2.851   2.473
 1730SOL     OW 6088   2.288   5.418   4.213
 1730SOL    HW1 6089   2.229   5.455   4.285
 1730SOL    HW2 6090   2.325   5.493   4.158
 1731SOL     OW 6091   6.381   5.350   3.362
 1731SOL    HW1 6092   6.384   5.296   3.446
 1731SOL    HW2 6093   6.474   5.370   3.332
 1732SOL     OW 6094   2.496   3.430   5.701
 1732SOL    HW1 6095   2.403   3.393   5.692
 1732SOL    HW2 6096   2.541   3.430   5.612
 1733SOL     OW 6097   1.998   3.264   6.365
 1733SOL    HW1 6098   2.070   3.327   6.337
 1733SOL    HW2 6099   2.004   3.247   6.463
 1734SOL     OW 6100   6.383   3.268   1.026
 1734SOL    HW1 6101   6.406   3.191   1.085
 1734SOL    HW2 6102   6.313   3.240   0.961
 1735SOL     OW 6103   4.063   5.462   6.219
 1735SOL    HW1 6104   4.045   5.397   6.293
 1735SOL    HW2 6105   4.027   5.425   6.133
 1736SOL     OW 6106   5.180   2.682   0.593
 1736SOL    HW1 6107   5.114   2.755   0.575
 1736SOL    HW2 6108   5.137   2.612   0.650
 1737SOL     OW 6109   4.394   1.833   5.406
 1737SOL    HW1 6110   4.395   1.923   5.361
 1737SOL    HW2 6111   4.463   1.832   5.479
 1738SOL     OW 6112   1.860   3.344   4.188
 1738SOL    HW1 6113   1.789   3.299   4.133
 1738SOL    HW2 6114   1.943   3.289   4.186
 1739SOL     OW 6115   6.164   0.584   3.507
 1739SOL    HW1 6116   6.093   0.604   3.574
 1739SOL    HW2 6117   6.253   0.582   3.552
 1740SOL     OW 6118   5.998   3.351   5.138
 1740SOL    HW1 6119   6.096   3.333   5.146
 1740SOL    HW2 6120   5.947   3.267   5.153
 1741SOL     OW 6121   0.085   1.846   4.658
 1741SOL    HW1 6122   7.017   1.858   4.638
 1741SOL    HW2 6123   0.138   1.910   4.602
 1742SOL     OW 6124   6.633   5.874   6.385
 1742SOL    HW1 6125   6.611   5.965   6.348
 1742SOL    HW2 6126   6.641   5.809   6.310
 1743SOL     OW 6127   1.694   1.498   2.388
 1743SOL    HW1 6128   1.682   1.442   2.306
 1743SOL    HW2 6129   1.606   1.540   2.413
 1744SOL     OW 6130   3.358   2.135   4.919
 1744SOL    HW1 6131   3.275   2.191   4.923
 1744SOL    HW2 6132   3.388   2.114   5.012
 1745SOL     OW 6133   6.149   6.441   1.304
 1745SOL    HW1 6134   6.057   6.406   1.319
 1745SOL    HW2 6135   6.154   6.536   1.332
 1746SOL     OW 6136   2.744   4.675   3.422
 1746SOL    HW1 6137   2.842   4.696   3.421
 1746SOL    HW2 6138   2.723   4.613   3.346
 1747SOL     OW 6139   4.305   0.388   2.656
 1747SOL    HW1 6140   4.242   0.347   2.721
 1747SOL    HW2 6141   4.385   0.423   2.705
 1748SOL     OW 6142   6.667   2.889   4.977
 1748SOL    HW1 6143   6.638   2.883   4.882
 1748SOL    HW2 6144   6.714   2.976   4.992
 1749SOL     OW 6145   0.659   4.963   1.119
 1749SOL    HW1 6146   0.745   4.922   1.147
 1749SOL    HW2 6147   0.676   5.039   1.056
 1750SOL     OW 6148   3.869   0.322   6.440
 1750SOL    HW1 6149   3.863   0.227   6.409
 1750SOL    HW2 6150   3.908   0.379   6.368
 1751SOL     OW 6151   6.131   2.923   5.205
 1751SOL    HW1 6152   6.216   2.972   5.223
 1751SOL    HW2 6153   6.055   2.988   5.204
 1752SOL     OW 6154   6.921   0.630   2.092
 1752SOL    HW1 6155   6.829   0.652   2.123
 1752SOL    HW2 6156   6.978   0.713   2.095
 1753SOL     OW 6157   6.092   1.197   1.893
 1753SOL    HW1 6158   6.076   1.100   1.873
 1753SOL    HW2 6159   6.181   1.206   1.939
 1754SOL     OW 6160   2.991   5.519   4.144
 1754SOL    HW1 6161   3.032   5.431   4.119
 1754SOL    HW2 6162   3.064   5.586   4.158
 1755SOL     OW 6163   6.082   6.755   4.503
 1755SOL    HW1 6164   6.067   6.666   4.548
 1755SOL    HW2 6165   6.132   6.741   4.418
 1756SOL     OW 6166   5.029   6.343   0.179
 1756SOL    HW1 6167   5.107   6.373   0.235
 1756SOL    HW2 6168   5.055   6.263   0.125
 1757SOL     OW 6169   2.656   5.155   5.102
 1757SOL    HW1 6170   2.706   5.238   5.075
 1757SOL    HW2 6171   2.598   5.125   5.026
 1758SOL     OW 6172   1.840   6.088   4.601
 1758SOL    HW1 6173   1.817   5.992   4.586
 1758SOL    HW2 6174   1.768   6.131   4.656
 1759SOL     OW 6175   1.277   6.377   0.146
 1759SOL    HW1 6176   1.236   6.383   0.238
 1759SOL    HW2 6177   1.376   6.389   0.154
 1760SOL     OW 6178   0.026   1.006   4.779
 1760SOL    HW1 6179   7.021   1.093   4.743
 1760SOL    HW2 6180   0.117   0.988   4.741
 1761SOL     OW 6181   5.731   1.367   2.690
 1761SOL    HW1 6182   5.728   1.396   2.594
 1761SOL    HW2 6183   5.733   1.447   2.750
 1762SOL     OW 6184   1.018   1.328   5.616
 1762SOL    HW1 6185   1.071   1.384   5.553
 1762SOL    HW2 6186   1.008   1.375   5.703
 1763SOL     OW 6187   0.708   4.025   3.828
 1763SOL    HW1 6188   0.693   4.124   3.828
 1763SOL    HW2 6189   0.665   3.985   3.747
 1764SOL     OW 6190   1.358   5.558   3.500
 1764SOL    HW1 6191   1.296   5.536   3.424
 1764SOL    HW2 6192   1.424   5.484   3.512
 1765SOL     OW 6193   5.819   3.513   2.475
 1765SOL    HW1 6194   5.900   3.547   2.523
 1765SOL    HW2 6195   5.738   3.526   2.533
 1766SOL     OW 6196   4.418   4.597   3.756
 1766SOL    HW1 6197   4.340   4.556   3.802
 1766SOL    HW2 6198   4.502   4.552   3.787
 1767SOL     OW 6199   0.117   4.875   2.131
 1767SOL    HW1 6200   0.147   4.968   2.110
 1767SOL    HW2 6201   0.102   4.867   2.230
 1768SOL     OW 6202   5.121   5.135   1.933
 1768SOL    HW1 6203   5.057   5.081   1.988
 1768SOL    HW2 6204   5.087   5.228   1.924
 1769SOL     OW 6205   5.831   0.391   0.385
 1769SOL    HW1 6206   5.857   0.299   0.414
 1769SOL    HW2 6207   5.850   0.456   0.459
 1770SOL     OW 6208   1.713   5.054   0.759
 1770SOL    HW1 6209   1.738   4.964   0.725
 1770SOL    HW2 6210   1.621   5.051   0.799
 1771SOL     OW 6211   1.994   2.815   5.932
 1771SOL    HW1 6212   1.900   2.829   5.902
 1771SOL    HW2 6213   2.036   2.742   5.877
 1772SOL     OW 6214   2.148   3.984   2.732
 1772SOL    HW1 6215   2.055   3.998   2.765
 1772SOL    HW2 6216   2.162   3.887   2.711
 1773SOL     OW 6217   2.051   6.291   6.370
 1773SOL    HW1 6218   1.981   6.270   6.303
 1773SOL    HW2 6219   2.134   6.322   6.323
 1774SOL     OW 6220   5.451   5.833   0.716
 1774SOL    HW1 6221   5.381   5.775   0.676
 1774SOL    HW2 6222   5.536   5.824   0.664
 1775SOL     OW 6223   2.201   5.182   0.463
 1775SOL    HW1 6224   2.298   5.188   0.485
 1775SOL    HW2 6225   2.148   5.175   0.548
 1776SOL     OW 6226   4.669   2.528   5.268
 1776SOL    HW1 6227   4.611   2.610   5.273
 1776SOL    HW2 6228   4.619   2.455   5.222
 1777SOL     OW 6229   4.999   6.540   6.844
 1777SOL    HW1 6230   5.033   6.452   6.876
 1777SOL    HW2 6231   5.012   6.608   6.916
 1778SOL     OW 6232   6.028   0.170   4.140
 1778SOL    HW1 6233   6.076   0.211   4.062
 1778SOL    HW2 6234   6.095   0.123   4.199
 1779SOL     OW 6235   5.511   0.510   4.146
 1779SOL    HW1 6236   5.570   0.580   4.105
 1779SOL    HW2 6237   5.417   0.542   4.146
 1780SOL     OW 6238   2.380   5.159   5.495
 1780SOL    HW1 6239   2.408   5.198   5.406
 1780SOL    HW2 6240   2.382   5.060   5.490
 1781SOL     OW 6241   3.983   0.770   5.349
 1781SOL    HW1 6242   4.027   0.839   5.291
 1781SOL    HW2 6243   4.040   0.752   5.429
 1782SOL     OW 6244   5.972   1.513   2.208
 1782SOL    HW1 6245   5.887   1.462   2.213
 1782SOL    HW2 6246   6.046   1.459   2.248
 1783SOL     OW 6247   2.227   4.045   6.648
 1783SOL    HW1 6248   2.257   4.130   6.692
 1783SOL    HW2 6249   2.259   4.043   6.553
 1784SOL     OW 6250   2.810   6.470   1.757
 1784SOL    HW1 6251   2.710   6.466   1.767
 1784SOL    HW2 6252   2.846   6.377   1.745
 1785SOL     OW 6253   1.185   6.609   4.825
 1785SOL    HW1 6254   1.145   6.518   4.835
 1785SOL    HW2 6255   1.117   6.678   4.849
 1786SOL     OW 6256   1.137   6.281   1.134
 1786SOL    HW1 6257   1.228   6.298   1.172
 1786SOL    HW2 6258   1.068   6.330   1.188
 1787SOL     OW 6259   1.998   3.180   6.067
 1787SOL    HW1 6260   2.028   3.201   6.160
 1787SOL    HW2 6261   1.901   3.201   6.057
 1788SOL     OW 6262   4.567   3.826   0.970
 1788SOL    HW1 6263   4.660   3.849   0.941
 1788SOL    HW2 6264   4.567   3.806   1.068
 1789SOL     OW 6265   6.194   3.986   2.442
 1789SOL    HW1 6266   6.143   3.908   2.407
 1789SOL    HW2 6267   6.210   4.052   2.369
 1790SOL     OW 6268   1.674   2.039   4.640
 1790SOL    HW1 6269   1.660   2.027   4.738
 1790SOL    HW2 6270   1.717   2.128   4.623
 1791SOL     OW 6271   5.054   0.345   3.542
 1791SOL    HW1 6272   4.997   0.395   3.607
 1791SOL    HW2 6273   5.033   0.247   3.547
 1792SOL     OW 6274   0.567   2.083   6.211
 1792SOL    HW1 6275   0.587   2.094   6.113
 1792SOL    HW2 6276   0.623   2.147   6.263
 1793SOL     OW 6277   0.094   0.518   5.834
 1793SOL    HW1 6278   0.091   0.527   5.933
 1793SOL    HW2 6279   0.186   0.540   5.801
 1794SOL     OW 6280   0.916   0.400   5.963
 1794SOL    HW1 6281   1.002   0.440   5.996
 1794SOL    HW2 6282   0.877   0.460   5.893
 1795SOL     OW 6283   5.520   4.313   1.054
 1795SOL    HW1 6284   5.605   4.314   1.106
 1795SOL    HW2 6285   5.488   4.219   1.043
 1796SOL     OW 6286   0.247   0.305   7.007
 1796SOL    HW1 6287   0.309   0.258   6.945
 1796SOL    HW2 6288   0.155   0.268   6.997
 1797SOL     OW 6289   2.405   4.992   5.784
 1797SOL    HW1 6290   2.322   5.014   5.733
 1797SOL    HW2 6291   2.450   5.076   5.813
 1798SOL     OW 6292   2.618   3.961   5.308
 1798SOL    HW1 6293   2.547   3.993   5.246
 1798SOL    HW2 6294   2.579   3.945   5.399
 1799SOL     OW 6295   2.837   1.622   0.991
 1799SOL    HW1 6296   2.887   1.652   1.072
 1799SOL    HW2 6297   2.790   1.536   1.010
 1800SOL     OW 6298   5.763   3.251   5.342
 1800SOL    HW1 6299   5.826   3.311   5.390
 1800SOL    HW2 6300   5.677   3.245   5.393
 1801SOL     OW 6301   1.062   0.288   3.487
 1801SOL    HW1 6302   1.162   0.279   3.491
 1801SOL    HW2 6303   1.038   0.364   3.427
 1802SOL     OW 6304   6.942   5.365   3.987
 1802SOL    HW1 6305   6.893   5.392   4.069
 1802SOL    HW2 6306   6.877   5.337   3.916
 1803SOL     OW 6307   0.493   6.978   3.310
 1803SOL    HW1 6308   0.476   6.973   3.409
 1803SOL    HW2 6309   0.579   6.931   3.289
 1804SOL     OW 6310   2.204   2.987   5.943
 1804SOL    HW1 6311   2.161   2.897   5.944
 1804SOL    HW2 6312   2.134   3.058   5.950
 1805SOL     OW 6313   6.691   5.078   0.887
 1805SOL    HW1 6314   6.688   5.003   0.953
 1805SOL    HW2 6315   6.600   5.091   0.847
 1806SOL     OW 6316   0.239   1.665   1.235
 1806SOL    HW1 6317   0.317   1.604   1.252
 1806SOL    HW2 6318   0.273   1.754   1.204
 1807SOL     OW 6319   6.894   2.139   2.246
 1807SOL    HW1 6320   6.916   2.076   2.172
 1807SOL    HW2 6321   6.808   2.187   2.225
 1808SOL     OW 6322   5.269   1.759   6.513
 1808SOL    HW1 6323   5.214   1.824   6.566
 1808SOL    HW2 6324   5.218   1.675   6.500
 1809SOL     OW 6325   4.779   0.258   5.280
 1809SOL    HW1 6326   4.815   0.351   5.275
 1809SOL    HW2 6327   4.688   0.255   5.237
 1810SOL     OW 6328   0.928   0.468   4.401
 1810SOL    HW1 6329   0.984   0.517   4.334
 1810SOL    HW2 6330   0.842   0.441   4.358
 1811SOL     OW 6331   3.738   5.774   1.987
 1811SOL    HW1 6332   3.651   5.823   1.987
 1811SOL    HW2 6333   3.735   5.700   1.920
 1812SOL     OW 6334   4.776   6.462   6.351
 1812SOL    HW1 6335   4.827   6.377   6.357
 1812SOL    HW2 6336   4.819   6.522   6.283
 1813SOL     OW 6337   4.794   4.228   2.105
 1813SOL    HW1 6338   4.709   4.274   2.079
 1813SOL    HW2 6339   4.814   4.155   2.041
 1814SOL     OW 6340   6.432   6.081   0.582
 1814SOL    HW1 6341   6.513   6.038   0.543
 1814SOL    HW2 6342   6.433   6.069   0.681
 1815SOL     OW 6343   5.516   6.153   1.151
 1815SOL    HW1 6344   5.538   6.245   1.119
 1815SOL    HW2 6345   5.476   6.100   1.076
 1816SOL     OW 6346   4.444   4.774   5.193
 1816SOL    HW1 6347   4.465   4.858   5.243
 1816SOL    HW2 6348   4.364   4.790   5.134
 1817SOL     OW 6349   0.071   2.562   3.848
 1817SOL    HW1 6350   7.000   2.571   3.844
 1817SOL    HW2 6351   0.107   2.555   3.755
 1818SOL     OW 6352   2.722   0.734   0.431
 1818SOL    HW1 6353   2.730   0.811   0.367
 1818SOL    HW2 6354   2.811   0.690   0.442
 1819SOL     OW 6355   1.895   4.146   2.714
 1819SOL    HW1 6356   1.813   4.105   2.676
 1819SOL    HW2 6357   1.950   4.187   2.641
 1820SOL     OW 6358   3.228   0.332   5.350
 1820SOL    HW1 6359   3.309   0.279   5.328
 1820SOL    HW2 6360   3.155   0.312   5.284
 1821SOL     OW 6361   3.643   1.808   2.295
 1821SOL    HW1 6362   3.625   1.742   2.368
 1821SOL    HW2 6363   3.658   1.759   2.209
 1822SOL     OW 6364   0.014   3.330   2.988
 1822SOL    HW1 6365   0.079   3.396   3.025
 1822SOL    HW2 6366   0.017   3.246   3.043
 1823SOL     OW 6367   4.361   6.530   1.985
 1823SOL    HW1 6368   4.335   6.452   2.042
 1823SOL    HW2 6369   4.391   6.497   1.895
 1824SOL     OW 6370   4.379   3.061   1.762
 1824SOL    HW1 6371   4.471   3.041   1.798
 1824SOL    HW2 6372   4.356   3.156   1.780
 1825SOL     OW 6373   0.958   2.454   5.278
 1825SOL    HW1 6374   1.040   2.461   5.335
 1825SOL    HW2 6375   0.984   2.463   5.182
 1826SOL     OW 6376   3.206   2.130   1.623
 1826SOL    HW1 6377   3.196   2.214   1.569
 1826SOL    HW2 6378   3.146   2.134   1.702
 1827SOL     OW 6379   5.567   5.254   0.497
 1827SOL    HW1 6380   5.635   5.228   0.429
 1827SOL    HW2 6381   5.578   5.351   0.520
 1828SOL     OW 6382   1.703   3.648   5.292
 1828SOL    HW1 6383   1.606   3.670   5.301
 1828SOL    HW2 6384   1.757   3.722   5.331
 1829SOL     OW 6385   3.951   0.159   1.838
 1829SOL    HW1 6386   3.955   0.077   1.895
 1829SOL    HW2 6387   3.866   0.209   1.857
 1830SOL     OW 6388   5.166   1.041   6.131
 1830SOL    HW1 6389   5.108   1.119   6.155
 1830SOL    HW2 6390   5.225   1.067   6.054
 1831SOL     OW 6391   3.550   5.243   0.436
 1831SOL    HW1 6392   3.500   5.182   0.496
 1831SOL    HW2 6393   3.495   5.262   0.354
 1832SOL     OW 6394   2.859   2.803   6.495
 1832SOL    HW1 6395   2.947   2.814   6.450
 1832SOL    HW2 6396   2.839   2.885   6.549
 1833SOL     OW 6397   5.350   1.335   6.969
 1833SOL    HW1 6398   5.341   1.303   0.034
 1833SOL    HW2 6399   5.293   1.279   6.908
 1834SOL     OW 6400   0.434   2.862   5.220
 1834SOL    HW1 6401   0.341   2.897   5.210
 1834SOL    HW2 6402   0.432   2.777   5.272
 1835SOL     OW 6403   6.694   6.290   1.295
 1835SOL    HW1 6404   6.717   6.205   1.342
 1835SOL    HW2 6405   6.652   6.354   1.360
 1836SOL     OW 6406   5.539   2.571   2.355
 1836SOL    HW1 6407   5.518   2.607   2.446
 1836SOL    HW2 6408   5.460   2.584   2.295
 1837SOL     OW 6409   3.354   2.010   6.649
 1837SOL    HW1 6410   3.393   1.986   6.738
 1837SOL    HW2 6411   3.353   1.929   6.590
 1838SOL     OW 6412   5.045   0.804   0.963
 1838SOL    HW1 6413   5.021   0.851   0.878
 1838SOL    HW2 6414   5.101   0.863   1.020
 1839SOL     OW 6415   0.086   0.220   0.546
 1839SOL    HW1 6416   0.087   0.228   0.446
 1839SOL    HW2 6417   0.178   0.195   0.578
 1840SOL     OW 6418   4.479   6.359   4.225
 1840SOL    HW1 6419   4.548   6.425   4.254
 1840SOL    HW2 6420   4.515   6.301   4.153
 1841SOL     OW 6421   1.190   1.316   1.874
 1841SOL    HW1 6422   1.188   1.387   1.943
 1841SOL    HW2 6423   1.099   1.307   1.833
 1842SOL     OW 6424   1.117   5.484   1.448
 1842SOL    HW1 6425   1.034   5.436   1.420
 1842SOL    HW2 6426   1.101   5.582   1.446
 1843SOL     OW 6427   2.505   1.005   6.539
 1843SOL    HW1 6428   2.572   1.079   6.543
 1843SOL    HW2 6429   2.415   1.040   6.564
 1844SOL     OW 6430   6.129   2.709   6.281
 1844SOL    HW1 6431   6.183   2.702   6.197
 1844SOL    HW2 6432   6.133   2.803   6.316
 1845SOL     OW 6433   1.004   2.052   2.966
 1845SOL    HW1 6434   1.049   2.133   3.004
 1845SOL    HW2 6435   0.907   2.072   2.951
 1846SOL     OW 6436   2.998   1.678   1.204
 1846SOL    HW1 6437   2.967   1.755   1.259
 1846SOL    HW2 6438   3.089   1.649   1.233
 1847SOL     OW 6439   1.503   5.617   6.037
 1847SOL    HW1 6440   1.405   5.629   6.056
 1847SOL    HW2 6441   1.516   5.602   5.939
 1848SOL     OW 6442   3.924   6.560   3.230
 1848SOL    HW1 6443   3.964   6.469   3.216
 1848SOL    HW2 6444   3.833   6.550   3.271
 1849SOL     OW 6445   4.836   2.770   2.044
 1849SOL    HW1 6446   4.810   2.866   2.055
 1849SOL    HW2 6447   4.862   2.732   2.133
 1850SOL     OW 6448   4.212   2.090   0.356
 1850SOL    HW1 6449   4.244   2.096   0.450
 1850SOL    HW2 6450   4.112   2.086   0.355
 1851SOL     OW 6451   6.907   4.483   4.659
 1851SOL    HW1 6452   6.923   4.537   4.742
 1851SOL    HW2 6453   6.808   4.480   4.640
 1852SOL     OW 6454   0.761   0.556   3.012
 1852SOL    HW1 6455   0.680   0.497   3.008
 1852SOL    HW2 6456   0.798   0.554   3.105
 1853SOL     OW 6457   0.531   2.500   6.146
 1853SOL    HW1 6458   0.578   2.508   6.058
 1853SOL    HW2 6459   0.472   2.419   6.145
 1854SOL     OW 6460   1.097   6.575   3.565
 1854SOL    HW1 6461   1.089   6.476   3.579
 1854SOL    HW2 6462   1.011   6.619   3.592
 1855SOL     OW 6463   5.536   2.830   4.884
 1855SOL    HW1 6464   5.586   2.917   4.883
 1855SOL    HW2 6465   5.578   2.766   4.820
 1856SOL     OW 6466   4.172   3.220   0.193
 1856SOL    HW1 6467   4.104   3.148   0.206
 1856SOL    HW2 6468   4.260   3.190   0.231
 1857SOL     OW 6469   3.867   1.251   6.925
 1857SOL    HW1 6470   3.944   1.200   6.887
 1857SOL    HW2 6471   3.827   1.200   7.001
 1858SOL     OW 6472   4.925   2.518   4.007
 1858SOL    HW1 6473   4.858   2.588   3.982
 1858SOL    HW2 6474   5.012   2.562   4.032
 1859SOL     OW 6475   6.162   0.814   3.906
 1859SOL    HW1 6476   6.122   0.821   3.997
 1859SOL    HW2 6477   6.162   0.904   3.863
 1860SOL     OW 6478   2.171   1.118   6.016
 1860SOL    HW1 6479   2.092   1.087   5.963
 1860SOL    HW2 6480   2.196   1.210   5.987
 1861SOL     OW 6481   6.512   6.433   4.646
 1861SOL    HW1 6482   6.439   6.395   4.589
 1861SOL    HW2 6483   6.476   6.505   4.704
 1862SOL     OW 6484   2.888   5.343   5.250
 1862SOL    HW1 6485   2.848   5.360   5.160
 1862SOL    HW2 6486   2.986   5.328   5.241
 1863SOL     OW 6487   0.453   2.420   1.360
 1863SOL    HW1 6488   0.488   2.479   1.288
 1863SOL    HW2 6489   0.369   2.459   1.397
 1864SOL     OW 6490   3.461   5.994   1.993
 1864SOL    HW1 6491   3.512   6.048   2.060
 1864SOL    HW2 6492   3.416   5.917   2.038
 1865SOL     OW 6493   6.195   2.407   5.922
 1865SOL    HW1 6494   6.156   2.493   5.889
 1865SOL    HW2 6495   6.139   2.373   5.998
 1866SOL     OW 6496   0.586   5.442   3.299
 1866SOL    HW1 6497   0.685   5.444   3.309
 1866SOL    HW2 6498   0.553   5.348   3.314
 1867SOL     OW 6499   0.540   2.394   1.763
 1867SOL    HW1 6500   0.576   2.462   1.699
 1867SOL    HW2 6501   0.615   2.355   1.816
 1868SOL     OW 6502   5.636   3.530   6.923
 1868SOL    HW1 6503   5.546   3.499   6.955
 1868SOL    HW2 6504   5.653   3.622   6.956
 1869SOL     OW 6505   4.979   1.011   4.637
 1869SOL    HW1 6506   4.949   0.930   4.688
 1869SOL    HW2 6507   5.076   1.026   4.653
 1870SOL     OW 6508   6.420   6.473   5.766
 1870SOL    HW1 6509   6.395   6.559   5.809
 1870SOL    HW2 6510   6.376   6.397   5.815
 1871SOL     OW 6511   0.476   6.613   0.038
 1871SOL    HW1 6512   0.503   6.682   0.105
 1871SOL    HW2 6513   0.462   6.656   6.978
 1872SOL     OW 6514   2.856   3.213   1.493
 1872SOL    HW1 6515   2.895   3.121   1.479
 1872SOL    HW2 6516   2.785   3.209   1.563
 1873SOL     OW 6517   6.635   1.001   0.854
 1873SOL    HW1 6518   6.657   1.099   0.851
 1873SOL    HW2 6519   6.608   0.976   0.947
 1874SOL     OW 6520   1.088   5.427   0.883
 1874SOL    HW1 6521   1.156   5.459   0.949
 1874SOL    HW2 6522   1.002   5.477   0.898
 1875SOL     OW 6523   0.311   5.540   1.707
 1875SOL    HW1 6524   0.254   5.522   1.627
 1875SOL    HW2 6525   0.253   5.556   1.787
 1876SOL     OW 6526   0.464   5.221   0.942
 1876SOL    HW1 6527   0.553   5.177   0.925
 1876SOL    HW2 6528   0.440   5.213   1.038
 1877SOL     OW 6529   1.099   1.775   2.024
 1877SOL    HW1 6530   1.111   1.858   2.078
 1877SOL    HW2 6531   1.002   1.762   2.002
 1878SOL     OW 6532   5.439   3.851   4.058
 1878SOL    HW1 6533   5.511   3.920   4.045
 1878SOL    HW2 6534   5.476   3.760   4.039
 1879SOL     OW 6535   4.855   6.445   4.428
 1879SOL    HW1 6536   4.870   6.361   4.479
 1879SOL    HW2 6537   4.942   6.480   4.394
 1880SOL     OW 6538   0.405   1.242   4.427
 1880SOL    HW1 6539   0.398   1.203   4.335
 1880SOL    HW2 6540   0.369   1.176   4.493
 1881SOL     OW 6541   2.118   1.671   3.839
 1881SOL    HW1 6542   2.193   1.700   3.779
 1881SOL    HW2 6543   2.070   1.595   3.797
 1882SOL     OW 6544   1.786   5.291   0.532
 1882SOL    HW1 6545   1.736   5.344   0.464
 1882SOL    HW2 6546   1.722   5.255   0.600
 1883SOL     OW 6547   2.104   2.354   3.067
 1883SOL    HW1 6548   2.113   2.281   3.135
 1883SOL    HW2 6549   2.194   2.376   3.030
 1884SOL     OW 6550   4.378   1.170   0.395
 1884SOL    HW1 6551   4.381   1.210   0.303
 1884SOL    HW2 6552   4.424   1.081   0.394
 1885SOL     OW 6553   0.175   1.545   0.437
 1885SOL    HW1 6554   0.213   1.609   0.370
 1885SOL    HW2 6555   0.168   1.590   0.526
 1886SOL     OW 6556   3.390   2.646   6.525
 1886SOL    HW1 6557   3.444   2.621   6.444
 1886SOL    HW2 6558   3.296   2.615   6.514
 1887SOL     OW 6559   0.797   6.323   4.913
 1887SOL    HW1 6560   0.734   6.387   4.956
 1887SOL    HW2 6561   0.772   6.229   4.939
 1888SOL     OW 6562   1.888   1.613   5.394
 1888SOL    HW1 6563   1.808   1.554   5.403
 1888SOL    HW2 6564   1.889   1.653   5.302
 1889SOL     OW 6565   3.056   2.656   6.974
 1889SOL    HW1 6566   3.134   2.595   6.993
 1889SOL    HW2 6567   3.005   2.673   0.030
 1890SOL     OW 6568   6.108   6.128   0.085
 1890SOL    HW1 6569   6.171   6.132   0.007
 1890SOL    HW2 6570   6.019   6.166   0.059
 1891SOL     OW 6571   5.319   3.517   6.722
 1891SOL    HW1 6572   5.382   3.589   6.694
 1891SOL    HW2 6573   5.226   3.554   6.723
 1892SOL     OW 6574   4.218   7.005   1.894
 1892SOL    HW1 6575   4.265   6.925   1.930
 1892SOL    HW2 6576   4.119   6.991   1.899
 1893SOL     OW 6577   2.876   1.576   5.301
 1893SOL    HW1 6578   2.862   1.620   5.212
 1893SOL    HW2 6579   2.789   1.538   5.333
 1894SOL     OW 6580   5.037   3.739   1.339
 1894SOL    HW1 6581   5.030   3.835   1.311
 1894SOL    HW2 6582   5.114   3.697   1.290
 1895SOL     OW 6583   4.444   0.161   3.580
 1895SOL    HW1 6584   4.407   0.228   3.643
 1895SOL    HW2 6585   4.428   0.069   3.616
 1896SOL     OW 6586   6.317   2.011   6.262
 1896SOL    HW1 6587   6.346   2.088   6.205
 1896SOL    HW2 6588   6.238   1.967   6.219
 1897SOL     OW 6589   5.442   5.220   3.632
 1897SOL    HW1 6590   5.527   5.187   3.590
 1897SOL    HW2 6591   5.409   5.299   3.581
 1898SOL     OW 6592   6.009   6.563   6.827
 1898SOL    HW1 6593   5.959   6.503   6.765
 1898SOL    HW2 6594   5.984   6.659   6.809
 1899SOL     OW 6595   1.208   2.444   3.009
 1899SOL    HW1 6596   1.207   2.448   2.910
 1899SOL    HW2 6597   1.302   2.445   3.042
 1900SOL     OW 6598   2.409   6.329   2.083
 1900SOL    HW1 6599   2.353   6.247   2.100
 1900SOL    HW2 6600   2.407   6.388   2.164
 1901SOL     OW 6601   1.421   1.119   6.414
 1901SOL    HW1 6602   1.352   1.137   6.484
 1901SOL    HW2 6603   1.474   1.202   6.398
 1902SOL     OW 6604   1.916   2.153   5.415
 1902SOL    HW1 6605   1.872   2.237   5.447
 1902SOL    HW2 6606   1.919   2.087   5.490
 1903SOL     OW 6607   6.682   4.417   3.755
 1903SOL    HW1 6608   6.609   4.428   3.688
 1903SOL    HW2 6609   6.754   4.359   3.717
 1904SOL     OW 6610   0.451   0.441   4.593
 1904SOL    HW1 6611   0.362   0.477   4.563
 1904SOL    HW2 6612   0.454   0.343   4.576
 1905SOL     OW 6613   6.332   2.836   4.612
 1905SOL    HW1 6614   6.315   2.739   4.629
 1905SOL    HW2 6615   6.246   2.887   4.614
 1906SOL     OW 6616   2.693   5.839   6.584
 1906SOL    HW1 6617   2.694   5.819   6.682
 1906SOL    HW2 6618   2.664   5.934   6.570
 1907SOL     OW 6619   4.362   6.270   3.815
 1907SOL    HW1 6620   4.322   6.248   3.726
 1907SOL    HW2 6621   4.429   6.343   3.804
 1908SOL     OW 6622   4.793   0.126   6.378
 1908SOL    HW1 6623   4.772   0.181   6.298
 1908SOL    HW2 6624   4.720   0.136   6.446
 1909SOL     OW 6625   4.323   5.261   4.802
 1909SOL    HW1 6626   4.376   5.228   4.724
 1909SOL    HW2 6627   4.256   5.329   4.771
 1910SOL     OW 6628   5.137   2.864   4.534
 1910SOL    HW1 6629   5.074   2.922   4.482
 1910SOL    HW2 6630   5.084   2.808   4.598
 1911SOL     OW 6631   0.182   3.294   5.679
 1911SOL    HW1 6632   0.270   3.340   5.697
 1911SOL    HW2 6633   0.180   3.207   5.727
 1912SOL     OW 6634   2.718   5.854   3.293
 1912SOL    HW1 6635   2.710   5.759   3.261
 1912SOL    HW2 6636   2.800   5.864   3.349
 1913SOL     OW 6637   1.303   4.101   5.456
 1913SOL    HW1 6638   1.347   4.034   5.515
 1913SOL    HW2 6639   1.365   4.177   5.439
 1914SOL     OW 6640   4.464   1.076   5.552
 1914SOL    HW1 6641   4.404   1.047   5.626
 1914SOL    HW2 6642   4.410   1.098   5.471
 1915SOL     OW 6643   3.495   0.786   5.440
 1915SOL    HW1 6644   3.457   0.694   5.435
 1915SOL    HW2 6645   3.430   0.851   5.402
 1916SOL     OW 6646   4.036   6.681   1.815
 1916SOL    HW1 6647   4.116   6.708   1.761
 1916SOL    HW2 6648   4.062   6.678   1.912
 1917SOL     OW 6649   3.615   2.863   4.457
 1917SOL    HW1 6650   3.593   2.893   4.365
 1917SOL    HW2 6651   3.711   2.884   4.478
 1918SOL     OW 6652   6.216   6.571   4.960
 1918SOL    HW1 6653   6.122   6.576   4.925
 1918SOL    HW2 6654   6.237   6.476   4.983
 1919SOL     OW 6655   6.681   0.130   1.664
 1919SOL    HW1 6656   6.589   0.167   1.681
 1919SOL    HW2 6657   6.750   0.197   1.692
 1920SOL     OW 6658   0.005   6.205   4.279
 1920SOL    HW1 6659   6.945   6.240   4.253
 1920SOL    HW2 6660   0.056   6.177   4.197
 1921SOL     OW 6661   1.084   6.803   6.556
 1921SOL    HW1 6662   0.988   6.798   6.527
 1921SOL    HW2 6663   1.089   6.846   6.646
 1922SOL     OW 6664   3.711   4.223   1.212
 1922SOL    HW1 6665   3.773   4.174   1.273
 1922SOL    HW2 6666   3.622   4.231   1.256
 1923SOL     OW 6667   1.863   2.913   1.002
 1923SOL    HW1 6668   1.811   2.903   1.087
 1923SOL    HW2 6669   1.921   2.994   1.007
 1924SOL     OW 6670   1.086   3.401   2.008
 1924SOL    HW1 6671   1.102   3.459   1.928
 1924SOL    HW2 6672   1.173   3.385   2.055
 1925SOL     OW 6673   3.754   4.050   0.312
 1925SOL    HW1 6674   3.704   4.025   0.395
 1925SOL    HW2 6675   3.689   4.082   0.243
 1926SOL     OW 6676   1.020   6.939   3.751
 1926SOL    HW1 6677   0.983   0.002   3.739
 1926SOL    HW2 6678   1.097   6.927   3.688
 1927SOL     OW 6679   4.318   3.751   0.477
 1927SOL    HW1 6680   4.251   3.821   0.451
 1927SOL    HW2 6681   4.321   3.743   0.576
 1928SOL     OW 6682   0.147   5.408   5.652
 1928SOL    HW1 6683   0.123   5.390   5.557
 1928SOL    HW2 6684   0.085   5.477   5.690
 1929SOL     OW 6685   1.829   6.697   3.535
 1929SOL    HW1 6686   1.869   6.608   3.512
 1929SOL    HW2 6687   1.736   6.702   3.499
 1930SOL     OW 6688   6.426   4.861   0.011
 1930SOL    HW1 6689   6.355   4.799   7.005
 1930SOL    HW2 6690   6.384   4.930   0.070
 1931SOL     OW 6691   0.481   2.261   5.325
 1931SOL    HW1 6692   0.405   2.220   5.276
 1931SOL    HW2 6693   0.446   2.314   5.403
 1932SOL     OW 6694   5.846   3.007   2.455
 1932SOL    HW1 6695   5.783   3.085   2.459
 1932SOL    HW2 6696   5.864   2.974   2.548
 1933SOL     OW 6697   2.232   4.536   1.000
 1933SOL    HW1 6698   2.270   4.629   1.002
 1933SOL    HW2 6699   2.158   4.529   1.067
 1934SOL     OW 6700   0.433   5.954   4.814
 1934SOL    HW1 6701   0.365   6.027   4.813
 1934SOL    HW2 6702   0.388   5.865   4.805
 1935SOL     OW 6703   2.500   1.249   3.798
 1935SOL    HW1 6704   2.447   1.334   3.799
 1935SOL    HW2 6705   2.496   1.208   3.707
 1936SOL     OW 6706   6.744   6.073   5.583
 1936SOL    HW1 6707   6.842   6.057   5.592
 1936SOL    HW2 6708   6.725   6.112   5.493
 1937SOL     OW 6709   4.649   0.683   2.998
 1937SOL    HW1 6710   4.684   0.596   2.961
 1937SOL    HW2 6711   4.552   0.692   2.976
 1938SOL     OW 6712   5.237   0.599   3.816
 1938SOL    HW1 6713   5.242   0.502   3.839
 1938SOL    HW2 6714   5.145   0.620   3.782
 1939SOL     OW 6715   2.842   0.340   3.071
 1939SOL    HW1 6716   2.810   0.345   2.976
 1939SOL    HW2 6717   2.867   0.246   3.092
 1940SOL     OW 6718   6.497   5.407   6.858
 1940SOL    HW1 6719   6.584   5.358   6.873
 1940SOL    HW2 6720   6.473   5.402   6.761
 1941SOL     OW 6721   5.118   4.880   2.936
 1941SOL    HW1 6722   5.022   4.853   2.944
 1941SOL    HW2 6723   5.152   4.856   2.845
 1942SOL     OW 6724   6.415   5.028   3.179
 1942SOL    HW1 6725   6.425   5.026   3.080
 1942SOL    HW2 6726   6.497   5.069   3.220
 1943SOL     OW 6727   3.176   5.833   2.503
 1943SOL    HW1 6728   3.108   5.760   2.495
 1943SOL    HW2 6729   3.214   5.854   2.413
 1944SOL     OW 6730   6.659   0.214   2.296
 1944SOL    HW1 6731   6.623   0.148   2.230
 1944SOL    HW2 6732   6.651   0.306   2.258
 1945SOL     OW 6733   3.376   4.940   3.879
 1945SOL    HW1 6734   3.330   4.862   3.836
 1945SOL    HW2 6735   3.374   5.018   3.818
 1946SOL     OW 6736   2.106   0.228   0.410
 1946SOL    HW1 6737   2.135   0.302   0.349
 1946SOL    HW2 6738   2.016   0.249   0.447
 1947SOL     OW 6739   5.294   6.938   3.868
 1947SOL    HW1 6740   5.287   6.986   3.955
 1947SOL    HW2 6741   5.271   6.841   3.881
 1948SOL     OW 6742   6.339   4.146   6.085
 1948SOL    HW1 6743   6.328   4.208   6.006
 1948SOL    HW2 6744   6.384   4.062   6.055
 1949SOL     OW 6745   5.463   3.940   6.924
 1949SOL    HW1 6746   5.522   4.019   6.906
 1949SOL    HW2 6747   5.401   3.962   6.999
 1950SOL     OW 6748   2.706   4.710   1.039
 1950SOL    HW1 6749   2.799   4.730   1.068
 1950SOL    HW2 6750   2.705   4.629   0.980
 1951SOL     OW 6751   0.017   2.410   0.071
 1951SOL    HW1 6752   0.034   2.325   0.022
 1951SOL    HW2 6753   6.956   2.445   0.046
 1952SOL     OW 6754   3.943   2.316   5.496
 1952SOL    HW1 6755   3.961   2.237   5.553
 1952SOL    HW2 6756   4.027   2.342   5.447
 1953SOL     OW 6757   0.347   3.221   4.983
 1953SOL    HW1 6758   0.396   3.178   5.058
 1953SOL    HW2 6759   0.348   3.320   4.995
 1954SOL     OW 6760   2.490   2.009   3.838
 1954SOL    HW1 6761   2.466   1.985   3.744
 1954SOL    HW2 6762   2.534   1.930   3.882
 1955SOL     OW 6763   6.518   6.059   1.992
 1955SOL    HW1 6764   6.616   6.049   2.010
 1955SOL    HW2 6765   6.489   5.988   1.928
 1956SOL     OW 6766   5.897   6.605   2.802
 1956SOL    HW1 6767   5.883   6.660   2.884
 1956SOL    HW2 6768   5.946   6.659   2.733
 1957SOL     OW 6769   0.642   6.500   5.510
 1957SOL    HW1 6770   0.705   6.520   5.585
 1957SOL    HW2 6771   0.564   6.447   5.544
 1958SOL     OW 6772   4.807   3.375   5.721
 1958SOL    HW1 6773   4.887   3.352   5.775
 1958SOL    HW2 6774   4.834   3.434   5.645
 1959SOL     OW 6775   1.876   2.245   6.549
 1959SOL    HW1 6776   1.900   2.168   6.608
 1959SOL    HW2 6777   1.778   2.243   6.530
 1960SOL     OW 6778   5.146   6.536   1.935
 1960SOL    HW1 6779   5.137   6.503   1.841
 1960SOL    HW2 6780   5.061   6.518   1.985
 1961SOL     OW 6781   5.607   5.448   4.650
 1961SOL    HW1 6782   5.617   5.528   4.708
 1961SOL    HW2 6783   5.602   5.476   4.554
 1962SOL     OW 6784   6.886   6.554   3.256
 1962SOL    HW1 6785   6.880   6.594   3.165
 1962SOL    HW2 6786   6.794   6.534   3.290
 1963SOL     OW 6787   1.826   6.889   2.889
 1963SOL    HW1 6788   1.899   6.867   2.825
 1963SOL    HW2 6789   1.861   6.950   2.960
 1964SOL     OW 6790   5.376   4.358   2.202
 1964SOL    HW1 6791   5.435   4.437   2.190
 1964SOL    HW2 6792   5.308   4.355   2.128
 1965SOL     OW 6793   2.381   5.278   3.600
 1965SOL    HW1 6794   2.480   5.282   3.583
 1965SOL    HW2 6795   2.364   5.274   3.698
 1966SOL     OW 6796   6.605   5.683   5.838
 1966SOL    HW1 6797   6.658   5.598   5.847
 1966SOL    HW2 6798   6.668   5.761   5.839
 1967SOL     OW 6799   5.015   3.068   4.383
 1967SOL    HW1 6800   5.024   3.097   4.287
 1967SOL    HW2 6801   4.986   3.146   4.438
 1968SOL     OW 6802   3.410   5.363   5.603
 1968SOL    HW1 6803   3.481   5.365   5.533
 1968SOL    HW2 6804   3.322   5.342   5.560
 1969SOL     OW 6805   6.650   2.098   1.787
 1969SOL    HW1 6806   6.592   2.133   1.861
 1969SOL    HW2 6807   6.692   2.012   1.816
 1970SOL     OW 6808   1.991   6.765   3.868
 1970SOL    HW1 6809   2.006   6.864   3.870
 1970SOL    HW2 6810   2.072   6.718   3.903
 1971SOL     OW 6811   0.378   0.135   6.216
 1971SOL    HW1 6812   0.293   0.092   6.184
 1971SOL    HW2 6813   0.367   0.235   6.215
 1972SOL     OW 6814   1.256   4.935   4.204
 1972SOL    HW1 6815   1.310   4.984   4.273
 1972SOL    HW2 6816   1.219   4.852   4.245
 1973SOL     OW 6817   2.681   3.070   0.364
 1973SOL    HW1 6818   2.743   3.140   0.398
 1973SOL    HW2 6819   2.593   3.112   0.340
 1974SOL     OW 6820   6.131   0.733   4.468
 1974SOL    HW1 6821   6.038   0.768   4.479
 1974SOL    HW2 6822   6.133   0.668   4.392
 1975SOL     OW 6823   3.039   1.045   3.607
 1975SOL    HW1 6824   3.044   1.099   3.692
 1975SOL    HW2 6825   2.956   1.069   3.557
 1976SOL     OW 6826   6.939   4.882   0.227
 1976SOL    HW1 6827   6.880   4.861   0.305
 1976SOL    HW2 6828   6.915   4.823   0.150
 1977SOL     OW 6829   2.190   2.551   4.937
 1977SOL    HW1 6830   2.261   2.620   4.954
 1977SOL    HW2 6831   2.104   2.596   4.916
 1978SOL     OW 6832   6.529   1.511   5.127
 1978SOL    HW1 6833   6.626   1.532   5.139
 1978SOL    HW2 6834   6.517   1.412   5.116
 1979SOL     OW 6835   6.015   4.953   3.336
 1979SOL    HW1 6836   5.949   4.913   3.399
 1979SOL    HW2 6837   5.993   5.049   3.321
 1980SOL     OW 6838   4.086   0.432   1.533
 1980SOL    HW1 6839   4.026   0.352   1.531
 1980SOL    HW2 6840   4.031   0.514   1.548
 1981SOL     OW 6841   4.749   3.298   1.637
 1981SOL    HW1 6842   4.762   3.214   1.690
 1981SOL    HW2 6843   4.747   3.376   1.700
 1982SOL     OW 6844   5.894   6.945   4.996
 1982SOL    HW1 6845   5.965   7.012   4.974
 1982SOL    HW2 6846   5.848   6.971   5.081
 1983SOL     OW 6847   1.013   3.943   2.623
 1983SOL    HW1 6848   1.112   3.935   2.612
 1983SOL    HW2 6849   0.976   3.855   2.653
 1984SOL     OW 6850   4.100   0.699   5.594
 1984SOL    HW1 6851   4.079   0.708   5.692
 1984SOL    HW2 6852   4.195   0.671   5.583
 1985SOL     OW 6853   1.584   0.115   1.540
 1985SOL    HW1 6854   1.636   0.109   1.454
 1985SOL    HW2 6855   1.591   0.207   1.577
 1986SOL     OW 6856   1.256   1.830   6.108
 1986SOL    HW1 6857   1.287   1.742   6.071
 1986SOL    HW2 6858   1.163   1.848   6.077
 1987SOL     OW 6859   2.414   3.300   7.009
 1987SOL    HW1 6860   2.456   3.210   7.008
 1987SOL    HW2 6861   2.476   3.366   0.022
 1988SOL     OW 6862   5.056   3.157   0.038
 1988SOL    HW1 6863   4.980   3.215   0.011
 1988SOL    HW2 6864   5.043   3.125   0.132
 1989SOL     OW 6865   2.696   0.613   4.331
 1989SOL    HW1 6866   2.795   0.624   4.322
 1989SOL    HW2 6867   2.650   0.689   4.284
 1990SOL     OW 6868   2.169   1.128   2.833
 1990SOL    HW1 6869   2.101   1.155   2.765
 1990SOL    HW2 6870   2.212   1.209   2.872
 1991SOL     OW 6871   4.013   5.430   4.380
 1991SOL    HW1 6872   4.109   5.403   4.375
 1991SOL    HW2 6873   3.987   5.449   4.475
 1992SOL     OW 6874   1.968   0.012   5.656
 1992SOL    HW1 6875   1.881   0.046   5.692
 1992SOL    HW2 6876   2.040   0.079   5.672
 1993SOL     OW 6877   3.829   3.093   4.803
 1993SOL    HW1 6878   3.884   3.062   4.880
 1993SOL    HW2 6879   3.846   3.190   4.786
 1994SOL     OW 6880   6.194   2.694   2.099
 1994SOL    HW1 6881   6.120   2.674   2.163
 1994SOL    HW2 6882   6.201   2.792   2.084
 1995SOL     OW 6883   5.079   2.492   1.327
 1995SOL    HW1 6884   5.140   2.556   1.373
 1995SOL    HW2 6885   5.089   2.502   1.228
 1996SOL     OW 6886   2.810   3.939   6.802
 1996SOL    HW1 6887   2.790   4.034   6.827
 1996SOL    HW2 6888   2.801   3.928   6.703
 1997SOL     OW 6889   5.401   0.797   3.827
 1997SOL    HW1 6890   5.325   0.732   3.822
 1997SOL    HW2 6891   5.487   0.750   3.807
 1998SOL     OW 6892   3.075   4.823   5.132
 1998SOL    HW1 6893   3.019   4.740   5.126
 1998SOL    HW2 6894   3.048   4.875   5.212
 1999SOL     OW 6895   1.947   1.154   2.443
 1999SOL    HW1 6896   1.933   1.061   2.478
 1999SOL    HW2 6897   1.973   1.150   2.346
 2000SOL     OW 6898   3.979   2.146   4.655
 2000SOL    HW1 6899   3.900   2.134   4.715
 2000SOL    HW2 6900   4.061   2.159   4.711
 2001SOL     OW 6901   2.788   2.959   0.621
 2001SOL    HW1 6902   2.817   2.989   0.531
 2001SOL    HW2 6903   2.802   3.032   0.687
 2002SOL     OW 6904   2.061   4.751   5.198
 2002SOL    HW1 6905   2.117   4.823   5.157
 2002SOL    HW2 6906   2.088   4.662   5.161
 2003SOL     OW 6907   6.329   5.626   3.723
 2003SOL    HW1 6908   6.302   5.674   3.806
 2003SOL    HW2 6909   6.346   5.530   3.744
 2004SOL     OW 6910   3.060   0.787   6.120
 2004SOL    HW1 6911   2.986   0.723   6.100
 2004SOL    HW2 6912   3.060   0.861   6.053
 2005SOL     OW 6913   2.974   6.384   6.021
 2005SOL    HW1 6914   3.022   6.459   6.066
 2005SOL    HW2 6915   3.039   6.328   5.971
 2006SOL     OW 6916   3.871   5.377   3.758
 2006SOL    HW1 6917   3.805   5.417   3.821
 2006SOL    HW2 6918   3.959   5.424   3.767
 2007SOL     OW 6919   6.205   5.013   0.466
 2007SOL    HW1 6920   6.114   5.020   0.508
 2007SOL    HW2 6921   6.270   4.978   0.533
 2008SOL     OW 6922   0.211   5.910   4.135
 2008SOL    HW1 6923   0.289   5.853   4.162
 2008SOL    HW2 6924   0.189   5.894   4.039
 2009SOL     OW 6925   0.703   0.209   1.568
 2009SOL    HW1 6926   0.690   0.194   1.471
 2009SOL    HW2 6927   0.801   0.221   1.587
 2010SOL     OW 6928   1.582   0.052   0.913
 2010SOL    HW1 6929   1.520   0.095   0.848
 2010SOL    HW2 6930   1.668   0.028   0.867
 2011SOL     OW 6931   6.821   2.798   5.396
 2011SOL    HW1 6932   6.752   2.856   5.439
 2011SOL    HW2 6933   6.776   2.732   5.335
 2012SOL     OW 6934   0.680   3.812   1.378
 2012SOL    HW1 6935   0.697   3.877   1.304
 2012SOL    HW2 6936   0.732   3.728   1.362
 2013SOL     OW 6937   4.453   1.333   2.227
 2013SOL    HW1 6938   4.396   1.355   2.148
 2013SOL    HW2 6939   4.410   1.260   2.281
 2014SOL     OW 6940   2.661   5.637   3.524
 2014SOL    HW1 6941   2.687   5.709   3.588
 2014SOL    HW2 6942   2.577   5.592   3.556
 2015SOL     OW 6943   3.220   6.728   6.942
 2015SOL    HW1 6944   3.179   6.795   6.880
 2015SOL    HW2 6945   3.227   6.640   6.896
 2016SOL     OW 6946   6.473   5.194   3.610
 2016SOL    HW1 6947   6.564   5.151   3.610
 2016SOL    HW2 6948   6.412   5.141   3.551
 2017SOL     OW 6949   2.878   5.802   2.081
 2017SOL    HW1 6950   2.944   5.727   2.090
 2017SOL    HW2 6951   2.917   5.886   2.117
 2018SOL     OW 6952   0.903   4.900   6.178
 2018SOL    HW1 6953   0.878   4.821   6.122
 2018SOL    HW2 6954   0.821   4.940   6.219
 2019SOL     OW 6955   5.944   1.791   2.193
 2019SOL    HW1 6956   5.903   1.836   2.272
 2019SOL    HW2 6957   5.966   1.696   2.216
 2020SOL     OW 6958   2.020   5.761   3.123
 2020SOL    HW1 6959   2.028   5.860   3.137
 2020SOL    HW2 6960   2.008   5.716   3.212
 2021SOL     OW 6961   0.910   6.793   1.527
 2021SOL    HW1 6962   0.885   6.872   1.471
 2021SOL    HW2 6963   1.005   6.768   1.509
 2022SOL     OW 6964   2.454   4.181   0.903
 2022SOL    HW1 6965   2.399   4.099   0.919
 2022SOL    HW2 6966   2.461   4.233   0.988
 2023SOL     OW 6967   6.595   0.995   6.119
 2023SOL    HW1 6968   6.571   1.041   6.034
 2023SOL    HW2 6969   6.555   0.903   6.119
 2024SOL     OW 6970   5.967   0.875   3.501
 2024SOL    HW1 6971   5.920   0.862   3.414
 2024SOL    HW2 6972   5.906   0.850   3.577
 2025SOL     OW 6973   0.131   1.094   1.306
 2025SOL    HW1 6974   0.067   1.170   1.319
 2025SOL    HW2 6975   0.210   1.107   1.366
 2026SOL     OW 6976   1.583   1.471   5.127
 2026SOL    HW1 6977   1.646   1.493   5.202
 2026SOL    HW2 6978   1.489   1.485   5.156
 2027SOL     OW 6979   0.166   1.705   2.951
 2027SOL    HW1 6980   0.172   1.612   2.988
 2027SOL    HW2 6981   0.094   1.709   2.881
 2028SOL     OW 6982   4.370   3.136   6.473
 2028SOL    HW1 6983   4.407   3.096   6.389
 2028SOL    HW2 6984   4.336   3.064   6.533
 2029SOL     OW 6985   1.721   0.466   0.363
 2029SOL    HW1 6986   1.715   0.398   0.290
 2029SOL    HW2 6987   1.640   0.524   0.363
 2030SOL     OW 6988   1.332   0.682   3.282
 2030SOL    HW1 6989   1.380   0.769   3.266
 2030SOL    HW2 6990   1.282   0.656   3.199
 2031SOL     OW 6991   5.137   0.007   2.442
 2031SOL    HW1 6992   5.228   6.996   2.429
 2031SOL    HW2 6993   5.128   0.040   2.536
 2032SOL     OW 6994   5.062   6.617   1.360
 2032SOL    HW1 6995   5.076   6.527   1.319
 2032SOL    HW2 6996   4.967   6.645   1.348
 2033SOL     OW 6997   5.938   5.100   0.015
 2033SOL    HW1 6998   5.889   5.141   6.966
 2033SOL    HW2 6999   5.914   5.004   0.023
 2034SOL     OW 7000   2.247   6.887   3.017
 2034SOL    HW1 7001   2.319   6.884   3.087
 2034SOL    HW2 7002   2.207   6.796   3.006
 2035SOL     OW 7003   1.120   3.141   1.918
 2035SOL    HW1 7004   1.117   3.237   1.947
 2035SOL    HW2 7005   1.140   3.084   1.998
 2036SOL     OW 7006   1.672   4.819   0.598
 2036SOL    HW1 7007   1.636   4.727   0.612
 2036SOL    HW2 7008   1.632   4.857   0.515
 2037SOL     OW 7009   0.075   1.165   6.166
 2037SOL    HW1 7010   0.122   1.227   6.103
 2037SOL    HW2 7011   0.143   1.118   6.222
 2038SOL     OW 7012   0.638   0.719   4.608
 2038SOL    HW1 7013   0.546   0.679   4.612
 2038SOL    HW2 7014   0.660   0.760   4.696
 2039SOL     OW 7015   0.953   6.051   2.286
 2039SOL    HW1 7016   0.867   5.999   2.295
 2039SOL    HW2 7017   1.023   6.010   2.345
 2040SOL     OW 7018   3.713   3.472   4.522
 2040SOL    HW1 7019   3.758   3.544   4.468
 2040SOL    HW2 7020   3.622   3.502   4.548
 2041SOL     OW 7021   5.902   4.277   6.145
 2041SOL    HW1 7022   5.961   4.207   6.185
 2041SOL    HW2 7023   5.931   4.295   6.051
 2042SOL     OW 7024   3.845   5.814   6.771
 2042SOL    HW1 7025   3.888   5.724   6.776
 2042SOL    HW2 7026   3.893   5.870   6.703
 2043SOL     OW 7027   4.737   4.435   2.420
 2043SOL    HW1 7028   4.702   4.527   2.439
 2043SOL    HW2 7029   4.822   4.443   2.366
 2044SOL     OW 7030   6.491   0.446   1.908
 2044SOL    HW1 7031   6.518   0.540   1.888
 2044SOL    HW2 7032   6.457   0.441   2.002
 2045SOL     OW 7033   1.730   5.275   6.089
 2045SOL    HW1 7034   1.720   5.179   6.114
 2045SOL    HW2 7035   1.806   5.315   6.140
 2046SOL     OW 7036   6.226   0.430   4.811
 2046SOL    HW1 7037   6.129   0.423   4.786
 2046SOL    HW2 7038   6.242   0.377   4.895
 2047SOL     OW 7039   5.758   2.443   0.104
 2047SOL    HW1 7040   5.828   2.511   0.083
 2047SOL    HW2 7041   5.669   2.489   0.114
 2048SOL     OW 7042   4.196   0.054   5.483
 2048SOL    HW1 7043   4.135   0.130   5.459
 2048SOL    HW2 7044   4.288   0.073   5.447
 2049SOL     OW 7045   4.903   0.203   0.448
 2049SOL    HW1 7046   4.970   0.275   0.466
 2049SOL    HW2 7047   4.899   0.141   0.525
 2050SOL     OW 7048   5.910   2.026   3.858
 2050SOL    HW1 7049   5.811   2.039   3.869
 2050SOL    HW2 7050   5.936   1.939   3.900
 2051SOL     OW 7051   2.038   5.196   0.668
 2051SOL    HW1 7052   2.046   5.220   0.765
 2051SOL    HW2 7053   1.952   5.231   0.632
 2052SOL     OW 7054   1.227   3.385   0.580
 2052SOL    HW1 7055   1.225   3.422   0.672
 2052SOL    HW2 7056   1.164   3.437   0.522
 2053SOL     OW 7057   5.326   0.379   0.429
 2053SOL    HW1 7058   5.377   0.332   0.500
 2053SOL    HW2 7059   5.269   0.451   0.470
 2054SOL     OW 7060   6.422   3.201   0.752
 2054SOL    HW1 7061   6.424   3.189   0.653
 2054SOL    HW2 7062   6.506   3.163   0.791
 2055SOL     OW 7063   6.229   2.884   3.914
 2055SOL    HW1 7064   6.210   2.976   3.879
 2055SOL    HW2 7065   6.258   2.889   4.009
 2056SOL     OW 7066   1.438   0.940   3.265
 2056SOL    HW1 7067   1.371   1.015   3.272
 2056SOL    HW2 7068   1.530   0.976   3.275
 2057SOL     OW 7069   0.060   2.870   4.252
 2057SOL    HW1 7070   7.014   2.876   4.186
 2057SOL    HW2 7071   0.146   2.854   4.204
 2058SOL     OW 7072   6.840   2.554   1.969
 2058SOL    HW1 7073   6.764   2.529   2.029
 2058SOL    HW2 7074   6.895   2.625   2.012
 2059SOL     OW 7075   1.711   1.521   6.760
 2059SOL    HW1 7076   1.692   1.429   6.726
 2059SOL    HW2 7077   1.626   1.572   6.769
 2060SOL     OW 7078   0.562   5.603   2.635
 2060SOL    HW1 7079   0.504   5.680   2.609
 2060SOL    HW2 7080   0.572   5.600   2.734
 2061SOL     OW 7081   6.412   1.363   1.843
 2061SOL    HW1 7082   6.412   1.344   1.941
 2061SOL    HW2 7083   6.396   1.461   1.828
 2062SOL     OW 7084   4.155   0.922   3.205
 2062SOL    HW1 7085   4.067   0.969   3.217
 2062SOL    HW2 7086   4.161   0.889   3.111
 2063SOL     OW 7087   2.105   2.356   6.879
 2063SOL    HW1 7088   2.107   2.451   6.849
 2063SOL    HW2 7089   2.061   2.349   6.968
 2064SOL     OW 7090   0.957   2.279   0.313
 2064SOL    HW1 7091   0.882   2.333   0.273
 2064SOL    HW2 7092   1.044   2.320   0.286
 2065SOL     OW 7093   6.611   3.156   2.215
 2065SOL    HW1 7094   6.625   3.232   2.278
 2065SOL    HW2 7095   6.680   3.158   2.143
 2066SOL     OW 7096   1.703   6.406   4.488
 2066SOL    HW1 7097   1.677   6.310   4.500
 2066SOL    HW2 7098   1.646   6.447   4.416
 2067SOL     OW 7099   6.848   0.089   1.006
 2067SOL    HW1 7100   6.815   0.052   1.093
 2067SOL    HW2 7101   6.933   0.139   1.022
 2068SOL     OW 7102   1.875   1.678   4.848
 2068SOL    HW1 7103   1.778   1.660   4.833
 2068SOL    HW2 7104   1.888   1.776   4.862
 2069SOL     OW 7105   0.223   1.751   1.925
 2069SOL    HW1 7106   0.210   1.838   1.972
 2069SOL    HW2 7107   0.298   1.700   1.968
 2070SOL     OW 7108   0.908   1.004   2.896
 2070SOL    HW1 7109   0.976   1.052   2.840
 2070SOL    HW2 7110   0.824   0.992   2.842
 2071SOL     OW 7111   1.241   6.735   4.582
 2071SOL    HW1 7112   1.243   6.685   4.668
 2071SOL    HW2 7113   1.199   6.677   4.511
 2072SOL     OW 7114   5.018   5.418   1.851
 2072SOL    HW1 7115   5.075   5.484   1.802
 2072SOL    HW2 7116   5.015   5.443   1.948
 2073SOL     OW 7117   2.546   0.053   5.884
 2073SOL    HW1 7118   2.550   0.118   5.959
 2073SOL    HW2 7119   2.469   7.019   5.898
 2074SOL     OW 7120   5.436   1.411   2.031
 2074SOL    HW1 7121   5.393   1.494   1.995
 2074SOL    HW2 7122   5.388   1.381   2.114
 2075SOL     OW 7123   4.588   3.812   6.346
 2075SOL    HW1 7124   4.489   3.815   6.331
 2075SOL    HW2 7125   4.607   3.841   6.440
 2076SOL     OW 7126   4.767   0.214   1.266
 2076SOL    HW1 7127   4.765   0.260   1.178
 2076SOL    HW2 7128   4.675   0.216   1.306
 2077SOL     OW 7129   5.479   0.906   2.687
 2077SOL    HW1 7130   5.504   1.001   2.706
 2077SOL    HW2 7131   5.553   0.845   2.716
 2078SOL     OW 7132   3.598   5.298   5.401
 2078SOL    HW1 7133   3.679   5.343   5.363
 2078SOL    HW2 7134   3.584   5.211   5.355
 2079SOL     OW 7135   5.566   1.489   4.089
 2079SOL    HW1 7136   5.595   1.398   4.118
 2079SOL    HW2 7137   5.475   1.508   4.126
 2080SOL     OW 7138   2.718   2.370   4.245
 2080SOL    HW1 7139   2.773   2.441   4.200
 2080SOL    HW2 7140   2.778   2.312   4.300
 2081SOL     OW 7141   0.405   6.385   5.025
 2081SOL    HW1 7142   0.450   6.466   4.987
 2081SOL    HW2 7143   0.327   6.414   5.080
 2082SOL     OW 7144   5.094   0.699   1.227
 2082SOL    HW1 7145   5.037   0.626   1.263
 2082SOL    HW2 7146   5.132   0.671   1.138
 2083SOL     OW 7147   2.962   5.656   5.619
 2083SOL    HW1 7148   3.003   5.565   5.619
 2083SOL    HW2 7149   2.872   5.652   5.576
 2084SOL     OW 7150   7.023   3.037   2.922
 2084SOL    HW1 7151   0.079   2.984   2.918
 2084SOL    HW2 7152   6.960   2.996   2.987
 2085SOL     OW 7153   5.555   6.958   6.032
 2085SOL    HW1 7154   5.623   6.899   5.987
 2085SOL    HW2 7155   5.552   0.017   5.986
 2086SOL     OW 7156   2.990   5.146   0.650
 2086SOL    HW1 7157   2.916   5.171   0.713
 2086SOL    HW2 7158   2.957   5.077   0.586
 2087SOL     OW 7159   5.218   6.623   3.841
 2087SOL    HW1 7160   5.124   6.642   3.814
 2087SOL    HW2 7161   5.276   6.620   3.760
 2088SOL     OW 7162   3.225   6.990   0.188
 2088SOL    HW1 7163   3.201   7.007   0.284
 2088SOL    HW2 7164   3.216   6.893   0.169
 2089SOL     OW 7165   3.488   0.015   6.876
 2089SOL    HW1 7166   3.456   0.109   6.888
 2089SOL    HW2 7167   3.474   7.016   6.781
 2090SOL     OW 7168   3.357   3.174   4.226
 2090SOL    HW1 7169   3.375   3.143   4.133
 2090SOL    HW2 7170   3.442   3.207   4.267
 2091SOL     OW 7171   2.133   4.769   0.728
 2091SOL    HW1 7172   2.137   4.669   0.727
 2091SOL    HW2 7173   2.053   4.799   0.676
 2092SOL     OW 7174   6.451   6.049   0.864
 2092SOL    HW1 7175   6.432   6.147   0.863
 2092SOL    HW2 7176   6.382   6.001   0.917
 2093SOL     OW 7177   1.121   2.475   1.789
 2093SOL    HW1 7178   1.125   2.428   1.701
 2093SOL    HW2 7179   1.050   2.435   1.846
 2094SOL     OW 7180   6.062   6.916   2.354
 2094SOL    HW1 7181   6.023   6.967   2.430
 2094SOL    HW2 7182   5.994   6.852   2.318
 2095SOL     OW 7183   6.419   4.836   4.758
 2095SOL    HW1 7184   6.493   4.903   4.757
 2095SOL    HW2 7185   6.362   4.848   4.676
 2096SOL     OW 7186   4.563   4.354   2.940
 2096SOL    HW1 7187   4.574   4.445   2.899
 2096SOL    HW2 7188   4.613   4.287   2.885
 2097SOL     OW 7189   0.032   2.713   0.253
 2097SOL    HW1 7190   6.996   2.701   0.328
 2097SOL    HW2 7191   0.092   2.633   0.247
 2098SOL     OW 7192   4.287   0.596   4.321
 2098SOL    HW1 7193   4.221   0.668   4.299
 2098SOL    HW2 7194   4.241   0.507   4.317
 2099SOL     OW 7195   3.231   1.948   4.239
 2099SOL    HW1 7196   3.270   1.922   4.151
 2099SOL    HW2 7197   3.133   1.927   4.239
 2100SOL     OW 7198   4.260   3.941   6.752
 2100SOL    HW1 7199   4.251   4.034   6.716
 2100SOL    HW2 7200   4.305   3.883   6.684
 2101SOL     OW 7201   0.202   6.994   3.513
 2101SOL    HW1 7202   0.186   0.062   3.496
 2101SOL    HW2 7203   0.300   6.979   3.526
 2102SOL     OW 7204   0.060   5.133   2.255
 2102SOL    HW1 7205   7.025   5.106   2.326
 2102SOL    HW2 7206   0.017   5.202   2.196
 2103SOL     OW 7207   3.251   4.009   6.548
 2103SOL    HW1 7208   3.279   4.064   6.627
 2103SOL    HW2 7209   3.284   3.915   6.559
 2104SOL     OW 7210   1.167   3.705   5.565
 2104SOL    HW1 7211   1.267   3.703   5.574
 2104SOL    HW2 7212   1.130   3.613   5.582
 2105SOL     OW 7213   5.880   5.483   1.853
 2105SOL    HW1 7214   5.798   5.534   1.878
 2105SOL    HW2 7215   5.899   5.493   1.756
 2106SOL     OW 7216   4.914   5.492   6.865
 2106SOL    HW1 7217   4.994   5.436   6.840
 2106SOL    HW2 7218   4.892   5.477   6.961
 2107SOL     OW 7219   4.248   4.097   6.147
 2107SOL    HW1 7220   4.345   4.116   6.131
 2107SOL    HW2 7221   4.215   4.032   6.079
 2108SOL     OW 7222   5.318   5.112   5.844
 2108SOL    HW1 7223   5.259   5.154   5.775
 2108SOL    HW2 7224   5.285   5.020   5.864
 2109SOL     OW 7225   5.673   0.138   2.889
 2109SOL    HW1 7226   5.681   0.039   2.900
 2109SOL    HW2 7227   5.737   0.184   2.951
 2110SOL     OW 7228   2.413   4.655   6.229
 2110SOL    HW1 7229   2.388   4.562   6.202
 2110SOL    HW2 7230   2.346   4.719   6.192
 2111SOL     OW 7231   1.284   2.909   6.758
 2111SOL    HW1 7232   1.185   2.914   6.775
 2111SOL    HW2 7233   1.332   2.915   6.845
 2112SOL     OW 7234   4.616   3.271   1.373
 2112SOL    HW1 7235   4.616   3.294   1.470
 2112SOL    HW2 7236   4.551   3.198   1.356
 2113SOL     OW 7237   6.829   0.744   2.848
 2113SOL    HW1 7238   6.929   0.744   2.845
 2113SOL    HW2 7239   6.798   0.738   2.943
 2114SOL     OW 7240   2.141   4.096   6.940
 2114SOL    HW1 7241   2.239   4.110   6.954
 2114SOL    HW2 7242   2.124   4.000   6.915
 2115SOL     OW 7243   2.754   4.707   2.442
 2115SOL    HW1 7244   2.695   4.756   2.378
 2115SOL    HW2 7245   2.802   4.773   2.500
 2116SOL     OW 7246   7.028   4.175   3.411
 2116SOL    HW1 7247   6.962   4.134   3.474
 2116SOL    HW2 7248   0.029   4.263   3.446
 2117SOL     OW 7249   0.213   4.697   1.100
 2117SOL    HW1 7250   0.151   4.741   1.036
 2117SOL    HW2 7251   0.280   4.763   1.133
 2118SOL     OW 7252   6.583   3.877   2.321
 2118SOL    HW1 7253   6.680   3.902   2.333
 2118SOL    HW2 7254   6.556   3.893   2.226
 2119SOL     OW 7255   2.893   6.278   1.398
 2119SOL    HW1 7256   2.809   6.326   1.373
 2119SOL    HW2 7257   2.971   6.319   1.350
 2120SOL     OW 7258   6.883   5.302   2.105
 2120SOL    HW1 7259   6.840   5.294   2.195
 2120SOL    HW2 7260   6.829   5.253   2.037
 2121SOL     OW 7261   0.868   5.006   4.687
 2121SOL    HW1 7262   0.792   4.986   4.626
 2121SOL    HW2 7263   0.857   4.957   4.773
 2122SOL     OW 7264   4.745   4.118   5.079
 2122SOL    HW1 7265   4.731   4.092   5.174
 2122SOL    HW2 7266   4.682   4.191   5.054
 2123SOL     OW 7267   6.211   4.810   3.575
 2123SOL    HW1 7268   6.140   4.755   3.530
 2123SOL    HW2 7269   6.251   4.872   3.507
 2124SOL     OW 7270   2.443   1.982   0.560
 2124SOL    HW1 7271   2.389   2.006   0.479
 2124SOL    HW2 7272   2.518   2.048   0.571
 2125SOL     OW 7273   3.108   6.829   0.671
 2125SOL    HW1 7274   3.124   6.737   0.638
 2125SOL    HW2 7275   3.009   6.848   0.671
 2126SOL     OW 7276   2.937   0.757   0.962
 2126SOL    HW1 7277   2.967   0.827   1.026
 2126SOL    HW2 7278   2.975   0.775   0.871
 2127SOL     OW 7279   5.300   3.390   5.315
 2127SOL    HW1 7280   5.240   3.348   5.247
 2127SOL    HW2 7281   5.286   3.489   5.316
 2128SOL     OW 7282   0.476   5.111   4.113
 2128SOL    HW1 7283   0.396   5.111   4.173
 2128SOL    HW2 7284   0.549   5.165   4.155
 2129SOL     OW 7285   3.825   2.053   5.622
 2129SOL    HW1 7286   3.781   1.977   5.671
 2129SOL    HW2 7287   3.919   2.063   5.654
 2130SOL     OW 7288   4.289   6.302   2.919
 2130SOL    HW1 7289   4.209   6.338   2.871
 2130SOL    HW2 7290   4.370   6.312   2.861
 2131SOL     OW 7291   6.750   1.846   7.025
 2131SOL    HW1 7292   6.729   1.886   6.936
 2131SOL    HW2 7293   6.786   1.753   7.013
 2132SOL     OW 7294   2.221   3.122   0.673
 2132SOL    HW1 7295   2.264   3.048   0.725
 2132SOL    HW2 7296   2.160   3.174   0.733
 2133SOL     OW 7297   2.976   2.692   5.615
 2133SOL    HW1 7298   2.992   2.744   5.699
 2133SOL    HW2 7299   2.890   2.722   5.574
 2134SOL     OW 7300   1.042   6.981   0.824
 2134SOL    HW1 7301   1.002   6.984   0.733
 2134SOL    HW2 7302   1.110   6.908   0.828
 2135SOL     OW 7303   0.479   3.719   4.064
 2135SOL    HW1 7304   0.523   3.715   3.974
 2135SOL    HW2 7305   0.533   3.667   4.130
 2136SOL     OW 7306   2.078   5.129   1.666
 2136SOL    HW1 7307   2.013   5.196   1.701
 2136SOL    HW2 7308   2.149   5.112   1.734
 2137SOL     OW 7309   2.160   5.665   4.456
 2137SOL    HW1 7310   2.125   5.646   4.548
 2137SOL    HW2 7311   2.260   5.663   4.457
 2138SOL     OW 7312   4.931   1.580   1.753
 2138SOL    HW1 7313   5.012   1.560   1.698
 2138SOL    HW2 7314   4.885   1.661   1.717
 2139SOL     OW 7315   2.511   0.915   5.511
 2139SOL    HW1 7316   2.512   0.926   5.412
 2139SOL    HW2 7317   2.442   0.975   5.551
 2140SOL     OW 7318   2.498   1.202   5.262
 2140SOL    HW1 7319   2.477   1.210   5.359
 2140SOL    HW2 7320   2.490   1.106   5.234
 2141SOL     OW 7321   6.558   4.490   2.515
 2141SOL    HW1 7322   6.603   4.450   2.595
 2141SOL    HW2 7323   6.623   4.547   2.465
 2142SOL     OW 7324   1.395   1.770   3.094
 2142SOL    HW1 7325   1.433   1.849   3.046
 2142SOL    HW2 7326   1.326   1.726   3.037
 2143SOL     OW 7327   1.648   4.864   7.025
 2143SOL    HW1 7328   1.735   4.821   0.020
 2143SOL    HW2 7329   1.628   4.938   0.060
 2144SOL     OW 7330   5.822   5.627   4.257
 2144SOL    HW1 7331   5.900   5.686   4.279
 2144SOL    HW2 7332   5.786   5.651   4.167
 2145SOL     OW 7333   4.200   0.049   3.369
 2145SOL    HW1 7334   4.299   0.058   3.371
 2145SOL    HW2 7335   4.160   0.096   3.447
 2146SOL     OW 7336   2.066   2.687   0.767
 2146SOL    HW1 7337   1.969   2.663   0.763
 2146SOL    HW2 7338   2.111   2.630   0.836
 2147SOL     OW 7339   5.914   0.885   4.616
 2147SOL    HW1 7340   5.841   0.879   4.548
 2147SOL    HW2 7341   5.884   0.944   4.691
 2148SOL     OW 7342   0.395   3.594   6.574
 2148SOL    HW1 7343   0.334   3.575   6.651
 2148SOL    HW2 7344   0.490   3.578   6.601
 2149SOL     OW 7345   0.582   0.185   0.267
 2149SOL    HW1 7346   0.531   0.107   0.231
 2149SOL    HW2 7347   0.580   0.259   0.200
 2150SOL     OW 7348   1.811   3.219   1.198
 2150SOL    HW1 7349   1.808   3.277   1.279
 2150SOL    HW2 7350   1.906   3.193   1.178
 2151SOL     OW 7351   1.266   5.725   0.418
 2151SOL    HW1 7352   1.265   5.772   0.506
 2151SOL    HW2 7353   1.184   5.667   0.410
 2152SOL     OW 7354   4.139   6.016   4.212
 2152SOL    HW1 7355   4.165   6.016   4.115
 2152SOL    HW2 7356   4.191   6.087   4.260
 2153SOL     OW 7357   4.351   1.144   3.425
 2153SOL    HW1 7358   4.351   1.044   3.429
 2153SOL    HW2 7359   4.441   1.176   3.394
 2154SOL     OW 7360   3.071   6.993   3.231
 2154SOL    HW1 7361   3.126   7.004   3.314
 2154SOL    HW2 7362   3.127   7.014   3.151
 2155SOL     OW 7363   4.607   6.890   1.146
 2155SOL    HW1 7364   4.567   6.947   1.218
 2155SOL    HW2 7365   4.635   6.948   1.069
 2156SOL     OW 7366   5.657   1.463   4.460
 2156SOL    HW1 7367   5.592   1.469   4.536
 2156SOL    HW2 7368   5.624   1.518   4.384
 2157SOL     OW 7369   3.351   6.084   4.134
 2157SOL    HW1 7370   3.255   6.089   4.159
 2157SOL    HW2 7371   3.366   6.006   4.074
 2158SOL     OW 7372   3.680   0.382   0.415
 2158SOL    HW1 7373   3.602   0.443   0.404
 2158SOL    HW2 7374   3.674   0.308   0.348
 2159SOL     OW 7375   0.660   0.666   5.489
 2159SOL    HW1 7376   0.755   0.660   5.518
 2159SOL    HW2 7377   0.624   0.574   5.474
 2160SOL     OW 7378   5.835   6.544   7.028
 2160SOL    HW1 7379   5.746   6.557   6.985
 2160SOL    HW2 7380   5.907   6.577   6.966
 2161SOL     OW 7381   0.947   2.452   2.245
 2161SOL    HW1 7382   1.028   2.504   2.218
 2161SOL    HW2 7383   0.927   2.469   2.341
 2162SOL     OW 7384   1.025   0.228   1.785
 2162SOL    HW1 7385   0.983   0.318   1.775
 2162SOL    HW2 7386   1.080   0.208   1.703
 2163SOL     OW 7387   1.734   3.411   2.407
 2163SOL    HW1 7388   1.638   3.400   2.434
 2163SOL    HW2 7389   1.743   3.395   2.309
 2164SOL     OW 7390   2.015   2.781   2.673
 2164SOL    HW1 7391   2.005   2.836   2.756
 2164SOL    HW2 7392   2.033   2.686   2.698
 2165SOL     OW 7393   0.071   1.599   3.893
 2165SOL    HW1 7394   0.042   1.694   3.907
 2165SOL    HW2 7395   0.070   1.578   3.795
 2166SOL     OW 7396   7.009   3.905   2.818
 2166SOL    HW1 7397   6.961   3.872   2.900
 2166SOL    HW2 7398   0.050   3.971   2.845
 2167SOL     OW 7399   2.843   1.987   3.686
 2167SOL    HW1 7400   2.850   2.057   3.758
 2167SOL    HW2 7401   2.759   1.934   3.700
 2168SOL     OW 7402   1.385   2.132   3.148
 2168SOL    HW1 7403   1.425   2.081   3.073
 2168SOL    HW2 7404   1.286   2.132   3.140
 2169SOL     OW 7405   0.517   0.125   1.747
 2169SOL    HW1 7406   0.533   0.123   1.846
 2169SOL    HW2 7407   0.605   0.133   1.700
 2170SOL     OW 7408   0.872   3.542   5.709
 2170SOL    HW1 7409   0.864   3.607   5.634
 2170SOL    HW2 7410   0.814   3.463   5.690
 2171SOL     OW 7411   0.861   5.320   1.454
 2171SOL    HW1 7412   0.953   5.291   1.479
 2171SOL    HW2 7413   0.805   5.328   1.537
 2172SOL     OW 7414   1.234   1.683   4.710
 2172SOL    HW1 7415   1.290   1.684   4.628
 2172SOL    HW2 7416   1.249   1.598   4.760
 2173SOL     OW 7417   6.047   0.326   5.189
 2173SOL    HW1 7418   5.986   0.400   5.164
 2173SOL    HW2 7419   6.120   0.361   5.247
 2174SOL     OW 7420   6.712   6.669   5.799
 2174SOL    HW1 7421   6.698   6.695   5.703
 2174SOL    HW2 7422   6.795   6.713   5.833
 2175SOL     OW 7423   2.841   3.801   5.212
 2175SOL    HW1 7424   2.754   3.836   5.248
 2175SOL    HW2 7425   2.835   3.794   5.113
 2176SOL     OW 7426   5.698   2.386   1.437
 2176SOL    HW1 7427   5.615   2.331   1.450
 2176SOL    HW2 7428   5.733   2.371   1.344
 2177SOL     OW 7429   0.415   0.250   3.700
 2177SOL    HW1 7430   0.381   0.157   3.717
 2177SOL    HW2 7431   0.514   0.246   3.686
 2178SOL     OW 7432   0.668   1.929   2.721
 2178SOL    HW1 7433   0.621   1.966   2.802
 2178SOL    HW2 7434   0.654   1.831   2.716
 2179SOL     OW 7435   1.434   4.110   5.978
 2179SOL    HW1 7436   1.506   4.156   5.926
 2179SOL    HW2 7437   1.475   4.043   6.040
 2180SOL     OW 7438   0.881   6.516   2.179
 2180SOL    HW1 7439   0.973   6.526   2.140
 2180SOL    HW2 7440   0.876   6.430   2.231
 2181SOL     OW 7441   3.801   4.968   4.326
 2181SOL    HW1 7442   3.849   4.881   4.311
 2181SOL    HW2 7443   3.717   4.969   4.271
 2182SOL     OW 7444   0.089   5.642   2.267
 2182SOL    HW1 7445   0.015   5.654   2.333
 2182SOL    HW2 7446   0.051   5.607   2.181
 2183SOL     OW 7447   3.249   2.828   0.150
 2183SOL    HW1 7448   3.247   2.728   0.157
 2183SOL    HW2 7449   3.170   2.858   0.096
 2184SOL     OW 7450   6.036   1.255   6.646
 2184SOL    HW1 7451   5.993   1.297   6.726
 2184SOL    HW2 7452   6.131   1.235   6.667
 2185SOL     OW 7453   0.759   0.169   6.752
 2185SOL    HW1 7454   0.768   0.074   6.782
 2185SOL    HW2 7455   0.781   0.176   6.655
 2186SOL     OW 7456   6.814   4.717   5.287
 2186SOL    HW1 7457   6.759   4.634   5.300
 2186SOL    HW2 7458   6.900   4.709   5.337
 2187SOL     OW 7459   0.553   5.790   3.200
 2187SOL    HW1 7460   0.631   5.733   3.226
 2187SOL    HW2 7461   0.526   5.769   3.106
 2188SOL     OW 7462   2.278   0.340   1.077
 2188SOL    HW1 7463   2.271   0.288   0.991
 2188SOL    HW2 7464   2.264   0.437   1.058
 2189SOL     OW 7465   2.644   1.514   1.206
 2189SOL    HW1 7466   2.547   1.539   1.206
 2189SOL    HW2 7467   2.700   1.596   1.221
 2190SOL     OW 7468   6.462   4.080   2.436
 2190SOL    HW1 7469   6.498   3.989   2.414
 2190SOL    HW2 7470   6.362   4.076   2.439
 2191SOL     OW 7471   2.654   0.112   0.139
 2191SOL    HW1 7472   2.588   0.125   0.213
 2191SOL    HW2 7473   2.731   0.057   0.172
 2192SOL     OW 7474   4.778   1.353   0.951
 2192SOL    HW1 7475   4.710   1.411   0.906
 2192SOL    HW2 7476   4.767   1.259   0.920
 2193SOL     OW 7477   1.525   6.253   6.154
 2193SOL    HW1 7478   1.579   6.337   6.153
 2193SOL    HW2 7479   1.440   6.267   6.103
 2194SOL     OW 7480   0.957   3.523   6.188
 2194SOL    HW1 7481   0.922   3.616   6.180
 2194SOL    HW2 7482   1.006   3.499   6.104
 2195SOL     OW 7483   0.446   3.673   6.146
 2195SOL    HW1 7484   0.378   3.609   6.110
 2195SOL    HW2 7485   0.513   3.624   6.201
 2196SOL     OW 7486   2.752   6.865   5.813
 2196SOL    HW1 7487   2.822   6.857   5.884
 2196SOL    HW2 7488   2.705   6.953   5.823
 2197SOL     OW 7489   3.021   5.132   5.597
 2197SOL    HW1 7490   2.923   5.114   5.597
 2197SOL    HW2 7491   3.068   5.062   5.652
 2198SOL     OW 7492   0.489   0.586   6.847
 2198SOL    HW1 7493   0.458   0.583   6.752
 2198SOL    HW2 7494   0.557   0.658   6.858
 2199SOL     OW 7495   4.353   6.527   4.706
 2199SOL    HW1 7496   4.323   6.619   4.678
 2199SOL    HW2 7497   4.428   6.536   4.771
 2200SOL     OW 7498   2.838   2.101   4.136
 2200SOL    HW1 7499   2.774   2.120   4.210
 2200SOL    HW2 7500   2.823   2.009   4.101
 2201SOL     OW 7501   6.040   4.195   3.635
 2201SOL    HW1 7502   6.094   4.113   3.650
 2201SOL    HW2 7503   6.011   4.233   3.723
 2202SOL     OW 7504   3.754   6.119   2.408
 2202SOL    HW1 7505   3.719   6.174   2.485
 2202SOL    HW2 7506   3.852   6.133   2.399
 2203SOL     OW 7507   1.895   3.336   0.691
 2203SOL    HW1 7508   1.868   3.297   0.603
 2203SOL    HW2 7509   1.841   3.294   0.764
 2204SOL     OW 7510   5.550   3.258   0.878
 2204SOL    HW1 7511   5.584   3.220   0.792
 2204SOL    HW2 7512   5.598   3.215   0.954
 2205SOL     OW 7513   0.610   4.923   0.350
 2205SOL    HW1 7514   0.533   4.899   0.410
 2205SOL    HW2 7515   0.643   4.840   0.304
 2206SOL     OW 7516   3.022   2.464   5.912
 2206SOL    HW1 7517   2.952   2.497   5.975
 2206SOL    HW2 7518   3.097   2.423   5.964
 2207SOL     OW 7519   4.974   6.240   0.796
 2207SOL    HW1 7520   4.884   6.283   0.791
 2207SOL    HW2 7521   4.966   6.142   0.774
 2208SOL     OW 7522   0.477   5.876   4.494
 2208SOL    HW1 7523   0.522   5.863   4.582
 2208SOL    HW2 7524   0.440   5.968   4.489
 2209SOL     OW 7525   3.119   5.782   4.141
 2209SOL    HW1 7526   3.119   5.844   4.220
 2209SOL    HW2 7527   3.045   5.807   4.079
 2210SOL     OW 7528   4.468   6.639   1.007
 2210SOL    HW1 7529   4.526   6.715   1.035
 2210SOL    HW2 7530   4.518   6.553   1.019
 2211SOL     OW 7531   6.842   1.587   0.986
 2211SOL    HW1 7532   6.902   1.611   1.062
 2211SOL    HW2 7533   6.824   1.488   0.988
 2212SOL     OW 7534   2.412   6.080   6.719
 2212SOL    HW1 7535   2.482   6.061   6.649
 2212SOL    HW2 7536   2.326   6.105   6.675
 2213SOL     OW 7537   3.475   2.018   4.693
 2213SOL    HW1 7538   3.442   2.069   4.772
 2213SOL    HW2 7539   3.472   2.075   4.612
 2214SOL     OW 7540   4.143   3.759   6.897
 2214SOL    HW1 7541   4.188   3.823   6.835
 2214SOL    HW2 7542   4.197   3.749   6.981
 2215SOL     OW 7543   4.522   6.843   6.735
 2215SOL    HW1 7544   4.566   6.878   6.818
 2215SOL    HW2 7545   4.505   6.745   6.745
 2216SOL     OW 7546   0.832   6.888   6.307
 2216SOL    HW1 7547   0.750   6.909   6.254
 2216SOL    HW2 7548   0.810   6.888   6.405
 2217SOL     OW 7549   4.041   0.655   3.374
 2217SOL    HW1 7550   3.957   0.697   3.339
 2217SOL    HW2 7551   4.051   0.677   3.471
 2218SOL     OW 7552   0.591   5.750   5.723
 2218SOL    HW1 7553   0.496   5.723   5.710
 2218SOL    HW2 7554   0.646   5.669   5.745
 2219SOL     OW 7555   5.687   1.058   0.378
 2219SOL    HW1 7556   5.735   1.084   0.461
 2219SOL    HW2 7557   5.657   1.141   0.330
 2220SOL     OW 7558   0.987   5.861   5.629
 2220SOL    HW1 7559   0.992   5.935   5.562
 2220SOL    HW2 7560   0.997   5.773   5.583
 2221SOL     OW 7561   6.774   1.060   4.096
 2221SOL    HW1 7562   6.796   1.139   4.153
 2221SOL    HW2 7563   6.853   0.999   4.094
 2222SOL     OW 7564   4.699   6.076   1.989
 2222SOL    HW1 7565   4.602   6.094   1.973
 2222SOL    HW2 7566   4.749   6.087   1.904
 2223SOL     OW 7567   6.721   6.218   5.372
 2223SOL    HW1 7568   6.752   6.313   5.378
 2223SOL    HW2 7569   6.764   6.174   5.293
 2224SOL     OW 7570   5.441   4.080   0.799
 2224SOL    HW1 7571   5.481   3.993   0.771
 2224SOL    HW2 7572   5.493   4.155   0.759
 2225SOL     OW 7573   0.802   6.983   2.867
 2225SOL    HW1 7574   0.717   7.012   2.823
 2225SOL    HW2 7575   0.802   6.883   2.876
 2226SOL     OW 7576   2.373   5.245   0.833
 2226SOL    HW1 7577   2.385   5.168   0.771
 2226SOL    HW2 7578   2.280   5.281   0.825
 2227SOL     OW 7579   4.018   2.061   1.705
 2227SOL    HW1 7580   3.991   2.030   1.614
 2227SOL    HW2 7581   3.986   2.155   1.718
 2228SOL     OW 7582   5.358   4.745   6.849
 2228SOL    HW1 7583   5.346   4.652   6.886
 2228SOL    HW2 7584   5.406   4.801   6.916
 2229SOL     OW 7585   3.735   3.572   4.224
 2229SOL    HW1 7586   3.650   3.534   4.186
 2229SOL    HW2 7587   3.810   3.553   4.161
 2230SOL     OW 7588   5.704   0.156   0.983
 2230SOL    HW1 7589   5.769   0.186   1.053
 2230SOL    HW2 7590   5.645   0.085   1.020
 2231SOL     OW 7591   1.393   0.237   6.754
 2231SOL    HW1 7592   1.393   0.326   6.708
 2231SOL    HW2 7593   1.331   0.175   6.707
 2232SOL     OW 7594   1.339   0.910   5.596
 2232SOL    HW1 7595   1.319   0.860   5.512
 2232SOL    HW2 7596   1.308   0.856   5.674
 2233SOL     OW 7597   2.849   4.096   0.576
 2233SOL    HW1 7598   2.836   4.094   0.675
 2233SOL    HW2 7599   2.837   4.189   0.543
 2234SOL     OW 7600   4.604   1.503   0.822
 2234SOL    HW1 7601   4.629   1.453   0.739
 2234SOL    HW2 7602   4.557   1.588   0.797
 2235SOL     OW 7603   1.714   1.309   3.321
 2235SOL    HW1 7604   1.632   1.310   3.265
 2235SOL    HW2 7605   1.785   1.365   3.277
 2236SOL     OW 7606   1.764   4.158   5.143
 2236SOL    HW1 7607   1.842   4.156   5.082
 2236SOL    HW2 7608   1.697   4.225   5.110
 2237SOL     OW 7609   6.603   5.080   5.397
 2237SOL    HW1 7610   6.626   5.170   5.359
 2237SOL    HW2 7611   6.634   5.009   5.335
 2238SOL     OW 7612   5.156   4.373   2.014
 2238SOL    HW1 7613   5.107   4.292   1.984
 2238SOL    HW2 7614   5.176   4.432   1.935
 2239SOL     OW 7615   3.942   6.846   3.354
 2239SOL    HW1 7616   3.951   6.760   3.303
 2239SOL    HW2 7617   3.905   6.917   3.293
 2240SOL     OW 7618   4.572   5.134   3.468
 2240SOL    HW1 7619   4.586   5.036   3.478
 2240SOL    HW2 7620   4.498   5.164   3.529
 2241SOL     OW 7621   0.337   0.313   1.637
 2241SOL    HW1 7622   0.398   0.235   1.652
 2241SOL    HW2 7623   0.254   0.302   1.692
 2242SOL     OW 7624   4.898   3.209   3.241
 2242SOL    HW1 7625   4.868   3.273   3.312
 2242SOL    HW2 7626   4.997   3.217   3.229
 2243SOL     OW 7627   1.196   6.094   0.678
 2243SOL    HW1 7628   1.271   6.158   0.661
 2243SOL    HW2 7629   1.110   6.133   0.645
 2244SOL     OW 7630   2.567   0.120   0.428
 2244SOL    HW1 7631   2.635   0.159   0.491
 2244SOL    HW2 7632   2.528   0.038   0.469
 2245SOL     OW 7633   0.576   0.460   0.097
 2245SOL    HW1 7634   0.492   0.464   0.152
 2245SOL    HW2 7635   0.554   0.480   0.002
 2246SOL     OW 7636   2.058   0.905   5.399
 2246SOL    HW1 7637   2.142   0.957   5.408
 2246SOL    HW2 7638   1.989   0.960   5.352
 2247SOL     OW 7639   3.001   3.879   2.799
 2247SOL    HW1 7640   2.982   3.900   2.703
 2247SOL    HW2 7641   2.962   3.789   2.822
 2248SOL     OW 7642   5.347   4.292   5.145
 2248SOL    HW1 7643   5.407   4.240   5.085
 2248SOL    HW2 7644   5.305   4.367   5.093
 2249SOL     OW 7645   2.229   6.650   3.975
 2249SOL    HW1 7646   2.256   6.588   4.048
 2249SOL    HW2 7647   2.309   6.700   3.942
 2250SOL     OW 7648   4.441   4.138   6.460
 2250SOL    HW1 7649   4.442   4.151   6.360
 2250SOL    HW2 7650   4.348   4.143   6.494
 2251SOL     OW 7651   5.203   6.877   5.701
 2251SOL    HW1 7652   5.281   6.939   5.709
 2251SOL    HW2 7653   5.203   6.833   5.611
 2252SOL     OW 7654   4.481   1.630   2.591
 2252SOL    HW1 7655   4.414   1.556   2.580
 2252SOL    HW2 7656   4.473   1.693   2.514
 2253SOL     OW 7657   0.705   3.526   0.587
 2253SOL    HW1 7658   0.686   3.474   0.503
 2253SOL    HW2 7659   0.781   3.483   0.636
 2254SOL     OW 7660   3.688   3.448   2.934
 2254SOL    HW1 7661   3.738   3.452   2.848
 2254SOL    HW2 7662   3.708   3.362   2.981
 2255SOL     OW 7663   3.548   3.618   5.733
 2255SOL    HW1 7664   3.616   3.626   5.659
 2255SOL    HW2 7665   3.463   3.582   5.695
 2256SOL     OW 7666   5.060   6.924   2.027
 2256SOL    HW1 7667   5.050   6.990   1.953
 2256SOL    HW2 7668   5.018   6.838   2.001
 2257SOL     OW 7669   0.294   1.324   4.853
 2257SOL    HW1 7670   0.236   1.398   4.887
 2257SOL    HW2 7671   0.265   1.237   4.894
 2258SOL     OW 7672   2.585   6.184   4.076
 2258SOL    HW1 7673   2.646   6.247   4.028
 2258SOL    HW2 7674   2.499   6.230   4.096
 2259SOL     OW 7675   6.208   1.973   4.370
 2259SOL    HW1 7676   6.305   1.972   4.344
 2259SOL    HW2 7677   6.173   1.879   4.373
 2260SOL     OW 7678   1.263   3.787   1.705
 2260SOL    HW1 7679   1.223   3.701   1.736
 2260SOL    HW2 7680   1.213   3.820   1.625
 2261SOL     OW 7681   5.802   3.935   6.747
 2261SOL    HW1 7682   5.727   3.870   6.731
 2261SOL    HW2 7683   5.769   4.008   6.808
 2262SOL     OW 7684   6.677   0.137   4.481
 2262SOL    HW1 7685   6.713   0.192   4.557
 2262SOL    HW2 7686   6.705   0.042   4.493
 2263SOL     OW 7687   1.434   4.699   6.996
 2263SOL    HW1 7688   1.513   4.759   7.004
 2263SOL    HW2 7689   1.369   4.737   6.931
 2264SOL     OW 7690   1.740   6.962   5.981
 2264SOL    HW1 7691   1.725   6.936   5.886
 2264SOL    HW2 7692   1.747   0.032   5.988
 2265SOL     OW 7693   0.615   6.278   4.561
 2265SOL    HW1 7694   0.556   6.277   4.642
 2265SOL    HW2 7695   0.568   6.324   4.486
 2266SOL     OW 7696   4.571   1.925   6.551
 2266SOL    HW1 7697   4.533   1.864   6.621
 2266SOL    HW2 7698   4.517   1.919   6.467
 2267SOL     OW 7699   4.900   3.096   4.104
 2267SOL    HW1 7700   4.963   3.168   4.135
 2267SOL    HW2 7701   4.882   3.108   4.006
 2268SOL     OW 7702   0.026   4.973   5.760
 2268SOL    HW1 7703   7.013   5.045   5.815
 2268SOL    HW2 7704   7.009   4.886   5.778
 2269SOL     OW 7705   1.997   2.951   4.989
 2269SOL    HW1 7706   2.037   2.903   5.067
 2269SOL    HW2 7707   2.019   3.048   4.995
 2270SOL     OW 7708   4.743   1.591   6.005
 2270SOL    HW1 7709   4.791   1.666   5.960
 2270SOL    HW2 7710   4.768   1.588   6.101
 2271SOL     OW 7711   5.809   5.021   5.790
 2271SOL    HW1 7712   5.801   5.040   5.888
 2271SOL    HW2 7713   5.718   5.023   5.749
 2272SOL     OW 7714   5.821   1.028   5.972
 2272SOL    HW1 7715   5.800   1.090   6.048
 2272SOL    HW2 7716   5.822   0.934   6.006
 2273SOL     OW 7717   1.817   2.633   2.083
 2273SOL    HW1 7718   1.752   2.615   2.009
 2273SOL    HW2 7719   1.910   2.611   2.052
 2274SOL     OW 7720   0.688   0.756   6.886
 2274SOL    HW1 7721   0.628   0.816   6.939
 2274SOL    HW2 7722   0.776   0.801   6.871
 2275SOL     OW 7723   5.596   5.009   2.421
 2275SOL    HW1 7724   5.598   4.909   2.413
 2275SOL    HW2 7725   5.503   5.042   2.408
 2276SOL     OW 7726   1.308   1.392   1.182
 2276SOL    HW1 7727   1.265   1.391   1.092
 2276SOL    HW2 7728   1.356   1.305   1.197
 2277SOL     OW 7729   3.654   4.142   3.319
 2277SOL    HW1 7730   3.576   4.174   3.372
 2277SOL    HW2 7731   3.703   4.071   3.369
 2278SOL     OW 7732   0.796   2.120   4.147
 2278SOL    HW1 7733   0.706   2.110   4.106
 2278SOL    HW2 7734   0.865   2.085   4.083
 2279SOL     OW 7735   0.490   5.775   5.132
 2279SOL    HW1 7736   0.574   5.767   5.079
 2279SOL    HW2 7737   0.513   5.791   5.228
 2280SOL     OW 7738   4.938   1.626   4.678
 2280SOL    HW1 7739   4.936   1.632   4.778
 2280SOL    HW2 7740   4.995   1.549   4.651
 2281SOL     OW 7741   5.249   6.559   2.763
 2281SOL    HW1 7742   5.185   6.491   2.728
 2281SOL    HW2 7743   5.342   6.523   2.758
 2282SOL     OW 7744   4.138   5.703   5.906
 2282SOL    HW1 7745   4.058   5.665   5.858
 2282SOL    HW2 7746   4.217   5.644   5.891
 2283SOL     OW 7747   0.878   0.719   3.895
 2283SOL    HW1 7748   0.919   0.660   3.826
 2283SOL    HW2 7749   0.939   0.796   3.913
 2284SOL     OW 7750   1.302   3.323   6.584
 2284SOL    HW1 7751   1.344   3.408   6.552
 2284SOL    HW2 7752   1.347   3.245   6.541
 2285SOL     OW 7753   1.590   4.194   6.912
 2285SOL    HW1 7754   1.647   4.121   6.949
 2285SOL    HW2 7755   1.526   4.156   6.846
 2286SOL     OW 7756   4.794   6.098   4.271
 2286SOL    HW1 7757   4.809   6.187   4.229
 2286SOL    HW2 7758   4.835   6.026   4.215
 2287SOL     OW 7759   1.731   0.703   3.196
 2287SOL    HW1 7760   1.650   0.757   3.220
 2287SOL    HW2 7761   1.704   0.628   3.135
 2288SOL     OW 7762   0.351   5.940   3.618
 2288SOL    HW1 7763   0.442   5.950   3.577
 2288SOL    HW2 7764   0.308   6.029   3.626
 2289SOL     OW 7765   0.918   6.285   1.890
 2289SOL    HW1 7766   0.985   6.257   1.822
 2289SOL    HW2 7767   0.965   6.317   1.972
 2290SOL     OW 7768   1.160   5.271   1.166
 2290SOL    HW1 7769   1.224   5.230   1.231
 2290SOL    HW2 7770   1.193   5.362   1.140
 2291SOL     OW 7771   2.889   1.622   6.023
 2291SOL    HW1 7772   2.827   1.592   6.096
 2291SOL    HW2 7773   2.856   1.588   5.935
 2292SOL     OW 7774   1.214   0.833   4.500
 2292SOL    HW1 7775   1.244   0.739   4.514
 2292SOL    HW2 7776   1.209   0.880   4.589
 2293SOL     OW 7777   5.380   5.572   1.996
 2293SOL    HW1 7778   5.328   5.557   2.081
 2293SOL    HW2 7779   5.342   5.650   1.947
 2294SOL     OW 7780   4.302   6.609   6.534
 2294SOL    HW1 7781   4.219   6.662   6.521
 2294SOL    HW2 7782   4.365   6.626   6.457
 2295SOL     OW 7783   0.451   2.145   1.282
 2295SOL    HW1 7784   0.354   2.121   1.281
 2295SOL    HW2 7785   0.463   2.231   1.332
 2296SOL     OW 7786   3.038   6.729   0.142
 2296SOL    HW1 7787   3.040   6.742   0.043
 2296SOL    HW2 7788   3.024   6.632   0.162
 2297SOL     OW 7789   4.255   4.913   5.551
 2297SOL    HW1 7790   4.212   4.980   5.611
 2297SOL    HW2 7791   4.199   4.830   5.548
 2298SOL     OW 7792   3.716   2.148   1.295
 2298SOL    HW1 7793   3.807   2.110   1.277
 2298SOL    HW2 7794   3.699   2.147   1.394
 2299SOL     OW 7795   5.114   5.871   6.895
 2299SOL    HW1 7796   5.193   5.897   6.839
 2299SOL    HW2 7797   5.048   5.821   6.838
 2300SOL     OW 7798   1.910   5.073   1.262
 2300SOL    HW1 7799   1.905   5.132   1.182
 2300SOL    HW2 7800   1.999   5.085   1.307
 2301SOL     OW 7801   4.126   3.411   2.652
 2301SOL    HW1 7802   4.196   3.341   2.653
 2301SOL    HW2 7803   4.139   3.470   2.572
 2302SOL     OW 7804   2.874   5.746   2.938
 2302SOL    HW1 7805   2.800   5.791   2.887
 2302SOL    HW2 7806   2.835   5.696   3.016
 2303SOL     OW 7807   1.295   2.761   4.375
 2303SOL    HW1 7808   1.328   2.688   4.434
 2303SOL    HW2 7809   1.219   2.808   4.420
 2304SOL     OW 7810   2.327   1.052   3.615
 2304SOL    HW1 7811   2.330   0.966   3.666
 2304SOL    HW2 7812   2.252   1.109   3.651
 2305SOL     OW 7813   3.573   5.381   2.334
 2305SOL    HW1 7814   3.553   5.434   2.416
 2305SOL    HW2 7815   3.489   5.337   2.301
 2306SOL     OW 7816   1.739   4.252   1.496
 2306SOL    HW1 7817   1.810   4.243   1.566
 2306SOL    HW2 7818   1.649   4.245   1.537
 2307SOL     OW 7819   0.552   2.200   2.991
 2307SOL    HW1 7820   0.582   2.268   3.058
 2307SOL    HW2 7821   0.617   2.198   2.915
 2308SOL     OW 7822   0.430   0.142   6.917
 2308SOL    HW1 7823   0.409   0.081   6.840
 2308SOL    HW2 7824   0.500   0.208   6.889
 2309SOL     OW 7825   3.547   5.633   6.659
 2309SOL    HW1 7826   3.523   5.572   6.735
 2309SOL    HW2 7827   3.635   5.606   6.621
 2310SOL     OW 7828   5.672   0.813   1.775
 2310SOL    HW1 7829   5.685   0.887   1.708
 2310SOL    HW2 7830   5.719   0.731   1.744
 2311SOL     OW 7831   2.775   0.293   2.799
 2311SOL    HW1 7832   2.719   0.311   2.719
 2311SOL    HW2 7833   2.869   0.324   2.782
 2312SOL     OW 7834   4.112   0.206   2.843
 2312SOL    HW1 7835   4.012   0.213   2.847
 2312SOL    HW2 7836   4.137   0.121   2.798
 2313SOL     OW 7837   4.876   4.109   2.349
 2313SOL    HW1 7838   4.973   4.124   2.332
 2313SOL    HW2 7839   4.823   4.149   2.274
 2314SOL     OW 7840   6.430   0.368   3.529
 2314SOL    HW1 7841   6.386   0.361   3.618
 2314SOL    HW2 7842   6.489   0.448   3.527
 2315SOL     OW 7843   4.458   4.347   5.931
 2315SOL    HW1 7844   4.463   4.284   6.008
 2315SOL    HW2 7845   4.373   4.333   5.881
 2316SOL     OW 7846   2.789   1.334   5.991
 2316SOL    HW1 7847   2.885   1.355   5.974
 2316SOL    HW2 7848   2.755   1.392   6.065
 2317SOL     OW 7849   6.328   6.537   4.237
 2317SOL    HW1 7850   6.260   6.609   4.229
 2317SOL    HW2 7851   6.290   6.451   4.204
 2318SOL     OW 7852   2.306   4.427   4.637
 2318SOL    HW1 7853   2.312   4.456   4.732
 2318SOL    HW2 7854   2.230   4.473   4.592
 2319SOL     OW 7855   2.007   5.152   4.899
 2319SOL    HW1 7856   2.085   5.128   4.958
 2319SOL    HW2 7857   2.035   5.147   4.803
 2320SOL     OW 7858   1.314   3.158   5.331
 2320SOL    HW1 7859   1.264   3.080   5.368
 2320SOL    HW2 7860   1.412   3.144   5.342
 2321SOL     OW 7861   2.910   5.042   6.021
 2321SOL    HW1 7862   2.936   5.110   6.090
 2321SOL    HW2 7863   2.993   5.007   5.977
 2322SOL     OW 7864   2.139   3.492   2.551
 2322SOL    HW1 7865   2.151   3.489   2.451
 2322SOL    HW2 7866   2.167   3.404   2.590
 2323SOL     OW 7867   2.540   4.519   1.270
 2323SOL    HW1 7868   2.631   4.536   1.306
 2323SOL    HW2 7869   2.484   4.601   1.282
 2324SOL     OW 7870   0.523   5.590   2.132
 2324SOL    HW1 7871   0.583   5.660   2.169
 2324SOL    HW2 7872   0.467   5.551   2.205
 2325SOL     OW 7873   6.821   5.087   1.681
 2325SOL    HW1 7874   6.769   5.007   1.651
 2325SOL    HW2 7875   6.900   5.101   1.621
 2326SOL     OW 7876   1.187   6.989   0.208
 2326SOL    HW1 7877   1.178   0.033   0.139
 2326SOL    HW2 7878   1.281   6.957   0.210
 2327SOL     OW 7879   6.807   0.487   2.744
 2327SOL    HW1 7880   6.815   0.470   2.645
 2327SOL    HW2 7881   6.814   0.586   2.761
 2328SOL     OW 7882   1.499   2.030   2.094
 2328SOL    HW1 7883   1.473   1.940   2.128
 2328SOL    HW2 7884   1.597   2.045   2.109
 2329SOL     OW 7885   1.071   4.524   3.751
 2329SOL    HW1 7886   0.998   4.589   3.729
 2329SOL    HW2 7887   1.059   4.490   3.844
 2330SOL     OW 7888   6.966   3.023   0.324
 2330SOL    HW1 7889   6.996   3.068   0.240
 2330SOL    HW2 7890   6.962   3.091   0.398
 2331SOL     OW 7891   3.645   6.096   6.910
 2331SOL    HW1 7892   3.626   6.061   6.819
 2331SOL    HW2 7893   3.711   6.171   6.904
 2332SOL     OW 7894   6.076   0.069   6.126
 2332SOL    HW1 7895   6.063   0.151   6.182
 2332SOL    HW2 7896   6.151   0.014   6.163
 2333SOL     OW 7897   0.120   4.874   2.857
 2333SOL    HW1 7898   0.182   4.893   2.934
 2333SOL    HW2 7899   0.098   4.960   2.811
 2334SOL     OW 7900   1.999   1.264   6.466
 2334SOL    HW1 7901   1.967   1.322   6.391
 2334SOL    HW2 7902   1.998   1.315   6.552
 2335SOL     OW 7903   6.393   1.593   4.266
 2335SOL    HW1 7904   6.472   1.585   4.205
 2335SOL    HW2 7905   6.350   1.504   4.277
 2336SOL     OW 7906   2.614   1.779   3.972
 2336SOL    HW1 7907   2.582   1.685   3.977
 2336SOL    HW2 7908   2.700   1.782   3.921
 2337SOL     OW 7909   3.946   1.911   1.194
 2337SOL    HW1 7910   3.987   1.988   1.243
 2337SOL    HW2 7911   4.015   1.840   1.182
 2338SOL     OW 7912   0.882   3.525   4.236
 2338SOL    HW1 7913   0.955   3.593   4.229
 2338SOL    HW2 7914   0.895   3.472   4.320
 2339SOL     OW 7915   3.230   3.334   2.967
 2339SOL    HW1 7916   3.269   3.425   2.976
 2339SOL    HW2 7917   3.293   3.266   3.004
 2340SOL     OW 7918   0.882   5.113   6.533
 2340SOL    HW1 7919   0.939   5.190   6.560
 2340SOL    HW2 7920   0.901   5.035   6.594
 2341SOL     OW 7921   2.373   4.427   3.039
 2341SOL    HW1 7922   2.386   4.422   2.940
 2341SOL    HW2 7923   2.310   4.355   3.068
 2342SOL     OW 7924   2.934   6.703   4.294
 2342SOL    HW1 7925   2.899   6.614   4.263
 2342SOL    HW2 7926   2.862   6.772   4.283
 2343SOL     OW 7927   2.371   6.218   3.029
 2343SOL    HW1 7928   2.323   6.156   3.091
 2343SOL    HW2 7929   2.442   6.167   2.981
 2344SOL     OW 7930   6.926   5.170   0.846
 2344SOL    HW1 7931   6.974   5.117   0.776
 2344SOL    HW2 7932   6.843   5.120   0.874
 2345SOL     OW 7933   2.336   5.481   4.877
 2345SOL    HW1 7934   2.376   5.554   4.933
 2345SOL    HW2 7935   2.270   5.429   4.930
 2346SOL     OW 7936   4.202   3.298   6.023
 2346SOL    HW1 7937   4.146   3.220   5.995
 2346SOL    HW2 7938   4.278   3.310   5.959
 2347SOL     OW 7939   1.635   2.209   1.241
 2347SOL    HW1 7940   1.585   2.178   1.322
 2347SOL    HW2 7941   1.659   2.306   1.252
 2348SOL     OW 7942   1.731   6.375   3.643
 2348SOL    HW1 7943   1.765   6.281   3.638
 2348SOL    HW2 7944   1.792   6.429   3.702
 2349SOL     OW 7945   0.978   4.283   6.688
 2349SOL    HW1 7946   0.972   4.189   6.721
 2349SOL    HW2 7947   1.043   4.334   6.745
 2350SOL     OW 7948   5.674   3.555   5.767
 2350SOL    HW1 7949   5.576   3.572   5.766
 2350SOL    HW2 7950   5.720   3.618   5.705
 2351SOL     OW 7951   3.238   4.919   2.895
 2351SOL    HW1 7952   3.328   4.932   2.854
 2351SOL    HW2 7953   3.172   4.896   2.823
 2352SOL     OW 7954   6.675   2.856   3.747
 2352SOL    HW1 7955   6.696   2.857   3.845
 2352SOL    HW2 7956   6.580   2.883   3.734
 2353SOL     OW 7957   4.422   5.029   5.356
 2353SOL    HW1 7958   4.365   4.976   5.419
 2353SOL    HW2 7959   4.370   5.109   5.324
 2354SOL     OW 7960   2.528   2.448   4.425
 2354SOL    HW1 7961   2.541   2.429   4.522
 2354SOL    HW2 7962   2.592   2.393   4.372
 2355SOL     OW 7963   2.413   6.124   5.015
 2355SOL    HW1 7964   2.319   6.105   5.046
 2355SOL    HW2 7965   2.475   6.117   5.093
 2356SOL     OW 7966   0.802   3.321   0.012
 2356SOL    HW1 7967   0.877   3.299   6.978
 2356SOL    HW2 7968   0.840   3.354   0.098
 2357SOL     OW 7969   3.472   1.131   1.619
 2357SOL    HW1 7970   3.505   1.120   1.526
 2357SOL    HW2 7971   3.525   1.201   1.666
 2358SOL     OW 7972   2.643   4.868   5.797
 2358SOL    HW1 7973   2.628   4.789   5.857
 2358SOL    HW2 7974   2.556   4.916   5.784
 2359SOL     OW 7975   0.836   6.950   5.392
 2359SOL    HW1 7976   0.792   6.903   5.315
 2359SOL    HW2 7977   0.927   6.981   5.364
 2360SOL     OW 7978   6.832   3.639   0.645
 2360SOL    HW1 7979   6.799   3.587   0.724
 2360SOL    HW2 7980   6.821   3.585   0.562
 2361SOL     OW 7981   2.711   1.175   6.512
 2361SOL    HW1 7982   2.739   1.220   6.597
 2361SOL    HW2 7983   2.784   1.114   6.481
 2362SOL     OW 7984   3.577   5.083   3.555
 2362SOL    HW1 7985   3.666   5.116   3.524
 2362SOL    HW2 7986   3.589   5.031   3.640
 2363SOL     OW 7987   3.629   2.014   3.533
 2363SOL    HW1 7988   3.719   2.055   3.547
 2363SOL    HW2 7989   3.636   1.939   3.468
 2364SOL     OW 7990   1.146   2.631   2.109
 2364SOL    HW1 7991   1.233   2.664   2.143
 2364SOL    HW2 7992   1.159   2.587   2.020
 2365SOL     OW 7993   6.771   1.826   6.645
 2365SOL    HW1 7994   6.695   1.870   6.693
 2365SOL    HW2 7995   6.748   1.730   6.629
 2366SOL     OW 7996   3.475   5.308   1.047
 2366SOL    HW1 7997   3.524   5.224   1.023
 2366SOL    HW2 7998   3.540   5.384   1.053
 2367SOL     OW 7999   2.126   3.101   0.195
 2367SOL    HW1 8000   2.139   3.185   0.142
 2367SOL    HW2 8001   2.200   3.092   0.262
 2368SOL     OW 8002   5.684   0.305   4.058
 2368SOL    HW1 8003   5.608   0.368   4.077
 2368SOL    HW2 8004   5.673   0.222   4.112
 2369SOL     OW 8005   2.195   6.908   4.090
 2369SOL    HW1 8006   2.205   6.838   4.020
 2369SOL    HW2 8007   2.267   6.977   4.078
 2370SOL     OW 8008   5.774   2.885   6.854
 2370SOL    HW1 8009   5.708   2.826   6.808
 2370SOL    HW2 8010   5.775   2.974   6.810
 2371SOL     OW 8011   2.315   6.682   2.087
 2371SOL    HW1 8012   2.382   6.657   2.157
 2371SOL    HW2 8013   2.307   6.781   2.082
 2372SOL     OW 8014   6.975   2.737   2.100
 2372SOL    HW1 8015   6.960   2.835   2.093
 2372SOL    HW2 8016   0.043   2.717   2.091
 2373SOL     OW 8017   1.828   3.923   5.797
 2373SOL    HW1 8018   1.765   3.896   5.870
 2373SOL    HW2 8019   1.797   4.008   5.755
 2374SOL     OW 8020   6.384   1.888   5.087
 2374SOL    HW1 8021   6.297   1.860   5.046
 2374SOL    HW2 8022   6.417   1.817   5.148
 2375SOL     OW 8023   3.062   5.426   5.734
 2375SOL    HW1 8024   3.090   5.358   5.802
 2375SOL    HW2 8025   3.085   5.393   5.643
 2376SOL     OW 8026   5.913   3.823   3.829
 2376SOL    HW1 8027   5.846   3.896   3.844
 2376SOL    HW2 8028   5.896   3.778   3.742
 2377SOL     OW 8029   3.143   3.982   3.444
 2377SOL    HW1 8030   3.129   4.024   3.534
 2377SOL    HW2 8031   3.122   3.885   3.448
 2378SOL     OW 8032   5.045   2.166   7.006
 2378SOL    HW1 8033   5.073   2.257   0.010
 2378SOL    HW2 8034   4.994   2.175   6.921
 2379SOL     OW 8035   6.413   1.430   0.421
 2379SOL    HW1 8036   6.457   1.509   0.379
 2379SOL    HW2 8037   6.319   1.423   0.388
 2380SOL     OW 8038   6.891   2.598   0.448
 2380SOL    HW1 8039   6.794   2.594   0.421
 2380SOL    HW2 8040   6.942   2.528   0.399
 2381SOL     OW 8041   2.123   5.856   3.749
 2381SOL    HW1 8042   2.095   5.760   3.738
 2381SOL    HW2 8043   2.219   5.861   3.776
 2382SOL     OW 8044   1.788   3.391   4.468
 2382SOL    HW1 8045   1.817   3.366   4.375
 2382SOL    HW2 8046   1.867   3.389   4.529
 2383SOL     OW 8047   6.608   6.357   1.039
 2383SOL    HW1 8048   6.517   6.388   1.066
 2383SOL    HW2 8049   6.654   6.315   1.117
 2384SOL     OW 8050   5.040   2.154   2.037
 2384SOL    HW1 8051   5.089   2.121   2.117
 2384SOL    HW2 8052   5.007   2.247   2.055
 2385SOL     OW 8053   0.278   0.826   0.114
 2385SOL    HW1 8054   0.198   0.887   0.120
 2385SOL    HW2 8055   0.249   0.735   0.084
 2386SOL     OW 8056   5.183   5.992   4.578
 2386SOL    HW1 8057   5.166   5.949   4.666
 2386SOL    HW2 8058   5.273   6.035   4.578
 2387SOL     OW 8059   1.773   1.098   4.570
 2387SOL    HW1 8060   1.728   1.021   4.616
 2387SOL    HW2 8061   1.803   1.164   4.638
 2388SOL     OW 8062   6.421   3.186   3.986
 2388SOL    HW1 8063   6.341   3.169   3.929
 2388SOL    HW2 8064   6.421   3.122   4.064
 2389SOL     OW 8065   4.400   4.566   3.480
 2389SOL    HW1 8066   4.446   4.479   3.499
 2389SOL    HW2 8067   4.380   4.612   3.566
 2390SOL     OW 8068   4.082   3.791   2.811
 2390SOL    HW1 8069   4.120   3.758   2.898
 2390SOL    HW2 8070   4.128   3.745   2.735
 2391SOL     OW 8071   4.848   4.547   6.098
 2391SOL    HW1 8072   4.800   4.492   6.165
 2391SOL    HW2 8073   4.937   4.575   6.135
 2392SOL     OW 8074   2.237   6.907   6.499
 2392SOL    HW1 8075   2.248   6.965   6.579
 2392SOL    HW2 8076   2.142   6.877   6.492
 2393SOL     OW 8077   4.717   4.393   6.322
 2393SOL    HW1 8078   4.749   4.428   6.411
 2393SOL    HW2 8079   4.628   4.433   6.301
 2394SOL     OW 8080   6.957   3.800   4.929
 2394SOL    HW1 8081   6.988   3.790   4.835
 2394SOL    HW2 8082   6.904   3.885   4.938
 2395SOL     OW 8083   4.746   6.837   5.629
 2395SOL    HW1 8084   4.811   6.907   5.657
 2395SOL    HW2 8085   4.760   6.754   5.683
 2396SOL     OW 8086   3.881   5.643   0.793
 2396SOL    HW1 8087   3.934   5.671   0.714
 2396SOL    HW2 8088   3.926   5.565   0.838
 2397SOL     OW 8089   0.115   4.276   4.325
 2397SOL    HW1 8090   0.170   4.359   4.315
 2397SOL    HW2 8091   0.052   4.286   4.402
 2398SOL     OW 8092   5.202   3.947   0.087
 2398SOL    HW1 8093   5.296   3.917   0.107
 2398SOL    HW2 8094   5.152   3.959   0.173
 2399SOL     OW 8095   4.144   1.091   1.195
 2399SOL    HW1 8096   4.169   1.025   1.123
 2399SOL    HW2 8097   4.187   1.065   1.281
 2400SOL     OW 8098   2.418   4.285   0.651
 2400SOL    HW1 8099   2.324   4.255   0.634
 2400SOL    HW2 8100   2.449   4.249   0.739
 2401SOL     OW 8101   6.021   5.870   6.659
 2401SOL    HW1 8102   6.099   5.820   6.696
 2401SOL    HW2 8103   5.988   5.935   6.726
 2402SOL     OW 8104   0.864   6.971   4.176
 2402SOL    HW1 8105   0.802   6.908   4.130
 2402SOL    HW2 8106   0.944   6.988   4.117
 2403SOL     OW 8107   0.843   2.587   5.633
 2403SOL    HW1 8108   0.880   2.529   5.705
 2403SOL    HW2 8109   0.862   2.683   5.654
 2404SOL     OW 8110   2.300   0.911   1.247
 2404SOL    HW1 8111   2.240   0.968   1.192
 2404SOL    HW2 8112   2.394   0.945   1.240
 2405SOL     OW 8113   3.261   4.110   2.588
 2405SOL    HW1 8114   3.294   4.145   2.501
 2405SOL    HW2 8115   3.164   4.133   2.599
 2406SOL     OW 8116   3.956   1.497   1.083
 2406SOL    HW1 8117   3.883   1.441   1.044
 2406SOL    HW2 8118   3.957   1.586   1.038
 2407SOL     OW 8119   5.462   1.881   3.432
 2407SOL    HW1 8120   5.401   1.828   3.491
 2407SOL    HW2 8121   5.504   1.821   3.365
 2408SOL     OW 8122   4.533   4.503   2.236
 2408SOL    HW1 8123   4.616   4.465   2.277
 2408SOL    HW2 8124   4.495   4.438   2.170
 2409SOL     OW 8125   2.277   3.970   1.488
 2409SOL    HW1 8126   2.334   4.033   1.435
 2409SOL    HW2 8127   2.332   3.894   1.520
 2410SOL     OW 8128   3.901   3.449   4.047
 2410SOL    HW1 8129   3.982   3.488   4.004
 2410SOL    HW2 8130   3.928   3.370   4.103
 2411SOL     OW 8131   5.068   6.680   4.882
 2411SOL    HW1 8132   5.113   6.591   4.867
 2411SOL    HW2 8133   5.079   6.708   4.977
 2412SOL     OW 8134   5.357   3.621   1.306
 2412SOL    HW1 8135   5.434   3.560   1.290
 2412SOL    HW2 8136   5.290   3.611   1.232
 2413SOL     OW 8137   5.446   0.449   1.634
 2413SOL    HW1 8138   5.362   0.457   1.581
 2413SOL    HW2 8139   5.524   0.476   1.578
 2414SOL     OW 8140   4.773   3.923   3.653
 2414SOL    HW1 8141   4.809   3.891   3.566
 2414SOL    HW2 8142   4.798   4.019   3.666
 2415SOL     OW 8143   5.967   1.651   2.557
 2415SOL    HW1 8144   6.031   1.575   2.552
 2415SOL    HW2 8145   5.877   1.621   2.525
 2416SOL     OW 8146   5.193   1.866   5.842
 2416SOL    HW1 8147   5.187   1.932   5.917
 2416SOL    HW2 8148   5.267   1.892   5.780
 2417SOL     OW 8149   3.003   3.115   4.975
 2417SOL    HW1 8150   2.932   3.164   4.925
 2417SOL    HW2 8151   3.091   3.128   4.931
 2418SOL     OW 8152   3.531   3.510   4.064
 2418SOL    HW1 8153   3.524   3.485   3.967
 2418SOL    HW2 8154   3.453   3.566   4.090
 2419SOL     OW 8155   0.643   6.512   3.484
 2419SOL    HW1 8156   0.553   6.556   3.477
 2419SOL    HW2 8157   0.677   6.491   3.393
 2420SOL     OW 8158   2.663   0.095   1.782
 2420SOL    HW1 8159   2.664   0.170   1.715
 2420SOL    HW2 8160   2.590   0.111   1.849
 2421SOL     OW 8161   1.607   2.890   4.587
 2421SOL    HW1 8162   1.639   2.912   4.679
 2421SOL    HW2 8163   1.555   2.968   4.550
 2422SOL     OW 8164   5.016   2.172   0.971
 2422SOL    HW1 8165   5.019   2.095   1.035
 2422SOL    HW2 8166   5.028   2.139   0.878
 2423SOL     OW 8167   2.485   6.045   2.546
 2423SOL    HW1 8168   2.487   5.958   2.497
 2423SOL    HW2 8169   2.579   6.074   2.566
 2424SOL     OW 8170   5.712   1.367   0.112
 2424SOL    HW1 8171   5.664   1.450   0.083
 2424SOL    HW2 8172   5.807   1.390   0.133
 2425SOL     OW 8173   6.152   0.025   4.323
 2425SOL    HW1 8174   6.112   0.047   4.412
 2425SOL    HW2 8175   6.252   0.036   4.328
 2426SOL     OW 8176   2.558   4.950   4.660
 2426SOL    HW1 8177   2.611   4.967   4.744
 2426SOL    HW2 8178   2.508   4.864   4.669
 2427SOL     OW 8179   6.015   6.340   5.260
 2427SOL    HW1 8180   5.941   6.406   5.275
 2427SOL    HW2 8181   6.008   6.267   5.328
 2428SOL     OW 8182   0.856   0.635   1.505
 2428SOL    HW1 8183   0.817   0.604   1.591
 2428SOL    HW2 8184   0.929   0.701   1.523
 2429SOL     OW 8185   5.229   5.610   1.282
 2429SOL    HW1 8186   5.288   5.534   1.257
 2429SOL    HW2 8187   5.137   5.576   1.302
 2430SOL     OW 8188   5.750   1.042   2.522
 2430SOL    HW1 8189   5.761   0.993   2.609
 2430SOL    HW2 8190   5.672   1.104   2.529
 2431SOL     OW 8191   4.065   0.500   2.273
 2431SOL    HW1 8192   4.031   0.412   2.241
 2431SOL    HW2 8193   4.032   0.572   2.212
 2432SOL     OW 8194   4.142   6.291   2.572
 2432SOL    HW1 8195   4.050   6.273   2.607
 2432SOL    HW2 8196   4.188   6.358   2.631
 2433SOL     OW 8197   4.446   0.423   6.777
 2433SOL    HW1 8198   4.505   0.437   6.698
 2433SOL    HW2 8199   4.371   0.489   6.775
 2434SOL     OW 8200   3.473   1.501   6.132
 2434SOL    HW1 8201   3.514   1.439   6.066
 2434SOL    HW2 8202   3.428   1.576   6.084
 2435SOL     OW 8203   6.360   5.509   4.973
 2435SOL    HW1 8204   6.297   5.547   4.905
 2435SOL    HW2 8205   6.341   5.550   5.062
 2436SOL     OW 8206   2.802   5.575   7.012
 2436SOL    HW1 8207   2.845   5.540   6.929
 2436SOL    HW2 8208   2.868   5.629   0.034
 2437SOL     OW 8209   6.965   6.461   5.913
 2437SOL    HW1 8210   6.916   6.450   5.827
 2437SOL    HW2 8211   6.913   6.420   5.988
 2438SOL     OW 8212   3.029   2.337   0.749
 2438SOL    HW1 8213   2.930   2.342   0.739
 2438SOL    HW2 8214   3.059   2.409   0.811
 2439SOL     OW 8215   5.740   4.095   5.204
 2439SOL    HW1 8216   5.670   4.069   5.137
 2439SOL    HW2 8217   5.767   4.190   5.189
 2440SOL     OW 8218   5.699   5.262   6.052
 2440SOL    HW1 8219   5.716   5.340   5.991
 2440SOL    HW2 8220   5.780   5.205   6.057
 2441SOL     OW 8221   6.071   2.380   0.870
 2441SOL    HW1 8222   6.160   2.421   0.888
 2441SOL    HW2 8223   6.007   2.403   0.944
 2442SOL     OW 8224   1.116   3.662   4.906
 2442SOL    HW1 8225   1.170   3.732   4.858
 2442SOL    HW2 8226   1.151   3.571   4.884
 2443SOL     OW 8227   2.436   4.409   6.087
 2443SOL    HW1 8228   2.346   4.384   6.051
 2443SOL    HW2 8229   2.506   4.347   6.051
 2444SOL     OW 8230   2.567   3.375   5.991
 2444SOL    HW1 8231   2.510   3.364   5.910
 2444SOL    HW2 8232   2.660   3.344   5.972
 2445SOL     OW 8233   0.494   0.681   1.039
 2445SOL    HW1 8234   0.526   0.760   1.092
 2445SOL    HW2 8235   0.417   0.708   0.982
 2446SOL     OW 8236   6.179   4.261   5.307
 2446SOL    HW1 8237   6.203   4.295   5.398
 2446SOL    HW2 8238   6.249   4.288   5.242
 2447SOL     OW 8239   0.665   1.310   6.894
 2447SOL    HW1 8240   0.614   1.318   6.809
 2447SOL    HW2 8241   0.712   1.397   6.913
 2448SOL     OW 8242   1.238   6.989   4.520
 2448SOL    HW1 8243   1.320   7.028   4.480
 2448SOL    HW2 8244   1.257   6.897   4.555
 2449SOL     OW 8245   0.484   3.343   5.317
 2449SOL    HW1 8246   0.502   3.360   5.414
 2449SOL    HW2 8247   0.545   3.270   5.284
 2450SOL     OW 8248   2.040   3.859   3.147
 2450SOL    HW1 8249   2.013   3.797   3.072
 2450SOL    HW2 8250   1.968   3.861   3.216
 2451SOL     OW 8251   2.112   6.199   4.170
 2451SOL    HW1 8252   2.142   6.141   4.095
 2451SOL    HW2 8253   2.076   6.142   4.244
 2452SOL     OW 8254   1.013   2.290   4.277
 2452SOL    HW1 8255   0.926   2.263   4.236
 2452SOL    HW2 8256   1.087   2.275   4.212
 2453SOL     OW 8257   0.199   3.980   1.870
 2453SOL    HW1 8258   0.149   4.057   1.911
 2453SOL    HW2 8259   0.154   3.953   1.785
 2454SOL     OW 8260   2.748   0.870   2.317
 2454SOL    HW1 8261   2.730   0.913   2.228
 2454SOL    HW2 8262   2.714   0.930   2.390
 2455SOL     OW 8263   5.714   6.056   0.350
 2455SOL    HW1 8264   5.633   6.002   0.374
 2455SOL    HW2 8265   5.771   6.005   0.287
 2456SOL     OW 8266   4.168   6.962   1.458
 2456SOL    HW1 8267   4.134   0.021   1.490
 2456SOL    HW2 8268   4.092   6.908   1.422
 2457SOL     OW 8269   5.544   6.408   1.344
 2457SOL    HW1 8270   5.533   6.309   1.354
 2457SOL    HW2 8271   5.521   6.435   1.251
 2458SOL     OW 8272   0.476   5.366   3.581
 2458SOL    HW1 8273   0.515   5.408   3.663
 2458SOL    HW2 8274   0.440   5.437   3.521
 2459SOL     OW 8275   2.258   0.216   0.816
 2459SOL    HW1 8276   2.231   0.286   0.749
 2459SOL    HW2 8277   2.341   0.170   0.784
 2460SOL     OW 8278   3.156   5.611   1.611
 2460SOL    HW1 8279   3.131   5.538   1.547
 2460SOL    HW2 8280   3.138   5.700   1.568
 2461SOL     OW 8281   5.555   1.176   2.680
 2461SOL    HW1 8282   5.495   1.196   2.757
 2461SOL    HW2 8283   5.635   1.236   2.684
 2462SOL     OW 8284   1.997   4.667   6.115
 2462SOL    HW1 8285   2.064   4.636   6.047
 2462SOL    HW2 8286   1.982   4.595   6.183
 2463SOL     OW 8287   6.781   1.561   4.019
 2463SOL    HW1 8288   6.795   1.541   3.922
 2463SOL    HW2 8289   6.855   1.522   4.073
 2464SOL     OW 8290   1.434   3.156   1.228
 2464SOL    HW1 8291   1.390   3.159   1.318
 2464SOL    HW2 8292   1.411   3.070   1.183
 2465SOL     OW 8293   6.292   5.594   3.356
 2465SOL    HW1 8294   6.360   5.646   3.409
 2465SOL    HW2 8295   6.311   5.496   3.365
 2466SOL     OW 8296   3.584   1.400   2.281
 2466SOL    HW1 8297   3.602   1.473   2.347
 2466SOL    HW2 8298   3.630   1.421   2.195
 2467SOL     OW 8299   6.751   1.120   5.706
 2467SOL    HW1 8300   6.756   1.032   5.659
 2467SOL    HW2 8301   6.742   1.193   5.638
 2468SOL     OW 8302   0.150   4.081   0.600
 2468SOL    HW1 8303   0.082   4.045   0.535
 2468SOL    HW2 8304   0.213   4.007   0.626
 2469SOL     OW 8305   2.664   3.038   5.644
 2469SOL    HW1 8306   2.600   3.041   5.567
 2469SOL    HW2 8307   2.615   3.052   5.730
 2470SOL     OW 8308   5.504   2.972   0.023
 2470SOL    HW1 8309   5.485   2.874   0.032
 2470SOL    HW2 8310   5.561   2.987   6.971
 2471SOL     OW 8311   0.958   0.624   3.611
 2471SOL    HW1 8312   0.867   0.662   3.593
 2471SOL    HW2 8313   1.023   0.663   3.546
 2472SOL     OW 8314   5.703   1.582   2.841
 2472SOL    HW1 8315   5.725   1.524   2.919
 2472SOL    HW2 8316   5.751   1.669   2.850
 2473SOL     OW 8317   0.677   6.599   5.065
 2473SOL    HW1 8318   0.628   6.564   5.145
 2473SOL    HW2 8319   0.622   6.587   4.983
 2474SOL     OW 8320   5.693   5.646   4.838
 2474SOL    HW1 8321   5.677   5.569   4.900
 2474SOL    HW2 8322   5.689   5.732   4.890
 2475SOL     OW 8323   4.187   2.441   6.650
 2475SOL    HW1 8324   4.240   2.435   6.565
 2475SOL    HW2 8325   4.104   2.494   6.634
 2476SOL     OW 8326   0.180   2.234   4.041
 2476SOL    HW1 8327   0.259   2.175   4.052
 2476SOL    HW2 8328   0.121   2.226   4.122
 2477SOL     OW 8329   4.451   4.885   1.906
 2477SOL    HW1 8330   4.494   4.841   1.985
 2477SOL    HW2 8331   4.514   4.883   1.828
 2478SOL     OW 8332   6.378   0.145   3.368
 2478SOL    HW1 8333   6.446   0.155   3.296
 2478SOL    HW2 8334   6.358   0.234   3.407
 2479SOL     OW 8335   0.856   3.688   0.113
 2479SOL    HW1 8336   0.813   3.629   0.044
 2479SOL    HW2 8337   0.798   3.692   0.194
 2480SOL     OW 8338   0.861   3.876   1.636
 2480SOL    HW1 8339   0.881   3.864   1.733
 2480SOL    HW2 8340   0.815   3.794   1.601
 2481SOL     OW 8341   4.501   5.267   2.769
 2481SOL    HW1 8342   4.533   5.173   2.782
 2481SOL    HW2 8343   4.402   5.267   2.754
 2482SOL     OW 8344   4.642   2.542   4.196
 2482SOL    HW1 8345   4.674   2.624   4.148
 2482SOL    HW2 8346   4.587   2.486   4.133
 2483SOL     OW 8347   0.826   1.808   6.434
 2483SOL    HW1 8348   0.859   1.721   6.471
 2483SOL    HW2 8349   0.775   1.791   6.350
 2484SOL     OW 8350   3.153   1.983   6.151
 2484SOL    HW1 8351   3.151   2.033   6.065
 2484SOL    HW2 8352   3.208   2.034   6.218
 2485SOL     OW 8353   0.708   6.149   2.002
 2485SOL    HW1 8354   0.659   6.208   2.066
 2485SOL    HW2 8355   0.792   6.194   1.972
 2486SOL     OW 8356   0.894   4.759   3.330
 2486SOL    HW1 8357   0.955   4.838   3.330
 2486SOL    HW2 8358   0.942   4.679   3.366
 2487SOL     OW 8359   3.051   0.896   1.225
 2487SOL    HW1 8360   3.063   0.876   1.322
 2487SOL    HW2 8361   3.134   0.938   1.189
 2488SOL     OW 8362   3.426   6.716   6.181
 2488SOL    HW1 8363   3.457   6.662   6.103
 2488SOL    HW2 8364   3.474   6.687   6.263
 2489SOL     OW 8365   7.011   5.605   4.336
 2489SOL    HW1 8366   6.914   5.623   4.322
 2489SOL    HW2 8367   0.031   5.692   4.347
 2490SOL     OW 8368   5.193   3.512   1.488
 2490SOL    HW1 8369   5.235   3.557   1.409
 2490SOL    HW2 8370   5.104   3.553   1.506
 2491SOL     OW 8371   0.906   4.628   3.066
 2491SOL    HW1 8372   0.982   4.564   3.055
 2491SOL    HW2 8373   0.899   4.656   3.162
 2492SOL     OW 8374   4.578   2.560   5.868
 2492SOL    HW1 8375   4.654   2.580   5.929
 2492SOL    HW2 8376   4.579   2.626   5.792
 2493SOL     OW 8377   6.380   1.622   3.879
 2493SOL    HW1 8378   6.437   1.681   3.822
 2493SOL    HW2 8379   6.438   1.566   3.938
 2494SOL     OW 8380   4.587   4.102   1.248
 2494SOL    HW1 8381   4.609   4.007   1.228
 2494SOL    HW2 8382   4.505   4.129   1.197
 2495SOL     OW 8383   6.119   1.090   3.837
 2495SOL    HW1 8384   6.029   1.132   3.829
 2495SOL    HW2 8385   6.146   1.087   3.934
 2496SOL     OW 8386   1.388   5.791   6.787
 2496SOL    HW1 8387   1.363   5.847   6.866
 2496SOL    HW2 8388   1.357   5.836   6.703
 2497SOL     OW 8389   5.437   1.844   6.257
 2497SOL    HW1 8390   5.410   1.790   6.177
 2497SOL    HW2 8391   5.386   1.814   6.337
 2498SOL     OW 8392   1.248   3.821   4.734
 2498SOL    HW1 8393   1.236   3.875   4.650
 2498SOL    HW2 8394   1.329   3.854   4.782
 2499SOL     OW 8395   6.071   0.360   6.150
 2499SOL    HW1 8396   6.109   0.365   6.058
 2499SOL    HW2 8397   5.971   0.370   6.146
 2500SOL     OW 8398   4.695   3.495   6.507
 2500SOL    HW1 8399   4.668   3.509   6.412
 2500SOL    HW2 8400   4.616   3.462   6.560
 2501SOL     OW 8401   6.251   4.648   0.581
 2501SOL    HW1 8402   6.346   4.622   0.600
 2501SOL    HW2 8403   6.244   4.682   0.487
 2502SOL     OW 8404   1.995   6.498   3.247
 2502SOL    HW1 8405   2.077   6.502   3.190
 2502SOL    HW2 8406   1.915   6.516   3.191
 2503SOL     OW 8407   4.812   6.235   4.672
 2503SOL    HW1 8408   4.871   6.215   4.594
 2503SOL    HW2 8409   4.797   6.334   4.678
 2504SOL     OW 8410   1.871   4.268   3.254
 2504SOL    HW1 8411   1.780   4.229   3.236
 2504SOL    HW2 8412   1.924   4.270   3.169
 2505SOL     OW 8413   4.672   4.724   3.896
 2505SOL    HW1 8414   4.650   4.803   3.840
 2505SOL    HW2 8415   4.749   4.674   3.856
 2506SOL     OW 8416   0.233   1.984   0.996
 2506SOL    HW1 8417   0.285   2.026   0.921
 2506SOL    HW2 8418   0.137   1.978   0.970
 2507SOL     OW 8419   6.196   5.726   0.916
 2507SOL    HW1 8420   6.188   5.783   0.834
 2507SOL    HW2 8421   6.264   5.766   0.978
 2508SOL     OW 8422   2.562   2.504   2.220
 2508SOL    HW1 8423   2.595   2.410   2.225
 2508SOL    HW2 8424   2.638   2.565   2.200
 2509SOL     OW 8425   5.195   1.762   3.200
 2509SOL    HW1 8426   5.183   1.682   3.260
 2509SOL    HW2 8427   5.238   1.733   3.114
 2510SOL     OW 8428   4.095   5.858   0.609
 2510SOL    HW1 8429   4.137   5.850   0.519
 2510SOL    HW2 8430   4.116   5.777   0.664
 2511SOL     OW 8431   0.771   6.489   4.254
 2511SOL    HW1 8432   0.844   6.503   4.321
 2511SOL    HW2 8433   0.683   6.497   4.300
 2512SOL     OW 8434   5.463   2.727   4.186
 2512SOL    HW1 8435   5.491   2.642   4.232
 2512SOL    HW2 8436   5.543   2.769   4.143
 2513SOL     OW 8437   0.214   4.730   1.423
 2513SOL    HW1 8438   0.310   4.748   1.445
 2513SOL    HW2 8439   0.172   4.679   1.498
 2514SOL     OW 8440   1.204   1.549   4.119
 2514SOL    HW1 8441   1.244   1.495   4.045
 2514SOL    HW2 8442   1.139   1.493   4.170
 2515SOL     OW 8443   1.023   4.930   0.279
 2515SOL    HW1 8444   0.931   4.958   0.306
 2515SOL    HW2 8445   1.079   5.011   0.262
 2516SOL     OW 8446   5.160   6.291   4.295
 2516SOL    HW1 8447   5.201   6.382   4.288
 2516SOL    HW2 8448   5.181   6.239   4.212
 2517SOL     OW 8449   2.673   5.228   0.566
 2517SOL    HW1 8450   2.707   5.137   0.543
 2517SOL    HW2 8451   2.623   5.223   0.653
 2518SOL     OW 8452   2.617   2.268   5.909
 2518SOL    HW1 8453   2.549   2.239   5.976
 2518SOL    HW2 8454   2.707   2.236   5.938
 2519SOL     OW 8455   5.069   4.157   4.659
 2519SOL    HW1 8456   4.988   4.124   4.708
 2519SOL    HW2 8457   5.055   4.251   4.630
 2520SOL     OW 8458   2.740   5.004   1.991
 2520SOL    HW1 8459   2.717   4.978   1.898
 2520SOL    HW2 8460   2.775   4.924   2.040
 2521SOL     OW 8461   6.037   6.844   5.943
 2521SOL    HW1 8462   6.095   6.825   5.864
 2521SOL    HW2 8463   6.049   6.939   5.972
 2522SOL     OW 8464   1.004   3.086   5.187
 2522SOL    HW1 8465   1.014   3.172   5.237
 2522SOL    HW2 8466   1.082   3.073   5.127
 2523SOL     OW 8467   6.588   2.994   6.318
 2523SOL    HW1 8468   6.632   3.071   6.272
 2523SOL    HW2 8469   6.639   2.911   6.300
 2524SOL     OW 8470   0.627   7.017   5.150
 2524SOL    HW1 8471   0.595   0.029   5.064
 2524SOL    HW2 8472   0.560   6.951   5.182
 2525SOL     OW 8473   1.769   4.609   3.139
 2525SOL    HW1 8474   1.803   4.665   3.214
 2525SOL    HW2 8475   1.845   4.558   3.098
 2526SOL     OW 8476   0.434   2.208   5.688
 2526SOL    HW1 8477   0.365   2.275   5.660
 2526SOL    HW2 8478   0.519   2.255   5.712
 2527SOL     OW 8479   5.621   7.007   3.591
 2527SOL    HW1 8480   5.557   0.017   3.525
 2527SOL    HW2 8481   5.647   0.047   3.658
 2528SOL     OW 8482   6.073   5.297   0.664
 2528SOL    HW1 8483   6.115   5.232   0.727
 2528SOL    HW2 8484   5.973   5.286   0.667
 2529SOL     OW 8485   5.345   3.961   5.099
 2529SOL    HW1 8486   5.308   3.972   5.191
 2529SOL    HW2 8487   5.276   3.921   5.038
 2530SOL     OW 8488   1.359   6.470   3.990
 2530SOL    HW1 8489   1.453   6.456   3.960
 2530SOL    HW2 8490   1.333   6.566   3.976
 2531SOL     OW 8491   5.188   1.219   0.733
 2531SOL    HW1 8492   5.151   1.224   0.826
 2531SOL    HW2 8493   5.176   1.307   0.687
 2532SOL     OW 8494   1.580   4.339   5.822
 2532SOL    HW1 8495   1.522   4.401   5.769
 2532SOL    HW2 8496   1.615   4.387   5.903
 2533SOL     OW 8497   5.871   6.578   5.214
 2533SOL    HW1 8498   5.948   6.640   5.229
 2533SOL    HW2 8499   5.800   6.626   5.163
 2534SOL     OW 8500   6.643   2.191   3.679
 2534SOL    HW1 8501   6.709   2.266   3.671
 2534SOL    HW2 8502   6.644   2.136   3.595
 2535SOL     OW 8503   1.931   1.046   3.098
 2535SOL    HW1 8504   1.864   0.975   3.117
 2535SOL    HW2 8505   1.941   1.105   3.178
 2536SOL     OW 8506   6.614   0.853   3.834
 2536SOL    HW1 8507   6.620   0.830   3.931
 2536SOL    HW2 8508   6.534   0.911   3.818
 2537SOL     OW 8509   4.453   5.292   1.740
 2537SOL    HW1 8510   4.378   5.236   1.774
 2537SOL    HW2 8511   4.433   5.389   1.756
 2538SOL     OW 8512   1.566   4.329   5.008
 2538SOL    HW1 8513   1.566   4.428   4.999
 2538SOL    HW2 8514   1.519   4.288   4.930
 2539SOL     OW 8515   2.392   0.654   5.997
 2539SOL    HW1 8516   2.453   0.591   5.949
 2539SOL    HW2 8517   2.401   0.746   5.956
 2540SOL     OW 8518   5.595   2.061   2.404
 2540SOL    HW1 8519   5.653   2.049   2.485
 2540SOL    HW2 8520   5.509   2.106   2.431
 2541SOL     OW 8521   0.281   6.822   5.658
 2541SOL    HW1 8522   0.241   6.794   5.745
 2541SOL    HW2 8523   0.242   6.911   5.632
 2542SOL     OW 8524   3.673   1.482   4.039
 2542SOL    HW1 8525   3.683   1.383   4.026
 2542SOL    HW2 8526   3.666   1.501   4.137
 2543SOL     OW 8527   0.251   2.228   4.396
 2543SOL    HW1 8528   0.342   2.256   4.368
 2543SOL    HW2 8529   0.216   2.292   4.465
 2544SOL     OW 8530   6.452   6.271   2.408
 2544SOL    HW1 8531   6.465   6.336   2.333
 2544SOL    HW2 8532   6.493   6.308   2.492
 2545SOL     OW 8533   6.962   1.657   6.943
 2545SOL    HW1 8534   6.928   1.629   6.853
 2545SOL    HW2 8535   0.019   1.610   6.962
 2546SOL     OW 8536   6.717   4.108   2.534
 2546SOL    HW1 8537   6.724   4.163   2.618
 2546SOL    HW2 8538   6.639   4.138   2.480
 2547SOL     OW 8539   5.562   3.812   0.859
 2547SOL    HW1 8540   5.647   3.802   0.911
 2547SOL    HW2 8541   5.504   3.732   0.873
 2548SOL     OW 8542   6.482   6.452   5.517
 2548SOL    HW1 8543   6.456   6.440   5.612
 2548SOL    HW2 8544   6.538   6.535   5.507
 2549SOL     OW 8545   2.833   3.241   0.493
 2549SOL    HW1 8546   2.924   3.267   0.462
 2549SOL    HW2 8547   2.834   3.230   0.593
 2550SOL     OW 8548   4.111   6.262   6.944
 2550SOL    HW1 8549   4.195   6.317   6.943
 2550SOL    HW2 8550   4.076   6.257   0.009
 2551SOL     OW 8551   3.625   5.070   1.045
 2551SOL    HW1 8552   3.715   5.038   1.015
 2551SOL    HW2 8553   3.583   5.001   1.103
 2552SOL     OW 8554   2.333   5.232   1.905
 2552SOL    HW1 8555   2.263   5.295   1.871
 2552SOL    HW2 8556   2.422   5.278   1.906
 2553SOL     OW 8557   4.102   1.880   6.986
 2553SOL    HW1 8558   4.160   1.845   0.030
 2553SOL    HW2 8559   4.148   1.956   6.939
 2554SOL     OW 8560   1.615   5.669   1.689
 2554SOL    HW1 8561   1.520   5.697   1.678
 2554SOL    HW2 8562   1.630   5.582   1.642
 2555SOL     OW 8563   5.896   6.923   4.498
 2555SOL    HW1 8564   5.850   6.906   4.585
 2555SOL    HW2 8565   5.961   6.850   4.479
 2556SOL     OW 8566   3.575   6.722   0.403
 2556SOL    HW1 8567   3.507   6.664   0.358
 2556SOL    HW2 8568   3.649   6.743   0.340
 2557SOL     OW 8569   2.968   0.648   6.850
 2557SOL    HW1 8570   2.979   0.558   6.894
 2557SOL    HW2 8571   2.994   0.720   6.914
 2558SOL     OW 8572   5.150   3.176   1.601
 2558SOL    HW1 8573   5.238   3.181   1.554
 2558SOL    HW2 8574   5.084   3.235   1.555
 2559SOL     OW 8575   0.658   4.750   3.547
 2559SOL    HW1 8576   0.724   4.739   3.472
 2559SOL    HW2 8577   0.565   4.740   3.512
 2560SOL     OW 8578   4.579   2.281   3.322
 2560SOL    HW1 8579   4.642   2.256   3.249
 2560SOL    HW2 8580   4.509   2.210   3.331
 2561SOL     OW 8581   4.002   0.190   4.481
 2561SOL    HW1 8582   3.910   0.209   4.447
 2561SOL    HW2 8583   4.059   0.156   4.406
 2562SOL     OW 8584   2.217   6.733   4.478
 2562SOL    HW1 8585   2.150   6.783   4.422
 2562SOL    HW2 8586   2.290   6.796   4.506
 2563SOL     OW 8587   3.681   2.770   6.490
 2563SOL    HW1 8588   3.595   2.734   6.525
 2563SOL    HW2 8589   3.750   2.767   6.562
 2564SOL     OW 8590   1.310   1.735   0.032
 2564SOL    HW1 8591   1.402   1.734   7.022
 2564SOL    HW2 8592   1.254   1.801   7.011
 2565SOL     OW 8593   1.201   1.524   0.445
 2565SOL    HW1 8594   1.155   1.533   0.357
 2565SOL    HW2 8595   1.278   1.588   0.449
 2566SOL     OW 8596   2.747   0.559   1.289
 2566SOL    HW1 8597   2.649   0.537   1.285
 2566SOL    HW2 8598   2.759   0.658   1.281
 2567SOL     OW 8599   1.962   1.143   6.925
 2567SOL    HW1 8600   1.946   1.102   6.835
 2567SOL    HW2 8601   2.047   1.108   6.963
 2568SOL     OW 8602   2.542   6.135   0.420
 2568SOL    HW1 8603   2.461   6.111   0.474
 2568SOL    HW2 8604   2.592   6.051   0.398
 2569SOL     OW 8605   2.024   0.165   1.047
 2569SOL    HW1 8606   1.952   0.179   1.115
 2569SOL    HW2 8607   2.042   0.252   1.000
 2570SOL     OW 8608   0.252   5.924   5.049
 2570SOL    HW1 8609   0.265   5.976   5.134
 2570SOL    HW2 8610   0.340   5.886   5.021
 2571SOL     OW 8611   3.240   3.796   3.899
 2571SOL    HW1 8612   3.151   3.831   3.929
 2571SOL    HW2 8613   3.284   3.864   3.840
 2572SOL     OW 8614   1.725   5.119   2.226
 2572SOL    HW1 8615   1.643   5.175   2.222
 2572SOL    HW2 8616   1.753   5.094   2.133
 2573SOL     OW 8617   0.255   1.877   4.287
 2573SOL    HW1 8618   0.291   1.970   4.277
 2573SOL    HW2 8619   0.323   1.819   4.331
 2574SOL     OW 8620   0.852   3.844   1.912
 2574SOL    HW1 8621   0.756   3.832   1.938
 2574SOL    HW2 8622   0.911   3.797   1.978
 2575SOL     OW 8623   5.686   3.389   6.331
 2575SOL    HW1 8624   5.733   3.386   6.243
 2575SOL    HW2 8625   5.691   3.481   6.369
 2576SOL     OW 8626   1.783   0.061   3.788
 2576SOL    HW1 8627   1.868   0.018   3.817
 2576SOL    HW2 8628   1.803   0.149   3.745
 2577SOL     OW 8629   2.337   5.903   1.770
 2577SOL    HW1 8630   2.397   5.823   1.769
 2577SOL    HW2 8631   2.265   5.891   1.839
 2578SOL     OW 8632   4.801   2.060   3.834
 2578SOL    HW1 8633   4.834   2.152   3.813
 2578SOL    HW2 8634   4.845   1.994   3.773
 2579SOL     OW 8635   6.703   1.355   6.077
 2579SOL    HW1 8636   6.659   1.331   6.164
 2579SOL    HW2 8637   6.634   1.354   6.004
 2580SOL     OW 8638   1.519   1.558   6.087
 2580SOL    HW1 8639   1.547   1.654   6.080
 2580SOL    HW2 8640   1.577   1.503   6.026
 2581SOL     OW 8641   6.562   6.939   4.664
 2581SOL    HW1 8642   6.571   0.003   4.698
 2581SOL    HW2 8643   6.467   6.921   4.640
 2582SOL     OW 8644   0.181   5.301   2.879
 2582SOL    HW1 8645   0.128   5.355   2.944
 2582SOL    HW2 8646   0.265   5.269   2.922
 2583SOL     OW 8647   1.920   1.016   6.680
 2583SOL    HW1 8648   1.841   0.959   6.659
 2583SOL    HW2 8649   1.991   1.001   6.610
 2584SOL     OW 8650   5.284   7.023   2.148
 2584SOL    HW1 8651   5.298   6.990   2.241
 2584SOL    HW2 8652   5.205   6.977   2.107
 2585SOL     OW 8653   4.383   1.183   1.697
 2585SOL    HW1 8654   4.373   1.282   1.701
 2585SOL    HW2 8655   4.458   1.155   1.757
 2586SOL     OW 8656   6.864   1.873   4.565
 2586SOL    HW1 8657   6.864   1.798   4.499
 2586SOL    HW2 8658   6.829   1.956   4.521
 2587SOL     OW 8659   6.430   6.735   2.386
 2587SOL    HW1 8660   6.467   6.747   2.294
 2587SOL    HW2 8661   6.402   6.824   2.422
 2588SOL     OW 8662   5.110   0.668   1.668
 2588SOL    HW1 8663   5.100   0.576   1.706
 2588SOL    HW2 8664   5.169   0.665   1.588
 2589SOL     OW 8665   5.776   6.268   0.498
 2589SOL    HW1 8666   5.764   6.343   0.433
 2589SOL    HW2 8667   5.755   6.181   0.453
 2590SOL     OW 8668   4.001   6.777   2.729
 2590SOL    HW1 8669   4.052   6.851   2.686
 2590SOL    HW2 8670   4.044   6.753   2.816
 2591SOL     OW 8671   5.646   0.331   1.788
 2591SOL    HW1 8672   5.571   0.376   1.740
 2591SOL    HW2 8673   5.637   0.348   1.886
 2592SOL     OW 8674   3.198   5.109   1.678
 2592SOL    HW1 8675   3.214   5.207   1.691
 2592SOL    HW2 8676   3.166   5.068   1.764
 2593SOL     OW 8677   3.348   6.617   2.848
 2593SOL    HW1 8678   3.414   6.583   2.914
 2593SOL    HW2 8679   3.269   6.555   2.844
 2594SOL     OW 8680   1.284   6.290   6.016
 2594SOL    HW1 8681   1.218   6.312   6.088
 2594SOL    HW2 8682   1.270   6.196   5.985
 2595SOL     OW 8683   6.055   3.453   4.093
 2595SOL    HW1 8684   6.010   3.522   4.150
 2595SOL    HW2 8685   6.146   3.486   4.067
 2596SOL     OW 8686   4.281   2.022   1.757
 2596SOL    HW1 8687   4.183   2.044   1.760
 2596SOL    HW2 8688   4.324   2.070   1.680
 2597SOL     OW 8689   1.788   2.597   6.953
 2597SOL    HW1 8690   1.779   2.696   6.969
 2597SOL    HW2 8691   1.700   2.561   6.922
 2598SOL     OW 8692   5.748   2.713   2.585
 2598SOL    HW1 8693   5.727   2.625   2.542
 2598SOL    HW2 8694   5.669   2.742   2.639
 2599SOL     OW 8695   4.553   3.972   6.886
 2599SOL    HW1 8696   4.603   3.921   6.817
 2599SOL    HW2 8697   4.466   4.005   6.848
 2600SOL     OW 8698   6.699   3.626   3.599
 2600SOL    HW1 8699   6.769   3.633   3.669
 2600SOL    HW2 8700   6.671   3.530   3.589
 2601SOL     OW 8701   3.484   3.342   5.642
 2601SOL    HW1 8702   3.432   3.302   5.717
 2601SOL    HW2 8703   3.581   3.326   5.656
 2602SOL     OW 8704   5.846   5.804   5.670
 2602SOL    HW1 8705   5.930   5.849   5.640
 2602SOL    HW2 8706   5.812   5.745   5.597
 2603SOL     OW 8707   2.462   2.839   0.154
 2603SOL    HW1 8708   2.489   2.918   0.100
 2603SOL    HW2 8709   2.387   2.791   0.108
 2604SOL     OW 8710   5.765   1.222   1.331
 2604SOL    HW1 8711   5.856   1.225   1.373
 2604SOL    HW2 8712   5.727   1.314   1.328
 2605SOL     OW 8713   4.979   4.158   3.691
 2605SOL    HW1 8714   4.901   4.207   3.729
 2605SOL    HW2 8715   5.013   4.091   3.758
 2606SOL     OW 8716   0.069   4.701   1.652
 2606SOL    HW1 8717   0.090   4.798   1.665
 2606SOL    HW2 8718   0.035   4.663   1.738
 2607SOL     OW 8719   0.620   2.096   4.984
 2607SOL    HW1 8720   0.678   2.166   4.942
 2607SOL    HW2 8721   0.533   2.091   4.937
 2608SOL     OW 8722   5.010   0.249   0.772
 2608SOL    HW1 8723   4.939   0.180   0.758
 2608SOL    HW2 8724   4.981   0.336   0.731
 2609SOL     OW 8725   0.423   2.566   4.332
 2609SOL    HW1 8726   0.335   2.595   4.371
 2609SOL    HW2 8727   0.416   2.563   4.233
 2610SOL     OW 8728   5.853   6.084   4.882
 2610SOL    HW1 8729   5.816   6.120   4.797
 2610SOL    HW2 8730   5.803   6.002   4.909
 2611SOL     OW 8731   3.214   6.257   1.939
 2611SOL    HW1 8732   3.254   6.328   1.997
 2611SOL    HW2 8733   3.234   6.278   1.843
 2612SOL     OW 8734   6.291   6.850   4.648
 2612SOL    HW1 8735   6.243   6.890   4.726
 2612SOL    HW2 8736   6.225   6.820   4.580
 2613SOL     OW 8737   3.840   1.043   1.029
 2613SOL    HW1 8738   3.939   1.034   1.021
 2613SOL    HW2 8739   3.814   1.036   1.126
 2614SOL     OW 8740   0.192   5.920   6.314
 2614SOL    HW1 8741   0.197   5.973   6.398
 2614SOL    HW2 8742   0.196   5.982   6.235
 2615SOL     OW 8743   5.620   5.229   1.956
 2615SOL    HW1 8744   5.547   5.183   2.006
 2615SOL    HW2 8745   5.692   5.257   2.020
 2616SOL     OW 8746   3.819   3.392   2.639
 2616SOL    HW1 8747   3.787   3.443   2.559
 2616SOL    HW2 8748   3.916   3.413   2.655
 2617SOL     OW 8749   3.774   0.061   1.513
 2617SOL    HW1 8750   3.750   0.044   1.417
 2617SOL    HW2 8751   3.693   0.045   1.570
 2618SOL     OW 8752   0.918   0.446   0.496
 2618SOL    HW1 8753   0.917   0.426   0.398
 2618SOL    HW2 8754   0.915   0.360   0.548
 2619SOL     OW 8755   5.629   1.452   1.306
 2619SOL    HW1 8756   5.538   1.422   1.275
 2619SOL    HW2 8757   5.668   1.514   1.238
 2620SOL     OW 8758   1.790   4.588   4.607
 2620SOL    HW1 8759   1.788   4.669   4.667
 2620SOL    HW2 8760   1.701   4.576   4.563
 2621SOL     OW 8761   1.574   4.496   4.048
 2621SOL    HW1 8762   1.493   4.448   4.083
 2621SOL    HW2 8763   1.565   4.508   3.949
 2622SOL     OW 8764   2.757   3.143   6.314
 2622SOL    HW1 8765   2.814   3.215   6.276
 2622SOL    HW2 8766   2.750   3.068   6.248
 2623SOL     OW 8767   3.164   1.037   5.995
 2623SOL    HW1 8768   3.081   1.077   6.036
 2623SOL    HW2 8769   3.243   1.063   6.050
 2624SOL     OW 8770   6.562   2.258   4.271
 2624SOL    HW1 8771   6.650   2.270   4.317
 2624SOL    HW2 8772   6.539   2.161   4.269
 2625SOL     OW 8773   4.756   0.541   5.321
 2625SOL    HW1 8774   4.671   0.555   5.270
 2625SOL    HW2 8775   4.771   0.618   5.383
 2626SOL     OW 8776   2.516   6.587   2.246
 2626SOL    HW1 8777   2.612   6.617   2.244
 2626SOL    HW2 8778   2.500   6.531   2.327
 2627SOL     OW 8779   0.218   0.235   4.753
 2627SOL    HW1 8780   0.131   0.279   4.731
 2627SOL    HW2 8781   0.270   0.294   4.815
 2628SOL     OW 8782   3.310   5.743   5.484
 2628SOL    HW1 8783   3.214   5.751   5.458
 2628SOL    HW2 8784   3.317   5.701   5.574
 2629SOL     OW 8785   3.171   4.230   1.310
 2629SOL    HW1 8786   3.074   4.255   1.314
 2629SOL    HW2 8787   3.185   4.145   1.361
 2630SOL     OW 8788   2.770   2.225   2.430
 2630SOL    HW1 8789   2.865   2.195   2.418
 2630SOL    HW2 8790   2.749   2.226   2.528
 2631SOL     OW 8791   4.495   6.775   4.579
 2631SOL    HW1 8792   4.588   6.744   4.562
 2631SOL    HW2 8793   4.431   6.713   4.534
 2632SOL     OW 8794   5.684   1.597   0.751
 2632SOL    HW1 8795   5.597   1.549   0.747
 2632SOL    HW2 8796   5.695   1.638   0.842
 2633SOL     OW 8797   6.730   3.029   6.562
 2633SOL    HW1 8798   6.720   3.000   6.467
 2633SOL    HW2 8799   6.648   3.001   6.613
 2634SOL     OW 8800   2.739   5.545   1.214
 2634SOL    HW1 8801   2.791   5.489   1.149
 2634SOL    HW2 8802   2.652   5.500   1.235
 2635SOL     OW 8803   5.403   4.683   3.491
 2635SOL    HW1 8804   5.358   4.772   3.495
 2635SOL    HW2 8805   5.335   4.611   3.506
 2636SOL     OW 8806   6.119   0.683   5.243
 2636SOL    HW1 8807   6.205   0.721   5.210
 2636SOL    HW2 8808   6.042   0.725   5.195
 2637SOL     OW 8809   4.789   6.542   2.364
 2637SOL    HW1 8810   4.834   6.612   2.309
 2637SOL    HW2 8811   4.720   6.585   2.423
 2638SOL     OW 8812   5.783   5.586   1.272
 2638SOL    HW1 8813   5.697   5.602   1.322
 2638SOL    HW2 8814   5.859   5.625   1.324
 2639SOL     OW 8815   6.824   6.637   0.238
 2639SOL    HW1 8816   6.750   6.650   0.171
 2639SOL    HW2 8817   6.867   6.548   0.223
 2640SOL     OW 8818   6.614   6.871   6.472
 2640SOL    HW1 8819   6.542   6.939   6.464
 2640SOL    HW2 8820   6.623   6.822   6.385
 2641SOL     OW 8821   5.950   5.029   0.547
 2641SOL    HW1 8822   5.891   4.952   0.572
 2641SOL    HW2 8823   5.908   5.114   0.578
 2642SOL     OW 8824   6.433   0.032   3.903
 2642SOL    HW1 8825   6.403   0.038   3.808
 2642SOL    HW2 8826   6.484   6.976   3.916
 2643SOL     OW 8827   0.981   0.504   2.856
 2643SOL    HW1 8828   0.890   0.509   2.898
 2643SOL    HW2 8829   1.002   0.409   2.833
 2644SOL     OW 8830   0.440   5.271   6.196
 2644SOL    HW1 8831   0.429   5.218   6.280
 2644SOL    HW2 8832   0.357   5.323   6.179
 2645SOL     OW 8833   6.078   5.295   5.534
 2645SOL    HW1 8834   6.127   5.309   5.448
 2645SOL    HW2 8835   5.995   5.241   5.517
 2646SOL     OW 8836   6.615   6.223   6.928
 2646SOL    HW1 8837   6.651   6.135   6.959
 2646SOL    HW2 8838   6.550   6.259   6.995
 2647SOL     OW 8839   3.442   2.499   0.739
 2647SOL    HW1 8840   3.533   2.458   0.739
 2647SOL    HW2 8841   3.379   2.441   0.688
 2648SOL     OW 8842   3.229   0.637   2.547
 2648SOL    HW1 8843   3.205   0.701   2.475
 2648SOL    HW2 8844   3.146   0.610   2.596
 2649SOL     OW 8845   3.642   2.559   5.662
 2649SOL    HW1 8846   3.543   2.572   5.654
 2649SOL    HW2 8847   3.664   2.531   5.755
 2650SOL     OW 8848   0.359   6.514   1.797
 2650SOL    HW1 8849   0.410   6.449   1.740
 2650SOL    HW2 8850   0.402   6.604   1.790
 2651SOL     OW 8851   0.926   0.152   3.681
 2651SOL    HW1 8852   0.886   0.236   3.719
 2651SOL    HW2 8853   0.999   0.176   3.617
 2652SOL     OW 8854   3.160   3.418   2.561
 2652SOL    HW1 8855   3.227   3.395   2.490
 2652SOL    HW2 8856   3.206   3.469   2.634
 2653SOL     OW 8857   6.826   5.631   6.262
 2653SOL    HW1 8858   6.766   5.556   6.233
 2653SOL    HW2 8859   6.815   5.647   6.360
 2654SOL     OW 8860   5.440   2.403   6.089
 2654SOL    HW1 8861   5.395   2.485   6.125
 2654SOL    HW2 8862   5.500   2.365   6.160
 2655SOL     OW 8863   5.176   6.007   4.879
 2655SOL    HW1 8864   5.247   6.043   4.940
 2655SOL    HW2 8865   5.086   6.040   4.909
 2656SOL     OW 8866   5.583   3.665   3.839
 2656SOL    HW1 8867   5.634   3.591   3.794
 2656SOL    HW2 8868   5.630   3.690   3.924
 2657SOL     OW 8869   2.396   2.498   5.982
 2657SOL    HW1 8870   2.469   2.437   5.953
 2657SOL    HW2 8871   2.372   2.559   5.906
 2658SOL     OW 8872   5.914   4.413   5.414
 2658SOL    HW1 8873   5.903   4.348   5.489
 2658SOL    HW2 8874   5.994   4.388   5.359
 2659SOL     OW 8875   6.483   2.656   3.205
 2659SOL    HW1 8876   6.422   2.657   3.125
 2659SOL    HW2 8877   6.576   2.633   3.175
 2660SOL     OW 8878   6.622   2.118   3.385
 2660SOL    HW1 8879   6.714   2.143   3.357
 2660SOL    HW2 8880   6.559   2.127   3.308
 2661SOL     OW 8881   4.561   6.118   1.323
 2661SOL    HW1 8882   4.567   6.149   1.228
 2661SOL    HW2 8883   4.526   6.192   1.380
 2662SOL     OW 8884   3.312   6.998   3.824
 2662SOL    HW1 8885   3.281   0.039   3.889
 2662SOL    HW2 8886   3.325   6.911   3.872
 2663SOL     OW 8887   1.040   4.490   2.640
 2663SOL    HW1 8888   1.002   4.499   2.548
 2663SOL    HW2 8889   1.048   4.393   2.664
 2664SOL     OW 8890   4.131   3.596   1.848
 2664SOL    HW1 8891   4.108   3.604   1.945
 2664SOL    HW2 8892   4.143   3.687   1.809
 2665SOL     OW 8893   3.926   1.037   4.503
 2665SOL    HW1 8894   3.852   0.989   4.456
 2665SOL    HW2 8895   3.900   1.132   4.516
 2666SOL     OW 8896   5.507   6.113   1.545
 2666SOL    HW1 8897   5.578   6.082   1.481
 2666SOL    HW2 8898   5.550   6.154   1.625
 2667SOL     OW 8899   1.612   5.125   3.744
 2667SOL    HW1 8900   1.676   5.201   3.731
 2667SOL    HW2 8901   1.543   5.150   3.812
 2668SOL     OW 8902   0.250   2.461   6.084
 2668SOL    HW1 8903   0.252   2.522   6.163
 2668SOL    HW2 8904   0.300   2.503   6.008
 2669SOL     OW 8905   4.508   4.839   5.869
 2669SOL    HW1 8906   4.514   4.746   5.905
 2669SOL    HW2 8907   4.531   4.839   5.772
 2670SOL     OW 8908   1.575   0.494   6.208
 2670SOL    HW1 8909   1.484   0.458   6.228
 2670SOL    HW2 8910   1.641   0.456   6.272
 2671SOL     OW 8911   2.836   3.667   5.665
 2671SOL    HW1 8912   2.922   3.616   5.665
 2671SOL    HW2 8913   2.839   3.737   5.593
 2672SOL     OW 8914   0.421   4.426   0.742
 2672SOL    HW1 8915   0.498   4.366   0.768
 2672SOL    HW2 8916   0.437   4.518   0.778
 2673SOL     OW 8917   4.774   1.908   3.166
 2673SOL    HW1 8918   4.748   2.004   3.150
 2673SOL    HW2 8919   4.696   1.849   3.146
 2674SOL     OW 8920   4.970   5.497   5.499
 2674SOL    HW1 8921   4.999   5.569   5.437
 2674SOL    HW2 8922   4.967   5.532   5.593
 2675SOL     OW 8923   0.486   3.716   5.746
 2675SOL    HW1 8924   0.572   3.679   5.782
 2675SOL    HW2 8925   0.506   3.796   5.690
 2676SOL     OW 8926   4.207   0.190   2.072
 2676SOL    HW1 8927   4.172   0.276   2.037
 2676SOL    HW2 8928   4.215   0.124   1.997
 2677SOL     OW 8929   2.496   4.824   2.217
 2677SOL    HW1 8930   2.430   4.843   2.289
 2677SOL    HW2 8931   2.479   4.884   2.139
 2678SOL     OW 8932   0.433   4.993   6.329
 2678SOL    HW1 8933   0.418   4.943   6.415
 2678SOL    HW2 8934   0.527   5.027   6.327
 2679SOL     OW 8935   2.418   4.340   1.111
 2679SOL    HW1 8936   2.479   4.383   1.177
 2679SOL    HW2 8937   2.340   4.400   1.093
 2680SOL     OW 8938   0.947   2.111   1.837
 2680SOL    HW1 8939   1.014   2.118   1.911
 2680SOL    HW2 8940   0.994   2.110   1.749
 2681SOL     OW 8941   1.118   1.628   2.702
 2681SOL    HW1 8942   1.101   1.534   2.733
 2681SOL    HW2 8943   1.112   1.632   2.602
 2682SOL     OW 8944   6.272   2.499   3.428
 2682SOL    HW1 8945   6.366   2.516   3.397
 2682SOL    HW2 8946   6.211   2.496   3.349
 2683SOL     OW 8947   1.191   0.149   1.585
 2683SOL    HW1 8948   1.137   0.110   1.511
 2683SOL    HW2 8949   1.266   0.203   1.548
 2684SOL     OW 8950   2.781   6.107   3.181
 2684SOL    HW1 8951   2.778   6.158   3.268
 2684SOL    HW2 8952   2.768   6.010   3.200
 2685SOL     OW 8953   5.417   5.599   5.173
 2685SOL    HW1 8954   5.327   5.560   5.153
 2685SOL    HW2 8955   5.446   5.658   5.098
 2686SOL     OW 8956   1.587   2.823   4.091
 2686SOL    HW1 8957   1.661   2.836   4.024
 2686SOL    HW2 8958   1.544   2.734   4.075
 2687SOL     OW 8959   4.978   5.536   3.026
 2687SOL    HW1 8960   4.975   5.436   3.027
 2687SOL    HW2 8961   4.886   5.571   3.011
 2688SOL     OW 8962   3.873   5.244   6.270
 2688SOL    HW1 8963   3.799   5.188   6.233
 2688SOL    HW2 8964   3.956   5.189   6.278
 2689SOL     OW 8965   6.565   3.044   4.456
 2689SOL    HW1 8966   6.582   3.013   4.550
 2689SOL    HW2 8967   6.644   3.022   4.399
 2690SOL     OW 8968   3.214   3.517   3.574
 2690SOL    HW1 8969   3.190   3.424   3.546
 2690SOL    HW2 8970   3.237   3.517   3.671
 2691SOL     OW 8971   1.162   5.951   1.602
 2691SOL    HW1 8972   1.142   6.031   1.659
 2691SOL    HW2 8973   1.126   5.965   1.510
 2692SOL     OW 8974   0.011   6.162   3.277
 2692SOL    HW1 8975   6.975   6.140   3.204
 2692SOL    HW2 8976   0.050   6.253   3.261
 2693SOL     OW 8977   1.635   3.928   3.155
 2693SOL    HW1 8978   1.704   3.879   3.207
 2693SOL    HW2 8979   1.668   3.945   3.062
 2694SOL     OW 8980   2.507   6.902   3.496
 2694SOL    HW1 8981   2.469   6.995   3.503
 2694SOL    HW2 8982   2.492   6.867   3.403
 2695SOL     OW 8983   3.801   2.107   3.187
 2695SOL    HW1 8984   3.756   2.130   3.102
 2695SOL    HW2 8985   3.880   2.167   3.201
 2696SOL     OW 8986   3.939   3.895   5.446
 2696SOL    HW1 8987   3.846   3.888   5.480
 2696SOL    HW2 8988   4.003   3.863   5.515
 2697SOL     OW 8989   2.591   2.108   4.551
 2697SOL    HW1 8990   2.646   2.040   4.599
 2697SOL    HW2 8991   2.530   2.063   4.487
 2698SOL     OW 8992   2.083   3.711   0.133
 2698SOL    HW1 8993   2.159   3.755   0.086
 2698SOL    HW2 8994   2.026   3.662   0.067
 2699SOL     OW 8995   3.950   5.790   1.641
 2699SOL    HW1 8996   3.885   5.737   1.587
 2699SOL    HW2 8997   3.907   5.874   1.673
 2700SOL     OW 8998   1.995   3.639   2.926
 2700SOL    HW1 8999   2.040   3.550   2.923
 2700SOL    HW2 9000   1.896   3.627   2.913
 2701SOL     OW 9001   2.975   6.998   6.314
 2701SOL    HW1 9002   2.937   6.905   6.310
 2701SOL    HW2 9003   3.012   7.022   6.224
 2702SOL     OW 9004   0.129   0.061   2.957
 2702SOL    HW1 9005   0.031   0.052   2.975
 2702SOL    HW2 9006   0.175   7.003   2.973
 2703SOL     OW 9007   1.851   1.228   2.910
 2703SOL    HW1 9008   1.885   1.160   2.975
 2703SOL    HW2 9009   1.755   1.207   2.888
 2704SOL     OW 9010   1.894   5.612   0.499
 2704SOL    HW1 9011   1.920   5.562   0.416
 2704SOL    HW2 9012   1.799   5.641   0.492
 2705SOL     OW 9013   0.570   4.885   2.979
 2705SOL    HW1 9014   0.639   4.870   3.049
 2705SOL    HW2 9015   0.611   4.934   2.902
 2706SOL     OW 9016   0.163   2.011   2.011
 2706SOL    HW1 9017   0.192   2.052   1.925
 2706SOL    HW2 9018   0.063   2.017   2.019
 2707SOL     OW 9019   2.150   1.472   5.665
 2707SOL    HW1 9020   2.247   1.487   5.683
 2707SOL    HW2 9021   2.095   1.527   5.728
 2708SOL     OW 9022   1.886   2.367   1.035
 2708SOL    HW1 9023   1.843   2.326   0.955
 2708SOL    HW2 9024   1.985   2.351   1.031
 2709SOL     OW 9025   4.667   6.468   1.046
 2709SOL    HW1 9026   4.697   6.414   0.968
 2709SOL    HW2 9027   4.728   6.546   1.058
 2710SOL     OW 9028   5.564   4.102   2.600
 2710SOL    HW1 9029   5.486   4.113   2.662
 2710SOL    HW2 9030   5.571   4.007   2.571
 2711SOL     OW 9031   1.358   0.336   2.018
 2711SOL    HW1 9032   1.354   0.246   1.973
 2711SOL    HW2 9033   1.265   0.364   2.044
 2712SOL     OW 9034   3.036   4.698   0.645
 2712SOL    HW1 9035   3.070   4.766   0.709
 2712SOL    HW2 9036   3.040   4.607   0.687
 2713SOL     OW 9037   2.156   3.233   4.968
 2713SOL    HW1 9038   2.223   3.159   4.979
 2713SOL    HW2 9039   2.139   3.248   4.871
 2714SOL     OW 9040   5.070   0.133   5.458
 2714SOL    HW1 9041   5.153   0.078   5.449
 2714SOL    HW2 9042   5.003   0.104   5.390
 2715SOL     OW 9043   6.863   0.786   6.799
 2715SOL    HW1 9044   6.792   0.736   6.748
 2715SOL    HW2 9045   6.918   0.721   6.851
 2716SOL     OW 9046   0.301   6.717   2.484
 2716SOL    HW1 9047   0.209   6.756   2.485
 2716SOL    HW2 9048   0.354   6.757   2.558
 2717SOL     OW 9049   1.174   0.611   3.084
 2717SOL    HW1 9050   1.136   0.689   3.035
 2717SOL    HW2 9051   1.210   0.545   3.019
 2718SOL     OW 9052   1.494   4.609   3.542
 2718SOL    HW1 9053   1.552   4.594   3.622
 2718SOL    HW2 9054   1.524   4.548   3.468
 2719SOL     OW 9055   4.208   5.179   1.818
 2719SOL    HW1 9056   4.139   5.235   1.864
 2719SOL    HW2 9057   4.164   5.123   1.748
 2720SOL     OW 9058   1.115   5.967   4.415
 2720SOL    HW1 9059   1.036   5.908   4.400
 2720SOL    HW2 9060   1.084   6.061   4.430
 2721SOL     OW 9061   4.540   0.312   4.272
 2721SOL    HW1 9062   4.607   0.276   4.208
 2721SOL    HW2 9063   4.510   0.239   4.333
 2722SOL     OW 9064   1.667   5.885   1.843
 2722SOL    HW1 9065   1.589   5.867   1.903
 2722SOL    HW2 9066   1.675   5.811   1.776
 2723SOL     OW 9067   1.196   1.249   4.983
 2723SOL    HW1 9068   1.165   1.168   5.034
 2723SOL    HW2 9069   1.127   1.272   4.914
 2724SOL     OW 9070   3.711   5.612   6.261
 2724SOL    HW1 9071   3.636   5.661   6.306
 2724SOL    HW2 9072   3.728   5.526   6.308
 2725SOL     OW 9073   3.198   5.151   3.047
 2725SOL    HW1 9074   3.260   5.130   3.122
 2725SOL    HW2 9075   3.208   5.082   2.975
 2726SOL     OW 9076   5.077   5.756   1.958
 2726SOL    HW1 9077   5.118   5.818   1.890
 2726SOL    HW2 9078   4.998   5.801   2.000
 2727SOL     OW 9079   2.170   5.210   2.940
 2727SOL    HW1 9080   2.103   5.284   2.948
 2727SOL    HW2 9081   2.216   5.198   3.029
 2728SOL     OW 9082   3.280   0.273   5.928
 2728SOL    HW1 9083   3.211   0.210   5.894
 2728SOL    HW2 9084   3.353   0.222   5.974
 2729SOL     OW 9085   6.157   5.234   2.841
 2729SOL    HW1 9086   6.244   5.276   2.867
 2729SOL    HW2 9087   6.103   5.301   2.790
 2730SOL     OW 9088   2.100   5.034   1.433
 2730SOL    HW1 9089   2.054   4.945   1.427
 2730SOL    HW2 9090   2.087   5.072   1.524
 2731SOL     OW 9091   2.937   3.764   1.694
 2731SOL    HW1 9092   2.951   3.683   1.751
 2731SOL    HW2 9093   2.945   3.846   1.751
 2732SOL     OW 9094   5.846   2.286   3.098
 2732SOL    HW1 9095   5.836   2.246   3.189
 2732SOL    HW2 9096   5.925   2.246   3.052
 2733SOL     OW 9097   1.282   0.508   5.596
 2733SOL    HW1 9098   1.361   0.530   5.538
 2733SOL    HW2 9099   1.312   0.447   5.670
 2734SOL     OW 9100   2.353   5.968   4.221
 2734SOL    HW1 9101   2.302   5.971   4.135
 2734SOL    HW2 9102   2.441   5.923   4.206
 2735SOL     OW 9103   1.787   4.358   2.070
 2735SOL    HW1 9104   1.848   4.286   2.103
 2735SOL    HW2 9105   1.693   4.338   2.097
 2736SOL     OW 9106   4.137   0.299   5.812
 2736SOL    HW1 9107   4.199   0.221   5.819
 2736SOL    HW2 9108   4.155   0.348   5.727
 2737SOL     OW 9109   4.403   3.274   5.796
 2737SOL    HW1 9110   4.487   3.225   5.819
 2737SOL    HW2 9111   4.425   3.371   5.782
 2738SOL     OW 9112   5.587   5.036   3.970
 2738SOL    HW1 9113   5.573   5.007   3.875
 2738SOL    HW2 9114   5.502   5.023   4.022
 2739SOL     OW 9115   6.199   3.487   1.177
 2739SOL    HW1 9116   6.256   3.405   1.178
 2739SOL    HW2 9117   6.161   3.503   1.268
 2740SOL     OW 9118   6.254   2.278   2.857
 2740SOL    HW1 9119   6.211   2.233   2.779
 2740SOL    HW2 9120   6.353   2.279   2.845
 2741SOL     OW 9121   0.859   2.416   6.177
 2741SOL    HW1 9122   0.948   2.375   6.158
 2741SOL    HW2 9123   0.794   2.386   6.108
 2742SOL     OW 9124   1.858   6.644   5.995
 2742SOL    HW1 9125   1.926   6.623   5.925
 2742SOL    HW2 9126   1.817   6.733   5.976
 2743SOL     OW 9127   4.903   4.659   0.699
 2743SOL    HW1 9128   4.979   4.721   0.721
 2743SOL    HW2 9129   4.939   4.578   0.652
 2744SOL     OW 9130   3.954   1.362   6.587
 2744SOL    HW1 9131   3.898   1.286   6.619
 2744SOL    HW2 9132   3.990   1.413   6.665
 2745SOL     OW 9133   2.345   6.011   0.571
 2745SOL    HW1 9134   2.399   5.975   0.646
 2745SOL    HW2 9135   2.254   6.036   0.604
 2746SOL     OW 9136   1.450   1.877   6.426
 2746SOL    HW1 9137   1.453   1.914   6.333
 2746SOL    HW2 9138   1.533   1.904   6.474
 2747SOL     OW 9139   5.077   5.976   4.038
 2747SOL    HW1 9140   5.156   5.983   4.100
 2747SOL    HW2 9141   5.084   6.047   3.968
 2748SOL     OW 9142   4.109   1.430   4.219
 2748SOL    HW1 9143   4.040   1.359   4.221
 2748SOL    HW2 9144   4.135   1.453   4.313
 2749SOL     OW 9145   4.551   5.405   4.224
 2749SOL    HW1 9146   4.565   5.497   4.187
 2749SOL    HW2 9147   4.501   5.349   4.157
 2750SOL     OW 9148   0.676   5.892   1.989
 2750SOL    HW1 9149   0.682   5.859   1.895
 2750SOL    HW2 9150   0.698   5.990   1.992
 2751SOL     OW 9151   1.151   6.834   6.880
 2751SOL    HW1 9152   1.152   6.774   6.959
 2751SOL    HW2 9153   1.245   6.854   6.852
 2752SOL     OW 9154   6.201   6.132   5.624
 2752SOL    HW1 9155   6.298   6.157   5.623
 2752SOL    HW2 9156   6.180   6.085   5.710
 2753SOL     OW 9157   2.882   5.630   5.118
 2753SOL    HW1 9158   2.835   5.710   5.081
 2753SOL    HW2 9159   2.860   5.619   5.215
 2754SOL     OW 9160   1.057   6.200   4.548
 2754SOL    HW1 9161   0.984   6.256   4.587
 2754SOL    HW2 9162   1.120   6.172   4.621
 2755SOL     OW 9163   3.995   6.205   2.315
 2755SOL    HW1 9164   3.987   6.304   2.305
 2755SOL    HW2 9165   4.061   6.184   2.387
 2756SOL     OW 9166   0.454   2.611   5.352
 2756SOL    HW1 9167   0.423   2.592   5.446
 2756SOL    HW2 9168   0.523   2.544   5.326
 2757SOL     OW 9169   4.157   3.420   6.734
 2757SOL    HW1 9170   4.140   3.490   6.802
 2757SOL    HW2 9171   4.180   3.334   6.779
 2758SOL     OW 9172   0.064   6.558   1.817
 2758SOL    HW1 9173   0.143   6.502   1.791
 2758SOL    HW2 9174   0.067   6.644   1.765
 2759SOL     OW 9175   3.532   3.506   5.966
 2759SOL    HW1 9176   3.588   3.434   5.926
 2759SOL    HW2 9177   3.482   3.554   5.894
 2760SOL     OW 9178   5.667   6.223   2.889
 2760SOL    HW1 9179   5.707   6.235   2.980
 2760SOL    HW2 9180   5.735   6.247   2.819
 2761SOL     OW 9181   1.039   2.326   3.404
 2761SOL    HW1 9182   0.940   2.328   3.417
 2761SOL    HW2 9183   1.076   2.418   3.418
 2762SOL     OW 9184   2.742   2.591   0.319
 2762SOL    HW1 9185   2.689   2.512   0.351
 2762SOL    HW2 9186   2.692   2.675   0.338
 2763SOL     OW 9187   6.606   1.814   4.113
 2763SOL    HW1 9188   6.640   1.725   4.083
 2763SOL    HW2 9189   6.683   1.873   4.137
 2764SOL     OW 9190   0.910   2.974   2.299
 2764SOL    HW1 9191   0.892   2.920   2.381
 2764SOL    HW2 9192   0.916   2.914   2.220
 2765SOL     OW 9193   6.358   6.839   6.672
 2765SOL    HW1 9194   6.264   6.841   6.706
 2765SOL    HW2 9195   6.417   6.793   6.738
 2766SOL     OW 9196   4.530   0.127   0.327
 2766SOL    HW1 9197   4.570   0.056   0.384
 2766SOL    HW2 9198   4.583   0.211   0.336
 2767SOL     OW 9199   0.393   5.213   6.636
 2767SOL    HW1 9200   0.317   5.248   6.690
 2767SOL    HW2 9201   0.411   5.118   6.661
 2768SOL     OW 9202   3.646   6.521   1.568
 2768SOL    HW1 9203   3.686   6.604   1.530
 2768SOL    HW2 9204   3.562   6.499   1.519
 2769SOL     OW 9205   0.731   4.597   5.646
 2769SOL    HW1 9206   0.816   4.562   5.607
 2769SOL    HW2 9207   0.723   4.695   5.628
 2770SOL     OW 9208   2.739   6.072   0.928
 2770SOL    HW1 9209   2.712   6.100   0.835
 2770SOL    HW2 9210   2.660   6.033   0.975
 2771SOL     OW 9211   4.645   6.993   4.812
 2771SOL    HW1 9212   4.742   6.985   4.837
 2771SOL    HW2 9213   4.638   7.014   4.715
 2772SOL     OW 9214   4.459   0.833   3.788
 2772SOL    HW1 9215   4.500   0.758   3.840
 2772SOL    HW2 9216   4.456   0.809   3.691
 2773SOL     OW 9217   5.673   2.496   4.958
 2773SOL    HW1 9218   5.582   2.477   4.995
 2773SOL    HW2 9219   5.734   2.520   5.033
 2774SOL     OW 9220   5.911   1.850   4.247
 2774SOL    HW1 9221   5.987   1.801   4.290
 2774SOL    HW2 9222   5.893   1.812   4.157
 2775SOL     OW 9223   0.055   3.631   4.020
 2775SOL    HW1 9224   0.055   3.717   4.070
 2775SOL    HW2 9225   0.145   3.615   3.980
 2776SOL     OW 9226   4.980   5.184   6.017
 2776SOL    HW1 9227   5.050   5.256   6.016
 2776SOL    HW2 9228   5.001   5.119   6.090
 2777SOL     OW 9229   2.458   2.489   6.578
 2777SOL    HW1 9230   2.458   2.501   6.677
 2777SOL    HW2 9231   2.537   2.435   6.550
 2778SOL     OW 9232   2.545   0.517   6.175
 2778SOL    HW1 9233   2.464   0.564   6.139
 2778SOL    HW2 9234   2.584   0.571   6.250
 2779SOL     OW 9235   4.649   0.880   1.316
 2779SOL    HW1 9236   4.600   0.965   1.299
 2779SOL    HW2 9237   4.747   0.894   1.298
 2780SOL     OW 9238   6.808   1.508   5.139
 2780SOL    HW1 9239   6.845   1.520   5.231
 2780SOL    HW2 9240   6.818   1.594   5.088
 2781SOL     OW 9241   5.328   1.204   3.204
 2781SOL    HW1 9242   5.271   1.166   3.277
 2781SOL    HW2 9243   5.423   1.207   3.235
 2782SOL     OW 9244   5.337   0.715   6.407
 2782SOL    HW1 9245   5.339   0.782   6.482
 2782SOL    HW2 9246   5.411   0.736   6.343
 2783SOL     OW 9247   5.766   3.643   1.869
 2783SOL    HW1 9248   5.682   3.593   1.887
 2783SOL    HW2 9249   5.845   3.587   1.895
 2784SOL     OW 9250   0.980   2.773   0.818
 2784SOL    HW1 9251   1.036   2.836   0.765
 2784SOL    HW2 9252   1.039   2.702   0.858
 2785SOL     OW 9253   6.273   3.299   2.312
 2785SOL    HW1 9254   6.296   3.327   2.219
 2785SOL    HW2 9255   6.347   3.242   2.349
 2786SOL     OW 9256   0.650   5.932   6.194
 2786SOL    HW1 9257   0.599   5.991   6.256
 2786SOL    HW2 9258   0.612   5.939   6.102
 2787SOL     OW 9259   6.970   5.325   6.967
 2787SOL    HW1 9260   6.944   5.252   0.001
 2787SOL    HW2 9261   6.899   5.335   6.897
 2788SOL     OW 9262   2.863   0.224   6.404
 2788SOL    HW1 9263   2.921   0.240   6.484
 2788SOL    HW2 9264   2.891   0.139   6.359
 2789SOL     OW 9265   0.874   1.867   5.057
 2789SOL    HW1 9266   0.777   1.873   5.034
 2789SOL    HW2 9267   0.929   1.870   4.974
 2790SOL     OW 9268   1.253   5.457   2.336
 2790SOL    HW1 9269   1.237   5.553   2.355
 2790SOL    HW2 9270   1.191   5.426   2.264
 2791SOL     OW 9271   0.892   3.345   3.291
 2791SOL    HW1 9272   0.851   3.261   3.328
 2791SOL    HW2 9273   0.988   3.350   3.318
 2792SOL     OW 9274   3.433   1.666   5.719
 2792SOL    HW1 9275   3.522   1.645   5.680
 2792SOL    HW2 9276   3.361   1.627   5.662
 2793SOL     OW 9277   3.725   3.786   0.703
 2793SOL    HW1 9278   3.704   3.697   0.743
 2793SOL    HW2 9279   3.808   3.779   0.647
 2794SOL     OW 9280   0.734   2.601   6.967
 2794SOL    HW1 9281   0.781   2.658   0.005
 2794SOL    HW2 9282   0.764   2.506   6.977
 2795SOL     OW 9283   0.977   6.250   1.482
 2795SOL    HW1 9284   0.941   6.332   1.438
 2795SOL    HW2 9285   0.912   6.175   1.471
 2796SOL     OW 9286   1.951   5.869   6.452
 2796SOL    HW1 9287   1.860   5.899   6.421
 2796SOL    HW2 9288   1.964   5.895   6.547
 2797SOL     OW 9289   4.872   4.913   3.501
 2797SOL    HW1 9290   4.928   4.949   3.427
 2797SOL    HW2 9291   4.888   4.966   3.584
 2798SOL     OW 9292   5.402   1.204   1.389
 2798SOL    HW1 9293   5.467   1.137   1.355
 2798SOL    HW2 9294   5.326   1.157   1.434
 2799SOL     OW 9295   3.702   6.565   4.480
 2799SOL    HW1 9296   3.644   6.488   4.505
 2799SOL    HW2 9297   3.710   6.627   4.558
 2800SOL     OW 9298   5.747   0.308   6.128
 2800SOL    HW1 9299   5.756   0.247   6.049
 2800SOL    HW2 9300   5.698   0.391   6.099
 2801SOL     OW 9301   6.880   4.595   4.086
 2801SOL    HW1 9302   6.898   4.683   4.128
 2801SOL    HW2 9303   6.781   4.583   4.075
 2802SOL     OW 9304   1.701   4.920   5.440
 2802SOL    HW1 9305   1.663   4.923   5.533
 2802SOL    HW2 9306   1.799   4.940   5.445
 2803SOL     OW 9307   3.808   2.160   6.016
 2803SOL    HW1 9308   3.824   2.254   5.986
 2803SOL    HW2 9309   3.894   2.119   6.047
 2804SOL     OW 9310   6.913   2.789   4.045
 2804SOL    HW1 9311   6.953   2.702   4.020
 2804SOL    HW2 9312   6.826   2.774   4.093
 2805SOL     OW 9313   3.373   3.129   0.798
 2805SOL    HW1 9314   3.398   3.099   0.890
 2805SOL    HW2 9315   3.275   3.145   0.794
 2806SOL     OW 9316   0.167   3.155   6.065
 2806SOL    HW1 9317   0.100   3.216   6.022
 2806SOL    HW2 9318   0.148   3.061   6.036
 2807SOL     OW 9319   4.100   1.245   3.654
 2807SOL    HW1 9320   4.155   1.164   3.638
 2807SOL    HW2 9321   4.146   1.303   3.723
 2808SOL     OW 9322   0.432   4.765   5.500
 2808SOL    HW1 9323   0.390   4.816   5.425
 2808SOL    HW2 9324   0.439   4.824   5.581
 2809SOL     OW 9325   0.207   5.384   2.067
 2809SOL    HW1 9326   0.186   5.468   2.018
 2809SOL    HW2 9327   0.244   5.406   2.157
 2810SOL     OW 9328   2.258   6.470   3.112
 2810SOL    HW1 9329   2.303   6.539   3.170
 2810SOL    HW2 9330   2.324   6.399   3.088
 2811SOL     OW 9331   0.977   1.049   1.010
 2811SOL    HW1 9332   1.001   1.119   0.943
 2811SOL    HW2 9333   0.900   0.995   0.975
 2812SOL     OW 9334   0.842   1.490   0.855
 2812SOL    HW1 9335   0.917   1.432   0.886
 2812SOL    HW2 9336   0.850   1.506   0.757
 2813SOL     OW 9337   0.711   3.558   1.966
 2813SOL    HW1 9338   0.735   3.601   1.879
 2813SOL    HW2 9339   0.651   3.480   1.949
 2814SOL     OW 9340   2.858   4.199   0.079
 2814SOL    HW1 9341   2.940   4.236   0.035
 2814SOL    HW2 9342   2.885   4.134   0.150
 2815SOL     OW 9343   0.430   4.847   4.683
 2815SOL    HW1 9344   0.433   4.933   4.735
 2815SOL    HW2 9345   0.368   4.857   4.605
 2816SOL     OW 9346   0.600   5.869   5.408
 2816SOL    HW1 9347   0.672   5.904   5.468
 2816SOL    HW2 9348   0.588   5.931   5.330
 2817SOL     OW 9349   3.236   0.772   2.160
 2817SOL    HW1 9350   3.275   0.851   2.209
 2817SOL    HW2 9351   3.139   0.765   2.181
 2818SOL     OW 9352   2.108   0.405   0.680
 2818SOL    HW1 9353   2.030   0.376   0.625
 2818SOL    HW2 9354   2.182   0.436   0.620
 2819SOL     OW 9355   0.948   0.159   6.521
 2819SOL    HW1 9356   1.030   0.177   6.575
 2819SOL    HW2 9357   0.974   0.123   6.432
 2820SOL     OW 9358   1.495   2.228   6.842
 2820SOL    HW1 9359   1.481   2.150   6.904
 2820SOL    HW2 9360   1.533   2.305   6.893
 2821SOL     OW 9361   3.546   3.402   6.210
 2821SOL    HW1 9362   3.535   3.445   6.120
 2821SOL    HW2 9363   3.634   3.429   6.249
 2822SOL     OW 9364   4.746   2.955   6.779
 2822SOL    HW1 9365   4.705   3.006   6.854
 2822SOL    HW2 9366   4.791   3.018   6.716
 2823SOL     OW 9367   4.790   2.860   1.318
 2823SOL    HW1 9368   4.792   2.941   1.377
 2823SOL    HW2 9369   4.813   2.779   1.372
 2824SOL     OW 9370   0.996   4.005   4.478
 2824SOL    HW1 9371   0.973   3.907   4.482
 2824SOL    HW2 9372   1.081   4.021   4.530
 2825SOL     OW 9373   5.253   1.472   6.333
 2825SOL    HW1 9374   5.157   1.462   6.358
 2825SOL    HW2 9375   5.310   1.420   6.397
 2826SOL     OW 9376   2.587   2.809   6.359
 2826SOL    HW1 9377   2.527   2.777   6.432
 2826SOL    HW2 9378   2.682   2.803   6.389
 2827SOL     OW 9379   5.942   1.363   6.399
 2827SOL    HW1 9380   5.956   1.298   6.475
 2827SOL    HW2 9381   5.991   1.330   6.318
 2828SOL     OW 9382   1.596   3.499   1.025
 2828SOL    HW1 9383   1.690   3.524   1.050
 2828SOL    HW2 9384   1.555   3.445   1.099
 2829SOL     OW 9385   3.377   3.517   2.200
 2829SOL    HW1 9386   3.475   3.502   2.214
 2829SOL    HW2 9387   3.350   3.603   2.244
 2830SOL     OW 9388   3.206   6.115   5.047
 2830SOL    HW1 9389   3.190   6.059   4.966
 2830SOL    HW2 9390   3.304   6.126   5.061
 2831SOL     OW 9391   5.832   1.619   1.466
 2831SOL    HW1 9392   5.868   1.532   1.500
 2831SOL    HW2 9393   5.741   1.634   1.504
 2832SOL     OW 9394   0.639   3.866   2.386
 2832SOL    HW1 9395   0.652   3.799   2.314
 2832SOL    HW2 9396   0.584   3.826   2.460
 2833SOL     OW 9397   1.387   2.400   2.346
 2833SOL    HW1 9398   1.479   2.360   2.346
 2833SOL    HW2 9399   1.394   2.499   2.353
 2834SOL     OW 9400   3.661   6.769   4.683
 2834SOL    HW1 9401   3.740   6.811   4.728
 2834SOL    HW2 9402   3.577   6.800   4.727
 2835SOL     OW 9403   6.432   0.571   6.806
 2835SOL    HW1 9404   6.345   0.588   6.852
 2835SOL    HW2 9405   6.505   0.560   6.874
 2836SOL     OW 9406   3.091   6.070   2.578
 2836SOL    HW1 9407   3.139   6.129   2.513
 2836SOL    HW2 9408   3.115   5.974   2.559
 2837SOL     OW 9409   4.967   4.419   1.382
 2837SOL    HW1 9410   5.044   4.359   1.403
 2837SOL    HW2 9411   4.886   4.364   1.362
 2838SOL     OW 9412   6.550   4.355   6.456
 2838SOL    HW1 9413   6.617   4.282   6.444
 2838SOL    HW2 9414   6.464   4.329   6.413
 2839SOL     OW 9415   6.014   3.614   5.173
 2839SOL    HW1 9416   6.019   3.516   5.154
 2839SOL    HW2 9417   5.933   3.653   5.128
 2840SOL     OW 9418   6.778   6.879   4.516
 2840SOL    HW1 9419   6.702   6.884   4.582
 2840SOL    HW2 9420   6.749   6.826   4.436
 2841SOL     OW 9421   5.517   4.116   2.293
 2841SOL    HW1 9422   5.525   4.139   2.390
 2841SOL    HW2 9423   5.466   4.189   2.246
 2842SOL     OW 9424   1.066   0.448   3.794
 2842SOL    HW1 9425   1.158   0.410   3.784
 2842SOL    HW2 9426   1.035   0.486   3.707
 2843SOL     OW 9427   2.197   2.512   3.493
 2843SOL    HW1 9428   2.148   2.570   3.558
 2843SOL    HW2 9429   2.141   2.498   3.412
 2844SOL     OW 9430   5.143   3.627   0.301
 2844SOL    HW1 9431   5.240   3.644   0.283
 2844SOL    HW2 9432   5.126   3.528   0.299
 2845SOL     OW 9433   2.937   1.639   2.084
 2845SOL    HW1 9434   2.948   1.706   2.157
 2845SOL    HW2 9435   3.000   1.563   2.099
 2846SOL     OW 9436   6.846   0.116   6.572
 2846SOL    HW1 9437   6.851   0.142   6.668
 2846SOL    HW2 9438   6.921   0.158   6.521
 2847SOL     OW 9439   4.523   5.031   1.391
 2847SOL    HW1 9440   4.619   5.009   1.409
 2847SOL    HW2 9441   4.465   4.991   1.463
 2848SOL     OW 9442   1.027   4.073   5.425
 2848SOL    HW1 9443   1.127   4.082   5.421
 2848SOL    HW2 9444   1.004   3.984   5.465
 2849SOL     OW 9445   5.496   0.610   2.007
 2849SOL    HW1 9446   5.425   0.541   1.996
 2849SOL    HW2 9447   5.466   0.696   1.965
 2850SOL     OW 9448   1.364   1.063   2.197
 2850SOL    HW1 9449   1.301   1.043   2.123
 2850SOL    HW2 9450   1.346   1.001   2.274
 2851SOL     OW 9451   3.417   3.286   1.520
 2851SOL    HW1 9452   3.496   3.322   1.470
 2851SOL    HW2 9453   3.381   3.357   1.580
 2852SOL     OW 9454   6.747   4.475   5.470
 2852SOL    HW1 9455   6.731   4.376   5.473
 2852SOL    HW2 9456   6.804   4.502   5.548
 2853SOL     OW 9457   0.187   4.120   5.533
 2853SOL    HW1 9458   0.208   4.031   5.492
 2853SOL    HW2 9459   0.115   4.109   5.601
 2854SOL     OW 9460   3.555   0.903   6.034
 2854SOL    HW1 9461   3.480   0.948   6.082
 2854SOL    HW2 9462   3.564   0.809   6.068
 2855SOL     OW 9463   2.441   1.601   4.692
 2855SOL    HW1 9464   2.342   1.614   4.680
 2855SOL    HW2 9465   2.491   1.649   4.621
 2856SOL     OW 9466   0.538   5.750   3.954
 2856SOL    HW1 9467   0.593   5.774   3.875
 2856SOL    HW2 9468   0.444   5.784   3.941
 2857SOL     OW 9469   6.932   4.286   0.831
 2857SOL    HW1 9470   6.998   4.357   0.851
 2857SOL    HW2 9471   6.954   4.204   0.884
 2858SOL     OW 9472   4.297   4.618   2.206
 2858SOL    HW1 9473   4.390   4.611   2.243
 2858SOL    HW2 9474   4.234   4.567   2.265
 2859SOL     OW 9475   5.417   4.970   1.546
 2859SOL    HW1 9476   5.384   4.982   1.452
 2859SOL    HW2 9477   5.355   5.016   1.609
 2860SOL     OW 9478   1.054   0.150   2.515
 2860SOL    HW1 9479   1.005   0.065   2.495
 2860SOL    HW2 9480   1.142   0.150   2.468
 2861SOL     OW 9481   4.593   4.083   5.701
 2861SOL    HW1 9482   4.494   4.085   5.684
 2861SOL    HW2 9483   4.611   4.104   5.797
 2862SOL     OW 9484   4.621   2.702   6.821
 2862SOL    HW1 9485   4.588   2.668   6.909
 2862SOL    HW2 9486   4.655   2.795   6.832
 2863SOL     OW 9487   5.828   1.618   5.045
 2863SOL    HW1 9488   5.782   1.650   5.128
 2863SOL    HW2 9489   5.821   1.519   5.038
 2864SOL     OW 9490   3.492   4.529   0.647
 2864SOL    HW1 9491   3.398   4.500   0.661
 2864SOL    HW2 9492   3.542   4.459   0.596
 2865SOL     OW 9493   5.659   4.990   4.807
 2865SOL    HW1 9494   5.726   5.029   4.870
 2865SOL    HW2 9495   5.652   4.891   4.823
 2866SOL     OW 9496   3.639   4.325   0.510
 2866SOL    HW1 9497   3.731   4.349   0.479
 2866SOL    HW2 9498   3.641   4.237   0.557
 2867SOL     OW 9499   5.698   6.276   2.486
 2867SOL    HW1 9500   5.599   6.290   2.494
 2867SOL    HW2 9501   5.736   6.340   2.420
 2868SOL     OW 9502   0.475   0.099   5.875
 2868SOL    HW1 9503   0.542   0.170   5.852
 2868SOL    HW2 9504   0.398   0.140   5.922
 2869SOL     OW 9505   5.844   5.347   4.130
 2869SOL    HW1 9506   5.893   5.379   4.212
 2869SOL    HW2 9507   5.908   5.342   4.053
 2870SOL     OW 9508   6.720   1.630   1.997
 2870SOL    HW1 9509   6.685   1.538   1.980
 2870SOL    HW2 9510   6.774   1.630   2.081
 2871SOL     OW 9511   4.796   1.271   2.847
 2871SOL    HW1 9512   4.767   1.336   2.776
 2871SOL    HW2 9513   4.732   1.194   2.849
 2872SOL     OW 9514   2.462   1.876   2.532
 2872SOL    HW1 9515   2.481   1.918   2.621
 2872SOL    HW2 9516   2.444   1.948   2.465
 2873SOL     OW 9517   0.661   6.935   1.197
 2873SOL    HW1 9518   0.653   6.837   1.215
 2873SOL    HW2 9519   0.572   6.979   1.211
 2874SOL     OW 9520   2.157   1.305   3.177
 2874SOL    HW1 9521   2.140   1.280   3.272
 2874SOL    HW2 9522   2.146   1.225   3.118
 2875SOL     OW 9523   2.248   6.690   3.347
 2875SOL    HW1 9524   2.242   6.606   3.401
 2875SOL    HW2 9525   2.156   6.721   3.325
 2876SOL     OW 9526   1.621   0.131   1.873
 2876SOL    HW1 9527   1.677   0.146   1.791
 2876SOL    HW2 9528   1.527   0.112   1.845
 2877SOL     OW 9529   1.401   2.438   6.515
 2877SOL    HW1 9530   1.366   2.439   6.422
 2877SOL    HW2 9531   1.386   2.527   6.557
 2878SOL     OW 9532   3.993   3.235   4.178
 2878SOL    HW1 9533   3.969   3.156   4.121
 2878SOL    HW2 9534   3.967   3.216   4.273
 2879SOL     OW 9535   5.373   4.477   0.292
 2879SOL    HW1 9536   5.391   4.575   0.281
 2879SOL    HW2 9537   5.459   4.430   0.312
 2880SOL     OW 9538   2.138   0.874   3.469
 2880SOL    HW1 9539   2.215   0.934   3.490
 2880SOL    HW2 9540   2.167   0.778   3.478
 2881SOL     OW 9541   5.625   6.477   0.361
 2881SOL    HW1 9542   5.590   6.567   0.336
 2881SOL    HW2 9543   5.725   6.476   0.354
 2882SOL     OW 9544   4.638   6.234   0.069
 2882SOL    HW1 9545   4.691   6.227   7.014
 2882SOL    HW2 9546   4.657   6.322   0.113
 2883SOL     OW 9547   5.855   6.672   3.712
 2883SOL    HW1 9548   5.915   6.742   3.752
 2883SOL    HW2 9549   5.799   6.631   3.784
 2884SOL     OW 9550   5.571   5.364   4.155
 2884SOL    HW1 9551   5.515   5.370   4.072
 2884SOL    HW2 9552   5.668   5.362   4.130
 2885SOL     OW 9553   1.045   2.668   3.125
 2885SOL    HW1 9554   1.101   2.586   3.121
 2885SOL    HW2 9555   1.064   2.725   3.045
 2886SOL     OW 9556   2.603   4.066   5.737
 2886SOL    HW1 9557   2.698   4.092   5.751
 2886SOL    HW2 9558   2.596   3.966   5.735
 2887SOL     OW 9559   0.248   5.993   3.018
 2887SOL    HW1 9560   0.325   5.957   2.964
 2887SOL    HW2 9561   0.255   5.960   3.112
 2888SOL     OW 9562   5.917   0.126   6.349
 2888SOL    HW1 9563   5.850   0.105   6.420
 2888SOL    HW2 9564   5.896   0.074   6.266
 2889SOL     OW 9565   3.742   6.238   3.187
 2889SOL    HW1 9566   3.817   6.177   3.209
 2889SOL    HW2 9567   3.655   6.192   3.205
 2890SOL     OW 9568   0.696   2.269   1.378
 2890SOL    HW1 9569   0.627   2.239   1.444
 2890SOL    HW2 9570   0.651   2.325   1.307
 2891SOL     OW 9571   6.828   1.745   5.033
 2891SOL    HW1 9572   6.908   1.805   5.040
 2891SOL    HW2 9573   6.761   1.787   4.971
 2892SOL     OW 9574   5.143   4.126   2.247
 2892SOL    HW1 9575   5.174   4.036   2.276
 2892SOL    HW2 9576   5.202   4.196   2.287
 2893SOL     OW 9577   6.844   5.486   5.153
 2893SOL    HW1 9578   6.844   5.518   5.058
 2893SOL    HW2 9579   6.896   5.549   5.210
 2894SOL     OW 9580   1.950   5.264   2.266
 2894SOL    HW1 9581   1.936   5.339   2.331
 2894SOL    HW2 9582   1.880   5.194   2.281
 2895SOL     OW 9583   4.312   0.091   5.727
 2895SOL    HW1 9584   4.372   0.012   5.716
 2895SOL    HW2 9585   4.283   0.124   5.638
 2896SOL     OW 9586   5.455   0.253   4.535
 2896SOL    HW1 9587   5.428   0.342   4.571
 2896SOL    HW2 9588   5.547   0.231   4.567
 2897SOL     OW 9589   3.982   4.974   3.147
 2897SOL    HW1 9590   3.962   4.901   3.081
 2897SOL    HW2 9591   3.916   4.969   3.223
 2898SOL     OW 9592   5.362   3.061   2.540
 2898SOL    HW1 9593   5.302   3.134   2.508
 2898SOL    HW2 9594   5.318   2.972   2.525
 2899SOL     OW 9595   6.736   3.535   0.874
 2899SOL    HW1 9596   6.642   3.525   0.909
 2899SOL    HW2 9597   6.792   3.580   0.943
 2900SOL     OW 9598   2.283   3.070   5.638
 2900SOL    HW1 9599   2.286   3.170   5.631
 2900SOL    HW2 9600   2.209   3.043   5.699
 2901SOL     OW 9601   0.825   3.715   3.029
 2901SOL    HW1 9602   0.740   3.679   2.990
 2901SOL    HW2 9603   0.834   3.686   3.124
 2902SOL     OW 9604   6.477   6.283   4.033
 2902SOL    HW1 9605   6.386   6.245   4.015
 2902SOL    HW2 9606   6.495   6.278   4.132
 2903SOL     OW 9607   5.097   4.584   0.430
 2903SOL    HW1 9608   5.059   4.492   0.440
 2903SOL    HW2 9609   5.165   4.584   0.357
 2904SOL     OW 9610   2.098   4.176   5.086
 2904SOL    HW1 9611   2.174   4.119   5.053
 2904SOL    HW2 9612   2.108   4.190   5.185
 2905SOL     OW 9613   1.633   6.053   1.416
 2905SOL    HW1 9614   1.655   6.113   1.339
 2905SOL    HW2 9615   1.536   6.029   1.412
 2906SOL     OW 9616   6.083   6.107   4.425
 2906SOL    HW1 9617   5.996   6.058   4.430
 2906SOL    HW2 9618   6.134   6.093   4.510
 2907SOL     OW 9619   0.302   0.851   4.791
 2907SOL    HW1 9620   0.256   0.774   4.837
 2907SOL    HW2 9621   0.392   0.864   4.831
 2908SOL     OW 9622   4.493   6.939   3.105
 2908SOL    HW1 9623   4.426   6.891   3.048
 2908SOL    HW2 9624   4.444   6.994   3.173
 2909SOL     OW 9625   6.927   6.509   1.527
 2909SOL    HW1 9626   6.925   6.430   1.588
 2909SOL    HW2 9627   7.021   6.545   1.523
 2910SOL     OW 9628   0.591   0.561   4.124
 2910SOL    HW1 9629   0.555   0.511   4.203
 2910SOL    HW2 9630   0.515   0.593   4.068
 2911SOL     OW 9631   0.286   4.244   5.295
 2911SOL    HW1 9632   0.363   4.204   5.246
 2911SOL    HW2 9633   0.265   4.189   5.376
 2912SOL     OW 9634   1.357   1.500   1.580
 2912SOL    HW1 9635   1.321   1.567   1.646
 2912SOL    HW2 9636   1.325   1.523   1.488
 2913SOL     OW 9637   3.152   6.429   2.855
 2913SOL    HW1 9638   3.194   6.338   2.858
 2913SOL    HW2 9639   3.100   6.444   2.939
 2914SOL     OW 9640   4.283   5.378   1.013
 2914SOL    HW1 9641   4.298   5.288   0.973
 2914SOL    HW2 9642   4.270   5.369   1.112
 2915SOL     OW 9643   2.828   0.129   3.339
 2915SOL    HW1 9644   2.749   0.096   3.287
 2915SOL    HW2 9645   2.901   0.061   3.335
 2916SOL     OW 9646   1.773   6.394   6.914
 2916SOL    HW1 9647   1.733   6.310   6.949
 2916SOL    HW2 9648   1.850   6.371   6.854
 2917SOL     OW 9649   2.820   6.828   3.732
 2917SOL    HW1 9650   2.833   6.920   3.694
 2917SOL    HW2 9651   2.802   6.764   3.658
 2918SOL     OW 9652   4.817   3.052   1.517
 2918SOL    HW1 9653   4.763   3.135   1.530
 2918SOL    HW2 9654   4.844   3.016   1.606
 2919SOL     OW 9655   0.712   5.712   4.995
 2919SOL    HW1 9656   0.740   5.622   4.962
 2919SOL    HW2 9657   0.792   5.762   5.027
 2920SOL     OW 9658   2.169   2.602   2.800
 2920SOL    HW1 9659   2.170   2.540   2.879
 2920SOL    HW2 9660   2.240   2.574   2.736
 2921SOL     OW 9661   1.060   6.252   3.772
 2921SOL    HW1 9662   1.086   6.310   3.849
 2921SOL    HW2 9663   1.026   6.164   3.807
 2922SOL     OW 9664   3.719   5.831   4.364
 2922SOL    HW1 9665   3.682   5.922   4.346
 2922SOL    HW2 9666   3.810   5.824   4.324
 2923SOL     OW 9667   6.723   5.309   5.308
 2923SOL    HW1 9668   6.703   5.358   5.392
 2923SOL    HW2 9669   6.771   5.370   5.244
 2924SOL     OW 9670   6.131   1.559   6.111
 2924SOL    HW1 9671   6.109   1.591   6.019
 2924SOL    HW2 9672   6.064   1.596   6.176
 2925SOL     OW 9673   5.689   6.718   5.079
 2925SOL    HW1 9674   5.647   6.665   5.005
 2925SOL    HW2 9675   5.618   6.754   5.140
 2926SOL     OW 9676   6.473   2.651   4.458
 2926SOL    HW1 9677   6.441   2.745   4.458
 2926SOL    HW2 9678   6.540   2.638   4.384
 2927SOL     OW 9679   1.183   2.077   1.646
 2927SOL    HW1 9680   1.179   1.999   1.583
 2927SOL    HW2 9681   1.276   2.088   1.680
 2928SOL     OW 9682   6.284   3.279   0.256
 2928SOL    HW1 9683   6.366   3.231   0.288
 2928SOL    HW2 9684   6.247   3.233   0.176
 2929SOL     OW 9685   2.194   2.038   4.102
 2929SOL    HW1 9686   2.288   2.025   4.134
 2929SOL    HW2 9687   2.195   2.083   4.013
 2930SOL     OW 9688   0.556   4.300   4.326
 2930SOL    HW1 9689   0.535   4.204   4.306
 2930SOL    HW2 9690   0.554   4.353   4.241
 2931SOL     OW 9691   5.251   4.230   5.660
 2931SOL    HW1 9692   5.186   4.294   5.699
 2931SOL    HW2 9693   5.289   4.173   5.734
 2932SOL     OW 9694   5.954   4.978   1.472
 2932SOL    HW1 9695   6.011   5.059   1.476
 2932SOL    HW2 9696   6.009   4.897   1.494
 2933SOL     OW 9697   1.071   6.457   6.914
 2933SOL    HW1 9698   1.146   6.412   6.962
 2933SOL    HW2 9699   0.996   6.393   6.902
 2934SOL     OW 9700   3.734   4.521   0.791
 2934SOL    HW1 9701   3.643   4.506   0.751
 2934SOL    HW2 9702   3.764   4.437   0.836
 2935SOL     OW 9703   0.588   2.476   6.496
 2935SOL    HW1 9704   0.685   2.501   6.489
 2935SOL    HW2 9705   0.533   2.545   6.449
 2936SOL     OW 9706   4.657   6.137   1.631
 2936SOL    HW1 9707   4.574   6.092   1.663
 2936SOL    HW2 9708   4.633   6.213   1.570
 2937SOL     OW 9709   5.323   4.373   2.488
 2937SOL    HW1 9710   5.382   4.445   2.526
 2937SOL    HW2 9711   5.345   4.359   2.392
 2938SOL     OW 9712   0.570   5.674   6.280
 2938SOL    HW1 9713   0.584   5.767   6.248
 2938SOL    HW2 9714   0.603   5.609   6.211
 2939SOL     OW 9715   0.281   6.214   1.887
 2939SOL    HW1 9716   0.300   6.310   1.867
 2939SOL    HW2 9717   0.367   6.166   1.904
 2940SOL     OW 9718   4.350   6.900   3.984
 2940SOL    HW1 9719   4.310   6.928   4.071
 2940SOL    HW2 9720   4.298   6.941   3.909
 2941SOL     OW 9721   2.092   4.874   3.128
 2941SOL    HW1 9722   2.160   4.803   3.110
 2941SOL    HW2 9723   2.020   4.836   3.187
 2942SOL     OW 9724   3.391   1.828   1.321
 2942SOL    HW1 9725   3.469   1.779   1.360
 2942SOL    HW2 9726   3.425   1.899   1.259
 2943SOL     OW 9727   5.918   4.030   2.783
 2943SOL    HW1 9728   5.866   4.107   2.745
 2943SOL    HW2 9729   5.903   3.949   2.727
 2944SOL     OW 9730   1.665   5.556   2.236
 2944SOL    HW1 9731   1.754   5.517   2.258
 2944SOL    HW2 9732   1.594   5.513   2.293
 2945SOL     OW 9733   4.523   4.414   0.727
 2945SOL    HW1 9734   4.545   4.512   0.720
 2945SOL    HW2 9735   4.467   4.387   0.648
 2946SOL     OW 9736   3.877   3.604   5.070
 2946SOL    HW1 9737   3.792   3.654   5.051
 2946SOL    HW2 9738   3.955   3.665   5.053
 2947SOL     OW 9739   6.625   5.867   1.068
 2947SOL    HW1 9740   6.658   5.793   1.127
 2947SOL    HW2 9741   6.584   5.939   1.124
 2948SOL     OW 9742   0.284   3.487   2.718
 2948SOL    HW1 9743   0.247   3.579   2.716
 2948SOL    HW2 9744   0.384   3.490   2.708
 2949SOL     OW 9745   1.702   6.380   0.592
 2949SOL    HW1 9746   1.784   6.380   0.650
 2949SOL    HW2 9747   1.669   6.474   0.582
 2950SOL     OW 9748   6.180   5.692   2.456
 2950SOL    HW1 9749   6.206   5.612   2.401
 2950SOL    HW2 9750   6.223   5.774   2.418
 2951SOL     OW 9751   6.946   1.276   1.970
 2951SOL    HW1 9752   7.003   1.248   1.893
 2951SOL    HW2 9753   6.851   1.285   1.939
 2952SOL     OW 9754   6.934   1.547   5.389
 2952SOL    HW1 9755   7.003   1.582   5.326
 2952SOL    HW2 9756   6.972   1.543   5.481
 2953SOL     OW 9757   1.471   4.895   3.568
 2953SOL    HW1 9758   1.494   4.798   3.580
 2953SOL    HW2 9759   1.543   4.952   3.607
 2954SOL     OW 9760   0.210   4.233   6.283
 2954SOL    HW1 9761   0.280   4.167   6.256
 2954SOL    HW2 9762   0.164   4.200   6.365
 2955SOL     OW 9763   1.716   4.708   5.981
 2955SOL    HW1 9764   1.713   4.796   5.933
 2955SOL    HW2 9765   1.808   4.694   6.018
 2956SOL     OW 9766   5.387   4.660   3.906
 2956SOL    HW1 9767   5.479   4.629   3.881
 2956SOL    HW2 9768   5.355   4.608   3.985
 2957SOL     OW 9769   2.494   5.418   1.217
 2957SOL    HW1 9770   2.400   5.442   1.190
 2957SOL    HW2 9771   2.496   5.323   1.248
 2958SOL     OW 9772   2.174   4.599   2.734
 2958SOL    HW1 9773   2.190   4.696   2.756
 2958SOL    HW2 9774   2.080   4.588   2.700
 2959SOL     OW 9775   0.041   3.998   3.209
 2959SOL    HW1 9776   0.078   3.908   3.232
 2959SOL    HW2 9777   0.065   4.063   3.281
 2960SOL     OW 9778   5.022   0.058   1.023
 2960SOL    HW1 9779   5.071   0.040   1.108
 2960SOL    HW2 9780   5.065   0.135   0.976
 2961SOL     OW 9781   5.935   3.191   2.022
 2961SOL    HW1 9782   6.000   3.126   2.060
 2961SOL    HW2 9783   5.951   3.281   2.063
 2962SOL     OW 9784   0.202   0.641   3.643
 2962SOL    HW1 9785   0.204   0.725   3.590
 2962SOL    HW2 9786   0.112   0.599   3.637
 2963SOL     OW 9787   1.515   0.495   4.904
 2963SOL    HW1 9788   1.524   0.421   4.972
 2963SOL    HW2 9789   1.524   0.583   4.950
 2964SOL     OW 9790   1.647   0.970   6.429
 2964SOL    HW1 9791   1.714   1.013   6.369
 2964SOL    HW2 9792   1.557   1.011   6.414
 2965SOL     OW 9793   6.712   6.643   5.472
 2965SOL    HW1 9794   6.671   6.734   5.480
 2965SOL    HW2 9795   6.768   6.639   5.389
 2966SOL     OW 9796   2.617   5.768   2.161
 2966SOL    HW1 9797   2.577   5.860   2.159
 2966SOL    HW2 9798   2.714   5.773   2.137
 2967SOL     OW 9799   5.394   0.304   4.889
 2967SOL    HW1 9800   5.479   0.280   4.934
 2967SOL    HW2 9801   5.319   0.303   4.955
 2968SOL     OW 9802   1.078   3.671   1.307
 2968SOL    HW1 9803   1.115   3.734   1.376
 2968SOL    HW2 9804   0.981   3.655   1.325
 2969SOL     OW 9805   4.804   3.096   5.264
 2969SOL    HW1 9806   4.727   3.035   5.282
 2969SOL    HW2 9807   4.780   3.189   5.294
 2970SOL     OW 9808   2.615   2.407   5.516
 2970SOL    HW1 9809   2.672   2.448   5.587
 2970SOL    HW2 9810   2.645   2.439   5.427
 2971SOL     OW 9811   5.235   2.833   6.028
 2971SOL    HW1 9812   5.226   2.739   5.996
 2971SOL    HW2 9813   5.256   2.892   5.950
 2972SOL     OW 9814   6.841   5.078   6.410
 2972SOL    HW1 9815   6.778   5.067   6.488
 2972SOL    HW2 9816   6.841   5.174   6.382
 2973SOL     OW 9817   4.774   1.179   3.898
 2973SOL    HW1 9818   4.720   1.229   3.965
 2973SOL    HW2 9819   4.733   1.190   3.807
 2974SOL     OW 9820   4.375   6.811   1.997
 2974SOL    HW1 9821   4.435   6.832   2.074
 2974SOL    HW2 9822   4.384   6.714   1.973
 2975SOL     OW 9823   5.217   3.433   4.427
 2975SOL    HW1 9824   5.268   3.348   4.412
 2975SOL    HW2 9825   5.265   3.488   4.495
 2976SOL     OW 9826   4.283   0.876   2.107
 2976SOL    HW1 9827   4.285   0.965   2.061
 2976SOL    HW2 9828   4.375   0.854   2.141
 2977SOL     OW 9829   0.978   0.527   1.839
 2977SOL    HW1 9830   0.881   0.507   1.855
 2977SOL    HW2 9831   0.987   0.618   1.800
 2978SOL     OW 9832   4.402   5.471   6.773
 2978SOL    HW1 9833   4.392   5.571   6.775
 2978SOL    HW2 9834   4.500   5.448   6.772
 2979SOL     OW 9835   2.906   1.005   4.757
 2979SOL    HW1 9836   2.826   1.065   4.754
 2979SOL    HW2 9837   2.942   1.001   4.850
 2980SOL     OW 9838   3.238   3.657   4.421
 2980SOL    HW1 9839   3.145   3.673   4.452
 2980SOL    HW2 9840   3.246   3.684   4.325
 2981SOL     OW 9841   2.459   0.513   1.325
 2981SOL    HW1 9842   2.444   0.601   1.372
 2981SOL    HW2 9843   2.389   0.448   1.356
 2982SOL     OW 9844   2.006   0.422   0.941
 2982SOL    HW1 9845   2.048   0.416   0.851
 2982SOL    HW2 9846   2.002   0.518   0.970
 2983SOL     OW 9847   6.219   2.952   5.733
 2983SOL    HW1 9848   6.196   2.860   5.703
 2983SOL    HW2 9849   6.186   3.018   5.666
 2984SOL     OW 9850   0.307   5.837   1.582
 2984SOL    HW1 9851   0.350   5.760   1.629
 2984SOL    HW2 9852   0.377   5.893   1.537
 2985SOL     OW 9853   6.304   0.355   5.978
 2985SOL    HW1 9854   6.306   0.448   6.016
 2985SOL    HW2 9855   6.397   0.319   5.973
 2986SOL     OW 9856   3.642   3.418   2.211
 2986SOL    HW1 9857   3.727   3.440   2.164
 2986SOL    HW2 9858   3.630   3.319   2.213
 2987SOL     OW 9859   2.203   5.824   5.429
 2987SOL    HW1 9860   2.224   5.803   5.524
 2987SOL    HW2 9861   2.218   5.921   5.412
 2988SOL     OW 9862   0.036   1.703   6.422
 2988SOL    HW1 9863   0.044   1.630   6.354
 2988SOL    HW2 9864   6.970   1.710   6.452
 2989SOL     OW 9865   5.339   3.081   4.844
 2989SOL    HW1 9866   5.383   3.115   4.927
 2989SOL    HW2 9867   5.267   3.144   4.816
 2990SOL     OW 9868   5.388   2.181   4.429
 2990SOL    HW1 9869   5.412   2.270   4.390
 2990SOL    HW2 9870   5.351   2.193   4.521
 2991SOL     OW 9871   0.166   3.321   0.255
 2991SOL    HW1 9872   0.206   3.279   0.336
 2991SOL    HW2 9873   0.110   3.253   0.206
 2992SOL     OW 9874   0.613   3.704   4.971
 2992SOL    HW1 9875   0.663   3.742   5.049
 2992SOL    HW2 9876   0.670   3.636   4.925
 2993SOL     OW 9877   1.976   3.970   0.744
 2993SOL    HW1 9878   1.883   3.947   0.773
 2993SOL    HW2 9879   2.007   3.902   0.677
 2994SOL     OW 9880   3.416   6.035   5.630
 2994SOL    HW1 9881   3.342   6.045   5.697
 2994SOL    HW2 9882   3.401   5.952   5.576
 2995SOL     OW 9883   4.394   0.407   1.190
 2995SOL    HW1 9884   4.418   0.315   1.222
 2995SOL    HW2 9885   4.393   0.470   1.268
 2996SOL     OW 9886   6.872   0.521   4.025
 2996SOL    HW1 9887   6.906   0.591   4.088
 2996SOL    HW2 9888   6.835   0.444   4.077
 2997SOL     OW 9889   5.342   6.537   4.363
 2997SOL    HW1 9890   5.403   6.609   4.332
 2997SOL    HW2 9891   5.394   6.452   4.377
 2998SOL     OW 9892   2.871   0.781   1.574
 2998SOL    HW1 9893   2.797   0.759   1.636
 2998SOL    HW2 9894   2.929   0.852   1.614
 2999SOL     OW 9895   2.605   4.899   0.854
 2999SOL    HW1 9896   2.539   4.832   0.820
 2999SOL    HW2 9897   2.660   4.857   0.927
 3000SOL     OW 9898   2.745   4.154   5.502
 3000SOL    HW1 9899   2.670   4.131   5.563
 3000SOL    HW2 9900   2.723   4.125   5.409
 3001SOL     OW 9901   5.658   0.878   6.614
 3001SOL    HW1 9902   5.622   0.956   6.666
 3001SOL    HW2 9903   5.615   0.794   6.647
 3002SOL     OW 9904   1.591   1.826   1.759
 3002SOL    HW1 9905   1.672   1.865   1.801
 3002SOL    HW2 9906   1.562   1.745   1.811
 3003SOL     OW 9907   1.905   6.682   0.159
 3003SOL    HW1 9908   1.849   6.655   0.237
 3003SOL    HW2 9909   1.991   6.720   0.191
 3004SOL     OW 9910   2.820   6.495   3.782
 3004SOL    HW1 9911   2.774   6.435   3.847
 3004SOL    HW2 9912   2.864   6.570   3.831
 3005SOL     OW 9913   1.370   2.263   0.358
 3005SOL    HW1 9914   1.360   2.229   0.265
 3005SOL    HW2 9915   1.300   2.221   0.416
 3006SOL     OW 9916   5.118   1.453   5.914
 3006SOL    HW1 9917   5.041   1.515   5.900
 3006SOL    HW2 9918   5.090   1.360   5.890
 3007SOL     OW 9919   6.309   5.517   6.639
 3007SOL    HW1 9920   6.253   5.442   6.674
 3007SOL    HW2 9921   6.312   5.512   6.539
 3008SOL     OW 9922   4.320   3.613   5.513
 3008SOL    HW1 9923   4.410   3.655   5.504
 3008SOL    HW2 9924   4.325   3.518   5.484
 3009SOL     OW 9925   6.603   3.466   2.218
 3009SOL    HW1 9926   6.594   3.460   2.318
 3009SOL    HW2 9927   6.686   3.517   2.195
 3010SOL     OW 9928   4.385   5.555   1.471
 3010SOL    HW1 9929   4.383   5.458   1.450
 3010SOL    HW2 9930   4.329   5.605   1.405
 3011SOL     OW 9931   6.753   0.585   0.614
 3011SOL    HW1 9932   6.737   0.487   0.625
 3011SOL    HW2 9933   6.837   0.599   0.561
 3012SOL     OW 9934   2.044   2.134   4.721
 3012SOL    HW1 9935   2.122   2.141   4.783
 3012SOL    HW2 9936   2.077   2.129   4.627
 3013SOL     OW 9937   6.710   4.937   5.180
 3013SOL    HW1 9938   6.745   4.865   5.240
 3013SOL    HW2 9939   6.639   4.899   5.121
 3014SOL     OW 9940   5.586   0.520   6.380
 3014SOL    HW1 9941   5.516   0.448   6.377
 3014SOL    HW2 9942   5.587   0.561   6.471
 3015SOL     OW 9943   1.310   0.886   6.328
 3015SOL    HW1 9944   1.338   0.980   6.345
 3015SOL    HW2 9945   1.379   0.840   6.273
 3016SOL     OW 9946   2.295   6.584   4.255
 3016SOL    HW1 9947   2.235   6.571   4.334
 3016SOL    HW2 9948   2.330   6.678   4.256
 3017SOL     OW 9949   1.288   5.417   6.935
 3017SOL    HW1 9950   1.286   5.466   6.847
 3017SOL    HW2 9951   1.369   5.359   6.938
 3018SOL     OW 9952   3.547   0.808   1.565
 3018SOL    HW1 9953   3.509   0.723   1.528
 3018SOL    HW2 9954   3.485   0.845   1.634
 3019SOL     OW 9955   1.763   0.441   5.755
 3019SOL    HW1 9956   1.794   0.373   5.689
 3019SOL    HW2 9957   1.815   0.525   5.743
 3020SOL     OW 9958   6.413   4.409   6.946
 3020SOL    HW1 9959   6.363   4.438   6.865
 3020SOL    HW2 9960   6.350   4.395   7.022
 3021SOL     OW 9961   3.903   0.594   4.491
 3021SOL    HW1 9962   3.845   0.642   4.557
 3021SOL    HW2 9963   3.991   0.572   4.534
 3022SOL     OW 9964   4.264   5.963   3.780
 3022SOL    HW1 9965   4.297   6.036   3.720
 3022SOL    HW2 9966   4.218   5.893   3.726
 3023SOL     OW 9967   5.802   4.621   4.172
 3023SOL    HW1 9968   5.864   4.679   4.225
 3023SOL    HW2 9969   5.708   4.651   4.186
 3024SOL     OW 9970   0.387   0.946   0.640
 3024SOL    HW1 9971   0.388   1.030   0.586
 3024SOL    HW2 9972   0.480   0.921   0.666
 3025SOL     OW 9973   4.186   5.711   6.981
 3025SOL    HW1 9974   4.183   5.811   6.975
 3025SOL    HW2 9975   4.274   5.683   7.020
 3026SOL     OW 9976   0.220   0.674   1.969
 3026SOL    HW1 9977   0.260   0.709   2.054
 3026SOL    HW2 9978   0.202   0.577   1.979
 3027SOL     OW 9979   4.296   0.678   0.330
 3027SOL    HW1 9980   4.391   0.649   0.316
 3027SOL    HW2 9981   4.234   0.609   0.293
 3028SOL     OW 9982   3.143   3.232   5.625
 3028SOL    HW1 9983   3.197   3.269   5.701
 3028SOL    HW2 9984   3.182   3.262   5.538
 3029SOL     OW 9985   6.672   3.394   4.701
 3029SOL    HW1 9986   6.669   3.411   4.799
 3029SOL    HW2 9987   6.663   3.295   4.684
 3030SOL     OW 9988   2.362   2.565   6.325
 3030SOL    HW1 9989   2.368   2.532   6.419
 3030SOL    HW2 9990   2.387   2.491   6.262
 3031SOL     OW 9991   1.259   5.517   1.066
 3031SOL    HW1 9992   1.255   5.602   1.013
 3031SOL    HW2 9993   1.352   5.503   1.099
 3032SOL     OW 9994   2.433   6.835   3.234
 3032SOL    HW1 9995   2.492   6.762   3.198
 3032SOL    HW2 9996   2.352   6.795   3.277
 3033SOL     OW 9997   0.945   1.639   5.497
 3033SOL    HW1 9998   0.858   1.596   5.519
 3033SOL    HW2 9999   0.930   1.714   5.433
 3034SOL     OW10000   6.213   4.179   3.345
 3034SOL    HW110001   6.245   4.091   3.309
 3034SOL    HW210002   6.292   4.234   3.372
 3035SOL     OW10003   0.688   3.360   0.366
 3035SOL    HW110004   0.759   3.354   0.295
 3035SOL    HW210005   0.599   3.343   0.326
 3036SOL     OW10006   3.075   2.028   5.403
 3036SOL    HW110007   3.130   1.984   5.332
 3036SOL    HW210008   3.026   2.106   5.363
 3037SOL     OW10009   0.756   5.876   6.450
 3037SOL    HW110010   0.842   5.905   6.492
 3037SOL    HW210011   0.763   5.885   6.351
 3038SOL     OW10012   5.913   5.081   6.068
 3038SOL    HW110013   5.965   5.125   6.141
 3038SOL    HW210014   5.974   5.050   5.996
 3039SOL     OW10015   6.734   3.708   6.287
 3039SOL    HW110016   6.721   3.802   6.256
 3039SOL    HW210017   6.645   3.662   6.290
 3040SOL     OW10018   5.760   5.248   6.886
 3040SOL    HW110019   5.696   5.282   6.956
 3040SOL    HW210020   5.708   5.218   6.806
 3041SOL     OW10021   1.400   4.494   5.712
 3041SOL    HW110022   1.308   4.468   5.741
 3041SOL    HW210023   1.402   4.592   5.691
 3042SOL     OW10024   0.566   4.666   4.508
 3042SOL    HW110025   0.507   4.730   4.558
 3042SOL    HW210026   0.530   4.573   4.517
 3043SOL     OW10027   2.555   5.762   1.196
 3043SOL    HW110028   2.466   5.736   1.234
 3043SOL    HW210029   2.615   5.681   1.193
 3044SOL     OW10030   4.023   3.960   4.706
 3044SOL    HW110031   3.960   4.022   4.754
 3044SOL    HW210032   4.102   4.011   4.674
 3045SOL     OW10033   4.571   2.095   1.830
 3045SOL    HW110034   4.497   2.083   1.896
 3045SOL    HW210035   4.651   2.044   1.861
 3046SOL     OW10036   5.086   6.639   1.014
 3046SOL    HW110037   4.993   6.666   1.037
 3046SOL    HW210038   5.145   6.652   1.095
 3047SOL     OW10039   5.935   1.269   4.688
 3047SOL    HW110040   5.957   1.229   4.599
 3047SOL    HW210041   5.973   1.361   4.694
 3048SOL     OW10042   3.741   5.076   1.336
 3048SOL    HW110043   3.682   5.049   1.412
 3048SOL    HW210044   3.774   4.994   1.289
 3049SOL     OW10045   0.909   1.701   2.308
 3049SOL    HW110046   0.867   1.758   2.237
 3049SOL    HW210047   0.841   1.681   2.379
 3050SOL     OW10048   3.463   2.320   6.452
 3050SOL    HW110049   3.378   2.372   6.466
 3050SOL    HW210050   3.496   2.335   6.359
 3051SOL     OW10051   2.658   5.353   5.472
 3051SOL    HW110052   2.734   5.290   5.490
 3051SOL    HW210053   2.600   5.358   5.554
 3052SOL     OW10054   6.947   6.907   2.433
 3052SOL    HW110055   6.958   6.808   2.439
 3052SOL    HW210056   0.006   6.952   2.447
 3053SOL     OW10057   0.818   4.168   0.622
 3053SOL    HW110058   0.868   4.102   0.566
 3053SOL    HW210059   0.801   4.251   0.568
 3054SOL     OW10060   5.048   0.776   2.693
 3054SOL    HW110061   5.129   0.730   2.728
 3054SOL    HW210062   5.003   0.825   2.768
 3055SOL     OW10063   5.869   6.245   0.046
 3055SOL    HW110064   5.790   6.186   0.027
 3055SOL    HW210065   5.851   6.337   0.012
 3056SOL     OW10066   3.933   1.526   5.986
 3056SOL    HW110067   3.941   1.521   5.887
 3056SOL    HW210068   4.023   1.522   6.028
 3057SOL     OW10069   5.226   4.059   2.905
 3057SOL    HW110070   5.302   3.995   2.915
 3057SOL    HW210071   5.217   4.085   2.809
 3058SOL     OW10072   0.418   4.402   5.965
 3058SOL    HW110073   0.346   4.347   5.923
 3058SOL    HW210074   0.385   4.494   5.983
 3059SOL     OW10075   1.223   1.919   2.788
 3059SOL    HW110076   1.177   1.946   2.872
 3059SOL    HW210077   1.176   1.840   2.748
 3060SOL     OW10078   5.584   4.177   4.034
 3060SOL    HW110079   5.659   4.214   3.980
 3060SOL    HW210080   5.586   4.217   4.125
 3061SOL     OW10081   5.798   0.427   3.840
 3061SOL    HW110082   5.779   0.370   3.920
 3061SOL    HW210083   5.850   0.375   3.773
 3062SOL     OW10084   4.132   4.326   1.077
 3062SOL    HW110085   4.220   4.346   1.034
 3062SOL    HW210086   4.060   4.376   1.029
 3063SOL     OW10087   0.335   4.935   2.603
 3063SOL    HW110088   0.264   4.927   2.672
 3063SOL    HW210089   0.359   4.845   2.568
 3064SOL     OW10090   5.110   2.438   6.786
 3064SOL    HW110091   5.012   2.433   6.766
 3064SOL    HW210092   5.162   2.433   6.701
 3065SOL     OW10093   5.763   1.739   6.857
 3065SOL    HW110094   5.758   1.666   6.789
 3065SOL    HW210095   5.842   1.798   6.837
 3066SOL     OW10096   5.586   0.116   5.010
 3066SOL    HW110097   5.682   0.103   4.986
 3066SOL    HW210098   5.529   0.059   4.951
 3067SOL     OW10099   1.190   2.505   5.482
 3067SOL    HW110100   1.123   2.533   5.551
 3067SOL    HW210101   1.274   2.559   5.492
 3068SOL     OW10102   0.007   0.445   0.683
 3068SOL    HW110103   7.012   0.445   0.586
 3068SOL    HW210104   0.001   0.352   0.719
 3069SOL     OW10105   4.959   6.266   4.073
 3069SOL    HW110106   5.053   6.233   4.088
 3069SOL    HW210107   4.957   6.366   4.084
 3070SOL     OW10108   2.310   0.690   0.706
 3070SOL    HW110109   2.409   0.699   0.711
 3070SOL    HW210110   2.286   0.625   0.634
 3071SOL     OW10111   5.802   4.821   5.331
 3071SOL    HW110112   5.725   4.760   5.313
 3071SOL    HW210113   5.772   4.916   5.321
 3072SOL     OW10114   1.838   6.755   6.609
 3072SOL    HW110115   1.864   6.680   6.549
 3072SOL    HW210116   1.779   6.719   6.682
 3073SOL     OW10117   0.694   5.348   1.657
 3073SOL    HW110118   0.664   5.258   1.686
 3073SOL    HW210119   0.657   5.417   1.719
 3074SOL     OW10120   3.153   2.924   1.851
 3074SOL    HW110121   3.239   2.915   1.800
 3074SOL    HW210122   3.098   2.842   1.837
 3075SOL     OW10123   2.956   4.748   1.126
 3075SOL    HW110124   2.957   4.700   1.214
 3075SOL    HW210125   2.983   4.843   1.141
 3076SOL     OW10126   0.906   0.376   5.125
 3076SOL    HW110127   0.920   0.459   5.179
 3076SOL    HW210128   0.909   0.398   5.028
 3077SOL     OW10129   0.240   4.131   2.313
 3077SOL    HW110130   0.153   4.165   2.278
 3077SOL    HW210131   0.301   4.107   2.237
 3078SOL     OW10132   0.069   3.599   1.777
 3078SOL    HW110133   0.005   3.546   1.722
 3078SOL    HW210134   0.119   3.539   1.839
 3079SOL     OW10135   2.236   3.835   5.226
 3079SOL    HW110136   2.306   3.788   5.281
 3079SOL    HW210137   2.273   3.921   5.193
 3080SOL     OW10138   3.754   4.562   1.197
 3080SOL    HW110139   3.716   4.529   1.284
 3080SOL    HW210140   3.680   4.566   1.129
 3081SOL     OW10141   1.485   3.829   0.319
 3081SOL    HW110142   1.395   3.825   0.361
 3081SOL    HW210143   1.554   3.851   0.388
 3082SOL     OW10144   5.355   5.494   4.810
 3082SOL    HW110145   5.365   5.473   4.712
 3082SOL    HW210146   5.340   5.592   4.822
 3083SOL     OW10147   4.016   5.581   2.000
 3083SOL    HW110148   3.943   5.582   2.068
 3083SOL    HW210149   4.024   5.489   1.961
 3084SOL     OW10150   6.984   4.859   3.852
 3084SOL    HW110151   0.035   4.886   3.797
 3084SOL    HW210152   6.920   4.809   3.794
 3085SOL     OW10153   5.902   5.373   0.399
 3085SOL    HW110154   5.847   5.294   0.371
 3085SOL    HW210155   5.984   5.341   0.447
 3086SOL     OW10156   6.393   6.464   6.379
 3086SOL    HW110157   6.416   6.385   6.436
 3086SOL    HW210158   6.333   6.526   6.431
 3087SOL     OW10159   3.767   0.050   2.260
 3087SOL    HW110160   3.831   0.124   2.276
 3087SOL    HW210161   3.695   0.081   2.198
 3088SOL     OW10162   2.041   3.331   5.828
 3088SOL    HW110163   2.040   3.304   5.924
 3088SOL    HW210164   1.999   3.259   5.773
 3089SOL     OW10165   4.647   4.882   6.158
 3089SOL    HW110166   4.577   4.947   6.130
 3089SOL    HW210167   4.653   4.808   6.091
 3090SOL     OW10168   0.190   2.642   2.152
 3090SOL    HW110169   0.208   2.568   2.216
 3090SOL    HW210170   0.274   2.692   2.134
 3091SOL     OW10171   0.568   3.178   0.822
 3091SOL    HW110172   0.585   3.159   0.725
 3091SOL    HW210173   0.605   3.103   0.877
 3092SOL     OW10174   5.819   1.238   1.976
 3092SOL    HW110175   5.789   1.149   2.011
 3092SOL    HW210176   5.917   1.235   1.955
 3093SOL     OW10177   6.461   5.645   0.085
 3093SOL    HW110178   6.523   5.723   0.091
 3093SOL    HW210179   6.440   5.626   7.018
 3094SOL     OW10180   2.096   1.509   0.107
 3094SOL    HW110181   2.124   1.527   0.202
 3094SOL    HW210182   2.051   1.590   0.070
 3095SOL     OW10183   1.962   4.300   5.900
 3095SOL    HW110184   1.988   4.386   5.943
 3095SOL    HW210185   1.897   4.317   5.826
 3096SOL     OW10186   0.698   2.887   4.211
 3096SOL    HW110187   0.602   2.878   4.238
 3096SOL    HW210188   0.711   2.847   4.120
 3097SOL     OW10189   5.463   3.166   5.066
 3097SOL    HW110190   5.519   3.243   5.097
 3097SOL    HW210191   5.371   3.174   5.106
 3098SOL     OW10192   2.136   3.226   3.197
 3098SOL    HW110193   2.050   3.177   3.211
 3098SOL    HW210194   2.128   3.319   3.231
 3099SOL     OW10195   0.385   6.266   4.751
 3099SOL    HW110196   0.296   6.298   4.716
 3099SOL    HW210197   0.410   6.320   4.831
 3100SOL     OW10198   5.590   4.803   1.696
 3100SOL    HW110199   5.534   4.834   1.619
 3100SOL    HW210200   5.569   4.858   1.776
 3101SOL     OW10201   4.633   6.764   4.993
 3101SOL    HW110202   4.606   6.680   4.946
 3101SOL    HW210203   4.644   6.838   4.926
 3102SOL     OW10204   6.540   5.017   2.027
 3102SOL    HW110205   6.457   5.034   1.975
 3102SOL    HW210206   6.614   5.076   1.992
 3103SOL     OW10207   2.888   1.618   1.682
 3103SOL    HW110208   2.890   1.717   1.668
 3103SOL    HW210209   2.968   1.578   1.637
 3104SOL     OW10210   5.285   1.768   4.725
 3104SOL    HW110211   5.224   1.847   4.722
 3104SOL    HW210212   5.271   1.712   4.644
 3105SOL     OW10213   5.949   3.668   6.947
 3105SOL    HW110214   5.909   3.724   7.019
 3105SOL    HW210215   5.876   3.631   6.889
 3106SOL     OW10216   5.255   1.620   5.617
 3106SOL    HW110217   5.239   1.616   5.716
 3106SOL    HW210218   5.167   1.622   5.569
 3107SOL     OW10219   2.769   1.668   5.054
 3107SOL    HW110220   2.706   1.619   4.993
 3107SOL    HW210221   2.787   1.760   5.017
 3108SOL     OW10222   2.433   4.480   3.328
 3108SOL    HW110223   2.521   4.503   3.288
 3108SOL    HW210224   2.374   4.439   3.259
 3109SOL     OW10225   6.767   6.300   4.233
 3109SOL    HW110226   6.688   6.307   4.293
 3109SOL    HW210227   6.748   6.233   4.161
 3110SOL     OW10228   1.119   5.277   2.985
 3110SOL    HW110229   1.050   5.231   2.929
 3110SOL    HW210230   1.200   5.294   2.930
 3111SOL     OW10231   5.619   4.117   3.657
 3111SOL    HW110232   5.673   4.193   3.695
 3111SOL    HW210233   5.528   4.149   3.633
 3112SOL     OW10234   3.537   1.296   6.313
 3112SOL    HW110235   3.504   1.348   6.235
 3112SOL    HW210236   3.524   1.350   6.397
 3113SOL     OW10237   1.868   6.163   3.127
 3113SOL    HW110238   1.815   6.248   3.121
 3113SOL    HW210239   1.908   6.155   3.218
 3114SOL     OW10240   4.270   1.434   6.219
 3114SOL    HW110241   4.211   1.372   6.167
 3114SOL    HW210242   4.244   1.433   6.315
 3115SOL     OW10243   4.765   5.373   5.406
 3115SOL    HW110244   4.813   5.325   5.332
 3115SOL    HW210245   4.824   5.444   5.444
 3116SOL     OW10246   1.088   0.472   0.022
 3116SOL    HW110247   1.080   0.564   0.060
 3116SOL    HW210248   1.154   0.472   6.976
 3117SOL     OW10249   4.653   0.437   6.569
 3117SOL    HW110250   4.713   0.443   6.489
 3117SOL    HW210251   4.709   0.437   6.653
 3118SOL     OW10252   1.386   1.616   3.505
 3118SOL    HW110253   1.340   1.705   3.502
 3118SOL    HW210254   1.450   1.609   3.429
 3119SOL     OW10255   4.786   5.751   4.933
 3119SOL    HW110256   4.735   5.818   4.879
 3119SOL    HW210257   4.724   5.679   4.965
 3120SOL     OW10258   2.364   6.045   6.258
 3120SOL    HW110259   2.365   5.995   6.344
 3120SOL    HW210260   2.296   6.004   6.197
 3121SOL     OW10261   3.723   1.805   4.265
 3121SOL    HW110262   3.783   1.740   4.218
 3121SOL    HW210263   3.648   1.755   4.309
 3122SOL     OW10264   5.112   5.084   5.173
 3122SOL    HW110265   5.192   5.145   5.172
 3122SOL    HW210266   5.029   5.138   5.179
 3123SOL     OW10267   1.307   1.224   3.250
 3123SOL    HW110268   1.386   1.279   3.221
 3123SOL    HW210269   1.279   1.253   3.341
 3124SOL     OW10270   4.772   0.605   4.530
 3124SOL    HW110271   4.784   0.555   4.616
 3124SOL    HW210272   4.679   0.590   4.496
 3125SOL     OW10273   1.648   1.166   5.098
 3125SOL    HW110274   1.741   1.140   5.125
 3125SOL    HW210275   1.639   1.266   5.100
 3126SOL     OW10276   5.242   4.886   5.278
 3126SOL    HW110277   5.166   4.928   5.228
 3126SOL    HW210278   5.254   4.933   5.366
 3127SOL     OW10279   0.068   0.842   5.139
 3127SOL    HW110280   0.115   0.758   5.167
 3127SOL    HW210281   0.106   0.920   5.188
 3128SOL     OW10282   3.294   0.791   0.700
 3128SOL    HW110283   3.331   0.798   0.793
 3128SOL    HW210284   3.198   0.819   0.701
 3129SOL     OW10285   4.351   3.490   0.380
 3129SOL    HW110286   4.280   3.441   0.431
 3129SOL    HW210287   4.332   3.588   0.383
 3130SOL     OW10288   6.844   5.575   1.823
 3130SOL    HW110289   6.786   5.656   1.833
 3130SOL    HW210290   6.788   5.493   1.817
 3131SOL     OW10291   6.367   4.631   2.869
 3131SOL    HW110292   6.423   4.697   2.919
 3131SOL    HW210293   6.319   4.678   2.795
 3132SOL     OW10294   4.544   4.123   0.429
 3132SOL    HW110295   4.615   4.105   0.361
 3132SOL    HW210296   4.535   4.045   0.490
 3133SOL     OW10297   4.785   0.137   4.360
 3133SOL    HW110298   4.756   0.161   4.268
 3133SOL    HW210299   4.842   0.211   4.398
 3134SOL     OW10300   6.056   5.343   2.604
 3134SOL    HW110301   5.963   5.352   2.567
 3134SOL    HW210302   6.121   5.341   2.529
 3135SOL     OW10303   4.022   5.584   6.803
 3135SOL    HW110304   4.088   5.632   6.860
 3135SOL    HW210305   3.998   5.497   6.845
 3136SOL     OW10306   6.628   1.608   3.511
 3136SOL    HW110307   6.537   1.577   3.482
 3136SOL    HW210308   6.648   1.696   3.469
 3137SOL     OW10309   5.816   6.427   6.686
 3137SOL    HW110310   5.807   6.390   6.594
 3137SOL    HW210311   5.734   6.406   6.739
 3138SOL     OW10312   5.967   6.310   4.960
 3138SOL    HW110313   5.941   6.214   4.947
 3138SOL    HW210314   5.998   6.323   5.054
 3139SOL     OW10315   2.932   5.010   1.635
 3139SOL    HW110316   3.017   5.042   1.594
 3139SOL    HW210317   2.859   5.077   1.618
 3140SOL     OW10318   0.209   6.471   7.023
 3140SOL    HW110319   0.192   6.423   0.080
 3140SOL    HW210320   0.305   6.500   7.020
 3141SOL     OW10321   6.551   1.579   6.450
 3141SOL    HW110322   6.529   1.674   6.476
 3141SOL    HW210323   6.638   1.577   6.401
 3142SOL     OW10324   4.324   0.425   3.688
 3142SOL    HW110325   4.293   0.470   3.772
 3142SOL    HW210326   4.330   0.492   3.614
 3143SOL     OW10327   6.501   1.379   0.772
 3143SOL    HW110328   6.474   1.458   0.717
 3143SOL    HW210329   6.449   1.379   0.857
 3144SOL     OW10330   4.109   3.941   0.410
 3144SOL    HW110331   4.177   3.978   0.346
 3144SOL    HW210332   4.023   3.925   0.361
 3145SOL     OW10333   0.503   6.167   0.278
 3145SOL    HW110334   0.546   6.136   0.193
 3145SOL    HW210335   0.521   6.264   0.290
 3146SOL     OW10336   6.450   1.133   4.814
 3146SOL    HW110337   6.468   1.034   4.820
 3146SOL    HW210338   6.381   1.150   4.744
 3147SOL     OW10339   3.751   5.750   0.016
 3147SOL    HW110340   3.735   5.834   0.067
 3147SOL    HW210341   3.806   5.769   6.964
 3148SOL     OW10342   6.462   5.255   1.683
 3148SOL    HW110343   6.372   5.213   1.685
 3148SOL    HW210344   6.514   5.220   1.605
 3149SOL     OW10345   3.261   2.159   7.004
 3149SOL    HW110346   3.203   2.080   6.986
 3149SOL    HW210347   3.263   2.218   6.923
 3150SOL     OW10348   6.351   5.800   5.858
 3150SOL    HW110349   6.444   5.766   5.874
 3150SOL    HW210350   6.289   5.723   5.843
 3151SOL     OW10351   0.143   0.493   5.467
 3151SOL    HW110352   0.183   0.478   5.557
 3151SOL    HW210353   0.210   0.470   5.396
 3152SOL     OW10354   1.359   3.252   5.734
 3152SOL    HW110355   1.301   3.303   5.671
 3152SOL    HW210356   1.361   3.299   5.822
 3153SOL     OW10357   6.208   5.136   1.684
 3153SOL    HW110358   6.153   5.146   1.601
 3153SOL    HW210359   6.162   5.181   1.760
 3154SOL     OW10360   4.343   1.001   6.929
 3154SOL    HW110361   4.314   0.956   6.844
 3154SOL    HW210362   4.291   1.085   6.942
 3155SOL     OW10363   1.024   4.713   0.459
 3155SOL    HW110364   1.058   4.785   0.398
 3155SOL    HW210365   0.924   4.714   0.459
 3156SOL     OW10366   3.653   4.188   1.761
 3156SOL    HW110367   3.711   4.146   1.830
 3156SOL    HW210368   3.566   4.139   1.756
 3157SOL     OW10369   1.069   1.052   5.303
 3157SOL    HW110370   1.168   1.053   5.287
 3157SOL    HW210371   1.039   1.143   5.329
 3158SOL     OW10372   1.552   1.093   5.956
 3158SOL    HW110373   1.574   1.139   6.042
 3158SOL    HW210374   1.594   1.002   5.956
 3159SOL     OW10375   5.709   0.432   6.801
 3159SOL    HW110376   5.781   0.443   6.733
 3159SOL    HW210377   5.748   0.440   6.893
 3160SOL     OW10378   1.562   0.429   5.939
 3160SOL    HW110379   1.637   0.437   5.874
 3160SOL    HW210380   1.598   0.426   6.032
 3161SOL     OW10381   2.065   2.606   1.995
 3161SOL    HW110382   2.081   2.646   1.905
 3161SOL    HW210383   2.146   2.557   2.025
 3162SOL     OW10384   1.774   5.794   1.355
 3162SOL    HW110385   1.811   5.814   1.264
 3162SOL    HW210386   1.727   5.875   1.391
 3163SOL     OW10387   3.907   4.353   0.446
 3163SOL    HW110388   3.978   4.336   0.377
 3163SOL    HW210389   3.936   4.315   0.533
 3164SOL     OW10390   2.566   6.271   3.511
 3164SOL    HW110391   2.538   6.294   3.604
 3164SOL    HW210392   2.514   6.192   3.480
 3165SOL     OW10393   0.800   6.825   6.582
 3165SOL    HW110394   0.760   6.738   6.610
 3165SOL    HW210395   0.817   6.881   6.663
 3166SOL     OW10396   5.244   1.075   5.084
 3166SOL    HW110397   5.252   1.107   4.989
 3166SOL    HW210398   5.283   1.144   5.145
 3167SOL     OW10399   5.293   3.064   0.578
 3167SOL    HW110400   5.306   3.163   0.588
 3167SOL    HW210401   5.212   3.035   0.628
 3168SOL     OW10402   4.655   1.922   0.509
 3168SOL    HW110403   4.711   2.004   0.495
 3168SOL    HW210404   4.687   1.848   0.450
 3169SOL     OW10405   2.487   4.408   1.923
 3169SOL    HW110406   2.543   4.443   1.848
 3169SOL    HW210407   2.507   4.460   2.006
 3170SOL     OW10408   2.095   3.511   3.537
 3170SOL    HW110409   2.110   3.545   3.629
 3170SOL    HW210410   2.022   3.564   3.494
 3171SOL     OW10411   5.840   2.273   3.637
 3171SOL    HW110412   5.882   2.364   3.633
 3171SOL    HW210413   5.740   2.283   3.643
 3172SOL     OW10414   5.744   3.665   1.588
 3172SOL    HW110415   5.645   3.676   1.580
 3172SOL    HW210416   5.770   3.669   1.684
 3173SOL     OW10417   4.519   3.396   0.158
 3173SOL    HW110418   4.602   3.342   0.174
 3173SOL    HW210419   4.482   3.427   0.246
 3174SOL     OW10420   2.999   3.244   6.541
 3174SOL    HW110421   2.996   3.158   6.489
 3174SOL    HW210422   3.034   3.225   6.633
 3175SOL     OW10423   5.384   0.863   5.165
 3175SOL    HW110424   5.322   0.930   5.124
 3175SOL    HW210425   5.375   0.776   5.117
 3176SOL     OW10426   0.760   4.721   4.318
 3176SOL    HW110427   0.669   4.735   4.357
 3176SOL    HW210428   0.818   4.673   4.384
 3177SOL     OW10429   5.323   3.967   3.649
 3177SOL    HW110430   5.350   3.991   3.743
 3177SOL    HW210431   5.327   4.049   3.592
 3178SOL     OW10432   6.596   1.038   2.180
 3178SOL    HW110433   6.544   0.972   2.126
 3178SOL    HW210434   6.672   1.074   2.125
 3179SOL     OW10435   1.385   2.380   1.814
 3179SOL    HW110436   1.385   2.280   1.823
 3179SOL    HW210437   1.296   2.410   1.781
 3180SOL     OW10438   0.258   5.823   0.313
 3180SOL    HW110439   0.247   5.744   0.374
 3180SOL    HW210440   0.324   5.887   0.354
 3181SOL     OW10441   1.820   6.736   4.959
 3181SOL    HW110442   1.833   6.819   5.014
 3181SOL    HW210443   1.893   6.671   4.979
 3182SOL     OW10444   2.187   1.194   0.822
 3182SOL    HW110445   2.198   1.098   0.798
 3182SOL    HW210446   2.094   1.223   0.799
 3183SOL     OW10447   3.766   3.855   0.956
 3183SOL    HW110448   3.673   3.864   0.990
 3183SOL    HW210449   3.765   3.845   0.857
 3184SOL     OW10450   0.425   2.130   4.777
 3184SOL    HW110451   0.362   2.091   4.710
 3184SOL    HW210452   0.510   2.159   4.732
 3185SOL     OW10453   0.810   5.573   6.487
 3185SOL    HW110454   0.746   5.647   6.465
 3185SOL    HW210455   0.764   5.506   6.546
 3186SOL     OW10456   0.282   1.815   6.376
 3186SOL    HW110457   0.303   1.866   6.293
 3186SOL    HW210458   0.187   1.785   6.374
 3187SOL     OW10459   4.958   6.063   2.805
 3187SOL    HW110460   5.056   6.044   2.801
 3187SOL    HW210461   4.917   6.008   2.878
 3188SOL     OW10462   2.170   5.649   6.886
 3188SOL    HW110463   2.189   5.725   6.824
 3188SOL    HW210464   2.185   5.562   6.838
 3189SOL     OW10465   3.405   1.512   5.445
 3189SOL    HW110466   3.397   1.600   5.398
 3189SOL    HW210467   3.316   1.467   5.447
 3190SOL     OW10468   5.842   6.381   4.264
 3190SOL    HW110469   5.834   6.436   4.181
 3190SOL    HW210470   5.777   6.305   4.260
 3191SOL     OW10471   3.411   5.640   1.286
 3191SOL    HW110472   3.316   5.662   1.265
 3191SOL    HW210473   3.458   5.723   1.318
 3192SOL     OW10474   5.496   1.875   2.716
 3192SOL    HW110475   5.406   1.906   2.748
 3192SOL    HW210476   5.497   1.775   2.710
 3193SOL     OW10477   3.498   0.091   4.905
 3193SOL    HW110478   3.455   0.140   4.981
 3193SOL    HW210479   3.491   0.145   4.822
 3194SOL     OW10480   1.576   0.090   6.887
 3194SOL    HW110481   1.532   0.160   6.831
 3194SOL    HW210482   1.548   0.102   6.983
 3195SOL     OW10483   0.307   1.576   1.558
 3195SOL    HW110484   0.382   1.546   1.500
 3195SOL    HW210485   0.323   1.545   1.652
 3196SOL     OW10486   5.928   0.256   3.461
 3196SOL    HW110487   5.981   0.247   3.377
 3196SOL    HW210488   5.987   0.242   3.541
 3197SOL     OW10489   1.978   0.647   6.469
 3197SOL    HW110490   1.897   0.698   6.499
 3197SOL    HW210491   1.957   0.597   6.385
 3198SOL     OW10492   5.263   2.760   3.636
 3198SOL    HW110493   5.231   2.698   3.707
 3198SOL    HW210494   5.237   2.724   3.546
 3199SOL     OW10495   5.355   4.336   2.835
 3199SOL    HW110496   5.325   4.259   2.778
 3199SOL    HW210497   5.369   4.304   2.929
 3200SOL     OW10498   5.202   3.989   3.230
 3200SOL    HW110499   5.160   3.966   3.142
 3200SOL    HW210500   5.140   4.048   3.282
 3201SOL     OW10501   6.180   4.719   2.215
 3201SOL    HW110502   6.200   4.679   2.305
 3201SOL    HW210503   6.086   4.753   2.215
 3202SOL     OW10504   1.873   3.377   0.009
 3202SOL    HW110505   1.871   3.415   0.102
 3202SOL    HW210506   1.960   3.330   7.024
 3203SOL     OW10507   3.697   6.757   1.233
 3203SOL    HW110508   3.699   6.857   1.234
 3203SOL    HW210509   3.620   6.725   1.179
 3204SOL     OW10510   3.193   1.411   3.124
 3204SOL    HW110511   3.202   1.324   3.173
 3204SOL    HW210512   3.193   1.486   3.190
 3205SOL     OW10513   4.574   3.511   5.747
 3205SOL    HW110514   4.584   3.580   5.676
 3205SOL    HW210515   4.655   3.452   5.748
 3206SOL     OW10516   3.244   3.517   1.165
 3206SOL    HW110517   3.325   3.538   1.219
 3206SOL    HW210518   3.193   3.601   1.146
 3207SOL     OW10519   1.693   5.312   5.819
 3207SOL    HW110520   1.669   5.406   5.792
 3207SOL    HW210521   1.698   5.306   5.918
 3208SOL     OW10522   6.529   4.867   6.347
 3208SOL    HW110523   6.544   4.781   6.397
 3208SOL    HW210524   6.613   4.891   6.297
 3209SOL     OW10525   5.156   5.812   6.578
 3209SOL    HW110526   5.162   5.713   6.595
 3209SOL    HW210527   5.241   5.844   6.537
 3210SOL     OW10528   5.739   5.910   2.042
 3210SOL    HW110529   5.762   5.853   2.122
 3210SOL    HW210530   5.727   5.852   1.962
 3211SOL     OW10531   1.330   5.609   6.297
 3211SOL    HW110532   1.364   5.523   6.260
 3211SOL    HW210533   1.232   5.617   6.279
 3212SOL     OW10534   1.875   0.517   2.922
 3212SOL    HW110535   1.837   0.429   2.894
 3212SOL    HW210536   1.974   0.509   2.933
 3213SOL     OW10537   1.180   0.296   6.229
 3213SOL    HW110538   1.178   0.218   6.166
 3213SOL    HW210539   1.207   0.265   6.320
 3214SOL     OW10540   3.114   0.946   2.494
 3214SOL    HW110541   3.065   0.883   2.434
 3214SOL    HW210542   3.052   0.978   2.566
 3215SOL     OW10543   2.076   3.391   1.583
 3215SOL    HW110544   1.995   3.407   1.639
 3215SOL    HW210545   2.145   3.461   1.603
 3216SOL     OW10546   6.107   4.793   1.009
 3216SOL    HW110547   6.019   4.807   1.055
 3216SOL    HW210548   6.096   4.725   0.937
 3217SOL     OW10549   6.779   6.031   2.455
 3217SOL    HW110550   6.840   6.033   2.376
 3217SOL    HW210551   6.774   6.123   2.495
 3218SOL     OW10552   5.067   1.201   3.031
 3218SOL    HW110553   5.031   1.294   3.038
 3218SOL    HW210554   5.162   1.200   3.063
 3219SOL     OW10555   6.004   1.240   5.447
 3219SOL    HW110556   5.905   1.252   5.443
 3219SOL    HW210557   6.047   1.323   5.483
 3220SOL     OW10558   6.976   4.539   6.038
 3220SOL    HW110559   6.974   4.531   5.938
 3220SOL    HW210560   6.886   4.520   6.075
 3221SOL     OW10561   3.523   0.869   1.177
 3221SOL    HW110562   3.537   0.933   1.253
 3221SOL    HW210563   3.452   0.804   1.201
 3222SOL     OW10564   3.240   1.610   2.818
 3222SOL    HW110565   3.202   1.624   2.727
 3222SOL    HW210566   3.177   1.647   2.886
 3223SOL     OW10567   1.513   5.953   0.544
 3223SOL    HW110568   1.480   6.042   0.513
 3223SOL    HW210569   1.446   5.912   0.605
 3224SOL     OW10570   3.381   2.136   3.463
 3224SOL    HW110571   3.480   2.149   3.473
 3224SOL    HW210572   3.335   2.171   3.544
 3225SOL     OW10573   3.833   0.982   4.030
 3225SOL    HW110574   3.902   1.011   4.097
 3225SOL    HW210575   3.878   0.965   3.942
 3226SOL     OW10576   6.189   0.408   0.402
 3226SOL    HW110577   6.166   0.369   0.312
 3226SOL    HW210578   6.257   0.481   0.390
 3227SOL     OW10579   5.188   4.940   4.942
 3227SOL    HW110580   5.156   4.996   5.019
 3227SOL    HW210581   5.268   4.887   4.970
 3228SOL     OW10582   2.606   4.064   0.116
 3228SOL    HW110583   2.624   3.982   0.170
 3228SOL    HW210584   2.690   4.116   0.104
 3229SOL     OW10585   1.590   1.458   0.330
 3229SOL    HW110586   1.629   1.547   0.305
 3229SOL    HW210587   1.659   1.387   0.318
 3230SOL     OW10588   2.979   6.114   5.725
 3230SOL    HW110589   2.936   6.031   5.760
 3230SOL    HW210590   3.067   6.128   5.772
 3231SOL     OW10591   2.010   1.889   2.468
 3231SOL    HW110592   2.109   1.879   2.476
 3231SOL    HW210593   1.966   1.800   2.483
 3232SOL     OW10594   3.679   5.345   4.420
 3232SOL    HW110595   3.622   5.331   4.340
 3232SOL    HW210596   3.699   5.443   4.431
 3233SOL     OW10597   0.639   1.885   0.629
 3233SOL    HW110598   0.724   1.854   0.669
 3233SOL    HW210599   0.655   1.918   0.536
 3234SOL     OW10600   2.342   2.515   0.712
 3234SOL    HW110601   2.415   2.584   0.706
 3234SOL    HW210602   2.315   2.503   0.808
 3235SOL     OW10603   0.874   0.079   3.105
 3235SOL    HW110604   0.946   0.145   3.085
 3235SOL    HW210605   0.839   0.041   3.019
 3236SOL     OW10606   3.794   1.983   0.152
 3236SOL    HW110607   3.818   1.888   0.172
 3236SOL    HW210608   3.809   2.000   0.054
 3237SOL     OW10609   6.296   2.032   5.322
 3237SOL    HW110610   6.236   1.953   5.336
 3237SOL    HW210611   6.315   2.043   5.224
 3238SOL     OW10612   6.607   4.796   1.716
 3238SOL    HW110613   6.523   4.849   1.708
 3238SOL    HW210614   6.636   4.793   1.812
 3239SOL     OW10615   6.993   0.018   4.614
 3239SOL    HW110616   6.918   7.008   4.561
 3239SOL    HW210617   0.004   0.094   4.563
 3240SOL     OW10618   0.346   0.421   0.410
 3240SOL    HW110619   0.303   0.491   0.466
 3240SOL    HW210620   0.441   0.408   0.439
 3241SOL     OW10621   5.932   2.071   5.845
 3241SOL    HW110622   5.902   2.132   5.919
 3241SOL    HW210623   6.021   2.101   5.811
 3242SOL     OW10624   5.890   3.988   4.467
 3242SOL    HW110625   5.807   4.044   4.459
 3242SOL    HW210626   5.966   4.034   4.421
 3243SOL     OW10627   6.044   4.862   4.587
 3243SOL    HW110628   6.065   4.942   4.644
 3243SOL    HW210629   5.946   4.860   4.569
 3244SOL     OW10630   5.334   0.263   6.700
 3244SOL    HW110631   5.426   0.226   6.708
 3244SOL    HW210632   5.305   0.261   6.604
 3245SOL     OW10633   4.138   1.018   5.275
 3245SOL    HW110634   4.221   1.055   5.234
 3245SOL    HW210635   4.076   1.094   5.297
 3246SOL     OW10636   6.873   0.115   2.978
 3246SOL    HW110637   6.835   0.206   2.957
 3246SOL    HW210638   6.889   0.066   2.892
 3247SOL     OW10639   0.384   4.274   3.298
 3247SOL    HW110640   0.341   4.358   3.264
 3247SOL    HW210641   0.429   4.227   3.222
 3248SOL     OW10642   5.302   2.122   3.525
 3248SOL    HW110643   5.235   2.126   3.451
 3248SOL    HW210644   5.375   2.059   3.501
 3249SOL     OW10645   2.965   3.766   3.788
 3249SOL    HW110646   2.969   3.831   3.864
 3249SOL    HW210647   2.979   3.674   3.823
 3250SOL     OW10648   5.008   5.338   2.723
 3250SOL    HW110649   5.029   5.251   2.678
 3250SOL    HW210650   4.910   5.355   2.719
 3251SOL     OW10651   2.258   1.760   2.898
 3251SOL    HW110652   2.269   1.859   2.890
 3251SOL    HW210653   2.291   1.715   2.815
 3252SOL     OW10654   1.871   0.865   3.405
 3252SOL    HW110655   1.970   0.861   3.415
 3252SOL    HW210656   1.843   0.809   3.327
 3253SOL     OW10657   6.743   3.910   0.241
 3253SOL    HW110658   6.841   3.927   0.245
 3253SOL    HW210659   6.726   3.821   0.199
 3254SOL     OW10660   6.486   0.089   0.744
 3254SOL    HW110661   6.393   0.081   0.778
 3254SOL    HW210662   6.523   7.026   0.727
 3255SOL     OW10663   4.787   5.711   1.321
 3255SOL    HW110664   4.783   5.788   1.385
 3255SOL    HW210665   4.798   5.746   1.228
 3256SOL     OW10666   4.657   2.220   1.309
 3256SOL    HW110667   4.715   2.241   1.388
 3256SOL    HW210668   4.664   2.293   1.242
 3257SOL     OW10669   2.583   2.228   3.116
 3257SOL    HW110670   2.563   2.130   3.106
 3257SOL    HW210671   2.654   2.240   3.185
 3258SOL     OW10672   2.289   5.481   3.208
 3258SOL    HW110673   2.358   5.410   3.200
 3258SOL    HW210674   2.234   5.466   3.291
 3259SOL     OW10675   5.260   4.387   3.829
 3259SOL    HW110676   5.187   4.376   3.896
 3259SOL    HW210677   5.253   4.477   3.787
 3260SOL     OW10678   1.093   4.117   3.010
 3260SOL    HW110679   1.082   4.149   3.104
 3260SOL    HW210680   1.011   4.068   2.981
 3261SOL     OW10681   5.256   0.054   3.645
 3261SOL    HW110682   5.256   7.011   3.714
 3261SOL    HW210683   5.262   0.143   3.690
 3262SOL     OW10684   2.862   2.250   3.204
 3262SOL    HW110685   2.882   2.256   3.302
 3262SOL    HW210686   2.940   2.211   3.156
 3263SOL     OW10687   0.321   1.245   2.454
 3263SOL    HW110688   0.308   1.342   2.475
 3263SOL    HW210689   0.294   1.228   2.359
 3264SOL     OW10690   1.602   4.832   6.750
 3264SOL    HW110691   1.588   4.736   6.723
 3264SOL    HW210692   1.624   4.837   6.847
 3265SOL     OW10693   6.121   5.296   6.284
 3265SOL    HW110694   6.110   5.221   6.349
 3265SOL    HW210695   6.073   5.377   6.318
 3266SOL     OW10696   3.089   5.758   6.621
 3266SOL    HW110697   3.166   5.741   6.560
 3266SOL    HW210698   3.110   5.837   6.679
 3267SOL     OW10699   3.624   0.117   0.321
 3267SOL    HW110700   3.586   0.099   0.412
 3267SOL    HW210701   3.723   0.105   0.323
 3268SOL     OW10702   6.332   5.536   1.528
 3268SOL    HW110703   6.360   5.457   1.472
 3268SOL    HW210704   6.253   5.510   1.584
 3269SOL     OW10705   1.759   4.878   1.734
 3269SOL    HW110706   1.843   4.884   1.788
 3269SOL    HW210707   1.758   4.952   1.667
 3270SOL     OW10708   0.783   2.783   5.349
 3270SOL    HW110709   0.881   2.781   5.329
 3270SOL    HW210710   0.743   2.694   5.328
 3271SOL     OW10711   0.540   2.461   2.355
 3271SOL    HW110712   0.595   2.437   2.275
 3271SOL    HW210713   0.508   2.556   2.346
 3272SOL     OW10714   4.494   6.337   0.716
 3272SOL    HW110715   4.424   6.266   0.709
 3272SOL    HW210716   4.457   6.424   0.683
 3273SOL     OW10717   4.750   2.624   6.056
 3273SOL    HW110718   4.844   2.598   6.074
 3273SOL    HW210719   4.713   2.673   6.135
 3274SOL     OW10720   6.040   0.193   0.903
 3274SOL    HW110721   5.995   0.223   0.987
 3274SOL    HW210722   6.017   0.256   0.829
 3275SOL     OW10723   4.771   0.499   1.770
 3275SOL    HW110724   4.678   0.530   1.754
 3275SOL    HW210725   4.778   0.455   1.859
 3276SOL     OW10726   4.953   0.515   0.681
 3276SOL    HW110727   5.038   0.550   0.640
 3276SOL    HW210728   4.876   0.535   0.620
 3277SOL     OW10729   3.486   1.994   2.142
 3277SOL    HW110730   3.539   2.060   2.090
 3277SOL    HW210731   3.547   1.924   2.181
 3278SOL     OW10732   6.337   0.626   0.097
 3278SOL    HW110733   6.238   0.628   0.112
 3278SOL    HW210734   6.373   0.719   0.098
 3279SOL     OW10735   3.274   0.124   1.789
 3279SOL    HW110736   3.212   0.168   1.723
 3279SOL    HW210737   3.248   0.029   1.800
 3280SOL     OW10738   6.000   4.365   3.417
 3280SOL    HW110739   6.056   4.314   3.351
 3280SOL    HW210740   5.995   4.314   3.503
 3281SOL     OW10741   6.080   3.535   1.438
 3281SOL    HW110742   6.034   3.616   1.475
 3281SOL    HW210743   6.162   3.516   1.493
 3282SOL     OW10744   0.298   4.943   4.454
 3282SOL    HW110745   0.265   4.881   4.383
 3282SOL    HW210746   0.298   5.037   4.420
 3283SOL     OW10747   3.556   2.123   0.706
 3283SOL    HW110748   3.482   2.095   0.645
 3283SOL    HW210749   3.584   2.216   0.683
 3284SOL     OW10750   2.039   6.206   4.469
 3284SOL    HW110751   2.126   6.157   4.454
 3284SOL    HW210752   1.977   6.146   4.519
 3285SOL     OW10753   3.768   2.122   4.867
 3285SOL    HW110754   3.684   2.172   4.851
 3285SOL    HW210755   3.747   2.025   4.880
 3286SOL     OW10756   2.575   1.759   1.655
 3286SOL    HW110757   2.577   1.661   1.671
 3286SOL    HW210758   2.600   1.808   1.739
 3287SOL     OW10759   2.728   0.213   6.825
 3287SOL    HW110760   2.693   0.122   6.848
 3287SOL    HW210761   2.713   0.275   6.902
 3288SOL     OW10762   2.415   6.196   1.443
 3288SOL    HW110763   2.390   6.150   1.529
 3288SOL    HW210764   2.367   6.283   1.436
 3289SOL     OW10765   4.281   1.187   6.623
 3289SOL    HW110766   4.228   1.119   6.573
 3289SOL    HW210767   4.286   1.271   6.570
 3290SOL     OW10768   0.236   5.602   0.448
 3290SOL    HW110769   0.183   5.594   0.533
 3290SOL    HW210770   0.307   5.532   0.447
 3291SOL     OW10771   4.840   6.793   5.177
 3291SOL    HW110772   4.760   6.808   5.119
 3291SOL    HW210773   4.865   6.696   5.175
 3292SOL     OW10774   7.006   2.006   0.746
 3292SOL    HW110775   7.020   1.978   0.651
 3292SOL    HW210776   6.942   1.942   0.790
 3293SOL     OW10777   5.954   5.966   3.308
 3293SOL    HW110778   5.855   5.960   3.292
 3293SOL    HW210779   6.000   5.890   3.262
 3294SOL     OW10780   5.284   2.755   4.844
 3294SOL    HW110781   5.367   2.810   4.832
 3294SOL    HW210782   5.204   2.810   4.823
 3295SOL     OW10783   0.981   2.787   2.517
 3295SOL    HW110784   0.966   2.689   2.522
 3295SOL    HW210785   1.072   2.805   2.478
 3296SOL     OW10786   1.366   0.629   5.980
 3296SOL    HW110787   1.432   0.556   5.963
 3296SOL    HW210788   1.399   0.686   6.056
 3297SOL     OW10789   3.081   1.383   4.961
 3297SOL    HW110790   3.004   1.389   4.897
 3297SOL    HW210791   3.050   1.342   5.047
 3298SOL     OW10792   5.366   3.856   5.911
 3298SOL    HW110793   5.358   3.953   5.934
 3298SOL    HW210794   5.454   3.839   5.868
 3299SOL     OW10795   2.728   4.705   4.153
 3299SOL    HW110796   2.807   4.651   4.123
 3299SOL    HW210797   2.644   4.658   4.128
 3300SOL     OW10798   2.075   6.929   4.344
 3300SOL    HW110799   2.106   7.023   4.352
 3300SOL    HW210800   2.098   6.894   4.253
 3301SOL     OW10801   0.799   1.289   3.063
 3301SOL    HW110802   0.899   1.290   3.061
 3301SOL    HW210803   0.767   1.319   3.153
 3302SOL     OW10804   2.252   4.738   5.798
 3302SOL    HW110805   2.306   4.817   5.768
 3302SOL    HW210806   2.194   4.707   5.722
 3303SOL     OW10807   3.687   2.836   0.471
 3303SOL    HW110808   3.625   2.870   0.542
 3303SOL    HW210809   3.677   2.890   0.388
 3304SOL     OW10810   3.236   5.507   6.892
 3304SOL    HW110811   3.154   5.562   6.875
 3304SOL    HW210812   3.313   5.569   6.908
 3305SOL     OW10813   3.102   2.925   0.818
 3305SOL    HW110814   3.017   2.901   0.864
 3305SOL    HW210815   3.165   2.847   0.821
 3306SOL     OW10816   2.170   0.996   0.087
 3306SOL    HW110817   2.267   1.011   0.109
 3306SOL    HW210818   2.163   0.933   0.010
 3307SOL     OW10819   1.840   6.615   5.641
 3307SOL    HW110820   1.775   6.656   5.705
 3307SOL    HW210821   1.805   6.525   5.613
 3308SOL     OW10822   3.980   4.432   1.303
 3308SOL    HW110823   3.889   4.461   1.272
 3308SOL    HW210824   4.023   4.377   1.231
 3309SOL     OW10825   5.682   3.433   3.721
 3309SOL    HW110826   5.758   3.409   3.781
 3309SOL    HW210827   5.620   3.355   3.713
 3310SOL     OW10828   6.456   4.830   5.857
 3310SOL    HW110829   6.387   4.859   5.792
 3310SOL    HW210830   6.510   4.755   5.817
 3311SOL     OW10831   2.779   3.635   0.591
 3311SOL    HW110832   2.750   3.548   0.551
 3311SOL    HW210833   2.734   3.711   0.544
 3312SOL     OW10834   4.857   2.533   5.584
 3312SOL    HW110835   4.775   2.581   5.611
 3312SOL    HW210836   4.832   2.448   5.538
 3313SOL     OW10837   0.797   0.922   3.581
 3313SOL    HW110838   0.889   0.956   3.560
 3313SOL    HW210839   0.747   0.905   3.496
 3314SOL     OW10840   2.720   5.465   2.735
 3314SOL    HW110841   2.664   5.525   2.679
 3314SOL    HW210842   2.783   5.414   2.676
 3315SOL     OW10843   0.326   5.065   5.053
 3315SOL    HW110844   0.293   5.159   5.041
 3315SOL    HW210845   0.277   5.004   4.992
 3316SOL     OW10846   3.982   2.637   6.591
 3316SOL    HW110847   3.946   2.681   6.673
 3316SOL    HW210848   3.989   2.704   6.517
 3317SOL     OW10849   5.016   2.488   2.603
 3317SOL    HW110850   4.922   2.516   2.624
 3317SOL    HW210851   5.062   2.463   2.688
 3318SOL     OW10852   3.318   2.367   0.951
 3318SOL    HW110853   3.330   2.429   0.874
 3318SOL    HW210854   3.300   2.420   1.034
 3319SOL     OW10855   6.399   5.787   3.513
 3319SOL    HW110856   6.382   5.751   3.604
 3319SOL    HW210857   6.321   5.843   3.483
 3320SOL     OW10858   6.414   6.787   1.515
 3320SOL    HW110859   6.494   6.741   1.478
 3320SOL    HW210860   6.437   6.882   1.536
 3321SOL     OW10861   5.171   1.459   0.595
 3321SOL    HW110862   5.086   1.503   0.624
 3321SOL    HW210863   5.181   1.468   0.496
 3322SOL     OW10864   6.667   3.890   0.806
 3322SOL    HW110865   6.646   3.959   0.875
 3322SOL    HW210866   6.764   3.893   0.784
 3323SOL     OW10867   1.400   2.768   1.465
 3323SOL    HW110868   1.446   2.856   1.476
 3323SOL    HW210869   1.442   2.718   1.389
 3324SOL     OW10870   5.115   6.067   5.960
 3324SOL    HW110871   5.016   6.053   5.964
 3324SOL    HW210872   5.159   5.984   5.927
 3325SOL     OW10873   2.420   3.837   6.014
 3325SOL    HW110874   2.423   3.743   5.980
 3325SOL    HW210875   2.511   3.876   6.012
 3326SOL     OW10876   4.014   1.046   2.031
 3326SOL    HW110877   4.111   1.056   2.006
 3326SOL    HW210878   3.961   1.026   1.949
 3327SOL     OW10879   0.203   5.072   7.011
 3327SOL    HW110880   0.161   5.062   0.072
 3327SOL    HW210881   0.219   4.981   6.971
 3328SOL     OW10882   4.671   2.283   6.614
 3328SOL    HW110883   4.748   2.331   6.572
 3328SOL    HW210884   4.588   2.300   6.561
 3329SOL     OW10885   6.807   5.856   5.869
 3329SOL    HW110886   6.868   5.816   5.937
 3329SOL    HW210887   6.832   5.951   5.852
 3330SOL     OW10888   6.538   3.678   2.967
 3330SOL    HW110889   6.501   3.753   2.913
 3330SOL    HW210890   6.480   3.598   2.956
 3331SOL     OW10891   2.136   3.148   1.412
 3331SOL    HW110892   2.063   3.097   1.459
 3331SOL    HW210893   2.161   3.228   1.467
 3332SOL     OW10894   6.185   4.786   1.503
 3332SOL    HW110895   6.244   4.854   1.460
 3332SOL    HW210896   6.200   4.697   1.460
 3333SOL     OW10897   4.558   5.736   5.919
 3333SOL    HW110898   4.548   5.718   5.822
 3333SOL    HW210899   4.573   5.650   5.968
 3334SOL     OW10900   2.418   4.006   1.798
 3334SOL    HW110901   2.510   4.038   1.820
 3334SOL    HW210902   2.369   3.982   1.882
 3335SOL     OW10903   5.996   4.329   4.456
 3335SOL    HW110904   6.045   4.252   4.416
 3335SOL    HW210905   6.055   4.377   4.520
 3336SOL     OW10906   3.090   5.761   5.843
 3336SOL    HW110907   3.066   5.743   5.747
 3336SOL    HW210908   3.085   5.676   5.895
 3337SOL     OW10909   3.400   1.883   0.790
 3337SOL    HW110910   3.342   1.938   0.851
 3337SOL    HW210911   3.492   1.922   0.789
 3338SOL     OW10912   0.178   4.341   0.598
 3338SOL    HW110913   0.173   4.242   0.614
 3338SOL    HW210914   0.245   4.382   0.660
 3339SOL     OW10915   0.160   5.461   6.519
 3339SOL    HW110916   0.107   5.527   6.465
 3339SOL    HW210917   0.255   5.463   6.489
 3340SOL     OW10918   3.683   6.426   1.961
 3340SOL    HW110919   3.739   6.350   1.994
 3340SOL    HW210920   3.650   6.405   1.868
 3341SOL     OW10921   1.088   0.419   2.096
 3341SOL    HW110922   1.039   0.418   2.009
 3341SOL    HW210923   1.024   0.398   2.171
 3342SOL     OW10924   2.479   6.794   4.246
 3342SOL    HW110925   2.545   6.837   4.307
 3342SOL    HW210926   2.439   6.862   4.185
 3343SOL     OW10927   6.261   2.399   1.184
 3343SOL    HW110928   6.205   2.319   1.163
 3343SOL    HW210929   6.322   2.419   1.107
 3344SOL     OW10930   0.212   3.280   5.257
 3344SOL    HW110931   0.309   3.304   5.267
 3344SOL    HW210932   0.158   3.337   5.319
 3345SOL     OW10933   2.875   3.231   5.713
 3345SOL    HW110934   2.832   3.181   5.638
 3345SOL    HW210935   2.971   3.250   5.690
 3346SOL     OW10936   1.208   5.997   2.346
 3346SOL    HW110937   1.278   5.951   2.401
 3346SOL    HW210938   1.211   6.095   2.365
 3347SOL     OW10939   5.487   4.123   4.792
 3347SOL    HW110940   5.561   4.092   4.852
 3347SOL    HW210941   5.399   4.112   4.838
 3348SOL     OW10942   3.359   2.933   3.554
 3348SOL    HW110943   3.261   2.924   3.566
 3348SOL    HW210944   3.387   2.888   3.469
 3349SOL     OW10945   6.149   3.847   5.228
 3349SOL    HW110946   6.082   3.909   5.187
 3349SOL    HW210947   6.127   3.753   5.202
 3350SOL     OW10948   0.709   1.403   1.100
 3350SOL    HW110949   0.793   1.362   1.137
 3350SOL    HW210950   0.728   1.442   1.010
 3351SOL     OW10951   5.174   1.534   1.632
 3351SOL    HW110952   5.256   1.477   1.629
 3351SOL    HW210953   5.191   1.616   1.685
 3352SOL     OW10954   0.388   3.902   0.630
 3352SOL    HW110955   0.459   3.954   0.581
 3352SOL    HW210956   0.348   3.834   0.568
 3353SOL     OW10957   2.022   6.850   6.342
 3353SOL    HW110958   2.067   6.937   6.321
 3353SOL    HW210959   1.929   6.851   6.307
 3354SOL     OW10960   0.895   1.648   2.877
 3354SOL    HW110961   0.960   1.630   2.802
 3354SOL    HW210962   0.863   1.562   2.914
 3355SOL     OW10963   6.450   1.655   2.805
 3355SOL    HW110964   6.420   1.598   2.882
 3355SOL    HW210965   6.515   1.605   2.748
 3356SOL     OW10966   3.015   3.018   6.400
 3356SOL    HW110967   2.951   3.033   6.325
 3356SOL    HW210968   3.108   3.040   6.368
 3357SOL     OW10969   2.757   4.790   1.745
 3357SOL    HW110970   2.840   4.838   1.715
 3357SOL    HW210971   2.781   4.726   1.818
 3358SOL     OW10972   5.268   4.802   3.124
 3358SOL    HW110973   5.212   4.825   3.044
 3358SOL    HW210974   5.365   4.820   3.103
 3359SOL     OW10975   0.899   0.961   2.119
 3359SOL    HW110976   0.915   0.865   2.139
 3359SOL    HW210977   0.931   1.017   2.195
 3360SOL     OW10978   1.376   0.443   6.550
 3360SOL    HW110979   1.472   0.446   6.521
 3360SOL    HW210980   1.333   0.531   6.530
 3361SOL     OW10981   5.480   6.669   2.466
 3361SOL    HW110982   5.565   6.628   2.500
 3361SOL    HW210983   5.420   6.598   2.430
 3362SOL     OW10984   2.354   1.528   5.418
 3362SOL    HW110985   2.273   1.496   5.369
 3362SOL    HW210986   2.342   1.624   5.442
 3363SOL     OW10987   0.485   0.916   6.978
 3363SOL    HW110988   0.419   0.864   0.002
 3363SOL    HW210989   0.508   1.001   7.026
 3364SOL     OW10990   2.108   4.965   6.470
 3364SOL    HW110991   2.173   5.040   6.455
 3364SOL    HW210992   2.064   4.975   6.558
 3365SOL     OW10993   6.359   1.966   5.657
 3365SOL    HW110994   6.455   1.957   5.632
 3365SOL    HW210995   6.344   1.922   5.746
 3366SOL     OW10996   5.292   1.093   5.632
 3366SOL    HW110997   5.323   1.120   5.723
 3366SOL    HW210998   5.200   1.130   5.616
 3367SOL     OW10999   0.940   0.677   2.122
 3367SOL    HW111000   0.848   0.639   2.112
 3367SOL    HW211001   1.007   0.605   2.110
 3368SOL     OW11002   6.817   6.397   5.680
 3368SOL    HW111003   6.788   6.345   5.761
 3368SOL    HW211004   6.747   6.465   5.657
 3369SOL     OW11005   3.956   0.014   6.426
 3369SOL    HW111006   3.924   7.022   6.518
 3369SOL    HW211007   3.909   6.983   6.360
 3370SOL     OW11008   5.465   0.108   5.282
 3370SOL    HW111009   5.501   0.187   5.332
 3370SOL    HW211010   5.479   0.122   5.184
 3371SOL     OW11011   6.733   5.170   1.917
 3371SOL    HW111012   6.683   5.256   1.908
 3371SOL    HW211013   6.786   5.152   1.834
 3372SOL     OW11014   0.493   1.451   2.544
 3372SOL    HW111015   0.475   1.471   2.640
 3372SOL    HW211016   0.410   1.465   2.491
 3373SOL     OW11017   6.762   1.765   5.348
 3373SOL    HW111018   6.821   1.845   5.333
 3373SOL    HW211019   6.819   1.686   5.370
 3374SOL     OW11020   3.153   5.091   5.113
 3374SOL    HW111021   3.245   5.070   5.080
 3374SOL    HW211022   3.099   5.007   5.117
 3375SOL     OW11023   4.513   4.530   5.475
 3375SOL    HW111024   4.594   4.472   5.475
 3375SOL    HW211025   4.536   4.620   5.510
 3376SOL     OW11026   3.312   3.742   2.323
 3376SOL    HW111027   3.380   3.816   2.319
 3376SOL    HW211028   3.224   3.779   2.354
 3377SOL     OW11029   2.221   6.094   5.409
 3377SOL    HW111030   2.145   6.139   5.457
 3377SOL    HW211031   2.224   6.129   5.315
 3378SOL     OW11032   0.298   1.560   0.857
 3378SOL    HW111033   0.375   1.510   0.816
 3378SOL    HW211034   0.221   1.559   0.794
 3379SOL     OW11035   1.169   4.860   6.294
 3379SOL    HW111036   1.083   4.880   6.248
 3379SOL    HW211037   1.169   4.765   6.326
 3380SOL     OW11038   0.482   4.367   6.287
 3380SOL    HW111039   0.562   4.325   6.243
 3380SOL    HW211040   0.400   4.316   6.262
 3381SOL     OW11041   2.938   2.646   0.585
 3381SOL    HW111042   2.857   2.621   0.531
 3381SOL    HW211043   3.020   2.626   0.532
 3382SOL     OW11044   6.630   0.294   0.675
 3382SOL    HW111045   6.592   0.210   0.714
 3382SOL    HW211046   6.583   0.316   0.590
 3383SOL     OW11047   6.748   4.872   2.941
 3383SOL    HW111048   6.743   4.840   2.847
 3383SOL    HW211049   6.825   4.828   2.987
 3384SOL     OW11050   3.891   3.338   4.703
 3384SOL    HW111051   3.828   3.392   4.647
 3384SOL    HW211052   3.967   3.396   4.734
 3385SOL     OW11053   6.481   3.721   3.250
 3385SOL    HW111054   6.469   3.625   3.278
 3385SOL    HW211055   6.486   3.726   3.150
 3386SOL     OW11056   6.133   4.638   4.865
 3386SOL    HW111057   6.231   4.622   4.865
 3386SOL    HW211058   6.114   4.725   4.820
 3387SOL     OW11059   2.626   2.369   2.760
 3387SOL    HW111060   2.581   2.458   2.759
 3387SOL    HW211061   2.690   2.365   2.837
 3388SOL     OW11062   5.950   2.939   1.901
 3388SOL    HW111063   5.873   2.874   1.901
 3388SOL    HW211064   5.915   3.032   1.890
 3389SOL     OW11065   5.779   4.638   3.106
 3389SOL    HW111066   5.772   4.608   3.201
 3389SOL    HW211067   5.867   4.609   3.068
 3390SOL     OW11068   5.233   2.600   5.163
 3390SOL    HW111069   5.255   2.624   5.258
 3390SOL    HW211070   5.147   2.549   5.161
 3391SOL     OW11071   3.198   1.932   4.669
 3391SOL    HW111072   3.285   1.981   4.674
 3391SOL    HW211073   3.208   1.854   4.606
 3392SOL     OW11074   4.267   6.665   3.860
 3392SOL    HW111075   4.296   6.759   3.879
 3392SOL    HW211076   4.171   6.665   3.834
 3393SOL     OW11077   6.522   0.055   6.891
 3393SOL    HW111078   6.460   7.017   6.931
 3393SOL    HW211079   6.473   0.111   6.825
 3394SOL     OW11080   6.202   2.875   1.614
 3394SOL    HW111081   6.160   2.923   1.691
 3394SOL    HW211082   6.295   2.909   1.600
 3395SOL     OW11083   1.594   3.185   5.342
 3395SOL    HW111084   1.633   3.223   5.426
 3395SOL    HW211085   1.606   3.250   5.267
 3396SOL     OW11086   0.387   4.103   3.960
 3396SOL    HW111087   0.309   4.140   3.908
 3396SOL    HW211088   0.469   4.155   3.938
 3397SOL     OW11089   4.086   6.302   6.086
 3397SOL    HW111090   4.063   6.332   5.993
 3397SOL    HW211091   4.136   6.375   6.133
 3398SOL     OW11092   0.764   6.658   3.886
 3398SOL    HW111093   0.771   6.560   3.906
 3398SOL    HW211094   0.682   6.674   3.831
 3399SOL     OW11095   4.620   4.597   4.406
 3399SOL    HW111096   4.623   4.554   4.496
 3399SOL    HW211097   4.531   4.639   4.391
 3400SOL     OW11098   5.200   2.247   6.574
 3400SOL    HW111099   5.185   2.300   6.491
 3400SOL    HW211100   5.295   2.216   6.577
 3401SOL     OW11101   5.818   4.751   0.546
 3401SOL    HW111102   5.733   4.704   0.570
 3401SOL    HW211103   5.886   4.735   0.618
 3402SOL     OW11104   5.248   5.942   1.780
 3402SOL    HW111105   5.290   6.032   1.776
 3402SOL    HW211106   5.269   5.892   1.696
 3403SOL     OW11107   3.758   1.256   5.233
 3403SOL    HW111108   3.706   1.285   5.314
 3403SOL    HW211109   3.716   1.174   5.195
 3404SOL     OW11110   4.788   0.874   0.610
 3404SOL    HW111111   4.792   0.779   0.641
 3404SOL    HW211112   4.693   0.903   0.602
 3405SOL     OW11113   6.996   3.820   6.970
 3405SOL    HW111114   6.907   3.775   6.981
 3405SOL    HW211115   6.984   3.919   6.973
 3406SOL     OW11116   1.416   4.122   2.126
 3406SOL    HW111117   1.433   4.124   2.225
 3406SOL    HW211118   1.484   4.064   2.082
 3407SOL     OW11119   1.519   5.680   2.615
 3407SOL    HW111120   1.466   5.713   2.693
 3407SOL    HW211121   1.611   5.655   2.646
 3408SOL     OW11122   5.384   4.614   2.856
 3408SOL    HW111123   5.430   4.616   2.944
 3408SOL    HW211124   5.370   4.519   2.828
 3409SOL     OW11125   3.755   0.500   5.682
 3409SOL    HW111126   3.747   0.482   5.584
 3409SOL    HW211127   3.673   0.547   5.715
 3410SOL     OW11128   6.511   0.217   0.148
 3410SOL    HW111129   6.509   0.117   0.158
 3410SOL    HW211130   6.573   0.256   0.217
 3411SOL     OW11131   4.684   2.129   2.456
 3411SOL    HW111132   4.669   2.208   2.515
 3411SOL    HW211133   4.684   2.158   2.360
 3412SOL     OW11134   3.850   4.712   0.175
 3412SOL    HW111135   3.750   4.700   0.172
 3412SOL    HW211136   3.872   4.807   0.157
 3413SOL     OW11137   4.035   2.086   2.838
 3413SOL    HW111138   4.042   1.994   2.799
 3413SOL    HW211139   3.987   2.145   2.774
 3414SOL     OW11140   2.596   2.452   5.003
 3414SOL    HW111141   2.591   2.531   4.942
 3414SOL    HW211142   2.584   2.482   5.097
 3415SOL     OW11143   0.671   5.058   3.889
 3415SOL    HW111144   0.755   5.111   3.905
 3415SOL    HW211145   0.602   5.083   3.956
 3416SOL     OW11146   1.233   5.332   5.693
 3416SOL    HW111147   1.235   5.380   5.781
 3416SOL    HW211148   1.210   5.236   5.709
 3417SOL     OW11149   6.017   0.027   2.595
 3417SOL    HW111150   5.978   0.102   2.648
 3417SOL    HW211151   5.978   6.969   2.625
 3418SOL     OW11152   3.103   1.471   5.934
 3418SOL    HW111153   3.059   1.561   5.938
 3418SOL    HW211154   3.130   1.443   6.027
 3419SOL     OW11155   4.157   4.325   0.281
 3419SOL    HW111156   4.169   4.228   0.303
 3419SOL    HW211157   4.166   4.338   0.182
 3420SOL     OW11158   4.020   2.259   3.712
 3420SOL    HW111159   3.987   2.176   3.667
 3420SOL    HW211160   3.953   2.333   3.698
 3421SOL     OW11161   0.285   5.583   5.052
 3421SOL    HW111162   0.349   5.658   5.072
 3421SOL    HW211163   0.192   5.618   5.054
 3422SOL     OW11164   3.203   1.599   1.329
 3422SOL    HW111165   3.233   1.510   1.363
 3422SOL    HW211166   3.259   1.671   1.371
 3423SOL     OW11167   2.767   0.390   1.034
 3423SOL    HW111168   2.694   0.323   1.044
 3423SOL    HW211169   2.753   0.465   1.098
 3424SOL     OW11170   4.414   1.003   3.052
 3424SOL    HW111171   4.379   1.079   3.106
 3424SOL    HW211172   4.512   0.993   3.068
 3425SOL     OW11173   4.654   4.418   1.499
 3425SOL    HW111174   4.694   4.508   1.519
 3425SOL    HW211175   4.665   4.359   1.579
 3426SOL     OW11176   4.266   3.650   0.725
 3426SOL    HW111177   4.214   3.573   0.762
 3426SOL    HW211178   4.331   3.682   0.793
 3427SOL     OW11179   0.742   1.405   0.246
 3427SOL    HW111180   0.760   1.316   0.288
 3427SOL    HW211181   0.644   1.425   0.253
 3428SOL     OW11182   4.157   4.758   2.496
 3428SOL    HW111183   4.076   4.750   2.438
 3428SOL    HW211184   4.176   4.855   2.513
 3429SOL     OW11185   1.389   2.985   6.999
 3429SOL    HW111186   1.427   3.076   7.012
 3429SOL    HW211187   1.381   2.939   0.058
 3430SOL     OW11188   1.451   6.905   0.193
 3430SOL    HW111189   1.477   6.841   0.121
 3430SOL    HW211190   1.460   6.998   0.160
 3431SOL     OW11191   0.888   5.738   1.045
 3431SOL    HW111192   0.871   5.680   0.965
 3431SOL    HW211193   0.840   5.700   1.124
 3432SOL     OW11194   3.180   1.741   6.284
 3432SOL    HW111195   3.237   1.694   6.217
 3432SOL    HW211196   3.181   1.840   6.266
 3433SOL     OW11197   3.730   1.022   4.826
 3433SOL    HW111198   3.716   1.013   4.924
 3433SOL    HW211199   3.754   1.117   4.804
 3434SOL     OW11200   4.822   2.646   2.342
 3434SOL    HW111201   4.793   2.737   2.373
 3434SOL    HW211202   4.757   2.578   2.376
 3435SOL     OW11203   0.352   1.141   1.449
 3435SOL    HW111204   0.352   1.182   1.541
 3435SOL    HW211205   0.444   1.146   1.410
 3436SOL     OW11206   4.030   6.864   4.418
 3436SOL    HW111207   4.040   6.892   4.513
 3436SOL    HW211208   3.933   6.861   4.394
 3437SOL     OW11209   3.900   0.100   6.033
 3437SOL    HW111210   3.902   0.170   5.961
 3437SOL    HW211211   3.822   0.116   6.093
 3438SOL     OW11212   0.818   2.928   6.327
 3438SOL    HW111213   0.749   2.866   6.291
 3438SOL    HW211214   0.853   2.986   6.253
 3439SOL     OW11215   2.614   5.944   3.946
 3439SOL    HW111216   2.674   5.954   3.866
 3439SOL    HW211217   2.613   6.030   3.997
 3440SOL     OW11218   5.243   3.246   0.824
 3440SOL    HW111219   5.327   3.245   0.879
 3440SOL    HW211220   5.203   3.155   0.823
 3441SOL     OW11221   2.513   0.418   3.483
 3441SOL    HW111222   2.497   0.428   3.385
 3441SOL    HW211223   2.452   0.347   3.520
 3442SOL     OW11224   2.192   4.797   3.654
 3442SOL    HW111225   2.144   4.740   3.721
 3442SOL    HW211226   2.137   4.877   3.633
 3443SOL     OW11227   5.240   0.916   2.881
 3443SOL    HW111228   5.285   0.829   2.861
 3443SOL    HW211229   5.189   0.908   2.967
 3444SOL     OW11230   4.444   5.638   0.086
 3444SOL    HW111231   4.512   5.566   0.099
 3444SOL    HW211232   4.433   5.689   0.171
 3445SOL     OW11233   6.631   4.495   4.038
 3445SOL    HW111234   6.663   4.419   4.096
 3445SOL    HW211235   6.628   4.464   3.943
 3446SOL     OW11236   3.680   6.794   2.725
 3446SOL    HW111237   3.712   6.806   2.819
 3446SOL    HW211238   3.643   6.881   2.691
 3447SOL     OW11239   5.452   6.078   6.831
 3447SOL    HW111240   5.495   6.077   6.922
 3447SOL    HW211241   5.445   5.984   6.797
 3448SOL     OW11242   3.497   2.037   1.134
 3448SOL    HW111243   3.553   1.998   1.060
 3448SOL    HW211244   3.556   2.055   1.214
 3449SOL     OW11245   0.089   6.421   3.299
 3449SOL    HW111246   0.007   6.472   3.274
 3449SOL    HW211247   0.100   6.422   3.399
 3450SOL     OW11248   1.231   1.830   1.532
 3450SOL    HW111249   1.327   1.852   1.513
 3450SOL    HW211250   1.209   1.741   1.492
 3451SOL     OW11251   1.052   5.790   4.648
 3451SOL    HW111252   0.989   5.867   4.635
 3451SOL    HW211253   1.032   5.719   4.581
 3452SOL     OW11254   5.871   1.196   0.614
 3452SOL    HW111255   5.826   1.285   0.615
 3452SOL    HW211256   5.863   1.154   0.705
 3453SOL     OW11257   5.409   5.799   4.676
 3453SOL    HW111258   5.349   5.760   4.606
 3453SOL    HW211259   5.478   5.857   4.632
 3454SOL     OW11260   0.920   0.985   0.618
 3454SOL    HW111261   0.958   1.002   0.527
 3454SOL    HW211262   0.920   0.887   0.636
 3455SOL     OW11263   1.912   2.601   4.142
 3455SOL    HW111264   1.829   2.654   4.154
 3455SOL    HW211265   1.989   2.649   4.185
 3456SOL     OW11266   5.716   6.899   1.770
 3456SOL    HW111267   5.749   6.809   1.743
 3456SOL    HW211268   5.792   6.964   1.769
 3457SOL     OW11269   2.656   4.950   3.435
 3457SOL    HW111270   2.663   4.851   3.443
 3457SOL    HW211271   2.728   4.984   3.375
 3458SOL     OW11272   5.596   6.426   0.726
 3458SOL    HW111273   5.610   6.358   0.798
 3458SOL    HW211274   5.657   6.406   0.650
 3459SOL     OW11275   0.195   5.395   3.948
 3459SOL    HW111276   0.098   5.374   3.963
 3459SOL    HW211277   0.235   5.426   4.034
 3460SOL     OW11278   4.495   3.379   6.655
 3460SOL    HW111279   4.448   3.376   6.744
 3460SOL    HW211280   4.478   3.293   6.606
 3461SOL     OW11281   4.165   6.469   3.529
 3461SOL    HW111282   4.152   6.458   3.430
 3461SOL    HW211283   4.218   6.552   3.547
 3462SOL     OW11284   5.006   3.586   3.025
 3462SOL    HW111285   4.926   3.623   2.978
 3462SOL    HW211286   5.013   3.628   3.116
 3463SOL     OW11287   2.262   2.731   1.498
 3463SOL    HW111288   2.295   2.817   1.459
 3463SOL    HW211289   2.231   2.747   1.592
 3464SOL     OW11290   4.874   2.660   6.453
 3464SOL    HW111291   4.887   2.694   6.547
 3464SOL    HW211292   4.944   2.591   6.433
 3465SOL     OW11293   2.078   3.482   2.274
 3465SOL    HW111294   2.120   3.540   2.204
 3465SOL    HW211295   2.083   3.386   2.246
 3466SOL     OW11296   6.078   5.352   4.330
 3466SOL    HW111297   6.147   5.316   4.267
 3466SOL    HW211298   6.047   5.278   4.390
 3467SOL     OW11299   2.765   2.318   0.728
 3467SOL    HW111300   2.756   2.232   0.778
 3467SOL    HW211301   2.677   2.367   0.730
 3468SOL     OW11302   4.374   1.562   1.014
 3468SOL    HW111303   4.447   1.524   0.958
 3468SOL    HW211304   4.302   1.493   1.025
 3469SOL     OW11305   4.031   6.558   5.443
 3469SOL    HW111306   4.092   6.617   5.496
 3469SOL    HW211307   4.015   6.598   5.353
 3470SOL     OW11308   0.463   3.051   1.800
 3470SOL    HW111309   0.388   3.111   1.826
 3470SOL    HW211310   0.536   3.059   1.868
 3471SOL     OW11311   5.102   3.789   3.616
 3471SOL    HW111312   5.181   3.847   3.637
 3471SOL    HW211313   5.031   3.803   3.685
 3472SOL     OW11314   4.219   1.757   3.568
 3472SOL    HW111315   4.164   1.704   3.632
 3472SOL    HW211316   4.252   1.840   3.613
 3473SOL     OW11317   0.186   4.125   2.602
 3473SOL    HW111318   0.206   4.146   2.507
 3473SOL    HW211319   0.256   4.064   2.638
 3474SOL     OW11320   6.234   5.192   4.136
 3474SOL    HW111321   6.152   5.210   4.082
 3474SOL    HW211322   6.238   5.095   4.159
 3475SOL     OW11323   6.850   3.999   4.583
 3475SOL    HW111324   6.889   4.090   4.598
 3475SOL    HW211325   6.904   3.931   4.634
 3476SOL     OW11326   1.001   1.480   3.364
 3476SOL    HW111327   1.015   1.579   3.358
 3476SOL    HW211328   1.080   1.437   3.407
 3477SOL     OW11329   0.693   3.620   1.659
 3477SOL    HW111330   0.701   3.532   1.610
 3477SOL    HW211331   0.619   3.674   1.618
 3478SOL     OW11332   2.402   0.327   0.006
 3478SOL    HW111333   2.500   0.338   7.017
 3478SOL    HW211334   2.381   0.231   0.023
 3479SOL     OW11335   0.827   3.120   3.818
 3479SOL    HW111336   0.883   3.169   3.751
 3479SOL    HW211337   0.877   3.114   3.905
 3480SOL     OW11338   0.773   5.601   6.938
 3480SOL    HW111339   0.714   5.522   6.946
 3480SOL    HW211340   0.869   5.571   6.939
 3481SOL     OW11341   6.646   0.108   6.406
 3481SOL    HW111342   6.701   0.106   6.490
 3481SOL    HW211343   6.591   0.191   6.404
 3482SOL     OW11344   6.175   3.688   4.806
 3482SOL    HW111345   6.135   3.780   4.809
 3482SOL    HW211346   6.249   3.685   4.739
 3483SOL     OW11347   4.669   2.128   3.582
 3483SOL    HW111348   4.658   2.179   3.667
 3483SOL    HW211349   4.580   2.091   3.553
 3484SOL     OW11350   1.757   3.212   5.737
 3484SOL    HW111351   1.746   3.216   5.836
 3484SOL    HW211352   1.835   3.153   5.714
 3485SOL     OW11353   0.568   1.816   6.268
 3485SOL    HW111354   0.547   1.803   6.365
 3485SOL    HW211355   0.576   1.913   6.249
 3486SOL     OW11356   2.579   0.328   4.935
 3486SOL    HW111357   2.495   0.318   4.989
 3486SOL    HW211358   2.565   0.290   4.844
 3487SOL     OW11359   5.070   1.185   6.571
 3487SOL    HW111360   5.115   1.100   6.543
 3487SOL    HW211361   5.049   1.239   6.490
 3488SOL     OW11362   6.366   0.829   4.246
 3488SOL    HW111363   6.377   0.774   4.330
 3488SOL    HW211364   6.275   0.814   4.209
 3489SOL     OW11365   3.207   0.304   0.405
 3489SOL    HW111366   3.271   0.273   0.335
 3489SOL    HW211367   3.231   0.397   0.433
 3490SOL     OW11368   3.877   5.161   0.897
 3490SOL    HW111369   3.931   5.157   0.813
 3490SOL    HW211370   3.793   5.214   0.881
 3491SOL     OW11371   4.721   3.925   0.291
 3491SOL    HW111372   4.713   3.991   0.216
 3491SOL    HW211373   4.639   3.867   0.293
 3492SOL     OW11374   6.268   4.526   2.419
 3492SOL    HW111375   6.364   4.503   2.436
 3492SOL    HW211376   6.238   4.597   2.484
 3493SOL     OW11377   6.059   3.048   4.672
 3493SOL    HW111378   6.030   3.136   4.635
 3493SOL    HW211379   5.995   2.977   4.644
 3494SOL     OW11380   3.814   1.873   1.797
 3494SOL    HW111381   3.841   1.822   1.715
 3494SOL    HW211382   3.887   1.936   1.822
 3495SOL     OW11383   1.778   3.473   2.136
 3495SOL    HW111384   1.810   3.555   2.183
 3495SOL    HW211385   1.856   3.415   2.114
 3496SOL     OW11386   6.708   5.503   1.074
 3496SOL    HW111387   6.718   5.549   1.162
 3496SOL    HW211388   6.733   5.565   1.000
 3497SOL     OW11389   3.467   0.559   2.586
 3497SOL    HW111390   3.368   0.566   2.582
 3497SOL    HW211391   3.508   0.626   2.523
 3498SOL     OW11392   2.084   1.877   1.381
 3498SOL    HW111393   2.088   1.974   1.355
 3498SOL    HW211394   1.993   1.841   1.359
 3499SOL     OW11395   6.113   5.201   5.803
 3499SOL    HW111396   6.116   5.276   5.870
 3499SOL    HW211397   6.081   5.236   5.715
 3500SOL     OW11398   1.573   2.593   3.822
 3500SOL    HW111399   1.587   2.528   3.748
 3500SOL    HW211400   1.520   2.671   3.789
 3501SOL     OW11401   1.469   6.693   6.029
 3501SOL    HW111402   1.375   6.727   6.019
 3501SOL    HW211403   1.470   6.594   6.018
 3502SOL     OW11404   4.894   3.373   1.980
 3502SOL    HW111405   4.877   3.292   2.036
 3502SOL    HW211406   4.970   3.355   1.917
 3503SOL     OW11407   6.388   5.942   6.803
 3503SOL    HW111408   6.328   5.863   6.817
 3503SOL    HW211409   6.483   5.913   6.808
 3504SOL     OW11410   1.477   0.717   1.853
 3504SOL    HW111411   1.513   0.807   1.877
 3504SOL    HW211412   1.534   0.646   1.895
 3505SOL     OW11413   6.121   5.392   6.003
 3505SOL    HW111414   6.122   5.375   6.102
 3505SOL    HW211415   6.120   5.491   5.987
 3506SOL     OW11416   5.072   4.430   4.590
 3506SOL    HW111417   4.990   4.455   4.642
 3506SOL    HW211418   5.142   4.500   4.603
 3507SOL     OW11419   2.826   6.823   0.569
 3507SOL    HW111420   2.808   6.726   0.548
 3507SOL    HW211421   2.823   6.876   0.485
 3508SOL     OW11422   3.354   2.673   5.301
 3508SOL    HW111423   3.302   2.598   5.260
 3508SOL    HW211424   3.292   2.728   5.357
 3509SOL     OW11425   4.284   5.996   6.711
 3509SOL    HW111426   4.226   6.071   6.681
 3509SOL    HW211427   4.257   5.967   6.802
 3510SOL     OW11428   2.800   0.552   0.839
 3510SOL    HW111429   2.803   0.476   0.903
 3510SOL    HW211430   2.861   0.625   0.871
 3511SOL     OW11431   2.443   4.775   1.119
 3511SOL    HW111432   2.408   4.858   1.076
 3511SOL    HW211433   2.535   4.757   1.086
 3512SOL     OW11434   1.136   4.073   6.884
 3512SOL    HW111435   1.100   4.150   6.936
 3512SOL    HW211436   1.085   3.990   6.907
 3513SOL     OW11437   5.859   2.261   0.299
 3513SOL    HW111438   5.833   2.328   0.229
 3513SOL    HW211439   5.777   2.220   0.338
 3514SOL     OW11440   4.323   0.922   2.789
 3514SOL    HW111441   4.287   1.009   2.755
 3514SOL    HW211442   4.359   0.934   2.881
 3515SOL     OW11443   6.219   5.808   4.538
 3515SOL    HW111444   6.163   5.835   4.616
 3515SOL    HW211445   6.314   5.834   4.555
 3516SOL     OW11446   5.410   0.177   1.137
 3516SOL    HW111447   5.324   0.194   1.087
 3516SOL    HW211448   5.476   0.249   1.114
 3517SOL     OW11449   6.549   1.232   0.542
 3517SOL    HW111450   6.510   1.315   0.503
 3517SOL    HW211451   6.488   1.197   0.613
 3518SOL     OW11452   5.732   1.387   5.446
 3518SOL    HW111453   5.788   1.467   5.422
 3518SOL    HW211454   5.645   1.418   5.483
 3519SOL     OW11455   3.490   0.558   0.494
 3519SOL    HW111456   3.427   0.527   0.565
 3519SOL    HW211457   3.557   0.621   0.534
 3520SOL     OW11458   3.103   6.384   4.917
 3520SOL    HW111459   3.133   6.289   4.929
 3520SOL    HW211460   3.130   6.438   4.997
 3521SOL     OW11461   3.076   2.885   6.796
 3521SOL    HW111462   3.062   2.810   6.861
 3521SOL    HW211463   2.988   2.912   6.757
 3522SOL     OW11464   6.802   5.646   0.223
 3522SOL    HW111465   6.746   5.726   0.203
 3522SOL    HW211466   6.898   5.668   0.204
 3523SOL     OW11467   1.021   5.342   6.233
 3523SOL    HW111468   0.928   5.346   6.195
 3523SOL    HW211469   1.072   5.268   6.189
 3524SOL     OW11470   6.841   1.479   3.364
 3524SOL    HW111471   6.826   1.552   3.297
 3524SOL    HW211472   6.787   1.497   3.446
 3525SOL     OW11473   6.156   4.996   3.866
 3525SOL    HW111474   6.106   4.913   3.891
 3525SOL    HW211475   6.253   4.983   3.884
 3526SOL     OW11476   1.188   5.942   3.331
 3526SOL    HW111477   1.276   5.977   3.363
 3526SOL    HW211478   1.173   5.969   3.236
 3527SOL     OW11479   6.922   2.686   6.028
 3527SOL    HW111480   6.846   2.748   6.011
 3527SOL    HW211481   6.951   2.645   5.941
 3528SOL     OW11482   2.691   6.577   5.403
 3528SOL    HW111483   2.671   6.648   5.470
 3528SOL    HW211484   2.786   6.548   5.412
 3529SOL     OW11485   4.864   5.880   7.027
 3529SOL    HW111486   4.939   5.885   6.961
 3529SOL    HW211487   4.795   5.816   6.993
 3530SOL     OW11488   0.493   0.311   2.012
 3530SOL    HW111489   0.529   0.218   2.011
 3530SOL    HW211490   0.397   0.309   1.984
 3531SOL     OW11491   4.991   1.897   1.276
 3531SOL    HW111492   5.087   1.923   1.287
 3531SOL    HW211493   4.983   1.797   1.273
 3532SOL     OW11494   2.017   1.138   2.175
 3532SOL    HW111495   1.975   1.221   2.139
 3532SOL    HW211496   2.024   1.069   2.103
 3533SOL     OW11497   0.025   1.224   2.678
 3533SOL    HW111498   6.986   1.293   2.657
 3533SOL    HW211499   0.113   1.251   2.639
 3534SOL     OW11500   0.053   1.511   1.566
 3534SOL    HW111501   0.148   1.540   1.560
 3534SOL    HW211502   0.020   1.527   1.659
 3535SOL     OW11503   2.768   5.039   4.871
 3535SOL    HW111504   2.813   4.954   4.845
 3535SOL    HW211505   2.837   5.105   4.901
 3536SOL     OW11506   3.257   2.104   2.288
 3536SOL    HW111507   3.309   2.096   2.373
 3536SOL    HW211508   3.307   2.059   2.214
 3537SOL     OW11509   1.856   5.354   2.522
 3537SOL    HW111510   1.909   5.356   2.608
 3537SOL    HW211511   1.763   5.323   2.541
 3538SOL     OW11512   3.046   5.442   4.673
 3538SOL    HW111513   3.081   5.523   4.625
 3538SOL    HW211514   3.122   5.379   4.691
 3539SOL     OW11515   4.117   3.701   4.775
 3539SOL    HW111516   4.123   3.738   4.867
 3539SOL    HW211517   4.080   3.770   4.713
 3540SOL     OW11518   2.081   1.799   4.078
 3540SOL    HW111519   2.082   1.749   3.991
 3540SOL    HW211520   2.096   1.896   4.061
 3541SOL     OW11521   2.991   3.546   5.329
 3541SOL    HW111522   2.967   3.492   5.249
 3541SOL    HW211523   2.955   3.639   5.319
 3542SOL     OW11524   1.373   4.690   2.568
 3542SOL    HW111525   1.334   4.664   2.480
 3542SOL    HW211526   1.403   4.785   2.565
 3543SOL     OW11527   5.625   2.627   4.423
 3543SOL    HW111528   5.555   2.662   4.485
 3543SOL    HW211529   5.702   2.691   4.420
 3544SOL     OW11530   2.210   4.291   5.798
 3544SOL    HW111531   2.114   4.267   5.817
 3544SOL    HW211532   2.268   4.212   5.817
 3545SOL     OW11533   4.194   5.578   6.584
 3545SOL    HW111534   4.127   5.573   6.658
 3545SOL    HW211535   4.274   5.630   6.615
 3546SOL     OW11536   6.738   5.678   3.086
 3546SOL    HW111537   6.774   5.585   3.077
 3546SOL    HW211538   6.808   5.737   3.124
 3547SOL     OW11539   4.733   5.194   4.466
 3547SOL    HW111540   4.794   5.177   4.544
 3547SOL    HW211541   4.765   5.144   4.386
 3548SOL     OW11542   4.747   2.750   5.048
 3548SOL    HW111543   4.845   2.736   5.065
 3548SOL    HW211544   4.714   2.677   4.987
 3549SOL     OW11545   6.173   4.816   3.139
 3549SOL    HW111546   6.263   4.852   3.163
 3549SOL    HW211547   6.103   4.860   3.196
 3550SOL     OW11548   5.424   1.610   2.453
 3550SOL    HW111549   5.442   1.642   2.546
 3550SOL    HW211550   5.414   1.511   2.453
 3551SOL     OW11551   3.265   6.614   3.492
 3551SOL    HW111552   3.290   6.693   3.549
 3551SOL    HW211553   3.325   6.537   3.514
 3552SOL     OW11554   6.220   5.918   2.905
 3552SOL    HW111555   6.309   5.964   2.902
 3552SOL    HW211556   6.172   5.932   2.818
 3553SOL     OW11557   5.142   2.420   2.842
 3553SOL    HW111558   5.104   2.337   2.884
 3553SOL    HW211559   5.135   2.496   2.906
 3554SOL     OW11560   4.127   4.718   6.903
 3554SOL    HW111561   4.091   4.794   6.849
 3554SOL    HW211562   4.053   4.675   6.955
 3555SOL     OW11563   1.146   2.782   2.905
 3555SOL    HW111564   1.070   2.839   2.874
 3555SOL    HW211565   1.175   2.722   2.830
 3556SOL     OW11566   3.289   0.901   5.793
 3556SOL    HW111567   3.360   0.843   5.833
 3556SOL    HW211568   3.247   0.957   5.865
 3557SOL     OW11569   2.043   0.189   4.677
 3557SOL    HW111570   2.037   0.094   4.709
 3557SOL    HW211571   1.957   0.236   4.695
 3558SOL     OW11572   0.051   6.163   1.583
 3558SOL    HW111573   0.005   6.232   1.638
 3558SOL    HW211574   0.089   6.092   1.643
 3559SOL     OW11575   0.598   0.895   4.850
 3559SOL    HW111576   0.656   0.925   4.774
 3559SOL    HW211577   0.594   0.967   4.919
 3560SOL     OW11578   0.418   5.988   1.304
 3560SOL    HW111579   0.504   6.017   1.263
 3560SOL    HW211580   0.378   5.914   1.251
 3561SOL     OW11581   4.933   5.012   5.802
 3561SOL    HW111582   4.931   4.919   5.840
 3561SOL    HW211583   4.958   5.076   5.874
 3562SOL     OW11584   5.485   0.439   3.539
 3562SOL    HW111585   5.402   0.459   3.486
 3562SOL    HW211586   5.546   0.382   3.485
 3563SOL     OW11587   4.586   0.869   1.813
 3563SOL    HW111588   4.617   0.835   1.902
 3563SOL    HW211589   4.656   0.849   1.744
 3564SOL     OW11590   0.093   4.562   3.910
 3564SOL    HW111591   0.017   4.617   3.945
 3564SOL    HW211592   0.121   4.597   3.821
 3565SOL     OW11593   2.615   0.608   5.091
 3565SOL    HW111594   2.656   0.549   5.021
 3565SOL    HW211595   2.654   0.586   5.180
 3566SOL     OW11596   0.025   2.928   5.944
 3566SOL    HW111597   6.988   2.859   5.975
 3566SOL    HW211598   0.045   2.913   5.847
 3567SOL     OW11599   6.857   3.318   0.768
 3567SOL    HW111600   6.797   3.390   0.805
 3567SOL    HW211601   6.927   3.295   0.835
 3568SOL     OW11602   4.647   4.367   3.557
 3568SOL    HW111603   4.699   4.313   3.624
 3568SOL    HW211604   4.637   4.314   3.473
 3569SOL     OW11605   3.280   4.080   4.072
 3569SOL    HW111606   3.306   4.146   4.143
 3569SOL    HW211607   3.360   4.060   4.015
 3570SOL     OW11608   0.345   1.568   6.243
 3570SOL    HW111609   0.385   1.485   6.282
 3570SOL    HW211610   0.332   1.636   6.314
 3571SOL     OW11611   2.434   6.320   5.306
 3571SOL    HW111612   2.454   6.398   5.247
 3571SOL    HW211613   2.344   6.283   5.282
 3572SOL     OW11614   5.166   4.520   1.554
 3572SOL    HW111615   5.248   4.544   1.503
 3572SOL    HW211616   5.087   4.522   1.493
 3573SOL     OW11617   6.796   3.690   2.938
 3573SOL    HW111618   6.697   3.689   2.953
 3573SOL    HW211619   6.817   3.646   2.851
 3574SOL     OW11620   2.500   2.996   5.907
 3574SOL    HW111621   2.534   2.907   5.878
 3574SOL    HW211622   2.402   2.990   5.927
 3575SOL     OW11623   5.486   6.812   7.011
 3575SOL    HW111624   5.470   6.905   0.012
 3575SOL    HW211625   5.479   6.807   6.911
 3576SOL     OW11626   1.023   3.000   6.857
 3576SOL    HW111627   0.945   3.059   6.834
 3576SOL    HW211628   1.088   3.051   6.912
 3577SOL     OW11629   2.579   2.760   5.853
 3577SOL    HW111630   2.573   2.732   5.948
 3577SOL    HW211631   2.640   2.697   5.804
 3578SOL     OW11632   3.012   3.079   6.119
 3578SOL    HW111633   2.998   3.172   6.153
 3578SOL    HW211634   2.939   3.056   6.055
 3579SOL     OW11635   0.432   2.807   2.037
 3579SOL    HW111636   0.521   2.760   2.036
 3579SOL    HW211637   0.442   2.897   2.078
 3580SOL     OW11638   0.272   4.464   1.885
 3580SOL    HW111639   0.216   4.538   1.922
 3580SOL    HW211640   0.258   4.381   1.939
 3581SOL     OW11641   0.613   0.052   2.684
 3581SOL    HW111642   0.573   0.010   2.602
 3581SOL    HW211643   0.668   0.131   2.658
 3582SOL     OW11644   3.718   4.202   5.841
 3582SOL    HW111645   3.656   4.123   5.843
 3582SOL    HW211646   3.669   4.282   5.806
 3583SOL     OW11647   0.462   4.659   0.854
 3583SOL    HW111648   0.500   4.630   0.942
 3583SOL    HW211649   0.425   4.751   0.863
 3584SOL     OW11650   6.091   4.936   4.969
 3584SOL    HW111651   6.012   4.877   4.988
 3584SOL    HW211652   6.060   5.024   4.936
 3585SOL     OW11653   2.645   1.754   3.386
 3585SOL    HW111654   2.609   1.670   3.428
 3585SOL    HW211655   2.697   1.730   3.303
 3586SOL     OW11656   6.224   2.058   4.729
 3586SOL    HW111657   6.128   2.061   4.699
 3586SOL    HW211658   6.283   2.079   4.651
 3587SOL     OW11659   3.207   0.007   6.444
 3587SOL    HW111660   3.248   6.950   6.474
 3587SOL    HW211661   3.110   7.022   6.422
 3588SOL     OW11662   6.464   4.215   4.370
 3588SOL    HW111663   6.563   4.205   4.377
 3588SOL    HW211664   6.425   4.135   4.325
 3589SOL     OW11665   0.388   7.023   6.713
 3589SOL    HW111666   0.295   7.016   6.678
 3589SOL    HW211667   0.419   6.934   6.747
 3590SOL     OW11668   0.038   5.047   0.664
 3590SOL    HW111669   0.122   5.063   0.612
 3590SOL    HW211670   7.013   4.976   0.619
 3591SOL     OW11671   5.961   1.959   6.765
 3591SOL    HW111672   6.022   2.010   6.826
 3591SOL    HW211673   5.910   2.024   6.708
 3592SOL     OW11674   1.823   6.837   1.624
 3592SOL    HW111675   1.732   6.814   1.657
 3592SOL    HW211676   1.886   6.844   1.702
 3593SOL     OW11677   5.306   3.357   5.847
 3593SOL    HW111678   5.209   3.335   5.859
 3593SOL    HW211679   5.328   3.356   5.750
 3594SOL     OW11680   4.621   4.899   4.972
 3594SOL    HW111681   4.606   4.825   4.907
 3594SOL    HW211682   4.537   4.954   4.980
 3595SOL     OW11683   5.689   6.305   5.026
 3595SOL    HW111684   5.670   6.215   5.066
 3595SOL    HW211685   5.783   6.308   4.994
 3596SOL     OW11686   3.921   2.063   3.573
 3596SOL    HW111687   3.945   2.099   3.483
 3596SOL    HW211688   3.908   1.964   3.566
 3597SOL     OW11689   2.180   3.496   5.409
 3597SOL    HW111690   2.265   3.548   5.398
 3597SOL    HW211691   2.149   3.461   5.320
 3598SOL     OW11692   1.382   5.169   4.892
 3598SOL    HW111693   1.314   5.234   4.859
 3598SOL    HW211694   1.371   5.156   4.991
 3599SOL     OW11695   4.202   1.520   4.726
 3599SOL    HW111696   4.299   1.505   4.747
 3599SOL    HW211697   4.171   1.605   4.769
 3600SOL     OW11698   3.119   3.505   0.708
 3600SOL    HW111699   3.203   3.555   0.691
 3600SOL    HW211700   3.051   3.566   0.749
 3601SOL     OW11701   5.257   0.780   5.459
 3601SOL    HW111702   5.215   0.853   5.405
 3601SOL    HW211703   5.255   0.806   5.556
 3602SOL     OW11704   2.013   1.459   1.234
 3602SOL    HW111705   1.966   1.510   1.162
 3602SOL    HW211706   2.098   1.421   1.197
 3603SOL     OW11707   3.005   0.974   5.694
 3603SOL    HW111708   3.062   0.981   5.612
 3603SOL    HW211709   3.063   0.985   5.775
 3604SOL     OW11710   0.163   0.298   3.502
 3604SOL    HW111711   0.236   0.360   3.473
 3604SOL    HW211712   0.166   0.287   3.602
 3605SOL     OW11713   0.931   5.573   3.537
 3605SOL    HW111714   0.929   5.490   3.594
 3605SOL    HW211715   1.015   5.623   3.554
 3606SOL     OW11716   2.480   6.404   2.469
 3606SOL    HW111717   2.573   6.433   2.493
 3606SOL    HW211718   2.436   6.365   2.550
 3607SOL     OW11719   5.180   3.075   2.769
 3607SOL    HW111720   5.133   2.989   2.790
 3607SOL    HW211721   5.224   3.068   2.679
 3608SOL     OW11722   2.592   2.039   5.228
 3608SOL    HW111723   2.562   2.067   5.319
 3608SOL    HW211724   2.566   1.944   5.212
 3609SOL     OW11725   2.543   0.272   4.648
 3609SOL    HW111726   2.580   0.231   4.564
 3609SOL    HW211727   2.448   0.242   4.660
 3610SOL     OW11728   2.198   0.014   4.932
 3610SOL    HW111729   2.244   6.956   4.912
 3610SOL    HW211730   2.113   7.025   4.980
 3611SOL     OW11731   5.217   5.099   3.151
 3611SOL    HW111732   5.168   5.091   3.064
 3611SOL    HW211733   5.242   5.008   3.183
 3612SOL     OW11734   5.588   1.328   6.833
 3612SOL    HW111735   5.547   1.374   6.912
 3612SOL    HW211736   5.565   1.231   6.835
 3613SOL     OW11737   3.992   5.480   1.285
 3613SOL    HW111738   4.070   5.418   1.284
 3613SOL    HW211739   3.910   5.432   1.253
 3614SOL     OW11740   4.106   5.057   6.293
 3614SOL    HW111741   4.205   5.065   6.310
 3614SOL    HW211742   4.089   4.978   6.234
 3615SOL     OW11743   5.826   2.489   5.685
 3615SOL    HW111744   5.762   2.434   5.632
 3615SOL    HW211745   5.820   2.464   5.782
 3616SOL     OW11746   1.445   1.425   6.992
 3616SOL    HW111747   1.455   1.524   7.000
 3616SOL    HW211748   1.415   1.388   0.051
 3617SOL     OW11749   3.734   6.354   6.141
 3617SOL    HW111750   3.758   6.257   6.129
 3617SOL    HW211751   3.642   6.369   6.107
 3618SOL     OW11752   1.857   4.477   5.004
 3618SOL    HW111753   1.776   4.532   4.980
 3618SOL    HW211754   1.841   4.382   4.977
 3619SOL     OW11755   5.798   3.485   0.979
 3619SOL    HW111756   5.706   3.510   1.008
 3619SOL    HW211757   5.862   3.558   1.003
 3620SOL     OW11758   6.229   5.791   5.305
 3620SOL    HW111759   6.212   5.798   5.404
 3620SOL    HW211760   6.314   5.839   5.283
 3621SOL     OW11761   2.915   3.391   3.614
 3621SOL    HW111762   2.880   3.462   3.552
 3621SOL    HW211763   2.959   3.319   3.561
 3622SOL     OW11764   1.053   5.691   6.671
 3622SOL    HW111765   0.958   5.661   6.664
 3622SOL    HW211766   1.069   5.733   6.760
 3623SOL     OW11767   1.188   4.959   6.566
 3623SOL    HW111768   1.119   4.897   6.604
 3623SOL    HW211769   1.186   4.954   6.466
 3624SOL     OW11770   3.181   1.956   1.430
 3624SOL    HW111771   3.193   2.031   1.495
 3624SOL    HW211772   3.270   1.913   1.412
 3625SOL     OW11773   6.757   2.483   0.760
 3625SOL    HW111774   6.757   2.498   0.661
 3625SOL    HW211775   6.708   2.399   0.780
 3626SOL     OW11776   1.083   2.434   5.031
 3626SOL    HW111777   1.151   2.503   5.004
 3626SOL    HW211778   1.127   2.344   5.035
 3627SOL     OW11779   3.606   2.065   1.799
 3627SOL    HW111780   3.611   2.147   1.857
 3627SOL    HW211781   3.668   1.996   1.835
 3628SOL     OW11782   5.952   1.845   1.000
 3628SOL    HW111783   5.982   1.809   0.912
 3628SOL    HW211784   5.862   1.807   1.023
 3629SOL     OW11785   1.061   1.320   4.347
 3629SOL    HW111786   0.997   1.252   4.311
 3629SOL    HW211787   1.155   1.284   4.341
 3630SOL     OW11788   6.994   2.177   2.645
 3630SOL    HW111789   0.023   2.142   2.572
 3630SOL    HW211790   6.906   2.204   2.608
 3631SOL     OW11791   1.662   6.588   2.558
 3631SOL    HW111792   1.595   6.657   2.529
 3631SOL    HW211793   1.651   6.507   2.501
 3632SOL     OW11794   4.893   4.215   0.959
 3632SOL    HW111795   4.803   4.188   0.924
 3632SOL    HW211796   4.892   4.312   0.983
 3633SOL     OW11797   3.860   3.591   6.616
 3633SOL    HW111798   3.838   3.598   6.519
 3633SOL    HW211799   3.890   3.498   6.636
 3634SOL     OW11800   3.416   5.692   6.952
 3634SOL    HW111801   3.485   5.749   6.907
 3634SOL    HW211802   3.446   5.671   0.016
 3635SOL     OW11803   2.100   0.087   2.019
 3635SOL    HW111804   2.093   0.117   2.114
 3635SOL    HW211805   2.125   0.164   1.961
 3636SOL     OW11806   0.749   4.715   6.454
 3636SOL    HW111807   0.709   4.669   6.374
 3636SOL    HW211808   0.830   4.665   6.484
 3637SOL     OW11809   6.419   2.751   0.046
 3637SOL    HW111810   6.495   2.767   7.012
 3637SOL    HW211811   6.434   2.804   0.130
 3638SOL     OW11812   5.906   4.886   2.950
 3638SOL    HW111813   5.866   4.816   3.010
 3638SOL    HW211814   5.997   4.910   2.984
 3639SOL     OW11815   3.420   4.000   3.838
 3639SOL    HW111816   3.401   4.015   3.741
 3639SOL    HW211817   3.509   3.956   3.847
 3640SOL     OW11818   4.858   2.410   0.665
 3640SOL    HW111819   4.936   2.377   0.612
 3640SOL    HW211820   4.863   2.509   0.673
 3641SOL     OW11821   5.844   3.796   2.681
 3641SOL    HW111822   5.872   3.707   2.716
 3641SOL    HW211823   5.765   3.785   2.620
 3642SOL     OW11824   6.073   2.975   6.445
 3642SOL    HW111825   5.976   2.998   6.437
 3642SOL    HW211826   6.127   3.060   6.442
 3643SOL     OW11827   3.908   5.485   5.051
 3643SOL    HW111828   3.996   5.484   5.099
 3643SOL    HW211829   3.915   5.545   4.971
 3644SOL     OW11830   2.637   0.314   1.601
 3644SOL    HW111831   2.556   0.369   1.626
 3644SOL    HW211832   2.705   0.373   1.557
 3645SOL     OW11833   1.300   4.265   3.387
 3645SOL    HW111834   1.275   4.315   3.469
 3645SOL    HW211835   1.378   4.206   3.407
 3646SOL     OW11836   2.103   4.503   5.103
 3646SOL    HW111837   2.145   4.425   5.057
 3646SOL    HW211838   2.009   4.514   5.070
 3647SOL     OW11839   3.514   6.954   6.590
 3647SOL    HW111840   3.511   7.029   6.524
 3647SOL    HW211841   3.443   6.887   6.568
 3648SOL     OW11842   4.649   5.415   3.382
 3648SOL    HW111843   4.642   5.319   3.409
 3648SOL    HW211844   4.576   5.436   3.317
 3649SOL     OW11845   6.125   2.423   0.593
 3649SOL    HW111846   6.054   2.443   0.661
 3649SOL    HW211847   6.178   2.506   0.575
 3650SOL     OW11848   5.449   5.428   0.238
 3650SOL    HW111849   5.469   5.457   0.332
 3650SOL    HW211850   5.427   5.508   0.183
 3651SOL     OW11851   0.955   2.172   5.674
 3651SOL    HW111852   1.003   2.183   5.587
 3651SOL    HW211853   0.964   2.077   5.705
 3652SOL     OW11854   4.190   1.466   2.008
 3652SOL    HW111855   4.158   1.399   2.075
 3652SOL    HW211856   4.116   1.485   1.943
 3653SOL     OW11857   1.061   1.765   1.139
 3653SOL    HW111858   0.992   1.799   1.075
 3653SOL    HW211859   1.146   1.816   1.125
 3654SOL     OW11860   5.178   0.005   0.421
 3654SOL    HW111861   5.084   7.005   0.409
 3654SOL    HW211862   5.233   6.957   0.455
 3655SOL     OW11863   1.835   2.012   4.110
 3655SOL    HW111864   1.874   1.968   4.029
 3655SOL    HW211865   1.875   2.102   4.121
 3656SOL     OW11866   6.768   0.057   1.264
 3656SOL    HW111867   6.800   0.004   1.343
 3656SOL    HW211868   6.670   0.043   1.252
 3657SOL     OW11869   5.680   5.308   5.172
 3657SOL    HW111870   5.616   5.356   5.113
 3657SOL    HW211871   5.642   5.301   5.264
 3658SOL     OW11872   2.060   4.980   5.725
 3658SOL    HW111873   2.009   5.050   5.676
 3658SOL    HW211874   2.070   4.899   5.666
 3659SOL     OW11875   0.088   1.544   6.208
 3659SOL    HW111876   0.037   1.521   6.125
 3659SOL    HW211877   0.186   1.542   6.189
 3660SOL     OW11878   5.625   5.403   6.665
 3660SOL    HW111879   5.564   5.472   6.626
 3660SOL    HW211880   5.692   5.448   6.724
 3661SOL     OW11881   0.185   1.917   5.157
 3661SOL    HW111882   0.252   1.962   5.216
 3661SOL    HW211883   0.193   1.953   5.064
 3662SOL     OW11884   2.605   1.675   5.508
 3662SOL    HW111885   2.597   1.589   5.457
 3662SOL    HW211886   2.638   1.747   5.447
 3663SOL     OW11887   2.651   2.240   6.771
 3663SOL    HW111888   2.616   2.251   6.678
 3663SOL    HW211889   2.699   2.323   6.798
 3664SOL     OW11890   3.850   1.116   1.611
 3664SOL    HW111891   3.881   1.053   1.541
 3664SOL    HW211892   3.887   1.207   1.594
 3665SOL     OW11893   0.798   5.587   6.019
 3665SOL    HW111894   0.824   5.679   6.048
 3665SOL    HW211895   0.872   5.546   5.966
 3666SOL     OW11896   1.848   2.488   4.824
 3666SOL    HW111897   1.887   2.563   4.772
 3666SOL    HW211898   1.878   2.494   4.920
 3667SOL     OW11899   2.162   0.458   1.618
 3667SOL    HW111900   2.124   0.550   1.620
 3667SOL    HW211901   2.170   0.428   1.523
 3668SOL     OW11902   0.034   0.888   1.496
 3668SOL    HW111903   0.124   0.859   1.528
 3668SOL    HW211904   0.044   0.948   1.417
 3669SOL     OW11905   0.766   1.785   3.842
 3669SOL    HW111906   0.790   1.753   3.934
 3669SOL    HW211907   0.666   1.792   3.834
 3670SOL     OW11908   2.515   6.399   1.813
 3670SOL    HW111909   2.491   6.393   1.910
 3670SOL    HW211910   2.474   6.321   1.765
 3671SOL     OW11911   6.053   0.328   3.707
 3671SOL    HW111912   6.021   0.423   3.711
 3671SOL    HW211913   6.132   0.318   3.767
 3672SOL     OW11914   3.659   6.565   3.365
 3672SOL    HW111915   3.646   6.661   3.389
 3672SOL    HW211916   3.623   6.549   3.273
 3673SOL     OW11917   3.441   6.187   1.367
 3673SOL    HW111918   3.372   6.120   1.394
 3673SOL    HW211919   3.448   6.189   1.267
 3674SOL     OW11920   1.740   4.520   6.413
 3674SOL    HW111921   1.758   4.442   6.354
 3674SOL    HW211922   1.826   4.561   6.442
 3675SOL     OW11923   1.490   0.657   4.013
 3675SOL    HW111924   1.445   0.682   3.928
 3675SOL    HW211925   1.421   0.639   4.083
 3676SOL     OW11926   3.597   2.035   4.141
 3676SOL    HW111927   3.617   1.949   4.188
 3676SOL    HW211928   3.622   2.112   4.200
 3677SOL     OW11929   2.276   0.801   4.284
 3677SOL    HW111930   2.302   0.760   4.197
 3677SOL    HW211931   2.178   0.823   4.283
 3678SOL     OW11932   0.851   0.518   4.106
 3678SOL    HW111933   0.751   0.510   4.108
 3678SOL    HW211934   0.877   0.591   4.043
 3679SOL     OW11935   4.053   0.634   2.539
 3679SOL    HW111936   4.106   0.610   2.458
 3679SOL    HW211937   4.061   0.732   2.558
 3680SOL     OW11938   3.279   1.214   4.571
 3680SOL    HW111939   3.189   1.173   4.569
 3680SOL    HW211940   3.274   1.305   4.612
 3681SOL     OW11941   1.412   5.992   4.466
 3681SOL    HW111942   1.313   5.983   4.449
 3681SOL    HW211943   1.449   5.903   4.490
 3682SOL     OW11944   5.460   1.872   1.633
 3682SOL    HW111945   5.532   1.898   1.698
 3682SOL    HW211946   5.489   1.790   1.583
 3683SOL     OW11947   5.741   1.522   6.683
 3683SOL    HW111948   5.681   1.451   6.718
 3683SOL    HW211949   5.764   1.503   6.588
 3684SOL     OW11950   2.118   6.616   5.790
 3684SOL    HW111951   2.151   6.676   5.717
 3684SOL    HW211952   2.035   6.571   5.760
 3685SOL     OW11953   2.201   6.260   5.167
 3685SOL    HW111954   2.109   6.220   5.165
 3685SOL    HW211955   2.214   6.317   5.086
 3686SOL     OW11956   0.435   3.963   2.700
 3686SOL    HW111957   0.407   3.946   2.795
 3686SOL    HW211958   0.483   4.050   2.695
 3687SOL     OW11959   5.377   5.052   4.172
 3687SOL    HW111960   5.415   5.100   4.251
 3687SOL    HW211961   5.289   5.012   4.195
 3688SOL     OW11962   6.288   2.297   0.411
 3688SOL    HW111963   6.265   2.201   0.398
 3688SOL    HW211964   6.220   2.340   0.470
 3689SOL     OW11965   1.123   6.707   5.789
 3689SOL    HW111966   1.162   6.746   5.706
 3689SOL    HW211967   1.158   6.614   5.802
 3690SOL     OW11968   5.084   5.519   1.582
 3690SOL    HW111969   5.040   5.509   1.493
 3690SOL    HW211970   5.153   5.447   1.594
 3691SOL     OW11971   1.322   2.736   0.583
 3691SOL    HW111972   1.311   2.822   0.533
 3691SOL    HW211973   1.281   2.662   0.530
 3692SOL     OW11974   0.893   2.852   5.670
 3692SOL    HW111975   0.919   2.910   5.593
 3692SOL    HW211976   0.932   2.890   5.754
 3693SOL     OW11977   6.347   1.221   2.103
 3693SOL    HW111978   6.281   1.262   2.165
 3693SOL    HW211979   6.348   1.122   2.115
 3694SOL     OW11980   6.584   0.164   2.667
 3694SOL    HW111981   6.600   0.087   2.605
 3694SOL    HW211982   6.669   0.212   2.684
 3695SOL     OW11983   5.891   3.549   2.757
 3695SOL    HW111984   5.840   3.466   2.734
 3695SOL    HW211985   5.989   3.529   2.756
 3696SOL     OW11986   4.164   0.585   4.656
 3696SOL    HW111987   4.134   0.604   4.750
 3696SOL    HW211988   4.235   0.650   4.631
 3697SOL     OW11989   6.864   6.412   2.941
 3697SOL    HW111990   6.784   6.467   2.962
 3697SOL    HW211991   6.927   6.464   2.883
 3698SOL     OW11992   1.588   6.998   2.840
 3698SOL    HW111993   1.666   6.937   2.845
 3698SOL    HW211994   1.576   0.016   2.928
 3699SOL     OW11995   2.612   2.404   3.565
 3699SOL    HW111996   2.566   2.477   3.516
 3699SOL    HW211997   2.615   2.426   3.663
 3700SOL     OW11998   1.258   5.277   4.614
 3700SOL    HW111999   1.284   5.249   4.522
 3700SOL    HW212000   1.214   5.201   4.661
 3701SOL     OW12001   1.775   0.505   2.069
 3701SOL    HW112002   1.814   0.419   2.103
 3701SOL    HW212003   1.742   0.559   2.146
 3702SOL     OW12004   5.554   4.794   3.037
 3702SOL    HW112005   5.566   4.797   2.938
 3702SOL    HW212006   5.627   4.740   3.078
 3703SOL     OW12007   1.468   1.567   3.769
 3703SOL    HW112008   1.524   1.645   3.796
 3703SOL    HW212009   1.418   1.589   3.686
 3704SOL     OW12010   6.726   1.909   0.581
 3704SOL    HW112011   6.726   1.898   0.680
 3704SOL    HW212012   6.797   1.852   0.540
 3705SOL     OW12013   5.044   4.664   3.185
 3705SOL    HW112014   5.115   4.732   3.201
 3705SOL    HW212015   5.002   4.638   3.272
 3706SOL     OW12016   1.231   4.541   0.389
 3706SOL    HW112017   1.258   4.565   0.296
 3706SOL    HW212018   1.148   4.591   0.414
 3707SOL     OW12019   1.558   5.402   3.557
 3707SOL    HW112020   1.594   5.460   3.630
 3707SOL    HW212021   1.630   5.341   3.524
 3708SOL     OW12022   2.193   6.063   1.113
 3708SOL    HW112023   2.102   6.101   1.130
 3708SOL    HW212024   2.217   6.000   1.187
 3709SOL     OW12025   1.508   1.745   2.162
 3709SOL    HW112026   1.509   1.693   2.076
 3709SOL    HW212027   1.422   1.726   2.211
 3710SOL     OW12028   0.527   4.124   5.165
 3710SOL    HW112029   0.594   4.081   5.104
 3710SOL    HW212030   0.567   4.205   5.206
 3711SOL     OW12031   1.259   5.537   4.322
 3711SOL    HW112032   1.242   5.476   4.245
 3711SOL    HW212033   1.327   5.606   4.296
 3712SOL     OW12034   1.837   5.538   4.572
 3712SOL    HW112035   1.926   5.550   4.528
 3712SOL    HW212036   1.782   5.473   4.519
 3713SOL     OW12037   6.176   0.487   4.194
 3713SOL    HW112038   6.239   0.542   4.139
 3713SOL    HW212039   6.210   0.393   4.200
 3714SOL     OW12040   0.689   4.736   0.669
 3714SOL    HW112041   0.680   4.773   0.577
 3714SOL    HW212042   0.602   4.745   0.717
 3715SOL     OW12043   5.703   5.716   3.998
 3715SOL    HW112044   5.662   5.648   3.937
 3715SOL    HW212045   5.669   5.807   3.975
 3716SOL     OW12046   4.988   5.724   4.425
 3716SOL    HW112047   4.928   5.653   4.386
 3716SOL    HW212048   4.932   5.796   4.466
 3717SOL     OW12049   4.489   0.775   1.031
 3717SOL    HW112050   4.575   0.826   1.025
 3717SOL    HW212051   4.502   0.693   1.086
 3718SOL     OW12052   6.586   6.353   6.196
 3718SOL    HW112053   6.504   6.403   6.222
 3718SOL    HW212054   6.592   6.268   6.249
 3719SOL     OW12055   3.528   4.141   0.166
 3719SOL    HW112056   3.541   4.233   0.204
 3719SOL    HW212057   3.433   4.112   0.181
 3720SOL     OW12058   0.128   3.601   1.366
 3720SOL    HW112059   0.068   3.681   1.374
 3720SOL    HW212060   0.211   3.626   1.316
 3721SOL     OW12061   0.331   6.162   5.584
 3721SOL    HW112062   0.322   6.089   5.517
 3721SOL    HW212063   0.428   6.178   5.604
 3722SOL     OW12064   5.448   6.358   3.221
 3722SOL    HW112065   5.398   6.271   3.224
 3722SOL    HW212066   5.533   6.349   3.273
 3723SOL     OW12067   4.563   3.636   0.604
 3723SOL    HW112068   4.525   3.618   0.695
 3723SOL    HW212069   4.533   3.564   0.541
 3724SOL     OW12070   1.295   4.918   4.672
 3724SOL    HW112071   1.297   4.992   4.740
 3724SOL    HW212072   1.286   4.830   4.719
 3725SOL     OW12073   1.403   5.849   0.211
 3725SOL    HW112074   1.353   5.806   0.285
 3725SOL    HW212075   1.404   5.788   0.132
 3726SOL     OW12076   5.934   3.982   5.079
 3726SOL    HW112077   5.901   3.895   5.044
 3726SOL    HW212078   5.877   4.011   5.157
 3727SOL     OW12079   6.905   3.527   3.794
 3727SOL    HW112080   6.944   3.565   3.878
 3727SOL    HW212081   6.876   3.433   3.811
 3728SOL     OW12082   2.940   2.754   0.229
 3728SOL    HW112083   2.849   2.712   0.236
 3728SOL    HW212084   3.009   2.690   0.263
 3729SOL     OW12085   0.791   0.315   5.687
 3729SOL    HW112086   0.877   0.360   5.664
 3729SOL    HW212087   0.806   0.254   5.765
 3730SOL     OW12088   4.834   5.934   4.537
 3730SOL    HW112089   4.841   6.021   4.488
 3730SOL    HW212090   4.756   5.937   4.600
 3731SOL     OW12091   0.612   2.215   0.046
 3731SOL    HW112092   0.520   2.229   0.084
 3731SOL    HW212093   0.610   2.235   6.977
 3732SOL     OW12094   3.394   2.569   6.804
 3732SOL    HW112095   3.483   2.547   6.846
 3732SOL    HW212096   3.398   2.550   6.706
 3733SOL     OW12097   1.927   0.491   3.382
 3733SOL    HW112098   1.867   0.551   3.434
 3733SOL    HW212099   1.923   0.516   3.285
 3734SOL     OW12100   3.955   6.829   1.071
 3734SOL    HW112101   3.929   6.822   1.167
 3734SOL    HW212102   4.048   6.794   1.058
 3735SOL     OW12103   4.329   6.661   2.888
 3735SOL    HW112104   4.281   6.602   2.952
 3735SOL    HW212105   4.420   6.623   2.869
 3736SOL     OW12106   6.890   0.890   0.856
 3736SOL    HW112107   6.950   0.941   0.918
 3736SOL    HW212108   6.796   0.922   0.865
 3737SOL     OW12109   6.725   2.241   2.546
 3737SOL    HW112110   6.708   2.179   2.469
 3737SOL    HW212111   6.685   2.330   2.526
 3738SOL     OW12112   6.493   6.771   0.949
 3738SOL    HW112113   6.550   6.707   1.001
 3738SOL    HW212114   6.550   6.840   0.906
 3739SOL     OW12115   3.216   4.057   0.236
 3739SOL    HW112116   3.148   4.061   0.310
 3739SOL    HW212117   3.179   4.099   0.154
 3740SOL     OW12118   5.120   5.386   6.346
 3740SOL    HW112119   5.024   5.406   6.366
 3740SOL    HW212120   5.142   5.420   6.254
 3741SOL     OW12121   5.220   3.114   0.293
 3741SOL    HW112122   5.152   3.051   0.256
 3741SOL    HW212123   5.285   3.063   0.349
 3742SOL     OW12124   3.691   5.395   0.813
 3742SOL    HW112125   3.593   5.404   0.831
 3742SOL    HW212126   3.718   5.463   0.745
 3743SOL     OW12127   3.646   3.332   1.392
 3743SOL    HW112128   3.641   3.261   1.321
 3743SOL    HW212129   3.739   3.369   1.395
 3744SOL     OW12130   0.453   6.539   2.350
 3744SOL    HW112131   0.543   6.583   2.344
 3744SOL    HW212132   0.394   6.594   2.409
 3745SOL     OW12133   4.910   3.535   2.386
 3745SOL    HW112134   4.906   3.435   2.384
 3745SOL    HW212135   4.827   3.571   2.342
 3746SOL     OW12136   6.075   0.351   4.515
 3746SOL    HW112137   6.090   0.253   4.527
 3746SOL    HW212138   6.159   0.394   4.481
 3747SOL     OW12139   3.244   6.828   5.960
 3747SOL    HW112140   3.256   6.755   5.892
 3747SOL    HW212141   3.315   6.819   6.031
 3748SOL     OW12142   5.022   1.897   2.560
 3748SOL    HW112143   4.951   1.859   2.501
 3748SOL    HW212144   5.103   1.917   2.504
 3749SOL     OW12145   0.038   6.631   2.094
 3749SOL    HW112146   0.027   6.652   1.997
 3749SOL    HW212147   0.124   6.581   2.107
 3750SOL     OW12148   5.600   4.304   0.775
 3750SOL    HW112149   5.699   4.313   0.786
 3750SOL    HW212150   5.556   4.301   0.865
 3751SOL     OW12151   1.769   3.765   2.662
 3751SOL    HW112152   1.833   3.706   2.612
 3751SOL    HW212153   1.677   3.751   2.627
 3752SOL     OW12154   0.721   6.302   6.634
 3752SOL    HW112155   0.633   6.258   6.652
 3752SOL    HW212156   0.709   6.401   6.636
 3753SOL     OW12157   6.568   6.899   4.977
 3753SOL    HW112158   6.484   6.872   5.025
 3753SOL    HW212159   6.596   6.826   4.915
 3754SOL     OW12160   6.560   6.828   1.271
 3754SOL    HW112161   6.556   6.839   1.171
 3754SOL    HW212162   6.540   6.916   1.314
 3755SOL     OW12163   5.162   3.301   3.262
 3755SOL    HW112164   5.223   3.243   3.317
 3755SOL    HW212165   5.199   3.310   3.170
 3756SOL     OW12166   3.032   0.524   6.368
 3756SOL    HW112167   3.002   0.596   6.431
 3756SOL    HW212168   2.956   0.499   6.308
 3757SOL     OW12169   3.469   5.406   6.420
 3757SOL    HW112170   3.408   5.462   6.363
 3757SOL    HW212171   3.455   5.310   6.400
 3758SOL     OW12172   1.617   0.980   4.339
 3758SOL    HW112173   1.560   0.978   4.421
 3758SOL    HW212174   1.680   1.057   4.345
 3759SOL     OW12175   4.490   4.313   6.691
 3759SOL    HW112176   4.462   4.275   6.602
 3759SOL    HW212177   4.499   4.412   6.683
 3760SOL     OW12178   1.717   2.416   5.161
 3760SOL    HW112179   1.673   2.446   5.246
 3760SOL    HW212180   1.816   2.410   5.175
 3761SOL     OW12181   0.087   6.598   4.072
 3761SOL    HW112182   0.030   6.605   3.991
 3761SOL    HW212183   0.040   6.545   4.143
 3762SOL     OW12184   0.547   3.749   6.873
 3762SOL    HW112185   0.613   3.736   6.799
 3762SOL    HW212186   0.541   3.665   6.927
 3763SOL     OW12187   6.230   3.824   6.133
 3763SOL    HW112188   6.214   3.726   6.118
 3763SOL    HW212189   6.160   3.860   6.194
 3764SOL     OW12190   2.393   6.689   3.659
 3764SOL    HW112191   2.294   6.683   3.665
 3764SOL    HW212192   2.418   6.754   3.586
 3765SOL     OW12193   5.753   1.194   4.417
 3765SOL    HW112194   5.728   1.271   4.477
 3765SOL    HW212195   5.675   1.171   4.358
 3766SOL     OW12196   1.584   0.360   5.154
 3766SOL    HW112197   1.671   0.391   5.191
 3766SOL    HW212198   1.583   0.260   5.148
 3767SOL     OW12199   1.702   5.008   1.477
 3767SOL    HW112200   1.781   5.017   1.416
 3767SOL    HW212201   1.648   4.928   1.451
 3768SOL     OW12202   4.640   6.725   0.814
 3768SOL    HW112203   4.598   6.636   0.833
 3768SOL    HW212204   4.578   6.780   0.758
 3769SOL     OW12205   4.393   6.310   5.027
 3769SOL    HW112206   4.340   6.393   5.015
 3769SOL    HW212207   4.424   6.304   5.122
 3770SOL     OW12208   1.836   2.046   7.005
 3770SOL    HW112209   1.911   2.071   0.037
 3770SOL    HW212210   1.751   2.086   0.010
 3771SOL     OW12211   4.964   1.509   5.630
 3771SOL    HW112212   4.963   1.588   5.692
 3771SOL    HW212213   4.870   1.481   5.611
 3772SOL     OW12214   4.875   1.113   2.454
 3772SOL    HW112215   4.859   1.014   2.460
 3772SOL    HW212216   4.947   1.131   2.387
 3773SOL     OW12217   6.984   2.958   6.672
 3773SOL    HW112218   6.902   2.975   6.617
 3773SOL    HW212219   7.006   2.860   6.668
 3774SOL     OW12220   0.566   0.893   2.223
 3774SOL    HW112221   0.640   0.866   2.284
 3774SOL    HW212222   0.600   0.961   2.157
 3775SOL     OW12223   5.509   3.769   3.587
 3775SOL    HW112224   5.451   3.849   3.605
 3775SOL    HW212225   5.547   3.736   3.674
 3776SOL     OW12226   2.653   3.433   0.448
 3776SOL    HW112227   2.572   3.398   0.495
 3776SOL    HW212228   2.721   3.360   0.440
 3777SOL     OW12229   2.172   4.217   3.596
 3777SOL    HW112230   2.165   4.120   3.619
 3777SOL    HW212231   2.131   4.271   3.669
 3778SOL     OW12232   2.061   6.577   2.174
 3778SOL    HW112233   2.149   6.602   2.134
 3778SOL    HW212234   2.076   6.541   2.266
 3779SOL     OW12235   3.139   5.255   5.939
 3779SOL    HW112236   3.094   5.235   6.026
 3779SOL    HW212237   3.228   5.209   5.936
 3780SOL     OW12238   2.640   6.861   4.791
 3780SOL    HW112239   2.715   6.820   4.843
 3780SOL    HW212240   2.606   6.795   4.725
 3781SOL     OW12241   2.798   5.527   4.736
 3781SOL    HW112242   2.803   5.615   4.785
 3781SOL    HW212243   2.889   5.501   4.705
 3782SOL     OW12244   2.252   1.953   3.330
 3782SOL    HW112245   2.342   1.981   3.297
 3782SOL    HW212246   2.183   1.977   3.262
 3783SOL     OW12247   4.877   5.879   5.169
 3783SOL    HW112248   4.792   5.883   5.221
 3783SOL    HW212249   4.866   5.818   5.090
 3784SOL     OW12250   5.509   1.467   3.156
 3784SOL    HW112251   5.430   1.501   3.104
 3784SOL    HW212252   5.482   1.386   3.207
 3785SOL     OW12253   1.872   1.555   1.611
 3785SOL    HW112254   1.775   1.553   1.588
 3785SOL    HW212255   1.910   1.645   1.590
 3786SOL     OW12256   3.079   5.363   3.505
 3786SOL    HW112257   3.163   5.331   3.550
 3786SOL    HW212258   3.103   5.423   3.429
 3787SOL     OW12259   3.980   1.628   4.088
 3787SOL    HW112260   4.053   1.575   4.131
 3787SOL    HW212261   3.912   1.565   4.049
 3788SOL     OW12262   5.728   2.756   2.272
 3788SOL    HW112263   5.769   2.809   2.346
 3788SOL    HW212264   5.657   2.696   2.309
 3789SOL     OW12265   1.512   5.161   3.123
 3789SOL    HW112266   1.555   5.245   3.155
 3789SOL    HW212267   1.415   5.161   3.147
 3790SOL     OW12268   2.066   3.342   3.930
 3790SOL    HW112269   2.129   3.337   4.008
 3790SOL    HW212270   2.006   3.422   3.940
 3791SOL     OW12271   4.791   0.374   2.015
 3791SOL    HW112272   4.701   0.338   2.038
 3791SOL    HW212273   4.862   0.312   2.048
 3792SOL     OW12274   0.282   6.640   5.451
 3792SOL    HW112275   0.284   6.717   5.515
 3792SOL    HW212276   0.249   6.559   5.499
 3793SOL     OW12277   2.021   0.288   2.575
 3793SOL    HW112278   2.040   0.192   2.554
 3793SOL    HW212279   2.104   0.343   2.559
 3794SOL     OW12280   4.282   6.437   1.661
 3794SOL    HW112281   4.182   6.431   1.667
 3794SOL    HW212282   4.310   6.533   1.661
 3795SOL     OW12283   5.463   6.989   6.441
 3795SOL    HW112284   5.453   7.011   6.344
 3795SOL    HW212285   5.372   6.987   6.484
 3796SOL     OW12286   1.476   3.176   2.236
 3796SOL    HW112287   1.424   3.181   2.321
 3796SOL    HW212288   1.452   3.091   2.188
 3797SOL     OW12289   0.631   4.953   2.615
 3797SOL    HW112290   0.666   4.995   2.530
 3797SOL    HW212291   0.532   4.946   2.609
 3798SOL     OW12292   1.768   4.817   2.084
 3798SOL    HW112293   1.737   4.738   2.032
 3798SOL    HW212294   1.860   4.798   2.120
 3799SOL     OW12295   1.770   0.056   5.435
 3799SOL    HW112296   1.734   7.000   5.396
 3799SOL    HW212297   1.699   0.126   5.431
 3800SOL     OW12298   4.959   2.776   4.712
 3800SOL    HW112299   4.964   2.764   4.812
 3800SOL    HW212300   4.867   2.754   4.680
 3801SOL     OW12301   6.924   6.791   5.942
 3801SOL    HW112302   7.016   6.814   5.910
 3801SOL    HW212303   6.928   6.764   6.038
 3802SOL     OW12304   1.598   2.054   5.382
 3802SOL    HW112305   1.649   2.051   5.296
 3802SOL    HW212306   1.631   2.130   5.438
 3803SOL     OW12307   3.488   1.531   1.117
 3803SOL    HW112308   3.527   1.621   1.098
 3803SOL    HW212309   3.531   1.493   1.199
 3804SOL     OW12310   4.887   2.357   4.466
 3804SOL    HW112311   4.826   2.434   4.486
 3804SOL    HW212312   4.875   2.328   4.371
 3805SOL     OW12313   2.334   4.279   1.713
 3805SOL    HW112314   2.348   4.183   1.693
 3805SOL    HW212315   2.409   4.312   1.771
 3806SOL     OW12316   2.576   1.706   0.216
 3806SOL    HW112317   2.673   1.683   0.206
 3806SOL    HW212318   2.567   1.785   0.276
 3807SOL     OW12319   1.641   6.494   3.412
 3807SOL    HW112320   1.658   6.440   3.494
 3807SOL    HW212321   1.547   6.526   3.413
 3808SOL     OW12322   3.074   0.056   1.428
 3808SOL    HW112323   3.004   0.097   1.370
 3808SOL    HW212324   3.120   7.012   1.377
 3809SOL     OW12325   4.231   0.971   6.152
 3809SOL    HW112326   4.137   0.937   6.156
 3809SOL    HW212327   4.235   1.051   6.093
 3810SOL     OW12328   2.637   3.143   5.334
 3810SOL    HW112329   2.727   3.140   5.291
 3810SOL    HW212330   2.571   3.094   5.277
 3811SOL     OW12331   0.754   5.512   5.702
 3811SOL    HW112332   0.724   5.426   5.662
 3811SOL    HW212333   0.802   5.494   5.787
 3812SOL     OW12334   5.499   1.385   5.146
 3812SOL    HW112335   5.505   1.467   5.203
 3812SOL    HW212336   5.582   1.330   5.158
 3813SOL     OW12337   3.322   5.241   1.266
 3813SOL    HW112338   3.378   5.275   1.191
 3813SOL    HW212339   3.326   5.141   1.268
 3814SOL     OW12340   0.554   6.836   2.156
 3814SOL    HW112341   0.457   6.843   2.182
 3814SOL    HW212342   0.604   6.784   2.225
 3815SOL     OW12343   5.089   2.241   1.422
 3815SOL    HW112344   5.105   2.328   1.375
 3815SOL    HW212345   4.999   2.243   1.465
 3816SOL     OW12346   0.962   6.452   1.267
 3816SOL    HW112347   0.866   6.469   1.246
 3816SOL    HW212348   1.009   6.539   1.281
 3817SOL     OW12349   5.226   2.081   5.498
 3817SOL    HW112350   5.134   2.065   5.533
 3817SOL    HW212351   5.283   2.001   5.515
 3818SOL     OW12352   4.975   5.472   2.109
 3818SOL    HW112353   4.909   5.447   2.179
 3818SOL    HW212354   5.063   5.493   2.151
 3819SOL     OW12355   5.236   4.264   6.799
 3819SOL    HW112356   5.238   4.228   6.706
 3819SOL    HW212357   5.142   4.279   6.828
 3820SOL     OW12358   5.264   6.211   4.062
 3820SOL    HW112359   5.223   6.178   3.977
 3820SOL    HW212360   5.291   6.306   4.051
 3821SOL     OW12361   0.898   4.033   2.097
 3821SOL    HW112362   0.981   4.018   2.150
 3821SOL    HW212363   0.900   3.977   2.015
 3822SOL     OW12364   2.442   5.082   1.558
 3822SOL    HW112365   2.412   5.177   1.554
 3822SOL    HW212366   2.409   5.032   1.478
 3823SOL     OW12367   3.615   2.788   5.226
 3823SOL    HW112368   3.579   2.859   5.166
 3823SOL    HW212369   3.542   2.725   5.251
 3824SOL     OW12370   0.318   2.271   6.965
 3824SOL    HW112371   0.222   2.259   6.939
 3824SOL    HW212372   0.364   2.328   6.896
 3825SOL     OW12373   6.817   6.619   6.290
 3825SOL    HW112374   6.879   6.541   6.276
 3825SOL    HW212375   6.751   6.622   6.215
 3826SOL     OW12376   6.788   2.448   1.285
 3826SOL    HW112377   6.745   2.402   1.363
 3826SOL    HW212378   6.788   2.546   1.300
 3827SOL     OW12379   4.189   3.332   0.551
 3827SOL    HW112380   4.123   3.279   0.497
 3827SOL    HW212381   4.148   3.355   0.639
 3828SOL     OW12382   3.844   0.851   2.378
 3828SOL    HW112383   3.773   0.794   2.420
 3828SOL    HW212384   3.919   0.864   2.443
 3829SOL     OW12385   2.146   5.198   3.496
 3829SOL    HW112386   2.234   5.231   3.532
 3829SOL    HW212387   2.103   5.139   3.564
 3830SOL     OW12388   3.218   0.593   4.625
 3830SOL    HW112389   3.181   0.501   4.641
 3830SOL    HW212390   3.144   0.659   4.622
 3831SOL     OW12391   3.530   1.123   2.300
 3831SOL    HW112392   3.536   1.216   2.263
 3831SOL    HW212393   3.608   1.069   2.267
 3832SOL     OW12394   6.186   0.363   2.961
 3832SOL    HW112395   6.279   0.328   2.966
 3832SOL    HW212396   6.187   0.459   2.933
 3833SOL     OW12397   1.123   4.988   6.983
 3833SOL    HW112398   1.045   5.051   6.979
 3833SOL    HW212399   1.092   4.900   7.019
 3834SOL     OW12400   2.564   2.258   0.027
 3834SOL    HW112401   2.467   2.247   0.048
 3834SOL    HW212402   2.583   2.220   6.965
 3835SOL     OW12403   3.525   5.853   4.969
 3835SOL    HW112404   3.464   5.930   4.951
 3835SOL    HW212405   3.560   5.817   4.882
 3836SOL     OW12406   1.088   3.497   5.932
 3836SOL    HW112407   1.058   3.502   5.836
 3836SOL    HW212408   1.188   3.492   5.934
 3837SOL     OW12409   3.478   3.683   0.246
 3837SOL    HW112410   3.469   3.597   0.295
 3837SOL    HW212411   3.550   3.675   0.177
 3838SOL     OW12412   6.199   3.508   5.442
 3838SOL    HW112413   6.250   3.594   5.437
 3838SOL    HW212414   6.227   3.448   5.367
 3839SOL     OW12415   6.171   6.338   6.210
 3839SOL    HW112416   6.162   6.246   6.250
 3839SOL    HW212417   6.214   6.399   6.277
 3840SOL     OW12418   1.927   0.873   4.014
 3840SOL    HW112419   1.830   0.897   4.012
 3840SOL    HW212420   1.945   0.803   3.945
 3841SOL     OW12421   0.422   3.928   4.949
 3841SOL    HW112422   0.485   3.854   4.974
 3841SOL    HW212423   0.400   3.981   5.030
 3842SOL     OW12424   0.948   5.332   6.799
 3842SOL    HW112425   1.027   5.314   6.857
 3842SOL    HW212426   0.979   5.342   6.704
 3843SOL     OW12427   5.965   4.051   0.642
 3843SOL    HW112428   5.987   3.956   0.621
 3843SOL    HW212429   6.043   4.110   0.618
 3844SOL     OW12430   2.001   4.418   6.292
 3844SOL    HW112431   2.057   4.369   6.225
 3844SOL    HW212432   2.054   4.430   6.376
 3845SOL     OW12433   3.563   3.704   3.726
 3845SOL    HW112434   3.565   3.754   3.812
 3845SOL    HW212435   3.561   3.605   3.744
 3846SOL     OW12436   0.059   4.771   3.423
 3846SOL    HW112437   6.998   4.732   3.405
 3846SOL    HW212438   0.100   4.724   3.501
 3847SOL     OW12439   1.007   6.974   0.533
 3847SOL    HW112440   1.021   0.044   0.535
 3847SOL    HW212441   0.975   6.946   0.443
 3848SOL     OW12442   3.139   5.246   0.321
 3848SOL    HW112443   3.155   5.172   0.386
 3848SOL    HW212444   3.067   5.306   0.356
 3849SOL     OW12445   1.962   2.463   5.851
 3849SOL    HW112446   1.887   2.460   5.917
 3849SOL    HW212447   2.042   2.417   5.889
 3850SOL     OW12448   2.234   3.621   1.594
 3850SOL    HW112449   2.310   3.685   1.582
 3850SOL    HW212450   2.184   3.644   1.677
 3851SOL     OW12451   2.675   2.247   1.508
 3851SOL    HW112452   2.722   2.207   1.429
 3851SOL    HW212453   2.741   2.261   1.582
 3852SOL     OW12454   4.297   0.493   5.381
 3852SOL    HW112455   4.316   0.428   5.307
 3852SOL    HW212456   4.368   0.563   5.382
 3853SOL     OW12457   1.920   2.910   2.057
 3853SOL    HW112458   1.873   2.992   2.089
 3853SOL    HW212459   1.885   2.830   2.106
 3854SOL     OW12460   1.298   3.055   4.533
 3854SOL    HW112461   1.213   3.003   4.537
 3854SOL    HW212462   1.328   3.077   4.626
 3855SOL     OW12463   0.069   2.232   5.690
 3855SOL    HW112464   0.122   2.208   5.771
 3855SOL    HW212465   0.024   2.320   5.705
 3856SOL     OW12466   1.009   6.051   5.443
 3856SOL    HW112467   1.063   6.060   5.359
 3856SOL    HW212468   0.920   6.095   5.429
 3857SOL     OW12469   0.841   6.572   5.688
 3857SOL    HW112470   0.827   6.563   5.786
 3857SOL    HW212471   0.903   6.648   5.670
 3858SOL     OW12472   2.131   5.238   0.210
 3858SOL    HW112473   2.193   5.214   0.135
 3858SOL    HW212474   2.162   5.195   0.295
 3859SOL     OW12475   6.925   1.835   2.356
 3859SOL    HW112476   6.910   1.934   2.360
 3859SOL    HW212477   7.023   1.816   2.352
 3860SOL     OW12478   2.739   6.297   5.365
 3860SOL    HW112479   2.826   6.267   5.406
 3860SOL    HW212480   2.755   6.324   5.270
 3861SOL     OW12481   4.282   4.639   0.444
 3861SOL    HW112482   4.184   4.635   0.427
 3861SOL    HW212483   4.298   4.660   0.540
 3862SOL     OW12484   1.092   5.095   6.095
 3862SOL    HW112485   1.034   5.014   6.109
 3862SOL    HW212486   1.183   5.066   6.066
 3863SOL     OW12487   3.506   2.966   0.613
 3863SOL    HW112488   3.460   3.039   0.664
 3863SOL    HW212489   3.445   2.933   0.541
 3864SOL     OW12490   3.795   2.003   6.556
 3864SOL    HW112491   3.752   2.086   6.591
 3864SOL    HW212492   3.848   1.960   6.630
 3865SOL     OW12493   4.305   0.510   2.404
 3865SOL    HW112494   4.217   0.516   2.356
 3865SOL    HW212495   4.305   0.430   2.463
 3866SOL     OW12496   4.038   6.689   6.414
 3866SOL    HW112497   3.975   6.741   6.357
 3866SOL    HW212498   3.993   6.663   6.499
 3867SOL     OW12499   1.624   3.546   3.986
 3867SOL    HW112500   1.527   3.543   4.011
 3867SOL    HW212501   1.659   3.453   3.979
 3868SOL     OW12502   1.693   5.390   3.219
 3868SOL    HW112503   1.660   5.485   3.220
 3868SOL    HW212504   1.736   5.369   3.307
 3869SOL     OW12505   1.355   2.358   3.382
 3869SOL    HW112506   1.311   2.269   3.398
 3869SOL    HW212507   1.299   2.431   3.420
 3870SOL     OW12508   3.338   4.818   0.413
 3870SOL    HW112509   3.423   4.773   0.441
 3870SOL    HW212510   3.265   4.750   0.410
 3871SOL     OW12511   2.980   1.925   4.437
 3871SOL    HW112512   2.957   2.016   4.403
 3871SOL    HW212513   3.031   1.933   4.523
 3872SOL     OW12514   3.886   3.494   0.744
 3872SOL    HW112515   3.975   3.450   0.735
 3872SOL    HW212516   3.843   3.504   0.654
 3873SOL     OW12517   5.173   3.861   1.750
 3873SOL    HW112518   5.191   3.898   1.658
 3873SOL    HW212519   5.202   3.928   1.818
 3874SOL     OW12520   4.827   6.216   6.214
 3874SOL    HW112521   4.919   6.245   6.242
 3874SOL    HW212522   4.819   6.117   6.224
 3875SOL     OW12523   2.003   4.101   0.295
 3875SOL    HW112524   1.988   4.160   0.216
 3875SOL    HW212525   2.000   4.156   0.379
 3876SOL     OW12526   4.955   4.419   2.220
 3876SOL    HW112527   5.051   4.435   2.199
 3876SOL    HW212528   4.932   4.324   2.199
 3877SOL     OW12529   5.322   1.274   2.495
 3877SOL    HW112530   5.395   1.223   2.540
 3877SOL    HW212531   5.237   1.260   2.544
 3878SOL     OW12532   3.956   5.915   4.899
 3878SOL    HW112533   3.884   5.968   4.944
 3878SOL    HW212534   4.039   5.971   4.892
 3879SOL     OW12535   3.167   5.678   1.180
 3879SOL    HW112536   3.073   5.706   1.200
 3879SOL    HW212537   3.194   5.714   1.091
 3880SOL     OW12538   5.718   2.578   3.691
 3880SOL    HW112539   5.643   2.638   3.663
 3880SOL    HW212540   5.700   2.541   3.782
 3881SOL     OW12541   1.129   5.234   1.523
 3881SOL    HW112542   1.103   5.294   1.598
 3881SOL    HW212543   1.180   5.287   1.454
 3882SOL     OW12544   0.762   6.598   6.707
 3882SOL    HW112545   0.767   6.637   6.799
 3882SOL    HW212546   0.852   6.568   6.678
 3883SOL     OW12547   3.167   1.403   6.209
 3883SOL    HW112548   3.104   1.431   6.282
 3883SOL    HW212549   3.261   1.420   6.238
 3884SOL     OW12550   1.475   4.729   5.608
 3884SOL    HW112551   1.550   4.791   5.630
 3884SOL    HW212552   1.396   4.782   5.576
 3885SOL     OW12553   6.955   1.594   5.665
 3885SOL    HW112554   0.020   1.611   5.694
 3885SOL    HW212555   6.894   1.657   5.712
 3886SOL     OW12556   0.255   5.308   4.924
 3886SOL    HW112557   0.239   5.383   4.989
 3886SOL    HW212558   0.276   5.346   4.834
 3887SOL     OW12559   5.156   3.335   5.551
 3887SOL    HW112560   5.224   3.345   5.478
 3887SOL    HW212561   5.131   3.239   5.560
 3888SOL     OW12562   5.254   2.438   1.871
 3888SOL    HW112563   5.183   2.506   1.885
 3888SOL    HW212564   5.241   2.393   1.783
 3889SOL     OW12565   0.060   5.648   0.159
 3889SOL    HW112566   0.100   5.557   0.166
 3889SOL    HW212567   0.108   5.710   0.221
 3890SOL     OW12568   6.656   3.674   2.516
 3890SOL    HW112569   6.615   3.699   2.428
 3890SOL    HW212570   6.702   3.755   2.555
 3891SOL     OW12571   5.715   5.166   6.539
 3891SOL    HW112572   5.645   5.105   6.501
 3891SOL    HW212573   5.672   5.250   6.570
 3892SOL     OW12574   5.623   5.949   3.937
 3892SOL    HW112575   5.668   5.974   3.852
 3892SOL    HW212576   5.602   6.031   3.990
 3893SOL     OW12577   3.197   6.395   4.273
 3893SOL    HW112578   3.122   6.335   4.247
 3893SOL    HW212579   3.275   6.380   4.212
 3894SOL     OW12580   4.648   5.369   6.730
 3894SOL    HW112581   4.735   5.373   6.780
 3894SOL    HW212582   4.651   5.433   6.653
 3895SOL     OW12583   1.662   1.827   6.154
 3895SOL    HW112584   1.624   1.877   6.076
 3895SOL    HW212585   1.728   1.884   6.202
 3896SOL     OW12586   6.726   2.235   6.404
 3896SOL    HW112587   6.760   2.149   6.442
 3896SOL    HW212588   6.720   2.227   6.304
 3897SOL     OW12589   3.706   6.411   2.957
 3897SOL    HW112590   3.632   6.467   2.993
 3897SOL    HW212591   3.732   6.342   3.024
 3898SOL     OW12592   3.577   3.418   4.843
 3898SOL    HW112593   3.535   3.337   4.802
 3898SOL    HW212594   3.590   3.488   4.772
 3899SOL     OW12595   5.096   1.961   4.800
 3899SOL    HW112596   5.067   2.037   4.741
 3899SOL    HW212597   5.077   1.984   4.895
 3900SOL     OW12598   6.700   2.560   4.314
 3900SOL    HW112599   6.704   2.511   4.227
 3900SOL    HW212600   6.689   2.494   4.389
 3901SOL     OW12601   2.770   5.373   5.014
 3901SOL    HW112602   2.761   5.473   5.012
 3901SOL    HW212603   2.819   5.342   4.933
 3902SOL     OW12604   3.933   4.791   2.326
 3902SOL    HW112605   4.005   4.771   2.259
 3902SOL    HW212606   3.845   4.795   2.280
 3903SOL     OW12607   4.872   3.033   6.000
 3903SOL    HW112608   4.903   3.049   6.093
 3903SOL    HW212609   4.871   2.935   5.981
 3904SOL     OW12610   2.509   6.002   1.049
 3904SOL    HW112611   2.466   6.057   1.121
 3904SOL    HW212612   2.540   5.915   1.088
 3905SOL     OW12613   6.790   0.494   5.979
 3905SOL    HW112614   6.715   0.429   5.992
 3905SOL    HW212615   6.872   0.459   6.024
 3906SOL     OW12616   0.708   5.748   4.662
 3906SOL    HW112617   0.763   5.827   4.637
 3906SOL    HW212618   0.720   5.729   4.760
 3907SOL     OW12619   0.628   1.525   5.162
 3907SOL    HW112620   0.547   1.470   5.142
 3907SOL    HW212621   0.623   1.557   5.257
 3908SOL     OW12622   2.368   1.051   4.331
 3908SOL    HW112623   2.359   1.088   4.238
 3908SOL    HW212624   2.334   0.957   4.332
 3909SOL     OW12625   5.048   2.820   1.204
 3909SOL    HW112626   5.042   2.745   1.138
 3909SOL    HW212627   4.958   2.836   1.245
 3910SOL     OW12628   3.254   2.074   0.947
 3910SOL    HW112629   3.215   2.107   1.033
 3910SOL    HW212630   3.281   2.152   0.891
 3911SOL     OW12631   6.857   0.326   1.273
 3911SOL    HW112632   6.805   0.241   1.263
 3911SOL    HW212633   6.795   0.404   1.264
 3912SOL     OW12634   3.918   3.546   6.932
 3912SOL    HW112635   3.841   3.483   6.925
 3912SOL    HW212636   3.978   3.518   7.007
 3913SOL     OW12637   4.027   5.519   1.560
 3913SOL    HW112638   4.008   5.513   1.462
 3913SOL    HW212639   4.009   5.612   1.592
 3914SOL     OW12640   6.998   1.735   0.196
 3914SOL    HW112641   0.024   1.819   0.192
 3914SOL    HW212642   6.972   1.709   0.103
 3915SOL     OW12643   5.828   0.049   5.665
 3915SOL    HW112644   5.870   0.119   5.608
 3915SOL    HW212645   5.730   0.043   5.645
 3916SOL     OW12646   1.772   2.263   2.834
 3916SOL    HW112647   1.784   2.348   2.782
 3916SOL    HW212648   1.724   2.196   2.778
 3917SOL     OW12649   3.795   4.758   1.712
 3917SOL    HW112650   3.808   4.824   1.787
 3917SOL    HW212651   3.717   4.699   1.732
 3918SOL     OW12652   4.842   0.584   6.802
 3918SOL    HW112653   4.873   0.635   6.721
 3918SOL    HW212654   4.921   0.543   6.848
 3919SOL     OW12655   4.575   6.476   3.185
 3919SOL    HW112656   4.666   6.504   3.215
 3919SOL    HW212657   4.572   6.376   3.180
 3920SOL     OW12658   3.239   1.202   5.492
 3920SOL    HW112659   3.175   1.135   5.455
 3920SOL    HW212660   3.200   1.294   5.481
 3921SOL     OW12661   1.348   2.977   6.111
 3921SOL    HW112662   1.362   3.058   6.168
 3921SOL    HW212663   1.262   2.933   6.135
 3922SOL     OW12664   4.884   3.891   3.384
 3922SOL    HW112665   4.837   3.923   3.302
 3922SOL    HW212666   4.969   3.942   3.396
 3923SOL     OW12667   5.388   1.347   1.607
 3923SOL    HW112668   5.453   1.315   1.676
 3923SOL    HW212669   5.404   1.298   1.521
 3924SOL     OW12670   5.089   4.975   4.162
 3924SOL    HW112671   5.061   4.998   4.255
 3924SOL    HW212672   5.035   5.028   4.097
 3925SOL     OW12673   4.841   5.296   0.937
 3925SOL    HW112674   4.924   5.348   0.961
 3925SOL    HW212675   4.783   5.286   1.018
 3926SOL     OW12676   0.865   5.163   4.981
 3926SOL    HW112677   0.868   5.088   5.047
 3926SOL    HW212678   0.770   5.187   4.961
 3927SOL     OW12679   5.523   1.518   5.570
 3927SOL    HW112680   5.495   1.470   5.653
 3927SOL    HW212681   5.451   1.581   5.541
 3928SOL     OW12682   3.310   5.752   2.724
 3928SOL    HW112683   3.254   5.690   2.779
 3928SOL    HW212684   3.256   5.787   2.648
 3929SOL     OW12685   1.123   1.490   5.831
 3929SOL    HW112686   1.181   1.442   5.765
 3929SOL    HW212687   1.178   1.515   5.911
 3930SOL     OW12688   1.650   4.595   3.775
 3930SOL    HW112689   1.636   4.685   3.817
 3930SOL    HW212690   1.748   4.582   3.758
 3931SOL     OW12691   1.187   2.301   0.089
 3931SOL    HW112692   1.134   2.276   0.008
 3931SOL    HW212693   1.236   2.387   0.071
 3932SOL     OW12694   2.613   4.572   3.138
 3932SOL    HW112695   2.657   4.630   3.069
 3932SOL    HW212696   2.552   4.507   3.093
 3933SOL     OW12697   1.967   6.279   1.380
 3933SOL    HW112698   2.058   6.319   1.372
 3933SOL    HW212699   1.900   6.352   1.398
 3934SOL     OW12700   2.136   6.947   1.073
 3934SOL    HW112701   2.091   0.006   1.054
 3934SOL    HW212702   2.091   6.875   1.021
 3935SOL     OW12703   0.447   3.512   5.085
 3935SOL    HW112704   0.494   3.484   5.170
 3935SOL    HW212705   0.488   3.596   5.051
 3936SOL     OW12706   0.151   3.852   5.072
 3936SOL    HW112707   0.224   3.822   5.011
 3936SOL    HW212708   0.063   3.828   5.033
 3937SOL     OW12709   0.704   6.229   0.661
 3937SOL    HW112710   0.761   6.189   0.590
 3937SOL    HW212711   0.755   6.231   0.747
 3938SOL     OW12712   1.039   3.165   0.996
 3938SOL    HW112713   0.973   3.094   0.973
 3938SOL    HW212714   1.060   3.160   1.094
 3939SOL     OW12715   1.619   6.863   3.140
 3939SOL    HW112716   1.569   6.849   3.226
 3939SOL    HW212717   1.592   6.793   3.074
 3940SOL     OW12718   2.881   5.583   6.741
 3940SOL    HW112719   2.812   5.631   6.795
 3940SOL    HW212720   2.940   5.649   6.695
 3941SOL     OW12721   5.072   5.899   2.396
 3941SOL    HW112722   5.121   5.873   2.479
 3941SOL    HW212723   5.105   5.844   2.319
 3942SOL     OW12724   0.015   6.111   6.006
 3942SOL    HW112725   7.028   6.045   6.080
 3942SOL    HW212726   6.976   6.184   6.012
 3943SOL     OW12727   2.326   3.338   0.504
 3943SOL    HW112728   2.289   3.260   0.556
 3943SOL    HW212729   2.251   3.398   0.477
 3944SOL     OW12730   4.075   3.083   6.380
 3944SOL    HW112731   4.165   3.119   6.401
 3944SOL    HW212732   4.081   3.023   6.300
 3945SOL     OW12733   5.604   0.647   3.728
 3945SOL    HW112734   5.541   0.578   3.695
 3945SOL    HW212735   5.689   0.603   3.758
 3946SOL     OW12736   0.610   3.798   0.276
 3946SOL    HW112737   0.535   3.741   0.310
 3946SOL    HW212738   0.576   3.858   0.203
 3947SOL     OW12739   5.638   6.245   1.754
 3947SOL    HW112740   5.673   6.338   1.758
 3947SOL    HW212741   5.542   6.244   1.781
 3948SOL     OW12742   1.512   2.491   4.995
 3948SOL    HW112743   1.503   2.413   4.932
 3948SOL    HW212744   1.596   2.481   5.048
 3949SOL     OW12745   6.385   0.368   2.598
 3949SOL    HW112746   6.434   0.285   2.573
 3949SOL    HW212747   6.364   0.365   2.696
 3950SOL     OW12748   3.050   4.448   1.625
 3950SOL    HW112749   2.996   4.380   1.574
 3950SOL    HW212750   2.998   4.479   1.704
 3951SOL     OW12751   0.286   2.583   4.757
 3951SOL    HW112752   0.284   2.590   4.857
 3951SOL    HW212753   0.377   2.610   4.724
 3952SOL     OW12754   5.660   3.773   7.006
 3952SOL    HW112755   5.597   3.845   6.974
 3952SOL    HW212756   5.725   3.812   0.042
 3953SOL     OW12757   3.329   3.772   5.940
 3953SOL    HW112758   3.364   3.790   5.848
 3953SOL    HW212759   3.294   3.679   5.945
 3954SOL     OW12760   0.728   3.265   5.011
 3954SOL    HW112761   0.670   3.341   4.980
 3954SOL    HW212762   0.680   3.179   4.996
 3955SOL     OW12763   6.428   3.667   0.482
 3955SOL    HW112764   6.405   3.590   0.541
 3955SOL    HW212765   6.464   3.633   0.395
 3956SOL     OW12766   6.535   3.237   5.664
 3956SOL    HW112767   6.546   3.171   5.738
 3956SOL    HW212768   6.445   3.226   5.623
 3957SOL     OW12769   0.621   1.800   2.080
 3957SOL    HW112770   0.686   1.808   2.004
 3957SOL    HW212771   0.607   1.890   2.122
 3958SOL     OW12772   5.234   0.187   0.231
 3958SOL    HW112773   5.283   0.259   0.279
 3958SOL    HW212774   5.191   0.126   0.297
 3959SOL     OW12775   2.487   5.491   1.567
 3959SOL    HW112776   2.585   5.504   1.550
 3959SOL    HW212777   2.445   5.447   1.488
 3960SOL     OW12778   5.023   3.370   1.012
 3960SOL    HW112779   4.968   3.328   1.084
 3960SOL    HW212780   5.095   3.307   0.983
 3961SOL     OW12781   6.505   0.047   1.398
 3961SOL    HW112782   6.536   0.073   1.489
 3961SOL    HW212783   6.435   0.111   1.367
 3962SOL     OW12784   0.562   6.386   5.920
 3962SOL    HW112785   0.640   6.343   5.966
 3962SOL    HW212786   0.478   6.362   5.969
 3963SOL     OW12787   4.925   4.361   3.351
 3963SOL    HW112788   4.836   4.315   3.345
 3963SOL    HW212789   4.913   4.450   3.394
 3964SOL     OW12790   5.793   5.834   7.026
 3964SOL    HW112791   5.706   5.837   0.048
 3964SOL    HW212792   5.790   5.900   6.951
 3965SOL     OW12793   3.280   3.868   0.686
 3965SOL    HW112794   3.306   3.793   0.626
 3965SOL    HW212795   3.237   3.941   0.632
 3966SOL     OW12796   6.202   4.161   4.970
 3966SOL    HW112797   6.252   4.244   4.990
 3966SOL    HW212798   6.109   4.168   5.007
 3967SOL     OW12799   1.683   6.617   6.795
 3967SOL    HW112800   1.717   6.525   6.815
 3967SOL    HW212801   1.586   6.622   6.818
 3968SOL     OW12802   5.197   1.873   0.892
 3968SOL    HW112803   5.283   1.884   0.842
 3968SOL    HW212804   5.209   1.904   0.986
 3969SOL     OW12805   0.550   5.759   1.046
 3969SOL    HW112806   0.595   5.735   1.132
 3969SOL    HW212807   0.519   5.676   1.000
 3970SOL     OW12808   5.089   4.102   4.277
 3970SOL    HW112809   5.150   4.035   4.233
 3970SOL    HW212810   5.001   4.059   4.297
 3971SOL     OW12811   0.328   6.323   4.102
 3971SOL    HW112812   0.249   6.264   4.088
 3971SOL    HW212813   0.411   6.276   4.074
 3972SOL     OW12814   1.067   0.406   6.697
 3972SOL    HW112815   1.072   0.443   6.605
 3972SOL    HW212816   0.988   0.443   6.744
 3973SOL     OW12817   3.544   2.933   3.754
 3973SOL    HW112818   3.639   2.944   3.726
 3973SOL    HW212819   3.486   2.925   3.673
 3974SOL     OW12820   6.111   0.728   6.570
 3974SOL    HW112821   6.110   0.655   6.639
 3974SOL    HW212822   6.051   0.803   6.599
 3975SOL     OW12823   6.869   6.094   5.153
 3975SOL    HW112824   6.960   6.124   5.126
 3975SOL    HW212825   6.871   5.996   5.174
 3976SOL     OW12826   0.567   2.821   6.974
 3976SOL    HW112827   0.645   2.767   7.003
 3976SOL    HW212828   0.542   2.886   0.017
 3977SOL     OW12829   3.290   5.990   4.802
 3977SOL    HW112830   3.384   5.972   4.773
 3977SOL    HW212831   3.254   6.068   4.750
 3978SOL     OW12832   6.889   4.079   6.961
 3978SOL    HW112833   6.959   4.132   6.913
 3978SOL    HW212834   6.825   4.141   7.006
 3979SOL     OW12835   1.478   6.784   3.392
 3979SOL    HW112836   1.479   6.745   3.484
 3979SOL    HW212837   1.387   6.822   3.374
 3980SOL     OW12838   4.895   3.748   4.218
 3980SOL    HW112839   4.974   3.746   4.156
 3980SOL    HW212840   4.920   3.705   4.304
 3981SOL     OW12841   6.938   1.480   6.023
 3981SOL    HW112842   6.857   1.422   6.025
 3981SOL    HW212843   6.997   1.454   5.947
 3982SOL     OW12844   2.233   2.826   4.339
 3982SOL    HW112845   2.262   2.792   4.250
 3982SOL    HW212846   2.138   2.799   4.356
 3983SOL     OW12847   2.965   0.045   3.984
 3983SOL    HW112848   3.060   0.075   3.993
 3983SOL    HW212849   2.935   0.059   3.890
 3984SOL     OW12850   1.634   6.865   1.832
 3984SOL    HW112851   1.613   6.819   1.918
 3984SOL    HW212852   1.634   6.964   1.847
 3985SOL     OW12853   2.061   2.954   1.588
 3985SOL    HW112854   2.074   2.894   1.667
 3985SOL    HW212855   1.971   2.935   1.547
 3986SOL     OW12856   1.433   2.107   1.825
 3986SOL    HW112857   1.457   2.082   1.919
 3986SOL    HW212858   1.507   2.079   1.763
 3987SOL     OW12859   1.411   3.931   5.636
 3987SOL    HW112860   1.420   3.841   5.679
 3987SOL    HW212861   1.499   3.979   5.641
 3988SOL     OW12862   5.052   0.627   0.254
 3988SOL    HW112863   5.052   0.532   0.226
 3988SOL    HW212864   5.039   0.686   0.174
 3989SOL     OW12865   4.146   0.764   5.856
 3989SOL    HW112866   4.237   0.729   5.877
 3989SOL    HW212867   4.083   0.741   5.930
 3990SOL     OW12868   0.544   2.269   3.657
 3990SOL    HW112869   0.447   2.250   3.668
 3990SOL    HW212870   0.576   2.324   3.734
 3991SOL     OW12871   0.920   1.463   3.656
 3991SOL    HW112872   0.885   1.429   3.568
 3991SOL    HW212873   0.957   1.386   3.709
 3992SOL     OW12874   6.161   3.724   6.787
 3992SOL    HW112875   6.148   3.806   6.732
 3992SOL    HW212876   6.079   3.709   6.843
 3993SOL     OW12877   1.988   0.917   4.559
 3993SOL    HW112878   1.971   0.877   4.469
 3993SOL    HW212879   1.933   1.000   4.570
 3994SOL     OW12880   2.284   2.053   2.975
 3994SOL    HW112881   2.365   2.060   2.917
 3994SOL    HW212882   2.234   2.140   2.972
 3995SOL     OW12883   1.482   3.389   2.474
 3995SOL    HW112884   1.468   3.403   2.572
 3995SOL    HW212885   1.408   3.333   2.437
 3996SOL     OW12886   5.817   6.408   4.540
 3996SOL    HW112887   5.787   6.501   4.561
 3996SOL    HW212888   5.844   6.403   4.444
 3997SOL     OW12889   4.867   3.723   2.796
 3997SOL    HW112890   4.845   3.771   2.711
 3997SOL    HW212891   4.897   3.630   2.775
 3998SOL     OW12892   5.000   2.192   2.964
 3998SOL    HW112893   5.090   2.169   3.003
 3998SOL    HW212894   4.972   2.120   2.901
 3999SOL     OW12895   4.130   3.333   1.313
 3999SOL    HW112896   4.165   3.399   1.380
 3999SOL    HW212897   4.085   3.258   1.360
 4000SOL     OW12898   2.889   5.269   2.472
 4000SOL    HW112899   2.845   5.346   2.425
 4000SOL    HW212900   2.841   5.184   2.451
 4001SOL     OW12901   0.673   5.525   4.402
 4001SOL    HW112902   0.676   5.615   4.444
 4001SOL    HW212903   0.697   5.456   4.470
 4002SOL     OW12904   3.722   4.067   3.674
 4002SOL    HW112905   3.623   4.062   3.670
 4002SOL    HW212906   3.760   4.077   3.582
 4003SOL     OW12907   1.623   0.869   5.252
 4003SOL    HW112908   1.613   0.963   5.221
 4003SOL    HW212909   1.549   0.813   5.214
 4004SOL     OW12910   0.994   3.141   4.027
 4004SOL    HW112911   1.049   3.063   3.997
 4004SOL    HW212912   1.038   3.184   4.107
 4005SOL     OW12913   4.753   3.208   0.133
 4005SOL    HW112914   4.798   3.297   0.120
 4005SOL    HW212915   4.809   3.151   0.192
 4006SOL     OW12916   6.760   5.759   2.084
 4006SOL    HW112917   6.688   5.761   2.014
 4006SOL    HW212918   6.778   5.853   2.115
 4007SOL     OW12919   6.845   0.378   2.478
 4007SOL    HW112920   6.861   0.468   2.438
 4007SOL    HW212921   6.781   0.327   2.421
 4008SOL     OW12922   2.726   1.305   0.920
 4008SOL    HW112923   2.713   1.209   0.896
 4008SOL    HW212924   2.799   1.314   0.987
 4009SOL     OW12925   4.826   2.388   0.995
 4009SOL    HW112926   4.894   2.317   1.015
 4009SOL    HW212927   4.772   2.360   0.915
 4010SOL     OW12928   2.083   5.482   1.516
 4010SOL    HW112929   2.061   5.574   1.481
 4010SOL    HW212930   2.101   5.487   1.614
 4011SOL     OW12931   5.428   6.330   5.710
 4011SOL    HW112932   5.352   6.292   5.657
 4011SOL    HW212933   5.411   6.316   5.807
 4012SOL     OW12934   5.016   6.375   2.362
 4012SOL    HW112935   4.942   6.442   2.367
 4012SOL    HW212936   4.977   6.284   2.351
 4013SOL     OW12937   0.245   1.001   5.953
 4013SOL    HW112938   0.326   1.059   5.943
 4013SOL    HW212939   0.240   0.937   5.876
 4014SOL     OW12940   3.101   5.087   2.172
 4014SOL    HW112941   3.051   5.170   2.148
 4014SOL    HW212942   3.133   5.043   2.088
 4015SOL     OW12943   4.542   5.482   6.022
 4015SOL    HW112944   4.443   5.470   6.023
 4015SOL    HW212945   4.584   5.407   5.971
 4016SOL     OW12946   5.031   5.336   4.982
 4016SOL    HW112947   5.089   5.285   4.918
 4016SOL    HW212948   4.964   5.389   4.931
 4017SOL     OW12949   1.294   4.766   6.074
 4017SOL    HW112950   1.300   4.666   6.068
 4017SOL    HW212951   1.260   4.792   6.164
 4018SOL     OW12952   4.142   5.794   1.063
 4018SOL    HW112953   4.180   5.866   1.005
 4018SOL    HW212954   4.079   5.738   1.009
 4019SOL     OW12955   5.758   4.659   2.024
 4019SOL    HW112956   5.688   4.631   2.089
 4019SOL    HW212957   5.843   4.609   2.043
 4020SOL     OW12958   6.867   5.192   4.429
 4020SOL    HW112959   6.902   5.276   4.470
 4020SOL    HW212960   6.927   5.115   4.453
 4021SOL     OW12961   4.756   3.870   5.864
 4021SOL    HW112962   4.827   3.916   5.917
 4021SOL    HW212963   4.795   3.835   5.779
 4022SOL     OW12964   2.341   0.148   1.470
 4022SOL    HW112965   2.310   0.076   1.408
 4022SOL    HW212966   2.287   0.231   1.455
 4023SOL     OW12967   0.601   1.605   4.509
 4023SOL    HW112968   0.548   1.591   4.592
 4023SOL    HW212969   0.618   1.518   4.464
 4024SOL     OW12970   0.718   6.580   4.659
 4024SOL    HW112971   0.787   6.649   4.635
 4024SOL    HW212972   0.760   6.490   4.660
 4025SOL     OW12973   0.016   5.550   3.023
 4025SOL    HW112974   0.048   5.637   2.986
 4025SOL    HW212975   6.971   5.515   2.966
 4026SOL     OW12976   0.303   0.015   3.804
 4026SOL    HW112977   0.337   0.006   3.898
 4026SOL    HW212978   0.214   7.000   3.797
 4027SOL     OW12979   3.209   4.360   5.709
 4027SOL    HW112980   3.263   4.439   5.684
 4027SOL    HW212981   3.141   4.386   5.778
 4028SOL     OW12982   4.897   1.297   3.290
 4028SOL    HW112983   4.878   1.201   3.265
 4028SOL    HW212984   4.905   1.352   3.207
 4029SOL     OW12985   1.572   6.428   0.155
 4029SOL    HW112986   1.607   6.340   0.187
 4029SOL    HW212987   1.569   6.427   0.055
 4030SOL     OW12988   0.509   1.610   2.799
 4030SOL    HW112989   0.583   1.548   2.822
 4030SOL    HW212990   0.466   1.643   2.883
 4031SOL     OW12991   6.263   5.921   0.140
 4031SOL    HW112992   6.244   5.837   0.090
 4031SOL    HW212993   6.181   5.978   0.142
 4032SOL     OW12994   4.863   0.676   2.519
 4032SOL    HW112995   4.795   0.750   2.516
 4032SOL    HW212996   4.930   0.695   2.590
 4033SOL     OW12997   1.927   2.416   2.478
 4033SOL    HW112998   1.947   2.325   2.443
 4033SOL    HW212999   1.996   2.480   2.445
 4034SOL     OW13000   0.631   2.879   5.552
 4034SOL    HW113001   0.708   2.864   5.613
 4034SOL    HW213002   0.655   2.850   5.460
 4035SOL     OW13003   4.545   2.273   1.636
 4035SOL    HW113004   4.562   2.239   1.729
 4035SOL    HW213005   4.497   2.204   1.583
 4036SOL     OW13006   3.183   5.514   3.303
 4036SOL    HW113007   3.280   5.492   3.316
 4036SOL    HW213008   3.172   5.565   3.218
 4037SOL     OW13009   2.802   1.924   5.929
 4037SOL    HW113010   2.867   1.850   5.949
 4037SOL    HW213011   2.790   1.933   5.831
 4038SOL     OW13012   3.630   4.608   5.910
 4038SOL    HW113013   3.559   4.538   5.904
 4038SOL    HW213014   3.591   4.697   5.886
 4039SOL     OW13015   5.871   4.872   1.217
 4039SOL    HW113016   5.889   4.898   1.312
 4039SOL    HW213017   5.812   4.792   1.215
 4040SOL     OW13018   2.883   6.716   4.876
 4040SOL    HW113019   2.961   6.769   4.910
 4040SOL    HW213020   2.914   6.654   4.804
 4041SOL     OW13021   2.235   6.572   1.169
 4041SOL    HW113022   2.278   6.644   1.115
 4041SOL    HW213023   2.140   6.562   1.140
 4042SOL     OW13024   6.844   1.110   2.851
 4042SOL    HW113025   6.805   1.098   2.943
 4042SOL    HW213026   6.935   1.149   2.859
 4043SOL     OW13027   6.046   3.371   6.681
 4043SOL    HW113028   6.128   3.414   6.718
 4043SOL    HW213029   5.970   3.384   6.745
 4044SOL     OW13030   4.686   4.689   3.249
 4044SOL    HW113031   4.645   4.598   3.238
 4044SOL    HW213032   4.680   4.739   3.162
 4045SOL     OW13033   4.967   1.017   5.393
 4045SOL    HW113034   4.886   0.996   5.448
 4045SOL    HW213035   4.942   1.014   5.296
 4046SOL     OW13036   6.040   1.845   3.079
 4046SOL    HW113037   6.120   1.903   3.092
 4046SOL    HW213038   6.048   1.797   2.991
 4047SOL     OW13039   2.493   2.990   6.745
 4047SOL    HW113040   2.547   3.052   6.688
 4047SOL    HW213041   2.436   2.932   6.686
 4048SOL     OW13042   4.485   2.052   2.126
 4048SOL    HW113043   4.567   2.101   2.156
 4048SOL    HW213044   4.406   2.114   2.129
 4049SOL     OW13045   3.897   4.452   0.015
 4049SOL    HW113046   3.875   4.483   0.107
 4049SOL    HW213047   3.850   4.510   6.977
 4050SOL     OW13048   1.059   5.450   2.577
 4050SOL    HW113049   1.058   5.550   2.587
 4050SOL    HW213050   1.145   5.422   2.533
 4051SOL     OW13051   5.547   1.126   4.826
 4051SOL    HW113052   5.569   1.045   4.880
 4051SOL    HW213053   5.630   1.181   4.812
 4052SOL     OW13054   6.097   2.206   3.075
 4052SOL    HW113055   6.122   2.118   3.115
 4052SOL    HW213056   6.161   2.228   3.001
 4053SOL     OW13057   1.732   5.317   4.451
 4053SOL    HW113058   1.752   5.240   4.511
 4053SOL    HW213059   1.709   5.284   4.360
 4054SOL     OW13060   3.993   4.019   1.287
 4054SOL    HW113061   3.947   4.047   1.202
 4054SOL    HW213062   3.986   3.920   1.297
 4055SOL     OW13063   0.886   4.655   0.960
 4055SOL    HW113064   0.856   4.699   0.875
 4055SOL    HW213065   0.904   4.725   1.029
 4056SOL     OW13066   5.090   3.352   0.344
 4056SOL    HW113067   5.141   3.281   0.295
 4056SOL    HW213068   5.023   3.309   0.404
 4057SOL     OW13069   0.492   3.930   0.049
 4057SOL    HW113070   0.393   3.931   0.034
 4057SOL    HW213071   0.535   3.865   7.015
 4058SOL     OW13072   2.539   0.625   5.597
 4058SOL    HW113073   2.542   0.724   5.610
 4058SOL    HW213074   2.448   0.598   5.564
 4059SOL     OW13075   0.339   1.874   3.721
 4059SOL    HW113076   0.418   1.931   3.699
 4059SOL    HW213077   0.360   1.814   3.798
 4060SOL     OW13078   6.255   6.296   5.111
 4060SOL    HW113079   6.326   6.357   5.147
 4060SOL    HW213080   6.186   6.281   5.182
 4061SOL     OW13081   1.490   5.274   0.638
 4061SOL    HW113082   1.480   5.374   0.641
 4061SOL    HW213083   1.490   5.244   0.543
 4062SOL     OW13084   1.487   2.592   1.251
 4062SOL    HW113085   1.438   2.514   1.290
 4062SOL    HW213086   1.586   2.575   1.256
 4063SOL     OW13087   4.548   0.651   0.236
 4063SOL    HW113088   4.555   0.612   0.144
 4063SOL    HW213089   4.568   0.749   0.232
 4064SOL     OW13090   2.008   1.812   5.549
 4064SOL    HW113091   1.954   1.885   5.590
 4064SOL    HW213092   1.947   1.748   5.502
 4065SOL     OW13093   2.816   6.458   0.793
 4065SOL    HW113094   2.835   6.510   0.876
 4065SOL    HW213095   2.720   6.471   0.767
 4066SOL     OW13096   0.590   3.993   3.573
 4066SOL    HW113097   0.507   4.028   3.615
 4066SOL    HW213098   0.593   4.018   3.477
 4067SOL     OW13099   4.959   4.972   0.530
 4067SOL    HW113100   5.004   4.918   0.601
 4067SOL    HW213101   4.874   5.010   0.566
 4068SOL     OW13102   2.388   2.723   4.976
 4068SOL    HW113103   2.450   2.686   4.906
 4068SOL    HW213104   2.382   2.822   4.966
 4069SOL     OW13105   4.479   6.851   6.207
 4069SOL    HW113106   4.556   6.907   6.177
 4069SOL    HW213107   4.459   6.872   6.303
 4070SOL     OW13108   1.240   2.964   3.346
 4070SOL    HW113109   1.259   2.927   3.255
 4070SOL    HW213110   1.141   2.967   3.361
 4071SOL     OW13111   1.555   0.488   3.705
 4071SOL    HW113112   1.637   0.480   3.762
 4071SOL    HW213113   1.503   0.569   3.732
 4072SOL     OW13114   2.088   5.533   2.996
 4072SOL    HW113115   2.032   5.616   3.002
 4072SOL    HW213116   2.161   5.538   3.064
 4073SOL     OW13117   3.309   4.744   0.135
 4073SOL    HW113118   3.286   4.792   0.220
 4073SOL    HW213119   3.320   4.811   0.061
 4074SOL     OW13120   1.731   5.339   2.914
 4074SOL    HW113121   1.680   5.255   2.896
 4074SOL    HW213122   1.705   5.374   3.004
 4075SOL     OW13123   6.674   1.091   1.222
 4075SOL    HW113124   6.585   1.079   1.178
 4075SOL    HW213125   6.670   1.056   1.316
 4076SOL     OW13126   2.394   4.173   5.389
 4076SOL    HW113127   2.404   4.135   5.297
 4076SOL    HW213128   2.382   4.099   5.454
 4077SOL     OW13129   2.335   0.784   1.838
 4077SOL    HW113130   2.430   0.754   1.850
 4077SOL    HW213131   2.278   0.741   1.908
 4078SOL     OW13132   3.052   4.860   2.691
 4078SOL    HW113133   3.094   4.818   2.611
 4078SOL    HW213134   3.024   4.954   2.669
 4079SOL     OW13135   1.214   2.421   4.407
 4079SOL    HW113136   1.137   2.367   4.373
 4079SOL    HW213137   1.272   2.450   4.331
 4080SOL     OW13138   6.123   1.844   5.046
 4080SOL    HW113139   6.062   1.887   4.981
 4080SOL    HW213140   6.124   1.745   5.031
 4081SOL     OW13141   1.426   3.697   4.200
 4081SOL    HW113142   1.388   3.628   4.138
 4081SOL    HW213143   1.415   3.667   4.295
 4082SOL     OW13144   1.197   3.366   0.911
 4082SOL    HW113145   1.137   3.288   0.931
 4082SOL    HW213146   1.179   3.439   0.977
 4083SOL     OW13147   5.868   2.401   4.576
 4083SOL    HW113148   5.805   2.348   4.518
 4083SOL    HW213149   5.889   2.348   4.658
 4084SOL     OW13150   0.799   1.726   4.109
 4084SOL    HW113151   0.794   1.627   4.099
 4084SOL    HW213152   0.823   1.748   4.204
 4085SOL     OW13153   3.356   6.097   0.375
 4085SOL    HW113154   3.262   6.110   0.343
 4085SOL    HW213155   3.389   6.180   0.418
 4086SOL     OW13156   1.446   5.101   0.849
 4086SOL    HW113157   1.348   5.093   0.865
 4086SOL    HW213158   1.464   5.170   0.780
 4087SOL     OW13159   1.468   1.419   3.162
 4087SOL    HW113160   1.401   1.465   3.104
 4087SOL    HW213161   1.508   1.485   3.225
 4088SOL     OW13162   6.709   1.863   1.173
 4088SOL    HW113163   6.683   1.959   1.181
 4088SOL    HW213164   6.638   1.806   1.214
 4089SOL     OW13165   1.071   0.857   4.929
 4089SOL    HW113166   1.032   0.805   4.854
 4089SOL    HW213167   0.999   0.908   4.976
 4090SOL     OW13168   1.924   4.212   5.517
 4090SOL    HW113169   1.876   4.264   5.587
 4090SOL    HW213170   1.866   4.201   5.437
 4091SOL     OW13171   4.695   6.190   0.340
 4091SOL    HW113172   4.754   6.110   0.327
 4091SOL    HW213173   4.638   6.203   0.259
 4092SOL     OW13174   0.118   2.860   4.735
 4092SOL    HW113175   0.033   2.879   4.686
 4092SOL    HW213176   0.114   2.767   4.772
 4093SOL     OW13177   5.823   0.759   4.010
 4093SOL    HW113178   5.724   0.773   4.014
 4093SOL    HW213179   5.845   0.668   4.047
 4094SOL     OW13180   2.327   4.412   4.936
 4094SOL    HW113181   2.362   4.477   5.003
 4094SOL    HW213182   2.342   4.319   4.969
 4095SOL     OW13183   1.482   3.532   6.505
 4095SOL    HW113184   1.570   3.549   6.461
 4095SOL    HW213185   1.450   3.615   6.550
 4096SOL     OW13186   4.293   4.739   1.319
 4096SOL    HW113187   4.236   4.811   1.281
 4096SOL    HW213188   4.365   4.716   1.253
 4097SOL     OW13189   3.441   3.859   5.171
 4097SOL    HW113190   3.501   3.784   5.199
 4097SOL    HW213191   3.366   3.869   5.237
 4098SOL     OW13192   0.070   2.085   3.150
 4098SOL    HW113193   0.133   2.133   3.210
 4098SOL    HW213194   0.119   2.049   3.071
 4099SOL     OW13195   4.309   6.149   2.035
 4099SOL    HW113196   4.241   6.219   2.014
 4099SOL    HW213197   4.295   6.116   2.129
 4100SOL     OW13198   3.961   5.728   3.446
 4100SOL    HW113199   3.904   5.776   3.379
 4100SOL    HW213200   3.938   5.760   3.538
 4101SOL     OW13201   5.323   1.588   6.093
 4101SOL    HW113202   5.251   1.561   6.029
 4101SOL    HW213203   5.303   1.550   6.184
 4102SOL     OW13204   6.117   1.280   0.510
 4102SOL    HW113205   6.034   1.251   0.559
 4102SOL    HW213206   6.155   1.202   0.461
 4103SOL     OW13207   0.576   0.080   2.384
 4103SOL    HW113208   0.582   0.171   2.343
 4103SOL    HW213209   0.550   0.013   2.314
 4104SOL     OW13210   1.336   4.919   2.872
 4104SOL    HW113211   1.292   4.867   2.945
 4104SOL    HW213212   1.267   4.952   2.808
 4105SOL     OW13213   4.597   4.500   0.047
 4105SOL    HW113214   4.527   4.564   0.017
 4105SOL    HW213215   4.588   4.414   7.026
 4106SOL     OW13216   6.606   3.640   5.047
 4106SOL    HW113217   6.610   3.733   5.009
 4106SOL    HW213218   6.699   3.605   5.058
 4107SOL     OW13219   0.272   0.401   1.055
 4107SOL    HW113220   0.261   0.436   0.962
 4107SOL    HW213221   0.258   0.476   1.120
 4108SOL     OW13222   6.437   3.914   5.964
 4108SOL    HW113223   6.377   3.876   6.035
 4108SOL    HW213224   6.430   3.858   5.881
 4109SOL     OW13225   3.441   5.948   3.571
 4109SOL    HW113226   3.452   5.881   3.498
 4109SOL    HW213227   3.362   5.923   3.627
 4110SOL     OW13228   4.765   3.615   6.179
 4110SOL    HW113229   4.817   3.642   6.098
 4110SOL    HW213230   4.731   3.697   6.225
 4111SOL     OW13231   4.235   3.227   6.939
 4111SOL    HW113232   4.303   3.300   6.939
 4111SOL    HW213233   4.203   3.211   0.003
 4112SOL     OW13234   3.314   1.464   4.199
 4112SOL    HW113235   3.343   1.369   4.192
 4112SOL    HW213236   3.390   1.520   4.231
 4113SOL     OW13237   3.331   4.949   4.717
 4113SOL    HW113238   3.349   5.000   4.633
 4113SOL    HW213239   3.236   4.917   4.718
 4114SOL     OW13240   2.773   1.890   2.555
 4114SOL    HW113241   2.787   1.982   2.592
 4114SOL    HW213242   2.703   1.843   2.609
 4115SOL     OW13243   5.041   4.898   1.587
 4115SOL    HW113244   4.983   4.899   1.668
 4115SOL    HW213245   5.115   4.965   1.598
 4116SOL     OW13246   3.255   1.581   1.886
 4116SOL    HW113247   3.199   1.501   1.906
 4116SOL    HW213248   3.214   1.632   1.810
 4117SOL     OW13249   1.416   5.789   1.176
 4117SOL    HW113250   1.317   5.798   1.167
 4117SOL    HW213251   1.438   5.707   1.229
 4118SOL     OW13252   1.984   6.476   0.450
 4118SOL    HW113253   2.044   6.521   0.383
 4118SOL    HW213254   1.889   6.496   0.426
 4119SOL     OW13255   3.930   0.726   3.743
 4119SOL    HW113256   3.908   0.700   3.837
 4119SOL    HW213257   3.953   0.824   3.741
 4120SOL     OW13258   3.546   0.630   1.934
 4120SOL    HW113259   3.450   0.651   1.913
 4120SOL    HW213260   3.568   0.539   1.898
 4121SOL     OW13261   6.481   3.253   4.900
 4121SOL    HW113262   6.464   3.351   4.905
 4121SOL    HW213263   6.400   3.203   4.930
 4122SOL     OW13264   1.304   5.903   6.200
 4122SOL    HW113265   1.323   5.819   6.251
 4122SOL    HW213266   1.275   5.975   6.263
 4123SOL     OW13267   5.134   3.823   6.476
 4123SOL    HW113268   5.138   3.811   6.575
 4123SOL    HW213269   5.158   3.738   6.430
 4124SOL     OW13270   5.414   0.114   4.090
 4124SOL    HW113271   5.434   0.032   4.037
 4124SOL    HW213272   5.496   0.142   4.140
 4125SOL     OW13273   4.536   1.169   0.694
 4125SOL    HW113274   4.456   1.189   0.750
 4125SOL    HW213275   4.596   1.106   0.743
 4126SOL     OW13276   2.371   4.340   4.216
 4126SOL    HW113277   2.416   4.423   4.183
 4126SOL    HW213278   2.341   4.285   4.138
 4127SOL     OW13279   6.194   3.495   5.728
 4127SOL    HW113280   6.224   3.504   5.633
 4127SOL    HW213281   6.110   3.441   5.732
 4128SOL     OW13282   0.936   2.336   2.652
 4128SOL    HW113283   0.933   2.236   2.652
 4128SOL    HW213284   1.027   2.366   2.683
 4129SOL     OW13285   5.564   2.506   5.840
 4129SOL    HW113286   5.551   2.435   5.771
 4129SOL    HW213287   5.515   2.481   5.923
 4130SOL     OW13288   5.828   4.019   0.947
 4130SOL    HW113289   5.802   4.082   0.874
 4130SOL    HW213290   5.922   4.037   0.975
 4131SOL     OW13291   6.721   5.004   3.758
 4131SOL    HW113292   6.696   4.912   3.786
 4131SOL    HW213293   6.773   5.000   3.673
 4132SOL     OW13294   5.041   2.440   3.471
 4132SOL    HW113295   5.023   2.371   3.401
 4132SOL    HW213296   4.958   2.456   3.524
 4133SOL     OW13297   3.289   1.039   1.148
 4133SOL    HW113298   3.265   1.030   1.051
 4133SOL    HW213299   3.376   0.994   1.165
 4134SOL     OW13300   1.177   1.461   6.916
 4134SOL    HW113301   1.271   1.461   6.951
 4134SOL    HW213302   1.135   1.372   6.931
 4135SOL     OW13303   1.606   0.963   1.858
 4135SOL    HW113304   1.651   1.012   1.933
 4135SOL    HW213305   1.517   1.005   1.839
 4136SOL     OW13306   0.116   2.346   3.602
 4136SOL    HW113307   0.193   2.285   3.582
 4136SOL    HW213308   0.141   2.440   3.581
 4137SOL     OW13309   2.848   4.650   6.332
 4137SOL    HW113310   2.813   4.602   6.413
 4137SOL    HW213311   2.829   4.595   6.250
 4138SOL     OW13312   4.118   4.962   3.403
 4138SOL    HW113313   4.179   4.882   3.400
 4138SOL    HW213314   4.076   4.976   3.313
 4139SOL     OW13315   2.061   1.808   0.107
 4139SOL    HW113316   2.040   1.792   0.204
 4139SOL    HW213317   2.124   1.885   0.099
 4140SOL     OW13318   5.178   1.536   5.246
 4140SOL    HW113319   5.238   1.456   5.245
 4140SOL    HW213320   5.184   1.583   5.158
 4141SOL     OW13321   5.259   5.639   0.564
 4141SOL    HW113322   5.323   5.603   0.496
 4141SOL    HW213323   5.202   5.565   0.599
 4142SOL     OW13324   6.701   4.257   1.303
 4142SOL    HW113325   6.757   4.178   1.279
 4142SOL    HW213326   6.616   4.226   1.346
 4143SOL     OW13327   0.055   2.956   0.959
 4143SOL    HW113328   7.029   2.874   0.976
 4143SOL    HW213329   7.027   3.037   0.971
 4144SOL     OW13330   4.734   0.896   2.545
 4144SOL    HW113331   4.741   0.934   2.637
 4144SOL    HW213332   4.638   0.900   2.515
 4145SOL     OW13333   1.949   6.650   2.546
 4145SOL    HW113334   1.856   6.618   2.562
 4145SOL    HW213335   1.948   6.723   2.478
 4146SOL     OW13336   5.066   6.753   7.015
 4146SOL    HW113337   4.979   6.782   0.025
 4146SOL    HW213338   5.100   6.824   6.954
 4147SOL     OW13339   3.716   1.818   5.447
 4147SOL    HW113340   3.783   1.884   5.413
 4147SOL    HW213341   3.652   1.865   5.507
 4148SOL     OW13342   6.598   0.948   3.462
 4148SOL    HW113343   6.689   0.977   3.491
 4148SOL    HW213344   6.533   1.024   3.473
 4149SOL     OW13345   5.726   3.872   2.036
 4149SOL    HW113346   5.703   3.803   1.967
 4149SOL    HW213347   5.734   3.961   1.992
 4150SOL     OW13348   5.552   0.623   6.651
 4150SOL    HW113349   5.609   0.583   6.723
 4150SOL    HW213350   5.462   0.580   6.652
 4151SOL     OW13351   0.870   5.284   0.675
 4151SOL    HW113352   0.962   5.309   0.703
 4151SOL    HW213353   0.850   5.323   0.585
 4152SOL     OW13354   4.039   4.440   1.639
 4152SOL    HW113355   3.941   4.440   1.662
 4152SOL    HW213356   4.067   4.346   1.619
 4153SOL     OW13357   6.522   4.710   6.103
 4153SOL    HW113358   6.532   4.767   6.185
 4153SOL    HW213359   6.498   4.768   6.025
 4154SOL     OW13360   5.640   2.749   5.908
 4154SOL    HW113361   5.645   2.653   5.879
 4154SOL    HW213362   5.592   2.803   5.839
 4155SOL     OW13363   1.318   3.216   1.733
 4155SOL    HW113364   1.249   3.182   1.797
 4155SOL    HW213365   1.399   3.245   1.784
 4156SOL     OW13366   5.743   6.895   5.352
 4156SOL    HW113367   5.793   6.982   5.358
 4156SOL    HW213368   5.744   6.849   5.441
 4157SOL     OW13369   3.406   0.914   5.050
 4157SOL    HW113370   3.455   0.840   5.005
 4157SOL    HW213371   3.370   0.978   4.981
 4158SOL     OW13372   1.095   6.344   4.024
 4158SOL    HW113373   1.083   6.343   4.123
 4158SOL    HW213374   1.186   6.381   4.003
 4159SOL     OW13375   1.046   2.773   5.186
 4159SOL    HW113376   1.117   2.727   5.132
 4159SOL    HW213377   0.998   2.839   5.128
 4160SOL     OW13378   0.926   0.964   1.476
 4160SOL    HW113379   0.987   0.927   1.406
 4160SOL    HW213380   0.952   0.929   1.566
 4161SOL     OW13381   6.453   1.645   0.688
 4161SOL    HW113382   6.460   1.713   0.762
 4161SOL    HW213383   6.515   1.670   0.614
 4162SOL     OW13384   5.938   0.055   5.253
 4162SOL    HW113385   5.948   0.139   5.200
 4162SOL    HW213386   6.028   0.019   5.276
 4163SOL     OW13387   5.548   1.085   4.263
 4163SOL    HW113388   5.554   0.986   4.273
 4163SOL    HW213389   5.455   1.116   4.284
 4164SOL     OW13390   1.726   0.299   6.368
 4164SOL    HW113391   1.667   0.251   6.433
 4164SOL    HW213392   1.821   0.292   6.398
 4165SOL     OW13393   4.105   6.689   2.078
 4165SOL    HW113394   4.045   6.733   2.144
 4165SOL    HW213395   4.196   6.729   2.083
 4166SOL     OW13396   5.681   2.827   0.668
 4166SOL    HW113397   5.704   2.782   0.755
 4166SOL    HW213398   5.587   2.805   0.644
 4167SOL     OW13399   2.342   2.975   1.388
 4167SOL    HW113400   2.353   3.002   1.292
 4167SOL    HW213401   2.271   3.031   1.431
 4168SOL     OW13402   1.939   5.488   1.115
 4168SOL    HW113403   1.857   5.499   1.058
 4168SOL    HW213404   1.984   5.577   1.127
 4169SOL     OW13405   5.784   3.099   4.544
 4169SOL    HW113406   5.780   3.053   4.633
 4169SOL    HW213407   5.778   3.198   4.558
 4170SOL     OW13408   4.590   2.865   5.224
 4170SOL    HW113409   4.508   2.808   5.228
 4170SOL    HW213410   4.655   2.826   5.159
 4171SOL     OW13411   5.508   3.580   1.882
 4171SOL    HW113412   5.435   3.614   1.942
 4171SOL    HW213413   5.467   3.524   1.809
 4172SOL     OW13414   1.186   1.911   0.300
 4172SOL    HW113415   1.217   1.864   0.217
 4172SOL    HW213416   1.106   1.967   0.277
 4173SOL     OW13417   5.255   3.408   4.796
 4173SOL    HW113418   5.158   3.425   4.809
 4173SOL    HW213419   5.308   3.453   4.868
 4174SOL     OW13420   4.557   1.011   4.438
 4174SOL    HW113421   4.528   1.088   4.494
 4174SOL    HW213422   4.525   1.023   4.344
 4175SOL     OW13423   3.036   0.548   2.718
 4175SOL    HW113424   3.064   0.455   2.743
 4175SOL    HW213425   2.940   0.548   2.692
 4176SOL     OW13426   5.824   6.506   3.130
 4176SOL    HW113427   5.790   6.415   3.152
 4176SOL    HW213428   5.923   6.510   3.144
 4177SOL     OW13429   0.084   6.150   2.879
 4177SOL    HW113430   0.155   6.091   2.918
 4177SOL    HW213431   7.027   6.136   2.928
 4178SOL     OW13432   3.663   2.265   5.654
 4178SOL    HW113433   3.739   2.200   5.654
 4178SOL    HW213434   3.577   2.216   5.667
 4179SOL     OW13435   5.535   3.343   5.684
 4179SOL    HW113436   5.528   3.302   5.593
 4179SOL    HW213437   5.596   3.422   5.681
 4180SOL     OW13438   4.243   3.832   1.787
 4180SOL    HW113439   4.287   3.910   1.744
 4180SOL    HW213440   4.295   3.806   1.869
 4181SOL     OW13441   0.802   1.071   0.176
 4181SOL    HW113442   0.703   1.076   0.157
 4181SOL    HW213443   0.852   1.113   0.100
 4182SOL     OW13444   5.338   0.703   2.773
 4182SOL    HW113445   5.364   0.783   2.718
 4182SOL    HW213446   5.402   0.629   2.755
 4183SOL     OW13447   1.502   1.870   1.515
 4183SOL    HW113448   1.551   1.857   1.601
 4183SOL    HW213449   1.518   1.963   1.481
 4184SOL     OW13450   4.060   5.543   0.134
 4184SOL    HW113451   4.124   5.599   0.082
 4184SOL    HW213452   3.995   5.500   0.072
 4185SOL     OW13453   0.138   0.265   3.785
 4185SOL    HW113454   0.213   0.202   3.805
 4185SOL    HW213455   0.144   0.344   3.846
 4186SOL     OW13456   2.741   4.100   0.847
 4186SOL    HW113457   2.747   4.032   0.921
 4186SOL    HW213458   2.648   4.100   0.809
 4187SOL     OW13459   3.971   3.897   6.607
 4187SOL    HW113460   3.888   3.891   6.552
 4187SOL    HW213461   4.038   3.955   6.559
 4188SOL     OW13462   4.729   6.695   4.520
 4188SOL    HW113463   4.818   6.740   4.511
 4188SOL    HW213464   4.729   6.610   4.467
 4189SOL     OW13465   2.299   2.173   3.853
 4189SOL    HW113466   2.268   2.186   3.760
 4189SOL    HW213467   2.384   2.119   3.853
 4190SOL     OW13468   3.061   0.509   1.179
 4190SOL    HW113469   3.017   0.528   1.267
 4190SOL    HW213470   3.014   0.559   1.107
 4191SOL     OW13471   6.554   1.463   2.241
 4191SOL    HW113472   6.654   1.460   2.247
 4191SOL    HW213473   6.517   1.371   2.255
 4192SOL     OW13474   6.465   1.610   3.199
 4192SOL    HW113475   6.522   1.691   3.191
 4192SOL    HW213476   6.369   1.636   3.194
 4193SOL     OW13477   1.494   6.838   2.195
 4193SOL    HW113478   1.514   6.861   2.291
 4193SOL    HW213479   1.537   6.750   2.172
 4194SOL     OW13480   0.711   0.792   4.242
 4194SOL    HW113481   0.689   0.702   4.205
 4194SOL    HW213482   0.806   0.793   4.274
 4195SOL     OW13483   4.527   0.587   1.755
 4195SOL    HW113484   4.472   0.523   1.809
 4195SOL    HW213485   4.500   0.681   1.778
 4196SOL     OW13486   4.540   2.550   3.600
 4196SOL    HW113487   4.484   2.480   3.644
 4196SOL    HW213488   4.530   2.542   3.501
 4197SOL     OW13489   4.553   4.431   3.959
 4197SOL    HW113490   4.531   4.379   4.041
 4197SOL    HW213491   4.610   4.509   3.984
 4198SOL     OW13492   6.066   3.341   6.405
 4198SOL    HW113493   6.003   3.394   6.349
 4198SOL    HW213494   6.046   3.356   6.502
 4199SOL     OW13495   2.880   3.905   5.858
 4199SOL    HW113496   2.870   3.853   5.774
 4199SOL    HW213497   2.945   3.980   5.844
 4200SOL     OW13498   1.968   0.133   6.426
 4200SOL    HW113499   2.036   0.160   6.494
 4200SOL    HW213500   1.898   0.077   6.470
 4201SOL     OW13501   5.714   6.031   4.254
 4201SOL    HW113502   5.663   6.081   4.184
 4201SOL    HW213503   5.675   5.940   4.264
 4202SOL     OW13504   5.461   4.512   4.444
 4202SOL    HW113505   5.395   4.447   4.406
 4202SOL    HW213506   5.530   4.463   4.497
 4203SOL     OW13507   5.424   5.886   3.422
 4203SOL    HW113508   5.388   5.830   3.348
 4203SOL    HW213509   5.478   5.829   3.484
 4204SOL     OW13510   3.193   3.158   1.183
 4204SOL    HW113511   3.201   3.208   1.097
 4204SOL    HW213512   3.152   3.218   1.252
 4205SOL     OW13513   2.692   5.419   2.984
 4205SOL    HW113514   2.684   5.455   2.891
 4205SOL    HW213515   2.610   5.367   3.007
 4206SOL     OW13516   5.617   0.132   4.250
 4206SOL    HW113517   5.697   0.077   4.272
 4206SOL    HW213518   5.594   0.190   4.328
 4207SOL     OW13519   1.157   1.243   1.504
 4207SOL    HW113520   1.197   1.172   1.446
 4207SOL    HW213521   1.226   1.313   1.522
 4208SOL     OW13522   0.735   3.440   1.117
 4208SOL    HW113523   0.764   3.417   1.024
 4208SOL    HW213524   0.668   3.514   1.114
 4209SOL     OW13525   3.090   0.440   5.022
 4209SOL    HW113526   3.167   0.476   4.970
 4209SOL    HW213527   3.007   0.447   4.967
 4210SOL     OW13528   4.782   2.711   0.750
 4210SOL    HW113529   4.797   2.801   0.791
 4210SOL    HW213530   4.719   2.720   0.672
 4211SOL     OW13531   4.657   4.221   3.325
 4211SOL    HW113532   4.717   4.158   3.275
 4211SOL    HW213533   4.605   4.276   3.260
 4212SOL     OW13534   6.231   0.025   2.941
 4212SOL    HW113535   6.160   0.091   2.919
 4212SOL    HW213536   6.235   0.012   3.040
 4213SOL     OW13537   1.212   0.648   2.328
 4213SOL    HW113538   1.308   0.625   2.347
 4213SOL    HW213539   1.152   0.582   2.374
 4214SOL     OW13540   1.536   3.111   4.404
 4214SOL    HW113541   1.528   3.210   4.395
 4214SOL    HW213542   1.444   3.071   4.406
 4215SOL     OW13543   0.990   5.422   4.640
 4215SOL    HW113544   1.026   5.329   4.628
 4215SOL    HW213545   1.056   5.476   4.692
 4216SOL     OW13546   1.706   3.336   5.518
 4216SOL    HW113547   1.784   3.399   5.514
 4216SOL    HW213548   1.712   3.280   5.600
 4217SOL     OW13549   0.364   0.459   3.380
 4217SOL    HW113550   0.405   0.369   3.367
 4217SOL    HW213551   0.300   0.477   3.305
 4218SOL     OW13552   3.879   6.816   2.503
 4218SOL    HW113553   3.913   6.789   2.594
 4218SOL    HW213554   3.783   6.842   2.510
 4219SOL     OW13555   4.494   6.472   3.511
 4219SOL    HW113556   4.493   6.373   3.503
 4219SOL    HW213557   4.426   6.512   3.448
 4220SOL     OW13558   0.203   3.465   3.126
 4220SOL    HW113559   0.173   3.480   3.220
 4220SOL    HW213560   0.248   3.376   3.120
 4221SOL     OW13561   5.278   5.837   5.893
 4221SOL    HW113562   5.241   5.747   5.919
 4221SOL    HW213563   5.263   5.852   5.796
 4222SOL     OW13564   4.317   2.778   0.461
 4222SOL    HW113565   4.389   2.847   0.449
 4222SOL    HW213566   4.251   2.811   0.528
 4223SOL     OW13567   3.713   4.093   3.049
 4223SOL    HW113568   3.661   4.140   2.977
 4223SOL    HW213569   3.710   4.147   3.133
 4224SOL     OW13570   4.378   2.217   5.028
 4224SOL    HW113571   4.365   2.124   4.992
 4224SOL    HW213572   4.291   2.265   5.028
 4225SOL     OW13573   5.733   0.485   4.876
 4225SOL    HW113574   5.679   0.524   4.801
 4225SOL    HW213575   5.706   0.390   4.891
 4226SOL     OW13576   1.639   1.280   3.742
 4226SOL    HW113577   1.669   1.352   3.805
 4226SOL    HW213578   1.639   1.192   3.789
 4227SOL     OW13579   6.214   4.198   0.597
 4227SOL    HW113580   6.252   4.204   0.504
 4227SOL    HW213581   6.255   4.269   0.654
 4228SOL     OW13582   6.139   5.612   2.139
 4228SOL    HW113583   6.117   5.516   2.154
 4228SOL    HW213584   6.119   5.636   2.044
 4229SOL     OW13585   4.941   4.795   5.978
 4229SOL    HW113586   4.885   4.714   5.991
 4229SOL    HW213587   5.036   4.768   5.961
 4230SOL     OW13588   3.133   7.015   4.578
 4230SOL    HW113589   3.073   0.050   4.530
 4230SOL    HW213590   3.211   6.993   4.519
 4231SOL     OW13591   3.888   6.848   5.452
 4231SOL    HW113592   3.962   6.835   5.518
 4231SOL    HW213593   3.801   6.854   5.501
 4232SOL     OW13594   2.240   4.005   2.000
 4232SOL    HW113595   2.190   3.971   1.920
 4232SOL    HW213596   2.239   3.935   2.072
 4233SOL     OW13597   5.920   6.782   1.051
 4233SOL    HW113598   5.824   6.808   1.043
 4233SOL    HW213599   5.942   6.714   0.981
 4234SOL     OW13600   2.899   3.919   5.541
 4234SOL    HW113601   2.870   4.012   5.517
 4234SOL    HW213602   2.996   3.907   5.518
 4235SOL     OW13603   6.555   3.513   5.588
 4235SOL    HW113604   6.598   3.532   5.499
 4235SOL    HW213605   6.535   3.415   5.594
 4236SOL     OW13606   1.496   3.890   4.441
 4236SOL    HW113607   1.550   3.851   4.516
 4236SOL    HW213608   1.548   3.962   4.396
 4237SOL     OW13609   5.260   3.765   4.937
 4237SOL    HW113610   5.334   3.698   4.938
 4237SOL    HW213611   5.224   3.774   4.844
 4238SOL     OW13612   4.201   5.244   3.889
 4238SOL    HW113613   4.152   5.297   3.958
 4238SOL    HW213614   4.264   5.180   3.934
 4239SOL     OW13615   4.935   5.551   5.755
 4239SOL    HW113616   4.891   5.513   5.836
 4239SOL    HW213617   4.924   5.651   5.755
 4240SOL     OW13618   2.792   4.865   6.567
 4240SOL    HW113619   2.722   4.869   6.497
 4240SOL    HW213620   2.883   4.872   6.525
 4241SOL     OW13621   3.842   0.867   6.943
 4241SOL    HW113622   3.789   0.864   6.859
 4241SOL    HW213623   3.790   0.824   7.017
 4242SOL     OW13624   1.693   0.256   2.424
 4242SOL    HW113625   1.604   0.250   2.379
 4242SOL    HW213626   1.742   0.170   2.412
 4243SOL     OW13627   1.681   2.578   3.323
 4243SOL    HW113628   1.778   2.560   3.340
 4243SOL    HW213629   1.636   2.604   3.408
 4244SOL     OW13630   3.640   6.044   1.671
 4244SOL    HW113631   3.556   5.990   1.678
 4244SOL    HW213632   3.618   6.142   1.681
 4245SOL     OW13633   6.638   3.680   1.685
 4245SOL    HW113634   6.652   3.742   1.762
 4245SOL    HW213635   6.550   3.700   1.641
 4246SOL     OW13636   4.424   2.297   3.813
 4246SOL    HW113637   4.382   2.292   3.723
 4246SOL    HW213638   4.424   2.206   3.855
 4247SOL     OW13639   1.920   4.919   6.238
 4247SOL    HW113640   1.930   4.836   6.182
 4247SOL    HW213641   1.958   4.903   6.329
 4248SOL     OW13642   1.589   0.652   3.478
 4248SOL    HW113643   1.554   0.580   3.537
 4248SOL    HW213644   1.583   0.623   3.383
 4249SOL     OW13645   6.197   6.945   5.339
 4249SOL    HW113646   6.284   6.981   5.370
 4249SOL    HW213647   6.176   6.861   5.388
 4250SOL     OW13648   6.523   5.591   4.007
 4250SOL    HW113649   6.496   5.647   3.929
 4250SOL    HW213650   6.458   5.605   4.082
 4251SOL     OW13651   6.515   2.475   5.392
 4251SOL    HW113652   6.501   2.492   5.489
 4251SOL    HW213653   6.518   2.377   5.375
 4252SOL     OW13654   0.050   6.498   6.772
 4252SOL    HW113655   7.014   6.569   6.799
 4252SOL    HW213656   0.101   6.467   6.851
 4253SOL     OW13657   4.769   5.675   2.828
 4253SOL    HW113658   4.674   5.675   2.798
 4253SOL    HW213659   4.810   5.586   2.811
 4254SOL     OW13660   2.019   2.913   6.379
 4254SOL    HW113661   1.921   2.907   6.396
 4254SOL    HW213662   2.039   2.881   6.286
 4255SOL     OW13663   1.386   3.387   3.405
 4255SOL    HW113664   1.367   3.413   3.311
 4255SOL    HW213665   1.400   3.288   3.411
 4256SOL     OW13666   0.728   6.301   1.674
 4256SOL    HW113667   0.796   6.284   1.745
 4256SOL    HW213668   0.739   6.395   1.639
 4257SOL     OW13669   6.638   0.027   4.227
 4257SOL    HW113670   6.733   0.005   4.204
 4257SOL    HW213671   6.634   0.068   4.318
 4258SOL     OW13672   3.235   5.771   0.899
 4258SOL    HW113673   3.288   5.846   0.936
 4258SOL    HW213674   3.175   5.805   0.827
 4259SOL     OW13675   1.247   0.359   1.432
 4259SOL    HW113676   1.262   0.357   1.333
 4259SOL    HW213677   1.307   0.428   1.473
 4260SOL     OW13678   5.265   1.147   4.794
 4260SOL    HW113679   5.214   1.233   4.792
 4260SOL    HW213680   5.362   1.165   4.811
 4261SOL     OW13681   2.722   6.134   4.316
 4261SOL    HW113682   2.668   6.184   4.383
 4261SOL    HW213683   2.670   6.124   4.231
 4262SOL     OW13684   2.518   4.203   6.503
 4262SOL    HW113685   2.451   4.182   6.432
 4262SOL    HW213686   2.591   4.135   6.501
 4263SOL     OW13687   1.853   1.646   3.321
 4263SOL    HW113688   1.910   1.622   3.400
 4263SOL    HW213689   1.912   1.656   3.240
 4264SOL     OW13690   4.846   1.734   4.970
 4264SOL    HW113691   4.792   1.685   4.901
 4264SOL    HW213692   4.796   1.816   4.999
 4265SOL     OW13693   2.179   0.010   6.102
 4265SOL    HW113694   2.260   7.014   6.155
 4265SOL    HW213695   2.175   0.110   6.092
 4266SOL     OW13696   1.690   5.435   1.571
 4266SOL    HW113697   1.754   5.424   1.495
 4266SOL    HW213698   1.706   5.363   1.639
 4267SOL     OW13699   1.479   4.221   4.746
 4267SOL    HW113700   1.466   4.242   4.649
 4267SOL    HW213701   1.565   4.171   4.758
 4268SOL     OW13702   1.301   4.079   6.443
 4268SOL    HW113703   1.320   4.105   6.538
 4268SOL    HW213704   1.203   4.072   6.429
 4269SOL     OW13705   2.806   1.262   5.065
 4269SOL    HW113706   2.873   1.282   5.137
 4269SOL    HW213707   2.729   1.213   5.105
 4270SOL     OW13708   3.393   3.432   0.351
 4270SOL    HW113709   3.484   3.393   0.339
 4270SOL    HW213710   3.331   3.392   0.284
 4271SOL     OW13711   6.849   0.993   1.978
 4271SOL    HW113712   6.797   0.929   1.921
 4271SOL    HW213713   6.843   1.084   1.938
 4272SOL     OW13714   0.341   1.150   6.814
 4272SOL    HW113715   0.281   1.141   6.894
 4272SOL    HW213716   0.400   1.070   6.808
 4273SOL     OW13717   3.185   6.213   4.690
 4273SOL    HW113718   3.086   6.224   4.680
 4273SOL    HW213719   3.226   6.300   4.717
 4274SOL     OW13720   0.079   1.462   2.264
 4274SOL    HW113721   0.135   1.464   2.182
 4274SOL    HW213722   0.043   1.369   2.278
 4275SOL     OW13723   0.155   2.695   3.120
 4275SOL    HW113724   0.233   2.754   3.142
 4275SOL    HW213725   0.188   2.603   3.101
 4276SOL     OW13726   2.418   6.056   3.392
 4276SOL    HW113727   2.492   5.996   3.360
 4276SOL    HW213728   2.342   6.001   3.425
 4277SOL     OW13729   6.492   5.927   2.811
 4277SOL    HW113730   6.568   5.969   2.762
 4277SOL    HW213731   6.453   5.853   2.756
 4278SOL     OW13732   0.998   6.908   1.871
 4278SOL    HW113733   0.998   6.999   1.828
 4278SOL    HW213734   0.963   6.915   1.964
 4279SOL     OW13735   1.586   1.798   3.859
 4279SOL    HW113736   1.670   1.828   3.904
 4279SOL    HW213737   1.557   1.867   3.792
 4280SOL     OW13738   1.933   6.382   6.587
 4280SOL    HW113739   2.001   6.347   6.522
 4280SOL    HW213740   1.861   6.431   6.536
 4281SOL     OW13741   5.371   5.768   3.204
 4281SOL    HW113742   5.428   5.687   3.186
 4281SOL    HW213743   5.281   5.755   3.162
 4282SOL     OW13744   4.480   5.036   1.131
 4282SOL    HW113745   4.527   4.959   1.086
 4282SOL    HW213746   4.503   5.036   1.229
 4283SOL     OW13747   4.958   1.214   4.314
 4283SOL    HW113748   4.942   1.116   4.305
 4283SOL    HW213749   4.880   1.257   4.360
 4284SOL     OW13750   4.844   5.430   6.390
 4284SOL    HW113751   4.834   5.333   6.411
 4284SOL    HW213752   4.770   5.482   6.435
 4285SOL     OW13753   3.447   1.050   5.615
 4285SOL    HW113754   3.389   1.125   5.585
 4285SOL    HW213755   3.390   0.975   5.649
 4286SOL     OW13756   6.189   0.348   6.662
 4286SOL    HW113757   6.174   0.309   6.571
 4286SOL    HW213758   6.278   0.318   6.697
 4287SOL     OW13759   3.574   0.323   0.748
 4287SOL    HW113760   3.630   0.319   0.665
 4287SOL    HW213761   3.478   0.308   0.724
 4288SOL     OW13762   0.177   6.307   2.239
 4288SOL    HW113763   0.125   6.248   2.176
 4288SOL    HW213764   0.227   6.376   2.187
 4289SOL     OW13765   0.248   4.519   4.295
 4289SOL    HW113766   0.188   4.594   4.266
 4289SOL    HW213767   0.326   4.513   4.233
 4290SOL     OW13768   0.587   1.207   3.393
 4290SOL    HW113769   0.621   1.301   3.391
 4290SOL    HW213770   0.520   1.198   3.466
 4291SOL     OW13771   4.570   3.747   5.569
 4291SOL    HW113772   4.607   3.762   5.477
 4291SOL    HW213773   4.526   3.831   5.602
 4292SOL     OW13774   6.069   1.903   1.897
 4292SOL    HW113775   6.103   1.915   1.991
 4292SOL    HW213776   6.004   1.976   1.876
 4293SOL     OW13777   4.004   3.122   0.589
 4293SOL    HW113778   3.941   3.133   0.666
 4293SOL    HW213779   4.075   3.055   0.613
 4294SOL     OW13780   2.403   2.002   6.733
 4294SOL    HW113781   2.356   2.090   6.744
 4294SOL    HW213782   2.500   2.018   6.715
 4295SOL     OW13783   4.198   6.042   2.888
 4295SOL    HW113784   4.282   5.997   2.857
 4295SOL    HW213785   4.213   6.141   2.890
 4296SOL     OW13786   3.009   6.520   3.077
 4296SOL    HW113787   2.946   6.562   3.012
 4296SOL    HW213788   3.011   6.574   3.161
 4297SOL     OW13789   5.065   5.234   0.496
 4297SOL    HW113790   5.032   5.144   0.525
 4297SOL    HW213791   5.156   5.226   0.456
 4298SOL     OW13792   1.825   0.064   0.770
 4298SOL    HW113793   1.904   0.006   0.751
 4298SOL    HW213794   1.853   0.143   0.823
 4299SOL     OW13795   0.524   2.584   6.783
 4299SOL    HW113796   0.590   2.625   6.846
 4299SOL    HW213797   0.537   2.622   6.692
 4300SOL     OW13798   2.877   0.442   1.499
 4300SOL    HW113799   2.949   0.507   1.523
 4300SOL    HW213800   2.843   0.462   1.407
 4301SOL     OW13801   2.423   6.299   0.229
 4301SOL    HW113802   2.362   6.248   0.168
 4301SOL    HW213803   2.504   6.244   0.250
 4302SOL     OW13804   2.116   5.206   5.881
 4302SOL    HW113805   2.104   5.121   5.830
 4302SOL    HW213806   2.088   5.283   5.825
 4303SOL     OW13807   5.535   5.531   3.467
 4303SOL    HW113808   5.520   5.566   3.560
 4303SOL    HW213809   5.460   5.560   3.408
 4304SOL     OW13810   3.447   3.844   1.514
 4304SOL    HW113811   3.517   3.852   1.443
 4304SOL    HW213812   3.412   3.751   1.516
 4305SOL     OW13813   1.218   6.144   5.619
 4305SOL    HW113814   1.138   6.102   5.578
 4305SOL    HW213815   1.285   6.165   5.547
 4306SOL     OW13816   5.232   4.476   4.979
 4306SOL    HW113817   5.143   4.466   4.935
 4306SOL    HW213818   5.300   4.505   4.912
 4307SOL     OW13819   0.487   0.822   5.905
 4307SOL    HW113820   0.573   0.829   5.954
 4307SOL    HW213821   0.474   0.903   5.848
 4308SOL     OW13822   4.881   6.298   6.729
 4308SOL    HW113823   4.823   6.379   6.730
 4308SOL    HW213824   4.837   6.225   6.782
 4309SOL     OW13825   0.837   1.574   0.585
 4309SOL    HW113826   0.880   1.650   0.634
 4309SOL    HW213827   0.840   1.591   0.487
 4310SOL     OW13828   6.604   2.115   2.332
 4310SOL    HW113829   6.520   2.106   2.386
 4310SOL    HW213830   6.604   2.047   2.258
 4311SOL     OW13831   0.298   6.880   1.426
 4311SOL    HW113832   0.328   6.805   1.367
 4311SOL    HW213833   0.340   6.871   1.516
 4312SOL     OW13834   6.899   5.068   2.464
 4312SOL    HW113835   6.858   4.977   2.462
 4312SOL    HW213836   6.920   5.093   2.559
 4313SOL     OW13837   0.109   3.216   6.437
 4313SOL    HW113838   0.027   3.246   6.486
 4313SOL    HW213839   0.191   3.246   6.486
 4314SOL     OW13840   0.671   1.331   6.135
 4314SOL    HW113841   0.653   1.266   6.209
 4314SOL    HW213842   0.585   1.355   6.090
 4315SOL     OW13843   2.714   1.214   4.822
 4315SOL    HW113844   2.617   1.212   4.847
 4315SOL    HW213845   2.767   1.249   4.900
 4316SOL     OW13846   4.982   5.983   1.231
 4316SOL    HW113847   5.073   5.946   1.213
 4316SOL    HW213848   4.954   5.960   1.324
 4317SOL     OW13849   4.364   0.764   5.567
 4317SOL    HW113850   4.381   0.707   5.647
 4317SOL    HW213851   4.337   0.856   5.597
 4318SOL     OW13852   1.143   6.688   4.198
 4318SOL    HW113853   1.129   6.712   4.102
 4318SOL    HW213854   1.231   6.723   4.229
 4319SOL     OW13855   1.297   4.305   2.555
 4319SOL    HW113856   1.223   4.299   2.622
 4319SOL    HW213857   1.382   4.329   2.602
 4320SOL     OW13858   3.372   0.008   0.785
 4320SOL    HW113859   3.339   7.014   0.877
 4320SOL    HW213860   3.357   0.106   0.769
 4321SOL     OW13861   6.820   6.764   3.027
 4321SOL    HW113862   6.745   6.822   3.057
 4321SOL    HW213863   6.796   6.718   2.942
 4322SOL     OW13864   1.760   2.963   4.820
 4322SOL    HW113865   1.851   2.955   4.861
 4322SOL    HW213866   1.691   2.963   4.892
 4323SOL     OW13867   4.408   4.741   0.241
 4323SOL    HW113868   4.343   4.704   0.308
 4323SOL    HW213869   4.491   4.769   0.288
 4324SOL     OW13870   0.985   4.712   5.789
 4324SOL    HW113871   0.983   4.649   5.867
 4324SOL    HW213872   0.976   4.660   5.704
 4325SOL     OW13873   1.783   0.378   2.654
 4325SOL    HW113874   1.713   0.351   2.589
 4325SOL    HW213875   1.869   0.331   2.634
 4326SOL     OW13876   5.374   1.695   1.991
 4326SOL    HW113877   5.319   1.727   1.913
 4326SOL    HW213878   5.412   1.773   2.039
 4327SOL     OW13879   2.830   5.977   3.732
 4327SOL    HW113880   2.908   6.034   3.759
 4327SOL    HW213881   2.853   5.928   3.648
 4328SOL     OW13882   6.853   0.375   4.416
 4328SOL    HW113883   6.923   0.325   4.468
 4328SOL    HW213884   6.830   0.323   4.334
 4329SOL     OW13885   0.038   2.191   6.948
 4329SOL    HW113886   0.052   2.141   6.863
 4329SOL    HW213887   7.015   2.134   7.012
 4330SOL     OW13888   3.074   5.037   4.248
 4330SOL    HW113889   3.115   5.093   4.320
 4330SOL    HW213890   2.979   5.016   4.272
 4331SOL     OW13891   5.692   1.476   1.993
 4331SOL    HW113892   5.746   1.395   1.971
 4331SOL    HW213893   5.597   1.450   2.011
 4332SOL     OW13894   1.071   5.210   1.972
 4332SOL    HW113895   1.162   5.196   2.011
 4332SOL    HW213896   1.057   5.144   1.898
 4333SOL     OW13897   4.785   2.350   5.966
 4333SOL    HW113898   4.712   2.380   5.904
 4333SOL    HW213899   4.825   2.429   6.011
 4334SOL     OW13900   6.889   2.988   4.390
 4334SOL    HW113901   6.977   2.943   4.375
 4334SOL    HW213902   6.888   3.076   4.343
 4335SOL     OW13903   2.704   3.818   1.569
 4335SOL    HW113904   2.687   3.787   1.475
 4335SOL    HW213905   2.797   3.794   1.596
 4336SOL     OW13906   2.589   6.045   5.312
 4336SOL    HW113907   2.559   6.134   5.343
 4336SOL    HW213908   2.666   6.056   5.249
 4337SOL     OW13909   1.181   5.037   3.783
 4337SOL    HW113910   1.174   4.969   3.710
 4337SOL    HW213911   1.168   5.128   3.745
 4338SOL     OW13912   3.542   1.923   5.631
 4338SOL    HW113913   3.491   1.846   5.669
 4338SOL    HW213914   3.484   1.971   5.564
 4339SOL     OW13915   3.777   4.168   6.096
 4339SOL    HW113916   3.788   4.212   6.007
 4339SOL    HW213917   3.777   4.068   6.084
 4340SOL     OW13918   6.332   4.141   1.427
 4340SOL    HW113919   6.310   4.117   1.332
 4340SOL    HW213920   6.332   4.058   1.482
 4341SOL     OW13921   6.418   6.343   1.971
 4341SOL    HW113922   6.319   6.355   1.964
 4341SOL    HW213923   6.442   6.249   1.948
 4342SOL     OW13924   4.825   3.967   2.621
 4342SOL    HW113925   4.750   3.960   2.556
 4342SOL    HW213926   4.875   4.052   2.605
 4343SOL     OW13927   3.827   6.589   6.086
 4343SOL    HW113928   3.790   6.496   6.083
 4343SOL    HW213929   3.756   6.654   6.059
 4344SOL     OW13930   0.132   3.764   3.319
 4344SOL    HW113931   0.061   3.708   3.275
 4344SOL    HW213932   0.216   3.711   3.328
 4345SOL     OW13933   3.199   3.091   2.658
 4345SOL    HW113934   3.150   3.085   2.570
 4345SOL    HW213935   3.215   3.188   2.680
 4346SOL     OW13936   1.424   2.911   2.603
 4346SOL    HW113937   1.503   2.935   2.546
 4346SOL    HW213938   1.386   2.994   2.645
 4347SOL     OW13939   6.672   5.684   0.552
 4347SOL    HW113940   6.620   5.659   0.633
 4347SOL    HW213941   6.623   5.653   0.470
 4348SOL     OW13942   5.648   4.948   4.346
 4348SOL    HW113943   5.614   4.870   4.294
 4348SOL    HW213944   5.710   5.002   4.287
 4349SOL     OW13945   0.367   3.336   4.285
 4349SOL    HW113946   0.324   3.295   4.365
 4349SOL    HW213947   0.433   3.272   4.247
 4350SOL     OW13948   3.562   1.351   4.474
 4350SOL    HW113949   3.507   1.322   4.552
 4350SOL    HW213950   3.526   1.311   4.390
 4351SOL     OW13951   0.881   5.951   0.716
 4351SOL    HW113952   0.919   5.992   0.634
 4351SOL    HW213953   0.832   5.867   0.692
 4352SOL     OW13954   3.568   4.882   1.481
 4352SOL    HW113955   3.621   4.835   1.552
 4352SOL    HW213956   3.471   4.871   1.500
 4353SOL     OW13957   2.644   2.597   1.237
 4353SOL    HW113958   2.722   2.544   1.203
 4353SOL    HW213959   2.678   2.683   1.277
 4354SOL     OW13960   6.082   6.864   3.323
 4354SOL    HW113961   5.986   6.851   3.350
 4354SOL    HW213962   6.090   6.850   3.224
 4355SOL     OW13963   1.948   5.399   2.775
 4355SOL    HW113964   2.015   5.460   2.818
 4355SOL    HW213965   1.883   5.368   2.844
 4356SOL     OW13966   6.047   2.664   5.317
 4356SOL    HW113967   6.062   2.584   5.374
 4356SOL    HW213968   6.135   2.700   5.285
 4357SOL     OW13969   5.723   0.544   2.100
 4357SOL    HW113970   5.815   0.525   2.066
 4357SOL    HW213971   5.670   0.589   2.029
 4358SOL     OW13972   3.125   0.160   7.012
 4358SOL    HW113973   3.182   0.138   6.933
 4358SOL    HW213974   3.128   0.085   0.049
 4359SOL     OW13975   2.730   2.050   0.590
 4359SOL    HW113976   2.824   2.084   0.593
 4359SOL    HW213977   2.707   2.023   0.496
 4360SOL     OW13978   2.129   4.428   4.306
 4360SOL    HW113979   2.217   4.388   4.279
 4360SOL    HW213980   2.146   4.517   4.349
 4361SOL     OW13981   7.016   1.923   0.465
 4361SOL    HW113982   6.983   1.829   0.461
 4361SOL    HW213983   6.966   1.979   0.399
 4362SOL     OW13984   1.149   5.243   3.560
 4362SOL    HW113985   1.049   5.238   3.557
 4362SOL    HW213986   1.183   5.272   3.470
 4363SOL     OW13987   4.122   1.038   2.300
 4363SOL    HW113988   4.041   1.037   2.357
 4363SOL    HW213989   4.104   0.989   2.215
 4364SOL     OW13990   4.163   3.623   2.444
 4364SOL    HW113991   4.167   3.723   2.434
 4364SOL    HW213992   4.125   3.583   2.361
 4365SOL     OW13993   2.264   1.363   1.172
 4365SOL    HW113994   2.320   1.338   1.093
 4365SOL    HW213995   2.312   1.431   1.226
 4366SOL     OW13996   4.558   6.512   4.875
 4366SOL    HW113997   4.640   6.491   4.821
 4366SOL    HW213998   4.542   6.438   4.940
 4367SOL     OW13999   3.177   5.774   3.395
 4367SOL    HW114000   3.146   5.679   3.394
 4367SOL    HW214001   3.273   5.778   3.369
 4368SOL     OW14002   4.715   4.240   3.788
 4368SOL    HW114003   4.723   4.150   3.829
 4368SOL    HW214004   4.643   4.292   3.835
 4369SOL     OW14005   5.060   4.139   3.430
 4369SOL    HW114006   5.031   4.152   3.525
 4369SOL    HW214007   5.028   4.216   3.375
 4370SOL     OW14008   3.748   4.418   1.699
 4370SOL    HW114009   3.723   4.322   1.715
 4370SOL    HW214010   3.686   4.478   1.750
 4371SOL     OW14011   2.384   1.216   1.773
 4371SOL    HW114012   2.411   1.149   1.704
 4371SOL    HW214013   2.330   1.288   1.730
 4372SOL     OW14014   1.723   3.386   4.903
 4372SOL    HW114015   1.733   3.401   5.001
 4372SOL    HW214016   1.627   3.397   4.878
 4373SOL     OW14017   3.399   1.045   6.241
 4373SOL    HW114018   3.342   1.022   6.320
 4373SOL    HW214019   3.436   1.137   6.252
 4374SOL     OW14020   2.495   7.008   1.250
 4374SOL    HW114021   2.411   7.004   1.304
 4374SOL    HW214022   2.555   0.050   1.287
 4375SOL     OW14023   4.626   1.946   4.653
 4375SOL    HW114024   4.702   2.010   4.640
 4375SOL    HW214025   4.661   1.853   4.650
 4376SOL     OW14026   2.164   6.039   6.946
 4376SOL    HW114027   2.070   6.006   6.954
 4376SOL    HW214028   2.167   6.117   6.884
 4377SOL     OW14029   5.540   0.225   6.318
 4377SOL    HW114030   5.612   0.252   6.254
 4377SOL    HW214031   5.581   0.183   6.399
 4378SOL     OW14032   2.545   5.445   2.234
 4378SOL    HW114033   2.557   5.468   2.138
 4378SOL    HW214034   2.540   5.345   2.245
 4379SOL     OW14035   1.399   0.512   1.611
 4379SOL    HW114036   1.470   0.578   1.634
 4379SOL    HW214037   1.396   0.440   1.680
 4380SOL     OW14038   2.064   4.991   4.494
 4380SOL    HW114039   2.158   5.021   4.511
 4380SOL    HW214040   2.001   5.048   4.546
 4381SOL     OW14041   4.645   6.297   5.505
 4381SOL    HW114042   4.584   6.253   5.438
 4381SOL    HW214043   4.687   6.377   5.464
 4382SOL     OW14044   5.021   3.690   3.293
 4382SOL    HW114045   5.121   3.694   3.303
 4382SOL    HW214046   4.981   3.772   3.334
 4383SOL     OW14047   1.157   1.945   6.983
 4383SOL    HW114048   1.080   1.929   6.922
 4383SOL    HW214049   1.129   2.004   0.029
 4384SOL     OW14050   3.821   6.543   1.329
 4384SOL    HW114051   3.774   6.460   1.299
 4384SOL    HW214052   3.785   6.622   1.279
 4385SOL     OW14053   6.324   1.271   2.618
 4385SOL    HW114054   6.352   1.197   2.556
 4385SOL    HW214055   6.401   1.295   2.677
 4386SOL     OW14056   1.379   3.777   6.951
 4386SOL    HW114057   1.319   3.699   6.967
 4386SOL    HW214058   1.422   3.769   6.861
 4387SOL     OW14059   6.842   3.383   1.908
 4387SOL    HW114060   6.808   3.289   1.904
 4387SOL    HW214061   6.792   3.435   1.977
 4388SOL     OW14062   2.636   1.448   5.363
 4388SOL    HW114063   2.565   1.429   5.296
 4388SOL    HW214064   2.688   1.364   5.382
 4389SOL     OW14065   5.324   2.289   2.146
 4389SOL    HW114066   5.275   2.218   2.196
 4389SOL    HW214067   5.275   2.312   2.062
 4390SOL     OW14068   4.672   2.505   1.723
 4390SOL    HW114069   4.646   2.584   1.667
 4390SOL    HW214070   4.617   2.426   1.696
 4391SOL     OW14071   0.811   6.015   0.960
 4391SOL    HW114072   0.833   5.924   0.995
 4391SOL    HW214073   0.822   6.015   0.860
 4392SOL     OW14074   5.878   3.691   4.488
 4392SOL    HW114075   5.891   3.789   4.501
 4392SOL    HW214076   5.786   3.665   4.517
 4393SOL     OW14077   4.582   5.909   3.919
 4393SOL    HW114078   4.560   5.865   3.832
 4393SOL    HW214079   4.657   5.973   3.907
 4394SOL     OW14080   4.737   1.060   2.073
 4394SOL    HW114081   4.809   1.120   2.109
 4394SOL    HW214082   4.776   0.972   2.049
 4395SOL     OW14083   4.588   1.743   1.443
 4395SOL    HW114084   4.624   1.829   1.408
 4395SOL    HW214085   4.566   1.682   1.366
 4396SOL     OW14086   1.662   0.902   4.061
 4396SOL    HW114087   1.632   0.930   4.152
 4396SOL    HW214088   1.609   0.823   4.030
 4397SOL     OW14089   6.601   0.386   6.343
 4397SOL    HW114090   6.538   0.317   6.308
 4397SOL    HW214091   6.551   0.449   6.403
 4398SOL     OW14092   6.622   4.759   4.214
 4398SOL    HW114093   6.685   4.834   4.232
 4398SOL    HW214094   6.601   4.755   4.116
 4399SOL     OW14095   2.937   1.284   1.610
 4399SOL    HW114096   2.962   1.340   1.531
 4399SOL    HW214097   2.844   1.249   1.598
 4400SOL     OW14098   3.619   5.592   4.280
 4400SOL    HW114099   3.650   5.667   4.339
 4400SOL    HW214100   3.522   5.575   4.296
 4401SOL     OW14101   5.294   6.872   4.180
 4401SOL    HW114102   5.197   6.850   4.175
 4401SOL    HW214103   5.310   6.935   4.257
 4402SOL     OW14104   6.977   0.803   3.620
 4402SOL    HW114105   6.904   0.867   3.646
 4402SOL    HW214106   6.954   0.712   3.653
 4403SOL     OW14107   0.944   6.732   2.677
 4403SOL    HW114108   0.968   6.653   2.620
 4403SOL    HW214109   0.995   6.727   2.764
 4404SOL     OW14110   1.493   4.140   3.543
 4404SOL    HW114111   1.461   4.194   3.621
 4404SOL    HW214112   1.578   4.094   3.567
 4405SOL     OW14113   3.770   4.667   6.163
 4405SOL    HW114114   3.707   4.692   6.237
 4405SOL    HW214115   3.717   4.643   6.082
 4406SOL     OW14116   5.380   3.440   1.660
 4406SOL    HW114117   5.432   3.355   1.646
 4406SOL    HW214118   5.315   3.452   1.585
 4407SOL     OW14119   6.837   6.318   0.065
 4407SOL    HW114120   6.785   6.265   0.131
 4407SOL    HW214121   6.799   6.304   7.002
 4408SOL     OW14122   4.898   6.366   0.413
 4408SOL    HW114123   4.827   6.297   0.399
 4408SOL    HW214124   4.947   6.381   0.328
 4409SOL     OW14125   2.759   1.542   2.270
 4409SOL    HW114126   2.661   1.530   2.284
 4409SOL    HW214127   2.776   1.576   2.177
 4410SOL     OW14128   2.593   5.314   1.940
 4410SOL    HW114129   2.612   5.410   1.958
 4410SOL    HW214130   2.655   5.257   1.993
 4411SOL     OW14131   3.816   3.161   2.301
 4411SOL    HW114132   3.869   3.139   2.383
 4411SOL    HW214133   3.841   3.099   2.227
 4412SOL     OW14134   3.374   2.056   6.333
 4412SOL    HW114135   3.464   2.099   6.323
 4412SOL    HW214136   3.338   2.078   6.424
 4413SOL     OW14137   3.976   5.799   4.268
 4413SOL    HW114138   4.046   5.856   4.224
 4413SOL    HW214139   3.996   5.703   4.253
 4414SOL     OW14140   3.657   5.348   2.055
 4414SOL    HW114141   3.620   5.373   2.144
 4414SOL    HW214142   3.724   5.274   2.066
 4415SOL     OW14143   4.615   2.378   0.807
 4415SOL    HW114144   4.674   2.413   0.734
 4415SOL    HW214145   4.568   2.455   0.851
 4416SOL     OW14146   3.874   1.133   3.481
 4416SOL    HW114147   3.964   1.159   3.517
 4416SOL    HW214148   3.806   1.201   3.509
 4417SOL     OW14149   0.640   0.450   1.102
 4417SOL    HW114150   0.634   0.399   1.017
 4417SOL    HW214151   0.583   0.532   1.096
 4418SOL     OW14152   4.068   0.195   3.578
 4418SOL    HW114153   3.976   0.167   3.604
 4418SOL    HW214154   4.080   0.293   3.597
 4419SOL     OW14155   0.028   5.262   0.384
 4419SOL    HW114156   0.095   5.281   0.456
 4419SOL    HW214157   6.992   5.338   0.379
 4420SOL     OW14158   4.153   0.980   6.443
 4420SOL    HW114159   4.168   0.961   6.346
 4420SOL    HW214160   4.058   0.963   6.466
 4421SOL     OW14161   1.714   1.881   3.198
 4421SOL    HW114162   1.755   1.875   3.289
 4421SOL    HW214163   1.756   1.957   3.148
 4422SOL     OW14164   2.248   3.725   5.714
 4422SOL    HW114165   2.204   3.653   5.660
 4422SOL    HW214166   2.187   3.805   5.718
 4423SOL     OW14167   0.190   1.277   6.538
 4423SOL    HW114168   0.173   1.204   6.605
 4423SOL    HW214169   0.119   1.275   6.468
 4424SOL     OW14170   0.236   6.199   3.774
 4424SOL    HW114171   0.146   6.242   3.769
 4424SOL    HW214172   0.301   6.251   3.718
 4425SOL     OW14173   4.321   4.088   0.296
 4425SOL    HW114174   4.340   4.118   0.203
 4425SOL    HW214175   4.404   4.094   0.351
 4426SOL     OW14176   1.035   0.167   5.376
 4426SOL    HW114177   0.976   0.246   5.366
 4426SOL    HW214178   1.106   0.168   5.306
 4427SOL     OW14179   1.452   6.676   3.641
 4427SOL    HW114180   1.429   6.585   3.606
 4427SOL    HW214181   1.422   6.683   3.737
 4428SOL     OW14182   2.916   5.825   3.498
 4428SOL    HW114183   3.006   5.843   3.458
 4428SOL    HW214184   2.922   5.744   3.557
 4429SOL     OW14185   4.051   0.527   3.103
 4429SOL    HW114186   4.025   0.537   3.007
 4429SOL    HW214187   4.002   0.595   3.158
 4430SOL     OW14188   1.667   0.841   1.394
 4430SOL    HW114189   1.751   0.873   1.439
 4430SOL    HW214190   1.591   0.901   1.419
 4431SOL     OW14191   1.624   2.198   3.291
 4431SOL    HW114192   1.553   2.260   3.256
 4431SOL    HW214193   1.591   2.104   3.288
 4432SOL     OW14194   2.891   3.587   3.391
 4432SOL    HW114195   2.888   3.614   3.295
 4432SOL    HW214196   2.955   3.646   3.440
 4433SOL     OW14197   0.165   0.534   3.195
 4433SOL    HW114198   0.073   0.508   3.225
 4433SOL    HW214199   0.159   0.617   3.139
 4434SOL     OW14200   5.199   1.950   4.103
 4434SOL    HW114201   5.117   1.917   4.056
 4434SOL    HW214202   5.184   2.043   4.135
 4435SOL     OW14203   3.521   3.147   2.378
 4435SOL    HW114204   3.611   3.158   2.335
 4435SOL    HW214205   3.467   3.081   2.326
 4436SOL     OW14206   4.961   0.739   7.026
 4436SOL    HW114207   5.042   0.755   6.969
 4436SOL    HW214208   4.892   0.691   6.973
 4437SOL     OW14209   3.514   0.290   4.720
 4437SOL    HW114210   3.611   0.285   4.697
 4437SOL    HW214211   3.496   0.374   4.771
 4438SOL     OW14212   3.618   3.714   6.317
 4438SOL    HW114213   3.653   3.626   6.349
 4438SOL    HW214214   3.635   3.724   6.220
 4439SOL     OW14215   2.793   5.034   2.337
 4439SOL    HW114216   2.826   4.982   2.258
 4439SOL    HW214217   2.695   5.049   2.328
 4440SOL     OW14218   6.867   0.431   6.369
 4440SOL    HW114219   6.874   0.509   6.431
 4440SOL    HW214220   6.771   0.410   6.353
 4441SOL     OW14221   5.767   2.544   3.389
 4441SOL    HW114222   5.748   2.633   3.348
 4441SOL    HW214223   5.802   2.558   3.482
 4442SOL     OW14224   1.989   6.270   2.343
 4442SOL    HW114225   2.028   6.359   2.364
 4442SOL    HW214226   2.017   6.242   2.251
 4443SOL     OW14227   2.400   1.546   5.728
 4443SOL    HW114228   2.443   1.626   5.687
 4443SOL    HW214229   2.436   1.533   5.821
 4444SOL     OW14230   5.140   0.886   2.453
 4444SOL    HW114231   5.238   0.886   2.472
 4444SOL    HW214232   5.091   0.843   2.529
 4445SOL     OW14233   1.680   1.639   6.401
 4445SOL    HW114234   1.596   1.640   6.456
 4445SOL    HW214235   1.673   1.708   6.329
 4446SOL     OW14236   6.470   5.944   4.312
 4446SOL    HW114237   6.485   5.903   4.402
 4446SOL    HW214238   6.373   5.943   4.290
 4447SOL     OW14239   4.977   3.468   4.871
 4447SOL    HW114240   4.947   3.376   4.893
 4447SOL    HW214241   4.927   3.534   4.928
 4448SOL     OW14242   2.698   2.973   6.122
 4448SOL    HW114243   2.668   2.880   6.142
 4448SOL    HW214244   2.638   3.013   6.054
 4449SOL     OW14245   0.831   1.379   5.043
 4449SOL    HW114246   0.750   1.432   5.069
 4449SOL    HW214247   0.812   1.327   4.960
 4450SOL     OW14248   4.009   3.757   3.229
 4450SOL    HW114249   3.987   3.839   3.176
 4450SOL    HW214250   4.056   3.783   3.313
 4451SOL     OW14251   6.561   4.236   1.980
 4451SOL    HW114252   6.544   4.334   1.973
 4451SOL    HW214253   6.474   4.187   1.976
 4452SOL     OW14254   6.460   5.264   6.156
 4452SOL    HW114255   6.394   5.214   6.213
 4452SOL    HW214256   6.506   5.199   6.094
 4453SOL     OW14257   5.233   2.001   1.410
 4453SOL    HW114258   5.205   2.097   1.413
 4453SOL    HW214259   5.268   1.973   1.499
 4454SOL     OW14260   5.032   3.094   1.301
 4454SOL    HW114261   5.043   3.012   1.245
 4454SOL    HW214262   4.959   3.079   1.368
 4455SOL     OW14263   4.130   1.604   1.622
 4455SOL    HW114264   4.199   1.573   1.557
 4455SOL    HW214265   4.172   1.669   1.686
 4456SOL     OW14266   1.034   5.517   3.102
 4456SOL    HW114267   1.040   5.606   3.056
 4456SOL    HW214268   1.057   5.445   3.037
 4457SOL     OW14269   5.095   1.961   6.606
 4457SOL    HW114270   4.998   1.954   6.586
 4457SOL    HW214271   5.120   2.058   6.617
 4458SOL     OW14272   3.659   1.777   6.400
 4458SOL    HW114273   3.713   1.700   6.436
 4458SOL    HW214274   3.702   1.863   6.426
 4459SOL     OW14275   5.074   6.078   5.255
 4459SOL    HW114276   5.020   6.007   5.210
 4459SOL    HW214277   5.031   6.104   5.341
 4460SOL     OW14278   1.535   1.393   6.339
 4460SOL    HW114279   1.515   1.458   6.412
 4460SOL    HW214280   1.506   1.431   6.251
 4461SOL     OW14281   2.430   0.376   2.336
 4461SOL    HW114282   2.499   0.428   2.286
 4461SOL    HW214283   2.376   0.437   2.394
 4462SOL     OW14284   6.884   5.893   1.316
 4462SOL    HW114285   6.940   5.879   1.398
 4462SOL    HW214286   6.901   5.984   1.279
 4463SOL     OW14287   1.357   3.407   5.950
 4463SOL    HW114288   1.359   3.348   6.031
 4463SOL    HW214289   1.441   3.461   5.945
 4464SOL     OW14290   6.064   2.881   6.974
 4464SOL    HW114291   5.967   2.873   6.996
 4464SOL    HW214292   6.076   2.875   6.875
 4465SOL     OW14293   1.562   5.974   2.248
 4465SOL    HW114294   1.506   5.937   2.174
 4465SOL    HW214295   1.640   5.913   2.265
 4466SOL     OW14296   0.320   2.519   4.053
 4466SOL    HW114297   0.264   2.453   4.104
 4466SOL    HW214298   0.278   2.538   3.965
 4467SOL     OW14299   1.251   6.920   3.352
 4467SOL    HW114300   1.250   7.000   3.291
 4467SOL    HW214301   1.171   6.864   3.333
 4468SOL     OW14302   0.888   2.783   0.108
 4468SOL    HW114303   0.976   2.745   0.138
 4468SOL    HW214304   0.878   2.876   0.144
 4469SOL     OW14305   4.404   0.109   0.073
 4469SOL    HW114306   4.305   0.105   0.086
 4469SOL    HW214307   4.446   0.157   0.149
 4470SOL     OW14308   4.635   5.292   1.118
 4470SOL    HW114309   4.712   5.274   1.180
 4470SOL    HW214310   4.558   5.233   1.144
 4471SOL     OW14311   6.532   3.570   0.244
 4471SOL    HW114312   6.599   3.628   0.197
 4471SOL    HW214313   6.458   3.547   0.181
 4472SOL     OW14314   2.248   5.283   1.422
 4472SOL    HW114315   2.217   5.188   1.422
 4472SOL    HW214316   2.177   5.341   1.463
 4473SOL     OW14317   0.234   0.057   5.605
 4473SOL    HW114318   0.277   0.131   5.656
 4473SOL    HW214319   0.275   0.051   5.514
 4474SOL     OW14320   5.834   0.908   3.777
 4474SOL    HW114321   5.838   0.864   3.867
 4474SOL    HW214322   5.855   1.005   3.787
 4475SOL     OW14323   1.526   3.959   0.082
 4475SOL    HW114324   1.509   3.885   0.018
 4475SOL    HW214325   1.519   3.924   0.176
 4476SOL     OW14326   4.726   6.374   2.030
 4476SOL    HW114327   4.667   6.388   1.950
 4476SOL    HW214328   4.768   6.283   2.024
 4477SOL     OW14329   1.547   0.864   0.185
 4477SOL    HW114330   1.592   0.884   0.098
 4477SOL    HW214331   1.551   0.945   0.243
 4478SOL     OW14332   1.272   5.079   2.179
 4478SOL    HW114333   1.223   5.019   2.242
 4478SOL    HW214334   1.316   5.153   2.230
 4479SOL     OW14335   0.436   6.829   5.204
 4479SOL    HW114336   0.390   6.761   5.147
 4479SOL    HW214337   0.469   6.785   5.287
 4480SOL     OW14338   1.198   4.330   3.635
 4480SOL    HW114339   1.157   4.407   3.683
 4480SOL    HW214340   1.178   4.245   3.683
 4481SOL     OW14341   1.086   0.052   3.986
 4481SOL    HW114342   1.180   0.021   3.974
 4481SOL    HW214343   1.053   0.094   3.902
 4482SOL     OW14344   0.147   4.274   3.904
 4482SOL    HW114345   0.089   4.287   3.985
 4482SOL    HW214346   0.142   4.355   3.845
 4483SOL     OW14347   5.599   2.356   2.157
 4483SOL    HW114348   5.581   2.429   2.223
 4483SOL    HW214349   5.515   2.304   2.142
 4484SOL     OW14350   4.108   2.641   5.873
 4484SOL    HW114351   4.039   2.712   5.862
 4484SOL    HW214352   4.196   2.683   5.898
 4485SOL     OW14353   4.591   1.350   6.606
 4485SOL    HW114354   4.532   1.429   6.617
 4485SOL    HW214355   4.549   1.284   6.543
 4486SOL     OW14356   6.423   2.499   4.138
 4486SOL    HW114357   6.347   2.453   4.093
 4486SOL    HW214358   6.486   2.430   4.175
 4487SOL     OW14359   3.310   3.287   6.128
 4487SOL    HW114360   3.394   3.323   6.169
 4487SOL    HW214361   3.258   3.237   6.197
 4488SOL     OW14362   0.235   1.485   5.417
 4488SOL    HW114363   0.255   1.422   5.491
 4488SOL    HW214364   0.254   1.579   5.447
 4489SOL     OW14365   6.852   0.767   3.354
 4489SOL    HW114366   6.886   0.809   3.438
 4489SOL    HW214367   6.868   0.829   3.277
 4490SOL     OW14368   6.723   2.825   3.373
 4490SOL    HW114369   6.798   2.795   3.313
 4490SOL    HW214370   6.636   2.793   3.336
 4491SOL     OW14371   1.745   2.834   2.787
 4491SOL    HW114372   1.708   2.749   2.749
 4491SOL    HW214373   1.767   2.821   2.883
 4492SOL     OW14374   4.207   3.379   6.463
 4492SOL    HW114375   4.277   3.307   6.458
 4492SOL    HW214376   4.217   3.429   6.549
 4493SOL     OW14377   6.060   5.480   3.753
 4493SOL    HW114378   6.114   5.530   3.686
 4493SOL    HW214379   6.092   5.503   3.845
 4494SOL     OW14380   6.266   3.691   3.786
 4494SOL    HW114381   6.188   3.750   3.809
 4494SOL    HW214382   6.330   3.690   3.863
 4495SOL     OW14383   4.623   6.474   1.326
 4495SOL    HW114384   4.673   6.559   1.333
 4495SOL    HW214385   4.605   6.453   1.230
 4496SOL     OW14386   5.190   4.672   5.514
 4496SOL    HW114387   5.253   4.602   5.548
 4496SOL    HW214388   5.175   4.658   5.416
 4497SOL     OW14389   6.625   5.284   0.603
 4497SOL    HW114390   6.583   5.220   0.668
 4497SOL    HW214391   6.554   5.321   0.544
 4498SOL     OW14392   0.233   4.125   6.583
 4498SOL    HW114393   0.252   4.029   6.604
 4498SOL    HW214394   0.319   4.171   6.560
 4499SOL     OW14395   6.671   3.140   6.800
 4499SOL    HW114396   6.736   3.133   6.724
 4499SOL    HW214397   6.672   3.056   6.854
 4500SOL     OW14398   3.409   3.783   4.622
 4500SOL    HW114399   3.490   3.745   4.667
 4500SOL    HW214400   3.357   3.709   4.580
 4501SOL     OW14401   0.921   4.237   4.912
 4501SOL    HW114402   1.006   4.184   4.906
 4501SOL    HW214403   0.843   4.175   4.919
 4502SOL     OW14404   0.030   3.155   0.048
 4502SOL    HW114405   0.101   3.118   7.017
 4502SOL    HW214406   6.982   3.187   7.022
 4503SOL     OW14407   1.250   1.894   3.289
 4503SOL    HW114408   1.313   1.829   3.247
 4503SOL    HW214409   1.221   1.961   3.220
 4504SOL     OW14410   5.270   2.462   4.806
 4504SOL    HW114411   5.282   2.534   4.874
 4504SOL    HW214412   5.197   2.486   4.743
 4505SOL     OW14413   1.652   5.023   6.152
 4505SOL    HW114414   1.733   4.977   6.189
 4505SOL    HW214415   1.570   4.989   6.198
 4506SOL     OW14416   3.765   0.402   5.417
 4506SOL    HW114417   3.822   0.320   5.407
 4506SOL    HW214418   3.765   0.453   5.331
 4507SOL     OW14419   6.618   4.540   1.020
 4507SOL    HW114420   6.684   4.614   1.007
 4507SOL    HW214421   6.529   4.577   1.044
 4508SOL     OW14422   1.691   4.241   1.042
 4508SOL    HW114423   1.603   4.257   0.998
 4508SOL    HW214424   1.762   4.292   0.994
 4509SOL     OW14425   1.323   2.085   3.932
 4509SOL    HW114426   1.378   2.127   3.861
 4509SOL    HW214427   1.300   1.992   3.906
 4510SOL     OW14428   3.804   6.574   5.111
 4510SOL    HW114429   3.883   6.607   5.162
 4510SOL    HW214430   3.744   6.522   5.173
 4511SOL     OW14431   6.125   2.535   6.928
 4511SOL    HW114432   6.189   2.598   6.885
 4511SOL    HW214433   6.160   2.506   7.017
 4512SOL     OW14434   2.904   4.885   0.208
 4512SOL    HW114435   2.821   4.939   0.192
 4512SOL    HW214436   2.971   4.907   0.138
 4513SOL     OW14437   5.192   0.915   1.800
 4513SOL    HW114438   5.284   0.882   1.825
 4513SOL    HW214439   5.144   0.843   1.750
 4514SOL     OW14440   3.466   1.655   5.104
 4514SOL    HW114441   3.414   1.689   5.183
 4514SOL    HW214442   3.435   1.563   5.080
 4515SOL     OW14443   0.410   4.877   1.184
 4515SOL    HW114444   0.507   4.880   1.157
 4515SOL    HW214445   0.401   4.824   1.269
 4516SOL     OW14446   0.868   0.028   4.721
 4516SOL    HW114447   0.902   0.070   4.637
 4516SOL    HW214448   0.808   0.092   4.769
 4517SOL     OW14449   3.761   0.105   5.001
 4517SOL    HW114450   3.670   0.075   4.973
 4517SOL    HW214451   3.769   0.097   5.101
 4518SOL     OW14452   1.345   1.661   4.398
 4518SOL    HW114453   1.386   1.587   4.344
 4518SOL    HW214454   1.369   1.749   4.357
 4519SOL     OW14455   6.203   2.241   4.325
 4519SOL    HW114456   6.288   2.283   4.355
 4519SOL    HW214457   6.206   2.142   4.342
 4520SOL     OW14458   0.314   4.464   2.900
 4520SOL    HW114459   0.390   4.529   2.898
 4520SOL    HW214460   0.347   4.375   2.932
 4521SOL     OW14461   5.634   1.991   6.408
 4521SOL    HW114462   5.688   2.041   6.475
 4521SOL    HW214463   5.591   1.912   6.451
 4522SOL     OW14464   6.006   0.582   3.756
 4522SOL    HW114465   6.050   0.654   3.808
 4522SOL    HW214466   5.916   0.562   3.794
 4523SOL     OW14467   3.686   3.661   0.081
 4523SOL    HW114468   3.674   3.700   7.019
 4523SOL    HW214469   3.686   3.561   0.074
 4524SOL     OW14470   5.993   0.187   4.937
 4524SOL    HW114471   5.987   0.233   4.848
 4524SOL    HW214472   6.041   0.247   5.001
 4525SOL     OW14473   6.287   1.354   5.749
 4525SOL    HW114474   6.291   1.278   5.684
 4525SOL    HW214475   6.222   1.423   5.716
 4526SOL     OW14476   3.733   0.463   0.919
 4526SOL    HW114477   3.675   0.533   0.962
 4526SOL    HW214478   3.677   0.406   0.859
 4527SOL     OW14479   3.965   1.279   3.134
 4527SOL    HW114480   3.962   1.180   3.123
 4527SOL    HW214481   4.033   1.303   3.203
 4528SOL     OW14482   6.120   0.562   6.363
 4528SOL    HW114483   6.042   0.506   6.337
 4528SOL    HW214484   6.092   0.628   6.433
 4529SOL     OW14485   3.802   6.345   3.477
 4529SOL    HW114486   3.742   6.266   3.471
 4529SOL    HW214487   3.775   6.413   3.409
 4530SOL     OW14488   0.634   3.107   5.288
 4530SOL    HW114489   0.575   3.038   5.247
 4530SOL    HW214490   0.725   3.068   5.304
 4531SOL     OW14491   0.072   3.586   3.601
 4531SOL    HW114492   0.065   3.577   3.502
 4531SOL    HW214493   7.014   3.561   3.644
 4532SOL     OW14494   6.114   2.061   0.795
 4532SOL    HW114495   6.014   2.053   0.800
 4532SOL    HW214496   6.138   2.155   0.770
 4533SOL     OW14497   2.546   5.799   2.842
 4533SOL    HW114498   2.464   5.851   2.868
 4533SOL    HW214499   2.519   5.721   2.785
 4534SOL     OW14500   5.990   4.036   5.955
 4534SOL    HW114501   6.059   3.990   5.899
 4534SOL    HW214502   6.025   4.050   6.048
 4535SOL     OW14503   4.773   2.911   2.417
 4535SOL    HW114504   4.733   2.946   2.502
 4535SOL    HW214505   4.768   2.981   2.346
 4536SOL     OW14506   6.672   1.270   4.532
 4536SOL    HW114507   6.657   1.187   4.587
 4536SOL    HW214508   6.626   1.347   4.575
 4537SOL     OW14509   4.090   3.119   5.846
 4537SOL    HW114510   4.149   3.054   5.799
 4537SOL    HW214511   4.016   3.070   5.892
 4538SOL     OW14512   2.875   1.126   2.407
 4538SOL    HW114513   2.879   1.114   2.308
 4538SOL    HW214514   2.920   1.212   2.432
 4539SOL     OW14515   1.148   1.646   2.444
 4539SOL    HW114516   1.078   1.646   2.373
 4539SOL    HW214517   1.229   1.695   2.412
 4540SOL     OW14518   2.960   3.234   4.492
 4540SOL    HW114519   2.935   3.179   4.413
 4540SOL    HW214520   2.878   3.274   4.532
 4541SOL     OW14521   5.408   1.411   1.142
 4541SOL    HW114522   5.335   1.373   1.200
 4541SOL    HW214523   5.373   1.492   1.094
 4542SOL     OW14524   4.289   0.549   3.954
 4542SOL    HW114525   4.241   0.635   3.966
 4542SOL    HW214526   4.388   0.565   3.955
 4543SOL     OW14527   5.213   1.770   1.766
 4543SOL    HW114528   5.286   1.823   1.722
 4543SOL    HW214529   5.135   1.830   1.784
 4544SOL     OW14530   3.785   4.772   6.654
 4544SOL    HW114531   3.759   4.708   6.726
 4544SOL    HW214532   3.846   4.842   6.692
 4545SOL     OW14533   4.198   2.484   5.681
 4545SOL    HW114534   4.144   2.470   5.598
 4545SOL    HW214535   4.142   2.529   5.751
 4546SOL     OW14536   1.277   6.401   6.266
 4546SOL    HW114537   1.179   6.398   6.289
 4546SOL    HW214538   1.328   6.430   6.347
 4547SOL     OW14539   4.940   2.546   1.705
 4547SOL    HW114540   4.851   2.517   1.740
 4547SOL    HW214541   4.993   2.587   1.778
 4548SOL     OW14542   1.067   3.264   3.747
 4548SOL    HW114543   1.093   3.186   3.804
 4548SOL    HW214544   1.038   3.339   3.806
 4549SOL     OW14545   5.494   2.729   2.669
 4549SOL    HW114546   5.454   2.783   2.596
 4549SOL    HW214547   5.422   2.691   2.726
 4550SOL     OW14548   1.251   6.141   4.733
 4550SOL    HW114549   1.293   6.131   4.643
 4550SOL    HW214550   1.232   6.050   4.771
 4551SOL     OW14551   0.715   2.795   5.947
 4551SOL    HW114552   0.691   2.786   6.044
 4551SOL    HW214553   0.640   2.839   5.899
 4552SOL     OW14554   6.910   3.259   4.530
 4552SOL    HW114555   6.881   3.245   4.436
 4552SOL    HW214556   6.950   3.350   4.540
 4553SOL     OW14557   4.825   4.631   0.390
 4553SOL    HW114558   4.911   4.639   0.440
 4553SOL    HW214559   4.782   4.720   0.383
 4554SOL     OW14560   5.490   6.872   2.695
 4554SOL    HW114561   5.449   6.815   2.624
 4554SOL    HW214562   5.434   6.954   2.708
 4555SOL     OW14563   5.292   1.581   7.013
 4555SOL    HW114564   5.211   1.594   0.041
 4555SOL    HW214565   5.314   1.483   7.009
 4556SOL     OW14566   4.495   1.096   4.166
 4556SOL    HW114567   4.566   1.166   4.161
 4556SOL    HW214568   4.498   1.040   4.083
 4557SOL     OW14569   5.292   0.367   5.781
 4557SOL    HW114570   5.230   0.412   5.717
 4557SOL    HW214571   5.279   0.403   5.873
 4558SOL     OW14572   6.285   2.739   6.078
 4558SOL    HW114573   6.273   2.837   6.088
 4558SOL    HW214574   6.381   2.715   6.091
 4559SOL     OW14575   1.046   6.709   1.029
 4559SOL    HW114576   1.043   6.786   1.093
 4559SOL    HW214577   0.953   6.684   1.002
 4560SOL     OW14578   4.765   2.881   2.799
 4560SOL    HW114579   4.826   2.893   2.878
 4560SOL    HW214580   4.722   2.969   2.778
 4561SOL     OW14581   2.678   0.414   6.506
 4561SOL    HW114582   2.715   0.341   6.449
 4561SOL    HW214583   2.612   0.376   6.571
 4562SOL     OW14584   3.388   5.135   6.028
 4562SOL    HW114585   3.461   5.089   6.079
 4562SOL    HW214586   3.427   5.187   5.952
 4563SOL     OW14587   5.610   2.241   6.284
 4563SOL    HW114588   5.631   2.313   6.351
 4563SOL    HW214589   5.636   2.152   6.322
 4564SOL     OW14590   1.691   6.151   7.012
 4564SOL    HW114591   1.632   6.116   0.056
 4564SOL    HW214592   1.658   6.116   6.924
 4565SOL     OW14593   2.083   0.729   4.761
 4565SOL    HW114594   2.054   0.814   4.716
 4565SOL    HW214595   2.060   0.651   4.702
 4566SOL     OW14596   0.741   1.962   0.011
 4566SOL    HW114597   0.672   1.891   0.027
 4566SOL    HW214598   0.696   2.052   0.011
 4567SOL     OW14599   6.719   1.267   0.874
 4567SOL    HW114600   6.636   1.316   0.845
 4567SOL    HW214601   6.756   1.309   0.956
 4568SOL     OW14602   3.366   4.765   5.212
 4568SOL    HW114603   3.290   4.783   5.149
 4568SOL    HW214604   3.426   4.845   5.215
 4569SOL     OW14605   0.295   1.992   4.554
 4569SOL    HW114606   0.282   2.070   4.493
 4569SOL    HW214607   0.370   1.935   4.520
 4570SOL     OW14608   0.119   4.842   4.246
 4570SOL    HW114609   0.059   4.798   4.313
 4570SOL    HW214610   0.063   4.895   4.182
 4571SOL     OW14611   3.332   3.064   4.623
 4571SOL    HW114612   3.342   2.970   4.590
 4571SOL    HW214613   3.421   3.110   4.617
 4572SOL     OW14614   2.043   6.004   1.397
 4572SOL    HW114615   2.006   5.979   1.487
 4572SOL    HW214616   2.040   6.103   1.386
 4573SOL     OW14617   5.547   0.025   0.596
 4573SOL    HW114618   5.540   0.038   0.497
 4573SOL    HW214619   5.643   0.026   0.623
 4574SOL     OW14620   0.967   4.483   2.383
 4574SOL    HW114621   1.008   4.558   2.332
 4574SOL    HW214622   0.934   4.412   2.320
 4575SOL     OW14623   6.310   6.937   2.504
 4575SOL    HW114624   6.287   6.947   2.600
 4575SOL    HW214625   6.228   6.917   2.451
 4576SOL     OW14626   3.398   5.710   5.229
 4576SOL    HW114627   3.335   5.708   5.152
 4576SOL    HW214628   3.355   5.756   5.307
 4577SOL     OW14629   0.685   2.621   3.622
 4577SOL    HW114630   0.693   2.527   3.655
 4577SOL    HW214631   0.776   2.662   3.618
 4578SOL     OW14632   6.914   4.159   3.828
 4578SOL    HW114633   6.994   4.219   3.825
 4578SOL    HW214634   6.942   4.068   3.858
 4579SOL     OW14635   5.519   1.773   3.846
 4579SOL    HW114636   5.448   1.810   3.786
 4579SOL    HW214637   5.487   1.773   3.941
 4580SOL     OW14638   6.865   5.403   0.742
 4580SOL    HW114639   6.799   5.383   0.669
 4580SOL    HW214640   6.893   5.317   0.785
 4581SOL     OW14641   3.705   5.975   3.076
 4581SOL    HW114642   3.720   6.041   3.002
 4581SOL    HW214643   3.646   5.901   3.043
 4582SOL     OW14644   4.519   6.677   2.507
 4582SOL    HW114645   4.527   6.688   2.408
 4582SOL    HW214646   4.424   6.654   2.530
 4583SOL     OW14647   5.007   2.096   5.023
 4583SOL    HW114648   5.054   2.184   5.010
 4583SOL    HW214649   4.911   2.105   4.997
 4584SOL     OW14650   0.712   4.700   5.347
 4584SOL    HW114651   0.696   4.789   5.305
 4584SOL    HW214652   0.627   4.664   5.384
 4585SOL     OW14653   4.029   6.343   2.808
 4585SOL    HW114654   3.976   6.277   2.862
 4585SOL    HW214655   3.967   6.412   2.772
 4586SOL     OW14656   3.469   5.750   2.149
 4586SOL    HW114657   3.389   5.776   2.202
 4586SOL    HW214658   3.549   5.744   2.209
 4587SOL     OW14659   1.875   4.444   0.962
 4587SOL    HW114660   1.922   4.364   0.924
 4587SOL    HW214661   1.926   4.477   1.042
 4588SOL     OW14662   4.615   4.068   5.317
 4588SOL    HW114663   4.649   3.974   5.323
 4588SOL    HW214664   4.516   4.068   5.327
 4589SOL     OW14665   0.039   1.805   4.150
 4589SOL    HW114666   0.120   1.832   4.203
 4589SOL    HW214667   0.006   1.717   4.184
 4590SOL     OW14668   5.168   5.748   2.706
 4590SOL    HW114669   5.196   5.713   2.795
 4590SOL    HW214670   5.112   5.681   2.659
 4591SOL     OW14671   5.776   5.687   5.251
 4591SOL    HW114672   5.698   5.727   5.203
 4591SOL    HW214673   5.743   5.629   5.325
 4592SOL     OW14674   3.447   2.183   5.937
 4592SOL    HW114675   3.402   2.186   5.847
 4592SOL    HW214676   3.496   2.096   5.946
 4593SOL     OW14677   3.363   6.178   2.205
 4593SOL    HW114678   3.457   6.152   2.181
 4593SOL    HW214679   3.305   6.175   2.124
 4594SOL     OW14680   2.503   1.246   2.685
 4594SOL    HW114681   2.560   1.281   2.759
 4594SOL    HW214682   2.487   1.318   2.618
 4595SOL     OW14683   4.503   2.386   5.682
 4595SOL    HW114684   4.530   2.451   5.752
 4595SOL    HW214685   4.520   2.425   5.591
 4596SOL     OW14686   6.401   7.011   1.722
 4596SOL    HW114687   6.316   6.976   1.763
 4596SOL    HW214688   6.402   0.081   1.727
 4597SOL     OW14689   6.666   4.586   6.902
 4597SOL    HW114690   6.591   4.525   6.876
 4597SOL    HW214691   6.683   4.651   6.828
 4598SOL     OW14692   3.026   4.923   6.981
 4598SOL    HW114693   2.995   4.845   6.927
 4598SOL    HW214694   3.126   4.928   6.978
 4599SOL     OW14695   1.511   4.877   0.354
 4599SOL    HW114696   1.528   4.961   0.303
 4599SOL    HW214697   1.446   4.896   0.428
 4600SOL     OW14698   3.159   5.431   1.377
 4600SOL    HW114699   3.177   5.513   1.321
 4600SOL    HW214700   3.220   5.358   1.348
 4601SOL     OW14701   1.996   6.011   5.039
 4601SOL    HW114702   1.908   6.059   5.030
 4601SOL    HW214703   1.985   5.932   5.099
 4602SOL     OW14704   1.964   0.684   1.040
 4602SOL    HW114705   2.009   0.641   1.119
 4602SOL    HW214706   1.865   0.675   1.050
 4603SOL     OW14707   3.336   0.117   2.096
 4603SOL    HW114708   3.413   0.066   2.056
 4603SOL    HW214709   3.253   0.061   2.089
 4604SOL     OW14710   3.087   6.875   2.308
 4604SOL    HW114711   3.124   6.792   2.267
 4604SOL    HW214712   3.091   6.950   2.242
 4605SOL     OW14713   5.185   0.417   5.524
 4605SOL    HW114714   5.136   0.331   5.510
 4605SOL    HW214715   5.236   0.440   5.442
 4606SOL     OW14716   6.977   6.379   5.438
 4606SOL    HW114717   6.914   6.381   5.515
 4606SOL    HW214718   6.953   6.450   5.372
 4607SOL     OW14719   2.702   1.779   1.219
 4607SOL    HW114720   2.628   1.843   1.237
 4607SOL    HW214721   2.785   1.809   1.267
 4608SOL     OW14722   1.587   3.554   5.923
 4608SOL    HW114723   1.615   3.638   5.969
 4608SOL    HW214724   1.667   3.508   5.885
 4609SOL     OW14725   4.353   6.861   5.974
 4609SOL    HW114726   4.288   6.934   5.991
 4609SOL    HW214727   4.403   6.840   6.058
 4610SOL     OW14728   0.615   3.353   6.679
 4610SOL    HW114729   0.612   3.279   6.747
 4610SOL    HW214730   0.537   3.345   6.618
 4611SOL     OW14731   1.080   4.051   0.463
 4611SOL    HW114732   1.145   3.988   0.423
 4611SOL    HW214733   1.119   4.143   0.465
 4612SOL     OW14734   2.018   0.286   6.180
 4612SOL    HW114735   1.987   0.237   6.261
 4612SOL    HW214736   2.099   0.341   6.203
 4613SOL     OW14737   3.001   5.564   1.907
 4613SOL    HW114738   3.081   5.625   1.907
 4613SOL    HW214739   2.923   5.611   1.866
 4614SOL     OW14740   1.992   5.481   0.280
 4614SOL    HW114741   2.017   5.392   0.242
 4614SOL    HW214742   2.034   5.554   0.225
 4615SOL     OW14743   7.006   2.359   0.335
 4615SOL    HW114744   7.021   2.375   0.237
 4615SOL    HW214745   0.063   2.373   0.384
 4616SOL     OW14746   5.555   1.038   6.848
 4616SOL    HW114747   5.606   1.053   6.932
 4616SOL    HW214748   5.467   0.994   6.870
 4617SOL     OW14749   0.239   3.107   1.976
 4617SOL    HW114750   0.303   3.149   2.040
 4617SOL    HW214751   0.155   3.161   1.972
 4618SOL     OW14752   0.779   1.756   6.127
 4618SOL    HW114753   0.681   1.764   6.146
 4618SOL    HW214754   0.805   1.822   6.056
 4619SOL     OW14755   3.319   0.837   3.785
 4619SOL    HW114756   3.377   0.757   3.772
 4619SOL    HW214757   3.233   0.810   3.827
 4620SOL     OW14758   2.348   4.014   6.379
 4620SOL    HW114759   2.282   3.998   6.305
 4620SOL    HW214760   2.427   3.955   6.365
 4621SOL     OW14761   0.308   5.893   5.925
 4621SOL    HW114762   0.384   5.958   5.934
 4621SOL    HW214763   0.234   5.935   5.872
 4622SOL     OW14764   2.442   3.368   1.138
 4622SOL    HW114765   2.509   3.328   1.076
 4622SOL    HW214766   2.381   3.429   1.087
 4623SOL     OW14767   5.828   4.709   1.770
 4623SOL    HW114768   5.807   4.687   1.865
 4623SOL    HW214769   5.752   4.762   1.731
 4624SOL     OW14770   4.893   7.018   5.320
 4624SOL    HW114771   4.817   0.048   5.292
 4624SOL    HW214772   4.874   6.924   5.290
 4625SOL     OW14773   0.642   2.975   6.764
 4625SOL    HW114774   0.614   2.905   6.830
 4625SOL    HW214775   0.616   3.065   6.798
 4626SOL     OW14776   5.929   4.947   1.913
 4626SOL    HW114777   5.922   4.850   1.891
 4626SOL    HW214778   5.854   4.997   1.871
 4627SOL     OW14779   2.227   0.808   6.195
 4627SOL    HW114780   2.271   0.755   6.122
 4627SOL    HW214781   2.235   0.759   6.281
 4628SOL     OW14782   0.060   4.230   2.166
 4628SOL    HW114783   0.077   4.235   2.067
 4628SOL    HW214784   6.991   4.243   2.183
 4629SOL     OW14785   3.283   4.981   5.415
 4629SOL    HW114786   3.195   5.023   5.394
 4629SOL    HW214787   3.269   4.893   5.460
 4630SOL     OW14788   1.898   0.035   3.107
 4630SOL    HW114789   1.998   0.043   3.110
 4630SOL    HW214790   1.858   0.109   3.160
 4631SOL     OW14791   2.353   0.198   2.512
 4631SOL    HW114792   2.412   0.237   2.442
 4631SOL    HW214793   2.356   0.254   2.594
 4632SOL     OW14794   4.871   5.103   4.011
 4632SOL    HW114795   4.867   5.114   3.911
 4632SOL    HW214796   4.849   5.190   4.054
 4633SOL     OW14797   6.123   2.181   5.502
 4633SOL    HW114798   6.202   2.141   5.455
 4633SOL    HW214799   6.147   2.199   5.598
 4634SOL     OW14800   3.065   4.456   0.761
 4634SOL    HW114801   2.985   4.401   0.785
 4634SOL    HW214802   3.112   4.484   0.845
 4635SOL     OW14803   5.487   4.146   1.382
 4635SOL    HW114804   5.549   4.097   1.443
 4635SOL    HW214805   5.497   4.111   1.289
 4636SOL     OW14806   2.306   5.530   0.706
 4636SOL    HW114807   2.382   5.482   0.750
 4636SOL    HW214808   2.235   5.550   0.774
 4637SOL     OW14809   1.357   0.739   5.144
 4637SOL    HW114810   1.340   0.707   5.050
 4637SOL    HW214811   1.336   0.665   5.208
 4638SOL     OW14812   5.020   3.595   5.991
 4638SOL    HW114813   5.046   3.595   6.087
 4638SOL    HW214814   5.022   3.502   5.955
 4639SOL     OW14815   6.818   3.655   5.310
 4639SOL    HW114816   6.721   3.671   5.326
 4639SOL    HW214817   6.832   3.633   5.213
 4640SOL     OW14818   5.816   4.185   2.592
 4640SOL    HW114819   5.717   4.176   2.608
 4640SOL    HW214820   5.845   4.120   2.522
 4641SOL     OW14821   2.309   4.832   5.535
 4641SOL    HW114822   2.271   4.744   5.507
 4641SOL    HW214823   2.408   4.824   5.543
 4642SOL     OW14824   5.844   5.999   4.470
 4642SOL    HW114825   5.785   6.015   4.391
 4642SOL    HW214826   5.825   5.908   4.507
 4643SOL     OW14827   3.628   2.758   1.425
 4643SOL    HW114828   3.621   2.708   1.338
 4643SOL    HW214829   3.575   2.842   1.419
 4644SOL     OW14830   2.293   5.252   5.086
 4644SOL    HW114831   2.347   5.204   5.016
 4644SOL    HW214832   2.352   5.278   5.162
 4645SOL     OW14833   1.762   5.738   4.915
 4645SOL    HW114834   1.837   5.704   4.971
 4645SOL    HW214835   1.716   5.813   4.963
 4646SOL     OW14836   3.755   0.328   1.922
 4646SOL    HW114837   3.657   0.324   1.941
 4646SOL    HW214838   3.775   0.406   1.862
 4647SOL     OW14839   6.741   0.346   5.045
 4647SOL    HW114840   6.748   0.250   5.016
 4647SOL    HW214841   6.657   0.359   5.098
 4648SOL     OW14842   2.211   5.127   2.524
 4648SOL    HW114843   2.203   5.134   2.425
 4648SOL    HW214844   2.140   5.066   2.560
 4649SOL     OW14845   5.560   0.189   5.888
 4649SOL    HW114846   5.547   0.287   5.904
 4649SOL    HW214847   5.657   0.167   5.892
 4650SOL     OW14848   6.654   4.756   2.000
 4650SOL    HW114849   6.575   4.817   2.010
 4650SOL    HW214850   6.737   4.811   1.992
 4651SOL     OW14851   0.216   2.032   1.260
 4651SOL    HW114852   0.129   1.997   1.294
 4651SOL    HW214853   0.212   2.043   1.161
 4652SOL     OW14854   0.113   6.073   5.750
 4652SOL    HW114855   0.190   6.135   5.741
 4652SOL    HW214856   0.067   6.088   5.838
 4653SOL     OW14857   0.527   5.901   6.578
 4653SOL    HW114858   0.482   5.812   6.587
 4653SOL    HW214859   0.605   5.894   6.517
 4654SOL     OW14860   0.905   1.289   6.517
 4654SOL    HW114861   0.850   1.223   6.466
 4654SOL    HW214862   0.897   1.270   6.615
 4655SOL     OW14863   0.493   5.178   3.396
 4655SOL    HW114864   0.492   5.260   3.455
 4655SOL    HW214865   0.447   5.103   3.444
 4656SOL     OW14866   1.862   6.685   3.066
 4656SOL    HW114867   1.818   6.755   3.011
 4656SOL    HW214868   1.793   6.625   3.106
 4657SOL     OW14869   6.055   0.137   6.838
 4657SOL    HW114870   6.014   0.182   6.917
 4657SOL    HW214871   6.077   0.204   6.768
 4658SOL     OW14872   5.752   0.856   3.306
 4658SOL    HW114873   5.725   0.763   3.284
 4658SOL    HW214874   5.737   0.873   3.403
 4659SOL     OW14875   2.162   2.446   4.690
 4659SOL    HW114876   2.149   2.352   4.721
 4659SOL    HW214877   2.195   2.502   4.766
 4660SOL     OW14878   6.892   0.611   5.706
 4660SOL    HW114879   6.982   0.572   5.722
 4660SOL    HW214880   6.824   0.567   5.765
 4661SOL     OW14881   4.080   3.475   3.566
 4661SOL    HW114882   4.000   3.468   3.507
 4661SOL    HW214883   4.141   3.546   3.531
 4662SOL     OW14884   5.047   0.480   4.878
 4662SOL    HW114885   5.006   0.555   4.930
 4662SOL    HW214886   5.082   0.411   4.941
 4663SOL     OW14887   0.171   1.858   2.400
 4663SOL    HW114888   0.148   1.955   2.403
 4663SOL    HW214889   0.202   1.828   2.491
 4664SOL     OW14890   3.186   2.563   0.186
 4664SOL    HW114891   3.130   2.520   0.258
 4664SOL    HW214892   3.242   2.493   0.142
 4665SOL     OW14893   5.394   0.633   0.231
 4665SOL    HW114894   5.298   0.651   0.253
 4665SOL    HW214895   5.414   0.666   0.139
 4666SOL     OW14896   1.852   1.027   0.575
 4666SOL    HW114897   1.929   0.972   0.544
 4666SOL    HW214898   1.769   0.971   0.579
 4667SOL     OW14899   0.642   5.265   5.790
 4667SOL    HW114900   0.602   5.181   5.756
 4667SOL    HW214901   0.570   5.325   5.825
 4668SOL     OW14902   5.895   1.636   4.500
 4668SOL    HW114903   5.849   1.723   4.518
 4668SOL    HW214904   5.831   1.572   4.458
 4669SOL     OW14905   2.792   0.273   0.576
 4669SOL    HW114906   2.848   0.256   0.495
 4669SOL    HW214907   2.786   0.189   0.631
 4670SOL     OW14908   2.122   1.256   4.403
 4670SOL    HW114909   2.192   1.316   4.441
 4670SOL    HW214910   2.157   1.163   4.399
 4671SOL     OW14911   5.574   3.486   1.228
 4671SOL    HW114912   5.672   3.497   1.245
 4671SOL    HW214913   5.548   3.391   1.246
 4672SOL     OW14914   2.407   3.604   5.886
 4672SOL    HW114915   2.354   3.669   5.831
 4672SOL    HW214916   2.453   3.539   5.825
 4673SOL     OW14917   3.513   0.305   2.704
 4673SOL    HW114918   3.594   0.252   2.679
 4673SOL    HW214919   3.532   0.402   2.693
 4674SOL     OW14920   4.211   6.484   6.237
 4674SOL    HW114921   4.142   6.525   6.296
 4674SOL    HW214922   4.302   6.516   6.263
 4675SOL     OW14923   0.994   3.946   6.384
 4675SOL    HW114924   1.045   3.874   6.336
 4675SOL    HW214925   0.977   4.022   6.321
 4676SOL     OW14926   1.031   5.463   3.946
 4676SOL    HW114927   1.067   5.555   3.937
 4676SOL    HW214928   1.075   5.417   4.023
 4677SOL     OW14929   1.022   3.771   0.644
 4677SOL    HW114930   0.960   3.818   0.582
 4677SOL    HW214931   0.985   3.775   0.737
 4678SOL     OW14932   2.492   4.583   2.498
 4678SOL    HW114933   2.589   4.566   2.484
 4678SOL    HW214934   2.481   4.662   2.559
 4679SOL     OW14935   4.490   0.187   1.346
 4679SOL    HW114936   4.458   0.202   1.440
 4679SOL    HW214937   4.478   0.090   1.322
 4680SOL     OW14938   1.956   0.933   0.937
 4680SOL    HW114939   1.943   0.997   1.012
 4680SOL    HW214940   1.966   0.840   0.974
 4681SOL     OW14941   4.822   5.352   1.566
 4681SOL    HW114942   4.873   5.408   1.631
 4681SOL    HW214943   4.739   5.400   1.538
 4682SOL     OW14944   3.645   3.995   6.982
 4682SOL    HW114945   3.584   4.011   0.031
 4682SOL    HW214946   3.725   4.055   6.988
 4683SOL     OW14947   6.319   4.755   3.825
 4683SOL    HW114948   6.284   4.777   3.733
 4683SOL    HW214949   6.314   4.656   3.839
 4684SOL     OW14950   5.387   0.021   0.048
 4684SOL    HW114951   5.420   0.112   0.021
 4684SOL    HW214952   5.315   0.031   0.116
 4685SOL     OW14953   3.129   3.845   5.235
 4685SOL    HW114954   3.166   3.839   5.142
 4685SOL    HW214955   3.029   3.838   5.231
 4686SOL     OW14956   3.401   5.498   0.421
 4686SOL    HW114957   3.367   5.555   0.496
 4686SOL    HW214958   3.468   5.432   0.457
 4687SOL     OW14959   3.133   0.738   2.918
 4687SOL    HW114960   3.067   0.710   2.848
 4687SOL    HW214961   3.136   0.668   2.990
 4688SOL     OW14962   5.962   3.368   5.479
 4688SOL    HW114963   6.022   3.440   5.442
 4688SOL    HW214964   5.966   3.369   5.578
 4689SOL     OW14965   5.727   0.911   2.249
 4689SOL    HW114966   5.742   0.965   2.333
 4689SOL    HW214967   5.631   0.886   2.244
 4690SOL     OW14968   2.402   2.282   0.589
 4690SOL    HW114969   2.392   2.362   0.649
 4690SOL    HW214970   2.378   2.199   0.640
 4691SOL     OW14971   6.836   4.211   1.732
 4691SOL    HW114972   6.757   4.169   1.687
 4691SOL    HW214973   6.827   4.311   1.729
 4692SOL     OW14974   5.539   3.349   2.023
 4692SOL    HW114975   5.603   3.299   1.966
 4692SOL    HW214976   5.516   3.436   1.979
 4693SOL     OW14977   1.863   1.076   3.758
 4693SOL    HW114978   1.805   0.999   3.730
 4693SOL    HW214979   1.834   1.108   3.848
 4694SOL     OW14980   2.064   0.921   0.400
 4694SOL    HW114981   2.141   0.975   0.368
 4694SOL    HW214982   1.989   0.928   0.334
 4695SOL     OW14983   1.119   6.200   1.695
 4695SOL    HW114984   1.077   6.235   1.611
 4695SOL    HW214985   1.218   6.197   1.684
 4696SOL     OW14986   2.042   5.476   5.809
 4696SOL    HW114987   2.000   5.524   5.732
 4696SOL    HW214988   2.001   5.507   5.894
 4697SOL     OW14989   4.010   5.136   1.347
 4697SOL    HW114990   3.912   5.128   1.333
 4697SOL    HW214991   4.035   5.097   1.435
 4698SOL     OW14992   5.334   1.267   3.657
 4698SOL    HW114993   5.234   1.270   3.665
 4698SOL    HW214994   5.367   1.180   3.693
 4699SOL     OW14995   1.515   0.010   2.551
 4699SOL    HW114996   1.532   0.006   2.649
 4699SOL    HW214997   1.602   0.020   2.502
 4700SOL     OW14998   6.306   2.200   2.424
 4700SOL    HW114999   6.239   2.168   2.491
 4700SOL    HW215000   6.320   2.298   2.437
 4701SOL     OW15001   2.945   2.329   1.666
 4701SOL    HW115002   2.922   2.396   1.737
 4701SOL    HW215003   2.965   2.241   1.709
 4702SOL     OW15004   5.511   4.886   6.681
 4702SOL    HW115005   5.487   4.805   6.734
 4702SOL    HW215006   5.594   4.866   6.627
 4703SOL     OW15007   0.849   5.180   3.461
 4703SOL    HW115008   0.832   5.262   3.405
 4703SOL    HW215009   0.762   5.138   3.485
 4704SOL     OW15010   1.222   5.144   5.148
 4704SOL    HW115011   1.276   5.131   5.231
 4704SOL    HW215012   1.178   5.234   5.151
 4705SOL     OW15013   3.416   2.321   1.729
 4705SOL    HW115014   3.503   2.333   1.777
 4705SOL    HW215015   3.387   2.225   1.737
 4706SOL     OW15016   2.444   1.146   0.612
 4706SOL    HW115017   2.473   1.216   0.546
 4706SOL    HW215018   2.361   1.177   0.658
 4707SOL     OW15019   1.552   6.354   1.728
 4707SOL    HW115020   1.508   6.444   1.732
 4707SOL    HW215021   1.636   6.355   1.782
 4708SOL     OW15022   0.994   2.631   4.641
 4708SOL    HW115023   1.035   2.543   4.618
 4708SOL    HW215024   0.983   2.685   4.558
 4709SOL     OW15025   5.105   3.597   5.124
 4709SOL    HW115026   5.010   3.621   5.100
 4709SOL    HW215027   5.162   3.605   5.042
 4710SOL     OW15028   6.658   6.208   4.755
 4710SOL    HW115029   6.603   6.280   4.712
 4710SOL    HW215030   6.689   6.144   4.685
 4711SOL     OW15031   5.253   3.637   2.878
 4711SOL    HW115032   5.287   3.721   2.920
 4711SOL    HW215033   5.175   3.603   2.929
 4712SOL     OW15034   4.977   4.227   5.456
 4712SOL    HW115035   5.063   4.257   5.497
 4712SOL    HW215036   4.976   4.127   5.448
 4713SOL     OW15037   6.265   4.262   1.143
 4713SOL    HW115038   6.323   4.181   1.141
 4713SOL    HW215039   6.310   4.334   1.197
 4714SOL     OW15040   4.988   1.451   6.456
 4714SOL    HW115041   4.951   1.543   6.440
 4714SOL    HW215042   4.915   1.392   6.490
 4715SOL     OW15043   6.171   1.362   2.311
 4715SOL    HW115044   6.115   1.291   2.355
 4715SOL    HW215045   6.222   1.412   2.381
 4716SOL     OW15046   4.068   4.520   6.105
 4716SOL    HW115047   4.064   4.552   6.010
 4716SOL    HW215048   3.976   4.510   6.141
 4717SOL     OW15049   2.757   5.097   5.623
 4717SOL    HW115050   2.663   5.126   5.603
 4717SOL    HW215051   2.755   5.009   5.670
 4718SOL     OW15052   5.096   4.189   0.762
 4718SOL    HW115053   5.016   4.221   0.813
 4718SOL    HW215054   5.086   4.091   0.744
 4719SOL     OW15055   6.968   3.882   3.834
 4719SOL    HW115056   6.960   3.872   3.735
 4719SOL    HW215057   0.030   3.850   3.863
 4720SOL     OW15058   2.295   3.819   7.012
 4720SOL    HW115059   2.246   3.834   6.926
 4720SOL    HW215060   2.323   3.908   0.021
 4721SOL     OW15061   6.181   2.934   2.968
 4721SOL    HW115062   6.220   3.025   2.953
 4721SOL    HW215063   6.083   2.943   2.984
 4722SOL     OW15064   1.323   5.366   0.192
 4722SOL    HW115065   1.324   5.402   0.099
 4722SOL    HW215066   1.248   5.299   0.201
 4723SOL     OW15067   4.018   3.934   0.054
 4723SOL    HW115068   4.069   3.881   7.015
 4723SOL    HW215069   3.965   3.872   0.112
 4724SOL     OW15070   0.855   6.353   4.650
 4724SOL    HW115071   0.774   6.305   4.618
 4724SOL    HW215072   0.856   6.354   4.750
 4725SOL     OW15073   5.105   5.909   0.809
 4725SOL    HW115074   5.163   5.942   0.734
 4725SOL    HW215075   5.009   5.912   0.780
 4726SOL     OW15076   1.206   3.419   5.577
 4726SOL    HW115077   1.142   3.365   5.523
 4726SOL    HW215078   1.297   3.413   5.536
 4727SOL     OW15079   0.271   5.396   1.178
 4727SOL    HW115080   0.253   5.298   1.162
 4727SOL    HW215081   0.313   5.408   1.268
 4728SOL     OW15082   6.722   1.856   4.797
 4728SOL    HW115083   6.769   1.824   4.715
 4728SOL    HW215084   6.623   1.857   4.781
 4729SOL     OW15085   5.827   1.432   1.691
 4729SOL    HW115086   5.919   1.401   1.667
 4729SOL    HW215087   5.831   1.489   1.773
 4730SOL     OW15088   2.867   6.881   4.582
 4730SOL    HW115089   2.957   6.923   4.591
 4730SOL    HW215090   2.829   6.863   4.672
 4731SOL     OW15091   3.247   6.476   0.360
 4731SOL    HW115092   3.300   6.515   0.284
 4731SOL    HW215093   3.310   6.435   0.426
 4732SOL     OW15094   0.590   5.056   4.473
 4732SOL    HW115095   0.511   5.006   4.509
 4732SOL    HW215096   0.561   5.148   4.446
 4733SOL     OW15097   1.649   3.459   3.432
 4733SOL    HW115098   1.558   3.418   3.430
 4733SOL    HW215099   1.683   3.470   3.339
 4734SOL     OW15100   4.503   3.368   6.926
 4734SOL    HW115101   4.571   3.431   6.889
 4734SOL    HW215102   4.515   3.360   7.025
 4735SOL     OW15103   6.983   0.383   5.233
 4735SOL    HW115104   0.001   0.303   5.268
 4735SOL    HW215105   6.916   0.355   5.164
 4736SOL     OW15106   6.750   2.014   3.867
 4736SOL    HW115107   6.776   2.056   3.954
 4736SOL    HW215108   6.729   2.086   3.801
 4737SOL     OW15109   2.173   4.922   0.351
 4737SOL    HW115110   2.086   4.900   0.394
 4737SOL    HW215111   2.212   5.004   0.393
 4738SOL     OW15112   1.804   6.541   3.885
 4738SOL    HW115113   1.861   6.498   3.954
 4738SOL    HW215114   1.839   6.633   3.864
 4739SOL     OW15115   5.704   3.195   3.432
 4739SOL    HW115116   5.776   3.264   3.441
 4739SOL    HW215117   5.706   3.134   3.511
 4740SOL     OW15118   1.192   0.935   2.025
 4740SOL    HW115119   1.208   0.851   1.974
 4740SOL    HW215120   1.101   0.934   2.065
 4741SOL     OW15121   4.378   4.512   1.844
 4741SOL    HW115122   4.410   4.418   1.841
 4741SOL    HW215123   4.348   4.535   1.937
 4742SOL     OW15124   2.336   6.157   2.325
 4742SOL    HW115125   2.372   6.108   2.404
 4742SOL    HW215126   2.343   6.256   2.340
 4743SOL     OW15127   2.364   2.530   0.282
 4743SOL    HW115128   2.307   2.516   0.364
 4743SOL    HW215129   2.425   2.608   0.297
 4744SOL     OW15130   1.777   3.041   5.233
 4744SOL    HW115131   1.717   3.092   5.295
 4744SOL    HW215132   1.872   3.059   5.258
 4745SOL     OW15133   3.114   5.825   4.921
 4745SOL    HW115134   3.155   5.740   4.954
 4745SOL    HW215135   3.178   5.870   4.858
 4746SOL     OW15136   6.471   0.653   0.384
 4746SOL    HW115137   6.482   0.705   0.299
 4746SOL    HW215138   6.558   0.610   0.408
 4747SOL     OW15139   6.292   2.618   1.654
 4747SOL    HW115140   6.348   2.559   1.595
 4747SOL    HW215141   6.263   2.698   1.602
 4748SOL     OW15142   1.725   0.752   1.154
 4748SOL    HW115143   1.734   0.797   1.243
 4748SOL    HW215144   1.669   0.669   1.164
 4749SOL     OW15145   1.562   0.139   6.509
 4749SOL    HW115146   1.631   0.069   6.526
 4749SOL    HW215147   1.501   0.146   6.588
 4750SOL     OW15148   0.144   1.352   4.618
 4750SOL    HW115149   0.062   1.308   4.652
 4750SOL    HW215150   0.219   1.338   4.682
 4751SOL     OW15151   1.117   3.766   6.639
 4751SOL    HW115152   1.070   3.739   6.724
 4751SOL    HW215153   1.061   3.833   6.591
 4752SOL     OW15154   2.809   5.998   1.910
 4752SOL    HW115155   2.837   5.923   1.970
 4752SOL    HW215156   2.752   6.063   1.961
 4753SOL     OW15157   6.994   6.954   4.875
 4753SOL    HW115158   7.013   6.977   4.780
 4753SOL    HW215159   0.034   6.996   4.934
 4754SOL     OW15160   0.630   0.079   5.536
 4754SOL    HW115161   0.644   0.140   5.615
 4754SOL    HW215162   0.716   0.035   5.512
 4755SOL     OW15163   2.616   2.046   0.304
 4755SOL    HW115164   2.521   2.016   0.314
 4755SOL    HW215165   2.635   2.061   0.207
 4756SOL     OW15166   5.442   2.733   1.077
 4756SOL    HW115167   5.408   2.742   1.170
 4756SOL    HW215168   5.534   2.770   1.070
 4757SOL     OW15169   2.040   1.910   1.015
 4757SOL    HW115170   2.026   1.985   1.079
 4757SOL    HW215171   2.138   1.890   1.007
 4758SOL     OW15172   5.167   4.618   5.227
 4758SOL    HW115173   5.181   4.592   5.132
 4758SOL    HW215174   5.177   4.717   5.237
 4759SOL     OW15175   6.143   4.947   5.417
 4759SOL    HW115176   6.226   4.947   5.472
 4759SOL    HW215177   6.162   4.988   5.327
 4760SOL     OW15178   1.365   2.033   0.814
 4760SOL    HW115179   1.325   2.124   0.817
 4760SOL    HW215180   1.433   2.028   0.741
 4761SOL     OW15181   0.988   6.135   5.900
 4761SOL    HW115182   1.088   6.138   5.902
 4761SOL    HW215183   0.956   6.173   5.814
 4762SOL     OW15184   3.000   6.352   2.415
 4762SOL    HW115185   3.096   6.331   2.434
 4762SOL    HW215186   2.956   6.390   2.496
 4763SOL     OW15187   5.600   5.513   4.384
 4763SOL    HW115188   5.691   5.550   4.368
 4763SOL    HW215189   5.568   5.466   4.302
 4764SOL     OW15190   4.113   3.416   4.495
 4764SOL    HW115191   4.075   3.499   4.453
 4764SOL    HW215192   4.045   3.377   4.558
 4765SOL     OW15193   6.072   5.295   4.907
 4765SOL    HW115194   6.144   5.257   4.967
 4765SOL    HW215195   6.067   5.394   4.920
 4766SOL     OW15196   3.020   0.562   3.108
 4766SOL    HW115197   2.941   0.503   3.128
 4766SOL    HW215198   3.082   0.561   3.186
 4767SOL     OW15199   4.333   5.492   6.296
 4767SOL    HW115200   4.304   5.487   6.200
 4767SOL    HW215201   4.267   5.547   6.348
 4768SOL     OW15202   0.450   0.693   5.090
 4768SOL    HW115203   0.538   0.676   5.046
 4768SOL    HW215204   0.376   0.665   5.028
 4769SOL     OW15205   3.475   6.823   1.475
 4769SOL    HW115206   3.570   6.795   1.464
 4769SOL    HW215207   3.420   6.744   1.503
 4770SOL     OW15208   2.518   0.215   3.847
 4770SOL    HW115209   2.493   0.175   3.936
 4770SOL    HW215210   2.590   0.283   3.860
 4771SOL     OW15211   4.161   4.091   5.632
 4771SOL    HW115212   4.063   4.110   5.626
 4771SOL    HW215213   4.199   4.084   5.539
 4772SOL     OW15214   2.258   2.440   1.474
 4772SOL    HW115215   2.349   2.421   1.436
 4772SOL    HW215216   2.241   2.538   1.472
 4773SOL     OW15217   6.666   6.083   3.905
 4773SOL    HW115218   6.595   6.152   3.918
 4773SOL    HW215219   6.666   6.054   3.809
 4774SOL     OW15220   0.874   4.375   1.001
 4774SOL    HW115221   0.960   4.332   1.028
 4774SOL    HW215222   0.876   4.472   1.025
 4775SOL     OW15223   3.065   0.936   1.763
 4775SOL    HW115224   3.055   1.018   1.819
 4775SOL    HW215225   3.161   0.908   1.761
 4776SOL     OW15226   3.430   5.616   1.689
 4776SOL    HW115227   3.334   5.592   1.702
 4776SOL    HW215228   3.467   5.565   1.612
 4777SOL     OW15229   2.864   4.311   1.435
 4777SOL    HW115230   2.885   4.341   1.342
 4777SOL    HW215231   2.766   4.315   1.451
 4778SOL     OW15232   4.950   3.795   2.154
 4778SOL    HW115233   4.891   3.836   2.223
 4778SOL    HW215234   4.921   3.825   2.063
 4779SOL     OW15235   5.162   0.474   2.954
 4779SOL    HW115236   5.188   0.570   2.940
 4779SOL    HW215237   5.231   0.429   3.010
 4780SOL     OW15238   1.703   6.423   5.963
 4780SOL    HW115239   1.743   6.379   5.882
 4780SOL    HW215240   1.746   6.511   5.979
 4781SOL     OW15241   1.930   5.559   2.332
 4781SOL    HW115242   2.027   5.580   2.349
 4781SOL    HW215243   1.891   5.517   2.414
 4782SOL     OW15244   5.615   6.030   6.554
 4782SOL    HW115245   5.559   6.113   6.566
 4782SOL    HW215246   5.697   6.053   6.502
 4783SOL     OW15247   6.143   4.541   1.401
 4783SOL    HW115248   6.074   4.533   1.329
 4783SOL    HW215249   6.232   4.515   1.364
 4784SOL     OW15250   5.862   4.815   5.047
 4784SOL    HW115251   5.793   4.744   5.059
 4784SOL    HW215252   5.854   4.883   5.120
 4785SOL     OW15253   6.332   0.639   0.605
 4785SOL    HW115254   6.412   0.666   0.658
 4785SOL    HW215255   6.358   0.625   0.510
 4786SOL     OW15256   1.745   3.150   2.111
 4786SOL    HW115257   1.763   3.161   2.209
 4786SOL    HW215258   1.650   3.173   2.092
 4787SOL     OW15259   3.705   2.069   2.341
 4787SOL    HW115260   3.718   1.973   2.320
 4787SOL    HW215261   3.637   2.108   2.279
 4788SOL     OW15262   1.193   5.361   4.122
 4788SOL    HW115263   1.140   5.277   4.130
 4788SOL    HW215264   1.281   5.342   4.079
 4789SOL     OW15265   6.320   0.431   0.797
 4789SOL    HW115266   6.281   0.352   0.749
 4789SOL    HW215267   6.318   0.511   0.736
 4790SOL     OW15268   4.854   1.141   6.800
 4790SOL    HW115269   4.865   1.092   6.886
 4790SOL    HW215270   4.819   1.233   6.818
 4791SOL     OW15271   4.752   6.801   2.677
 4791SOL    HW115272   4.670   6.757   2.641
 4791SOL    HW215273   4.765   6.890   2.633
 4792SOL     OW15274   2.520   2.290   1.795
 4792SOL    HW115275   2.495   2.284   1.892
 4792SOL    HW215276   2.468   2.222   1.744
 4793SOL     OW15277   1.183   6.753   6.060
 4793SOL    HW115278   1.150   6.750   5.966
 4793SOL    HW215279   1.129   6.690   6.117
 4794SOL     OW15280   3.295   0.690   1.910
 4794SOL    HW115281   3.265   0.745   1.832
 4794SOL    HW215282   3.239   0.712   1.990
 4795SOL     OW15283   6.341   3.376   4.262
 4795SOL    HW115284   6.327   3.278   4.275
 4795SOL    HW215285   6.430   3.402   4.298
 4796SOL     OW15286   6.107   3.894   1.338
 4796SOL    HW115287   6.205   3.878   1.349
 4796SOL    HW215288   6.081   3.887   1.242
 4797SOL     OW15289   0.581   4.892   5.158
 4797SOL    HW115290   0.491   4.868   5.194
 4797SOL    HW215291   0.599   4.839   5.075
 4798SOL     OW15292   7.018   3.784   4.667
 4798SOL    HW115293   0.086   3.759   4.674
 4798SOL    HW215294   6.964   3.703   4.644
 4799SOL     OW15295   3.711   1.485   4.992
 4799SOL    HW115296   3.689   1.568   5.043
 4799SOL    HW215297   3.732   1.411   5.056
 4800SOL     OW15298   1.906   1.634   4.390
 4800SOL    HW115299   1.831   1.653   4.326
 4800SOL    HW215300   1.901   1.698   4.467
 4801SOL     OW15301   0.886   3.166   0.722
 4801SOL    HW115302   0.819   3.146   0.650
 4801SOL    HW215303   0.888   3.092   0.789
 4802SOL     OW15304   2.655   0.526   2.295
 4802SOL    HW115305   2.677   0.616   2.257
 4802SOL    HW215306   2.738   0.471   2.301
 4803SOL     OW15307   1.267   6.846   0.575
 4803SOL    HW115308   1.279   6.826   0.672
 4803SOL    HW215309   1.176   6.886   0.561
 4804SOL     OW15310   4.139   5.163   6.859
 4804SOL    HW115311   4.199   5.211   6.794
 4804SOL    HW215312   4.055   5.216   6.871
 4805SOL     OW15313   0.865   1.900   1.027
 4805SOL    HW115314   0.865   1.906   0.927
 4805SOL    HW215315   0.812   1.976   1.065
 4806SOL     OW15316   0.737   2.656   2.800
 4806SOL    HW115317   0.641   2.668   2.776
 4806SOL    HW215318   0.792   2.727   2.757
 4807SOL     OW15319   7.009   6.361   0.915
 4807SOL    HW115320   6.998   6.460   0.913
 4807SOL    HW215321   6.942   6.318   0.854
 4808SOL     OW15322   4.754   3.238   1.135
 4808SOL    HW115323   4.730   3.264   1.228
 4808SOL    HW215324   4.705   3.154   1.110
 4809SOL     OW15325   4.192   5.986   7.018
 4809SOL    HW115326   4.133   6.061   6.988
 4809SOL    HW215327   4.261   6.021   0.052
 4810SOL     OW15328   0.863   0.522   1.242
 4810SOL    HW115329   0.771   0.523   1.203
 4810SOL    HW215330   0.857   0.527   1.342
 4811SOL     OW15331   4.516   6.147   2.660
 4811SOL    HW115332   4.502   6.245   2.673
 4811SOL    HW215333   4.612   6.130   2.635
 4812SOL     OW15334   6.672   5.355   4.341
 4812SOL    HW115335   6.604   5.311   4.283
 4812SOL    HW215336   6.742   5.289   4.366
 4813SOL     OW15337   5.919   2.888   2.703
 4813SOL    HW115338   5.889   2.796   2.677
 4813SOL    HW215339   5.916   2.897   2.802
 4814SOL     OW15340   0.054   3.269   1.825
 4814SOL    HW115341   0.128   3.330   1.797
 4814SOL    HW215342   7.011   3.323   1.869
 4815SOL     OW15343   4.116   6.364   2.094
 4815SOL    HW115344   4.173   6.383   2.174
 4815SOL    HW215345   4.083   6.450   2.055
 4816SOL     OW15346   5.261   5.334   3.442
 4816SOL    HW115347   5.178   5.381   3.470
 4816SOL    HW215348   5.295   5.374   3.357
 4817SOL     OW15349   6.851   1.237   6.607
 4817SOL    HW115350   6.857   1.222   6.508
 4817SOL    HW215351   6.895   1.161   6.655
 4818SOL     OW15352   0.677   0.027   4.406
 4818SOL    HW115353   0.765   0.038   4.453
 4818SOL    HW215354   0.683   6.979   4.342
 4819SOL     OW15355   1.795   2.971   0.546
 4819SOL    HW115356   1.894   2.953   0.543
 4819SOL    HW215357   1.761   2.955   0.639
 4820SOL     OW15358   0.390   3.194   2.392
 4820SOL    HW115359   0.418   3.270   2.451
 4820SOL    HW215360   0.303   3.158   2.425
 4821SOL     OW15361   0.029   5.854   2.914
 4821SOL    HW115362   0.046   5.841   2.816
 4821SOL    HW215363   0.107   5.901   2.955
 4822SOL     OW15364   1.982   4.166   4.542
 4822SOL    HW115365   2.074   4.155   4.504
 4822SOL    HW215366   1.944   4.253   4.510
 4823SOL     OW15367   1.829   3.363   1.431
 4823SOL    HW115368   1.923   3.369   1.465
 4823SOL    HW215369   1.776   3.439   1.470
 4824SOL     OW15370   6.137   1.243   6.232
 4824SOL    HW115371   6.223   1.197   6.255
 4824SOL    HW215372   6.144   1.281   6.140
 4825SOL     OW15373   1.834   6.830   4.104
 4825SOL    HW115374   1.814   6.769   4.181
 4825SOL    HW215375   1.908   6.791   4.049
 4826SOL     OW15376   3.792   0.705   1.732
 4826SOL    HW115377   3.710   0.676   1.783
 4826SOL    HW215378   3.781   0.681   1.636
 4827SOL     OW15379   0.011   2.269   0.713
 4827SOL    HW115380   6.966   2.336   0.721
 4827SOL    HW215381   7.016   2.185   0.761
 4828SOL     OW15382   4.832   0.973   4.353
 4828SOL    HW115383   4.750   0.990   4.407
 4828SOL    HW215384   4.886   0.901   4.395
 4829SOL     OW15385   4.278   6.820   4.750
 4829SOL    HW115386   4.355   6.840   4.688
 4829SOL    HW215387   4.194   6.856   4.711
 4830SOL     OW15388   3.018   6.237   3.108
 4830SOL    HW115389   3.008   6.337   3.107
 4830SOL    HW215390   2.929   6.196   3.129
 4831SOL     OW15391   3.107   4.507   5.410
 4831SOL    HW115392   3.048   4.508   5.329
 4831SOL    HW215393   3.139   4.600   5.429
 4832SOL     OW15394   3.484   3.870   4.351
 4832SOL    HW115395   3.578   3.835   4.360
 4832SOL    HW215396   3.441   3.871   4.441
 4833SOL     OW15397   6.575   3.438   4.387
 4833SOL    HW115398   6.616   3.529   4.393
 4833SOL    HW215399   6.587   3.390   4.475
 4834SOL     OW15400   1.219   5.012   1.631
 4834SOL    HW115401   1.193   5.088   1.572
 4834SOL    HW215402   1.144   4.993   1.695
 4835SOL     OW15403   6.908   2.672   5.726
 4835SOL    HW115404   6.916   2.578   5.761
 4835SOL    HW215405   6.813   2.688   5.697
 4836SOL     OW15406   4.769   1.325   5.638
 4836SOL    HW115407   4.698   1.364   5.697
 4836SOL    HW215408   4.820   1.256   5.690
 4837SOL     OW15409   0.253   3.816   3.963
 4837SOL    HW115410   0.261   3.757   3.883
 4837SOL    HW215411   0.332   3.801   4.023
 4838SOL     OW15412   2.913   3.690   6.031
 4838SOL    HW115413   2.895   3.785   6.004
 4838SOL    HW215414   2.976   3.689   6.109
 4839SOL     OW15415   2.541   1.535   0.827
 4839SOL    HW115416   2.618   1.480   0.862
 4839SOL    HW215417   2.567   1.576   0.739
 4840SOL     OW15418   6.031   4.291   3.908
 4840SOL    HW115419   6.127   4.286   3.881
 4840SOL    HW215420   6.024   4.310   4.006
 4841SOL     OW15421   3.439   6.272   3.250
 4841SOL    HW115422   3.386   6.197   3.210
 4841SOL    HW215423   3.390   6.358   3.237
 4842SOL     OW15424   3.459   5.526   2.924
 4842SOL    HW115425   3.457   5.484   3.015
 4842SOL    HW215426   3.369   5.561   2.901
 4843SOL     OW15427   0.227   2.140   0.593
 4843SOL    HW115428   0.153   2.146   0.659
 4843SOL    HW215429   0.247   2.231   0.557
 4844SOL     OW15430   2.095   5.487   5.445
 4844SOL    HW115431   2.188   5.524   5.452
 4844SOL    HW215432   2.061   5.499   5.352
 4845SOL     OW15433   4.926   3.754   4.808
 4845SOL    HW115434   4.891   3.677   4.755
 4845SOL    HW215435   4.909   3.737   4.905
 4846SOL     OW15436   6.857   3.568   4.596
 4846SOL    HW115437   6.791   3.634   4.560
 4846SOL    HW215438   6.808   3.489   4.632
 4847SOL     OW15439   2.753   6.235   6.045
 4847SOL    HW115440   2.851   6.239   6.027
 4847SOL    HW215441   2.717   6.328   6.057
 4848SOL     OW15442   3.653   0.766   4.083
 4848SOL    HW115443   3.600   0.825   4.022
 4848SOL    HW215444   3.746   0.802   4.092
 4849SOL     OW15445   2.214   6.397   1.381
 4849SOL    HW115446   2.232   6.415   1.284
 4849SOL    HW215447   2.177   6.479   1.424
 4850SOL     OW15448   3.963   0.079   0.933
 4850SOL    HW115449   3.914   0.009   0.881
 4850SOL    HW215450   3.947   0.064   1.031
 4851SOL     OW15451   3.425   4.424   6.429
 4851SOL    HW115452   3.422   4.370   6.345
 4851SOL    HW215453   3.509   4.404   6.479
 4852SOL     OW15454   5.713   5.061   5.289
 4852SOL    HW115455   5.746   5.088   5.379
 4852SOL    HW215456   5.698   5.142   5.233
 4853SOL     OW15457   4.097   6.955   2.502
 4853SOL    HW115458   4.024   6.887   2.505
 4853SOL    HW215459   4.126   6.968   2.407
 4854SOL     OW15460   5.051   6.784   1.656
 4854SOL    HW115461   5.070   6.871   1.702
 4854SOL    HW215462   5.128   6.761   1.596
 4855SOL     OW15463   5.210   4.753   5.924
 4855SOL    HW115464   5.239   4.717   6.012
 4855SOL    HW215465   5.289   4.782   5.871
 4856SOL     OW15466   0.805   3.519   2.507
 4856SOL    HW115467   0.742   3.461   2.558
 4856SOL    HW215468   0.785   3.513   2.409
 4857SOL     OW15469   2.413   2.598   5.227
 4857SOL    HW115470   2.378   2.628   5.138
 4857SOL    HW215471   2.483   2.661   5.258
 4858SOL     OW15472   1.117   6.093   5.135
 4858SOL    HW115473   1.203   6.047   5.113
 4858SOL    HW215474   1.137   6.184   5.172
 4859SOL     OW15475   0.013   6.361   2.455
 4859SOL    HW115476   0.057   6.280   2.495
 4859SOL    HW215477   0.062   6.388   2.372
 4860SOL     OW15478   4.428   5.273   1.469
 4860SOL    HW115479   4.431   5.276   1.568
 4860SOL    HW215480   4.473   5.190   1.436
 4861SOL     OW15481   0.542   3.934   6.042
 4861SOL    HW115482   0.516   3.843   6.073
 4861SOL    HW215483   0.631   3.930   5.997
 4862SOL     OW15484   2.402   5.740   4.771
 4862SOL    HW115485   2.327   5.680   4.746
 4862SOL    HW215486   2.401   5.821   4.712
 4863SOL     OW15487   4.594   2.420   2.781
 4863SOL    HW115488   4.634   2.330   2.801
 4863SOL    HW215489   4.658   2.474   2.727
 4864SOL     OW15490   1.553   1.251   0.927
 4864SOL    HW115491   1.639   1.296   0.951
 4864SOL    HW215492   1.537   1.175   0.990
 4865SOL     OW15493   3.852   6.078   5.424
 4865SOL    HW115494   3.868   6.176   5.411
 4865SOL    HW215495   3.898   6.048   5.508
 4866SOL     OW15496   0.135   4.630   2.060
 4866SOL    HW115497   0.153   4.585   2.148
 4866SOL    HW215498   0.123   4.728   2.075
 4867SOL     OW15499   4.936   5.307   3.674
 4867SOL    HW115500   5.005   5.373   3.704
 4867SOL    HW215501   4.846   5.333   3.711
 4868SOL     OW15502   1.448   6.631   1.736
 4868SOL    HW115503   1.356   6.669   1.725
 4868SOL    HW215504   1.514   6.705   1.749
 4869SOL     OW15505   6.101   1.517   1.137
 4869SOL    HW115506   6.159   1.577   1.082
 4869SOL    HW215507   6.134   1.423   1.129
 4870SOL     OW15508   6.719   0.394   0.905
 4870SOL    HW115509   6.705   0.351   0.815
 4870SOL    HW215510   6.766   0.330   0.965
 4871SOL     OW15511   1.098   3.150   4.275
 4871SOL    HW115512   1.181   3.205   4.270
 4871SOL    HW215513   1.115   3.067   4.328
 4872SOL     OW15514   0.892   0.309   3.943
 4872SOL    HW115515   0.973   0.329   3.887
 4872SOL    HW215516   0.877   0.384   4.007
 4873SOL     OW15517   1.312   5.851   5.041
 4873SOL    HW115518   1.333   5.756   5.065
 4873SOL    HW215519   1.286   5.855   4.944
 4874SOL     OW15520   5.236   3.142   3.852
 4874SOL    HW115521   5.234   3.088   3.767
 4874SOL    HW215522   5.230   3.081   3.930
 4875SOL     OW15523   6.313   2.656   6.654
 4875SOL    HW115524   6.357   2.735   6.696
 4875SOL    HW215525   6.213   2.667   6.657
 4876SOL     OW15526   0.196   1.550   6.893
 4876SOL    HW115527   0.191   1.519   6.988
 4876SOL    HW215528   0.290   1.578   6.871
 4877SOL     OW15529   6.640   1.823   0.843
 4877SOL    HW115530   6.643   1.858   0.936
 4877SOL    HW215531   6.700   1.743   0.835
 4878SOL     OW15532   6.818   2.220   1.597
 4878SOL    HW115533   6.903   2.270   1.614
 4878SOL    HW215534   6.789   2.173   1.680
 4879SOL     OW15535   4.292   6.105   3.539
 4879SOL    HW115536   4.321   6.033   3.477
 4879SOL    HW215537   4.202   6.140   3.512
 4880SOL     OW15538   6.077   2.298   6.139
 4880SOL    HW115539   6.005   2.230   6.154
 4880SOL    HW215540   6.157   2.275   6.194
 4881SOL     OW15541   2.953   5.388   6.552
 4881SOL    HW115542   2.941   5.437   6.638
 4881SOL    HW215543   2.863   5.368   6.512
 4882SOL     OW15544   4.848   0.303   6.162
 4882SOL    HW115545   4.933   0.306   6.108
 4882SOL    HW215546   4.770   0.317   6.101
 4883SOL     OW15547   6.083   5.712   0.485
 4883SOL    HW115548   6.091   5.731   0.583
 4883SOL    HW215549   6.174   5.695   0.446
 4884SOL     OW15550   3.664   6.664   2.115
 4884SOL    HW115551   3.684   6.580   2.065
 4884SOL    HW215552   3.572   6.695   2.094
 4885SOL     OW15553   2.159   6.637   2.929
 4885SOL    HW115554   2.064   6.612   2.947
 4885SOL    HW215555   2.220   6.567   2.965
 4886SOL     OW15556   6.246   0.621   6.101
 4886SOL    HW115557   6.196   0.604   6.186
 4886SOL    HW215558   6.187   0.670   6.036
 4887SOL     OW15559   0.388   1.954   5.364
 4887SOL    HW115560   0.441   1.922   5.285
 4887SOL    HW215561   0.450   1.969   5.441
 4888SOL     OW15562   3.268   5.384   1.747
 4888SOL    HW115563   3.264   5.399   1.846
 4888SOL    HW215564   3.204   5.445   1.701
 4889SOL     OW15565   1.509   2.829   6.432
 4889SOL    HW115566   1.534   2.770   6.355
 4889SOL    HW215567   1.529   2.781   6.518
 4890SOL     OW15568   1.227   0.212   4.653
 4890SOL    HW115569   1.326   0.214   4.643
 4890SOL    HW215570   1.191   0.124   4.621
 4891SOL     OW15571   1.452   4.056   0.882
 4891SOL    HW115572   1.388   3.985   0.911
 4891SOL    HW215573   1.414   4.146   0.902
 4892SOL     OW15574   1.914   5.717   1.565
 4892SOL    HW115575   1.849   5.742   1.494
 4892SOL    HW215576   1.864   5.677   1.642
 4893SOL     OW15577   0.991   3.483   6.463
 4893SOL    HW115578   1.071   3.540   6.483
 4893SOL    HW215579   0.966   3.494   6.367
 4894SOL     OW15580   1.879   1.260   3.535
 4894SOL    HW115581   1.821   1.297   3.463
 4894SOL    HW215582   1.822   1.226   3.610
 4895SOL     OW15583   5.664   4.126   6.892
 4895SOL    HW115584   5.742   4.106   6.951
 4895SOL    HW215585   5.668   4.220   6.861
 4896SOL     OW15586   4.676   5.906   3.205
 4896SOL    HW115587   4.612   5.867   3.138
 4896SOL    HW215588   4.638   5.895   3.297
 4897SOL     OW15589   2.636   5.695   5.741
 4897SOL    HW115590   2.614   5.766   5.674
 4897SOL    HW215591   2.557   5.636   5.756
 4898SOL     OW15592   5.938   2.231   5.056
 4898SOL    HW115593   6.036   2.221   5.039
 4898SOL    HW215594   5.891   2.248   4.970
 4899SOL     OW15595   5.323   4.097   4.571
 4899SOL    HW115596   5.234   4.129   4.603
 4899SOL    HW215597   5.392   4.116   4.640
 4900SOL     OW15598   1.031   6.675   5.277
 4900SOL    HW115599   1.119   6.693   5.232
 4900SOL    HW215600   0.958   6.723   5.228
 4901SOL     OW15601   0.750   6.434   3.216
 4901SOL    HW115602   0.656   6.400   3.209
 4901SOL    HW215603   0.760   6.516   3.160
 4902SOL     OW15604   3.028   4.758   1.831
 4902SOL    HW115605   3.104   4.708   1.789
 4902SOL    HW215606   2.980   4.699   1.895
 4903SOL     OW15607   5.482   6.017   5.943
 4903SOL    HW115608   5.451   6.110   5.922
 4903SOL    HW215609   5.408   5.952   5.926
 4904SOL     OW15610   3.621   6.167   3.458
 4904SOL    HW115611   3.569   6.104   3.516
 4904SOL    HW215612   3.560   6.238   3.424
 4905SOL     OW15613   6.491   3.443   3.303
 4905SOL    HW115614   6.407   3.390   3.290
 4905SOL    HW215615   6.553   3.424   3.227
 4906SOL     OW15616   5.287   0.525   1.441
 4906SOL    HW115617   5.198   0.486   1.416
 4906SOL    HW215618   5.305   0.607   1.387
 4907SOL     OW15619   2.221   1.734   2.304
 4907SOL    HW115620   2.237   1.795   2.225
 4907SOL    HW215621   2.287   1.660   2.303
 4908SOL     OW15622   3.179   5.925   6.818
 4908SOL    HW115623   3.274   5.949   6.840
 4908SOL    HW215624   3.126   5.919   6.903
 4909SOL     OW15625   6.049   6.904   5.620
 4909SOL    HW115626   5.963   6.955   5.614
 4909SOL    HW215627   6.124   6.962   5.590
 4910SOL     OW15628   6.126   0.250   6.414
 4910SOL    HW115629   6.037   0.205   6.418
 4910SOL    HW215630   6.132   0.305   6.331
 4911SOL     OW15631   0.468   2.977   5.984
 4911SOL    HW115632   0.542   3.036   5.952
 4911SOL    HW215633   0.434   3.010   6.072
 4912SOL     OW15634   2.708   2.260   2.156
 4912SOL    HW115635   2.791   2.273   2.101
 4912SOL    HW215636   2.733   2.256   2.253
 4913SOL     OW15637   2.889   3.346   2.592
 4913SOL    HW115638   2.860   3.339   2.687
 4913SOL    HW215639   2.983   3.381   2.588
 4914SOL     OW15640   1.508   6.335   3.026
 4914SOL    HW115641   1.475   6.245   3.055
 4914SOL    HW215642   1.515   6.337   2.927
 4915SOL     OW15643   3.230   6.083   3.209
 4915SOL    HW115644   3.229   6.066   3.307
 4915SOL    HW215645   3.156   6.146   3.185
 4916SOL     OW15646   1.901   1.622   2.493
 4916SOL    HW115647   1.971   1.556   2.520
 4916SOL    HW215648   1.827   1.575   2.445
 4917SOL     OW15649   2.282   5.439   6.734
 4917SOL    HW115650   2.374   5.465   6.762
 4917SOL    HW215651   2.266   5.343   6.756
 4918SOL     OW15652   2.343   0.559   3.009
 4918SOL    HW115653   2.423   0.527   3.060
 4918SOL    HW215654   2.343   0.659   3.007
 4919SOL     OW15655   2.551   3.191   1.548
 4919SOL    HW115656   2.549   3.099   1.587
 4919SOL    HW215657   2.475   3.245   1.584
 4920SOL     OW15658   4.246   0.851   0.113
 4920SOL    HW115659   4.320   0.891   0.059
 4920SOL    HW215660   4.285   0.794   0.185
 4921SOL     OW15661   1.531   4.371   2.161
 4921SOL    HW115662   1.479   4.290   2.134
 4921SOL    HW215663   1.469   4.450   2.169
 4922SOL     OW15664   0.993   2.969   5.919
 4922SOL    HW115665   0.999   3.030   5.998
 4922SOL    HW215666   1.086   2.953   5.883
 4923SOL     OW15667   3.265   1.988   0.579
 4923SOL    HW115668   3.175   2.018   0.612
 4923SOL    HW215669   3.312   1.939   0.652
 4924SOL     OW15670   0.670   3.799   4.345
 4924SOL    HW115671   0.572   3.816   4.353
 4924SOL    HW215672   0.707   3.849   4.267
 4925SOL     OW15673   4.800   5.911   6.255
 4925SOL    HW115674   4.748   5.828   6.276
 4925SOL    HW215675   4.859   5.934   6.332
 4926SOL     OW15676   3.995   2.464   1.587
 4926SOL    HW115677   3.952   2.553   1.604
 4926SOL    HW215678   4.041   2.466   1.498
 4927SOL     OW15679   3.812   3.869   2.774
 4927SOL    HW115680   3.748   3.808   2.819
 4927SOL    HW215681   3.906   3.844   2.799
 4928SOL     OW15682   0.509   6.643   0.733
 4928SOL    HW115683   0.441   6.656   0.806
 4928SOL    HW215684   0.483   6.564   0.677
 4929SOL     OW15685   0.857   4.983   4.344
 4929SOL    HW115686   0.826   4.888   4.344
 4929SOL    HW215687   0.779   5.044   4.358
 4930SOL     OW15688   0.007   2.684   0.672
 4930SOL    HW115689   6.997   2.676   0.581
 4930SOL    HW215690   0.007   2.780   0.700
 4931SOL     OW15691   0.169   0.535   1.316
 4931SOL    HW115692   0.191   0.628   1.348
 4931SOL    HW215693   0.218   0.468   1.373
 4932SOL     OW15694   3.950   2.130   0.999
 4932SOL    HW115695   3.965   2.043   1.044
 4932SOL    HW215696   3.923   2.199   1.066
 4933SOL     OW15697   2.844   0.967   5.292
 4933SOL    HW115698   2.818   0.903   5.365
 4933SOL    HW215699   2.790   0.947   5.210
 4934SOL     OW15700   1.349   6.111   5.385
 4934SOL    HW115701   1.323   6.020   5.353
 4934SOL    HW215702   1.368   6.169   5.306
 4935SOL     OW15703   1.538   1.097   0.323
 4935SOL    HW115704   1.612   1.164   0.308
 4935SOL    HW215705   1.528   1.080   0.420
 4936SOL     OW15706   4.519   5.871   1.157
 4936SOL    HW115707   4.602   5.889   1.104
 4936SOL    HW215708   4.541   5.873   1.255
 4937SOL     OW15709   1.316   2.980   5.820
 4937SOL    HW115710   1.319   2.972   5.920
 4937SOL    HW215711   1.326   3.075   5.794
 4938SOL     OW15712   3.296   4.898   1.530
 4938SOL    HW115713   3.259   4.820   1.579
 4938SOL    HW215714   3.264   4.983   1.573
 4939SOL     OW15715   1.258   1.680   1.768
 4939SOL    HW115716   1.221   1.724   1.850
 4939SOL    HW215717   1.242   1.739   1.689
 4940SOL     OW15718   6.956   2.038   5.280
 4940SOL    HW115719   7.020   2.054   5.355
 4940SOL    HW215720   7.001   1.984   5.209
 4941SOL     OW15721   4.349   2.165   5.562
 4941SOL    HW115722   4.418   2.124   5.501
 4941SOL    HW215723   4.383   2.253   5.596
 4942SOL     OW15724   0.400   1.527   3.653
 4942SOL    HW115725   0.385   1.434   3.619
 4942SOL    HW215726   0.313   1.576   3.655
 4943SOL     OW15727   4.942   2.762   6.704
 4943SOL    HW115728   4.909   2.853   6.731
 4943SOL    HW215729   4.921   2.696   6.776
 4944SOL     OW15730   0.832   5.139   0.115
 4944SOL    HW115731   0.770   5.156   0.192
 4944SOL    HW215732   0.804   5.194   0.037
 4945SOL     OW15733   1.856   0.419   5.240
 4945SOL    HW115734   1.844   0.449   5.335
 4945SOL    HW215735   1.930   0.352   5.235
 4946SOL     OW15736   3.121   5.240   0.045
 4946SOL    HW115737   3.217   5.236   0.016
 4946SOL    HW215738   3.117   5.233   0.145
 4947SOL     OW15739   1.406   0.831   1.575
 4947SOL    HW115740   1.388   0.734   1.592
 4947SOL    HW215741   1.452   0.871   1.654
 4948SOL     OW15742   1.828   2.417   1.837
 4948SOL    HW115743   1.763   2.403   1.912
 4948SOL    HW215744   1.921   2.405   1.871
 4949SOL     OW15745   6.922   4.561   6.467
 4949SOL    HW115746   6.981   4.634   6.502
 4949SOL    HW215747   6.975   4.501   6.408
 4950SOL     OW15748   3.419   4.416   5.899
 4950SOL    HW115749   3.360   4.429   5.979
 4950SOL    HW215750   3.388   4.337   5.847
 4951SOL     OW15751   5.063   5.575   3.277
 4951SOL    HW115752   5.063   5.485   3.321
 4951SOL    HW215753   5.036   5.565   3.181
 4952SOL     OW15754   0.411   0.137   6.485
 4952SOL    HW115755   0.419   0.059   6.546
 4952SOL    HW215756   0.403   0.105   6.390
 4953SOL     OW15757   0.954   1.991   4.643
 4953SOL    HW115758   0.929   2.080   4.681
 4953SOL    HW215759   0.946   1.994   4.544
 4954SOL     OW15760   3.042   3.771   4.686
 4954SOL    HW115761   3.006   3.680   4.669
 4954SOL    HW215762   3.039   3.824   4.601
 4955SOL     OW15763   4.182   5.499   5.476
 4955SOL    HW115764   4.190   5.479   5.379
 4955SOL    HW215765   4.088   5.523   5.498
 4956SOL     OW15766   3.027   0.216   5.171
 4956SOL    HW115767   2.934   0.237   5.201
 4956SOL    HW215768   3.063   0.293   5.118
 4957SOL     OW15769   5.935   4.704   6.318
 4957SOL    HW115770   5.969   4.617   6.355
 4957SOL    HW215771   5.868   4.686   6.246
 4958SOL     OW15772   4.336   6.106   0.711
 4958SOL    HW115773   4.357   6.015   0.748
 4958SOL    HW215774   4.237   6.120   0.712
 4959SOL     OW15775   0.306   2.257   2.974
 4959SOL    HW115776   0.277   2.191   3.043
 4959SOL    HW215777   0.405   2.257   2.966
 4960SOL     OW15778   4.507   4.754   4.157
 4960SOL    HW115779   4.554   4.747   4.069
 4960SOL    HW215780   4.412   4.726   4.147
 4961SOL     OW15781   3.209   1.809   1.046
 4961SOL    HW115782   3.266   1.763   1.114
 4961SOL    HW215783   3.262   1.879   0.999
 4962SOL     OW15784   1.473   4.361   0.609
 4962SOL    HW115785   1.494   4.459   0.611
 4962SOL    HW215786   1.463   4.328   0.703
 4963SOL     OW15787   0.753   3.804   6.409
 4963SOL    HW115788   0.821   3.866   6.447
 4963SOL    HW215789   0.764   3.799   6.309
 4964SOL     OW15790   2.491   6.682   4.632
 4964SOL    HW115791   2.443   6.594   4.626
 4964SOL    HW215792   2.453   6.745   4.565
 4965SOL     OW15793   1.404   6.083   3.116
 4965SOL    HW115794   1.444   6.042   3.198
 4965SOL    HW215795   1.451   6.048   3.035
 4966SOL     OW15796   3.157   6.752   4.099
 4966SOL    HW115797   3.075   6.719   4.145
 4966SOL    HW215798   3.183   6.841   4.137
 4967SOL     OW15799   4.412   4.734   4.830
 4967SOL    HW115800   4.430   4.680   4.748
 4967SOL    HW215801   4.404   4.672   4.909
 4968SOL     OW15802   6.703   2.791   2.988
 4968SOL    HW115803   6.725   2.790   2.890
 4968SOL    HW215804   6.645   2.870   3.008
 4969SOL     OW15805   0.510   6.114   3.993
 4969SOL    HW115806   0.444   6.048   3.957
 4969SOL    HW215807   0.554   6.076   4.075
 4970SOL     OW15808   1.216   1.579   1.365
 4970SOL    HW115809   1.269   1.524   1.300
 4970SOL    HW215810   1.122   1.587   1.335
 4971SOL     OW15811   6.781   6.286   2.526
 4971SOL    HW115812   6.766   6.278   2.624
 4971SOL    HW215813   6.874   6.319   2.510
 4972SOL     OW15814   0.134   4.421   0.947
 4972SOL    HW115815   0.147   4.437   1.045
 4972SOL    HW215816   0.178   4.495   0.896
 4973SOL     OW15817   6.391   1.441   1.063
 4973SOL    HW115818   6.365   1.531   1.029
 4973SOL    HW215819   6.482   1.447   1.105
 4974SOL     OW15820   3.476   6.171   5.114
 4974SOL    HW115821   3.454   6.168   5.211
 4974SOL    HW215822   3.549   6.237   5.098
 4975SOL     OW15823   5.017   4.892   1.129
 4975SOL    HW115824   5.087   4.937   1.074
 4975SOL    HW215825   4.963   4.831   1.071
 4976SOL     OW15826   2.015   6.815   3.261
 4976SOL    HW115827   1.961   6.867   3.327
 4976SOL    HW215828   1.954   6.770   3.196
 4977SOL     OW15829   1.807   4.407   5.689
 4977SOL    HW115830   1.837   4.482   5.630
 4977SOL    HW215831   1.717   4.428   5.728
 4978SOL     OW15832   5.077   4.731   4.792
 4978SOL    HW115833   5.057   4.825   4.819
 4978SOL    HW215834   5.164   4.728   4.742
 4979SOL     OW15835   2.327   6.936   5.797
 4979SOL    HW115836   2.236   6.938   5.839
 4979SOL    HW215837   2.337   6.852   5.743
 4980SOL     OW15838   5.321   3.550   3.849
 4980SOL    HW115839   5.410   3.595   3.838
 4980SOL    HW215840   5.282   3.530   3.759
 4981SOL     OW15841   3.075   4.867   2.322
 4981SOL    HW115842   3.061   4.936   2.251
 4981SOL    HW215843   3.034   4.781   2.293
 4982SOL     OW15844   3.991   1.757   5.666
 4982SOL    HW115845   3.973   1.660   5.646
 4982SOL    HW215846   4.046   1.796   5.592
 4983SOL     OW15847   5.790   5.773   2.925
 4983SOL    HW115848   5.713   5.823   2.964
 4983SOL    HW215849   5.782   5.676   2.948
 4984SOL     OW15850   4.826   4.100   3.125
 4984SOL    HW115851   4.838   4.023   3.063
 4984SOL    HW215852   4.895   4.169   3.107
 4985SOL     OW15853   5.375   6.911   2.391
 4985SOL    HW115854   5.419   6.822   2.384
 4985SOL    HW215855   5.442   6.983   2.375
 4986SOL     OW15856   0.973   5.032   1.766
 4986SOL    HW115857   0.941   4.940   1.788
 4986SOL    HW215858   0.898   5.085   1.727
 4987SOL     OW15859   0.784   1.021   2.488
 4987SOL    HW115860   0.868   1.010   2.435
 4987SOL    HW215861   0.782   0.956   2.563
 4988SOL     OW15862   6.142   5.877   3.601
 4988SOL    HW115863   6.107   5.970   3.585
 4988SOL    HW215864   6.188   5.875   3.690
 4989SOL     OW15865   4.759   0.193   3.283
 4989SOL    HW115866   4.771   0.290   3.263
 4989SOL    HW215867   4.796   0.138   3.208
 4990SOL     OW15868   4.472   2.405   4.680
 4990SOL    HW115869   4.496   2.466   4.604
 4990SOL    HW215870   4.382   2.365   4.662
 4991SOL     OW15871   1.665   4.921   5.720
 4991SOL    HW115872   1.744   4.979   5.698
 4991SOL    HW215873   1.610   4.965   5.791
 4992SOL     OW15874   0.524   3.478   3.702
 4992SOL    HW115875   0.568   3.388   3.702
 4992SOL    HW215876   0.585   3.544   3.747
 4993SOL     OW15877   3.116   6.398   3.903
 4993SOL    HW115878   3.095   6.495   3.900
 4993SOL    HW215879   3.214   6.385   3.920
 4994SOL     OW15880   3.408   4.514   5.341
 4994SOL    HW115881   3.323   4.478   5.381
 4994SOL    HW215882   3.389   4.601   5.297
 4995SOL     OW15883   0.326   0.365   6.055
 4995SOL    HW115884   0.272   0.308   5.994
 4995SOL    HW215885   0.415   0.385   6.013
 4996SOL     OW15886   6.961   1.449   4.183
 4996SOL    HW115887   0.020   1.452   4.230
 4996SOL    HW215888   6.899   1.387   4.232
 4997SOL     OW15889   3.681   1.792   1.242
 4997SOL    HW115890   3.767   1.842   1.242
 4997SOL    HW215891   3.653   1.772   1.148
 4998SOL     OW15892   0.563   3.713   3.500
 4998SOL    HW115893   0.598   3.672   3.584
 4998SOL    HW215894   0.558   3.812   3.511
 4999SOL     OW15895   0.849   3.115   4.351
 4999SOL    HW115896   0.814   3.033   4.306
 4999SOL    HW215897   0.945   3.128   4.327
 5000SOL     OW15898   3.124   5.614   2.874
 5000SOL    HW115899   3.090   5.520   2.871
 5000SOL    HW215900   3.049   5.677   2.893
 5001SOL     OW15901   0.278   5.864   3.257
 5001SOL    HW115902   0.368   5.828   3.281
 5001SOL    HW215903   0.213   5.788   3.246
 5002SOL     OW15904   0.877   3.537   3.576
 5002SOL    HW115905   0.805   3.470   3.591
 5002SOL    HW215906   0.953   3.494   3.528
 5003SOL     OW15907   4.265   1.018   3.676
 5003SOL    HW115908   4.268   0.944   3.609
 5003SOL    HW215909   4.324   0.995   3.753
 5004SOL     OW15910   2.918   5.266   6.182
 5004SOL    HW115911   2.859   5.344   6.206
 5004SOL    HW215912   3.010   5.283   6.218
 5005SOL     OW15913   2.986   2.443   0.320
 5005SOL    HW115914   2.893   2.481   0.312
 5005SOL    HW215915   2.981   2.344   0.330
 5006SOL     OW15916   4.364   1.528   1.508
 5006SOL    HW115917   4.336   1.485   1.594
 5006SOL    HW215918   4.437   1.594   1.527
 5007SOL     OW15919   5.912   6.276   1.939
 5007SOL    HW115920   6.000   6.229   1.941
 5007SOL    HW215921   5.841   6.216   1.978
 5008SOL     OW15922   5.362   6.453   2.116
 5008SOL    HW115923   5.320   6.434   2.205
 5008SOL    HW215924   5.292   6.485   2.052
 5009SOL     OW15925   6.597   2.251   0.804
 5009SOL    HW115926   6.599   2.180   0.734
 5009SOL    HW215927   6.577   2.209   0.893
 5010SOL     OW15928   3.444   3.779   1.136
 5010SOL    HW115929   3.355   3.798   1.175
 5010SOL    HW215930   3.453   3.825   1.047
 5011SOL     OW15931   2.220   3.407   6.805
 5011SOL    HW115932   2.275   3.388   6.887
 5011SOL    HW215933   2.178   3.497   6.814
 5012SOL     OW15934   6.173   1.662   5.852
 5012SOL    HW115935   6.089   1.705   5.820
 5012SOL    HW215936   6.247   1.730   5.854
 5013SOL     OW15937   5.719   6.804   5.624
 5013SOL    HW115938   5.713   6.799   5.724
 5013SOL    HW215939   5.661   6.879   5.591
 5014SOL     OW15940   6.207   3.345   1.624
 5014SOL    HW115941   6.282   3.399   1.662
 5014SOL    HW215942   6.232   3.312   1.533
 5015SOL     OW15943   5.538   6.452   3.751
 5015SOL    HW115944   5.545   6.551   3.738
 5015SOL    HW215945   5.442   6.425   3.752
 5016SOL     OW15946   1.874   3.540   5.892
 5016SOL    HW115947   1.856   3.585   5.805
 5016SOL    HW215948   1.942   3.467   5.878
 5017SOL     OW15949   0.285   3.402   1.760
 5017SOL    HW115950   0.361   3.380   1.822
 5017SOL    HW215951   0.321   3.437   1.674
 5018SOL     OW15952   1.108   0.384   1.200
 5018SOL    HW115953   1.022   0.433   1.216
 5018SOL    HW215954   1.088   0.295   1.159
 5019SOL     OW15955   1.485   5.344   5.232
 5019SOL    HW115956   1.556   5.274   5.225
 5019SOL    HW215957   1.445   5.361   5.142
 5020SOL     OW15958   2.408   6.920   4.533
 5020SOL    HW115959   2.503   6.923   4.503
 5020SOL    HW215960   2.389   7.000   4.590
 5021SOL     OW15961   1.438   1.143   0.680
 5021SOL    HW115962   1.469   1.056   0.641
 5021SOL    HW215963   1.501   1.172   0.751
 5022SOL     OW15964   6.832   3.032   1.496
 5022SOL    HW115965   6.798   2.939   1.506
 5022SOL    HW215966   6.867   3.066   1.583
 5023SOL     OW15967   7.000   4.301   2.642
 5023SOL    HW115968   0.017   4.388   2.656
 5023SOL    HW215969   0.034   4.226   2.662
 5024SOL     OW15970   4.525   3.575   1.428
 5024SOL    HW115971   4.621   3.553   1.408
 5024SOL    HW215972   4.519   3.668   1.464
 5025SOL     OW15973   4.049   1.211   3.988
 5025SOL    HW115974   3.980   1.245   4.053
 5025SOL    HW215975   4.116   1.283   3.971
 5026SOL     OW15976   4.236   0.131   4.840
 5026SOL    HW115977   4.224   0.205   4.774
 5026SOL    HW215978   4.194   0.048   4.805
 5027SOL     OW15979   5.161   6.992   6.892
 5027SOL    HW115980   5.251   7.013   6.930
 5027SOL    HW215981   5.129   0.041   6.838
 5028SOL     OW15982   6.696   1.498   2.742
 5028SOL    HW115983   6.757   1.494   2.663
 5028SOL    HW215984   6.658   1.407   2.759
 5029SOL     OW15985   6.103   1.732   2.825
 5029SOL    HW115986   6.118   1.755   2.729
 5029SOL    HW215987   6.142   1.641   2.844
 5030SOL     OW15988   0.208   4.414   6.713
 5030SOL    HW115989   0.165   4.481   6.651
 5030SOL    HW215990   0.296   4.386   6.676
 5031SOL     OW15991   6.775   6.563   6.576
 5031SOL    HW115992   6.786   6.550   6.478
 5031SOL    HW215993   6.790   6.660   6.599
 5032SOL     OW15994   2.565   3.425   5.437
 5032SOL    HW115995   2.663   3.440   5.451
 5032SOL    HW215996   2.548   3.329   5.417
 5033SOL     OW15997   2.180   0.668   0.182
 5033SOL    HW115998   2.192   0.767   0.186
 5033SOL    HW215999   2.082   0.646   0.178
 5034SOL     OW16000   4.368   6.601   4.132
 5034SOL    HW116001   4.380   6.502   4.138
 5034SOL    HW216002   4.345   6.626   4.038
 5035SOL     OW16003   1.718   3.700   3.761
 5035SOL    HW116004   1.693   3.626   3.824
 5035SOL    HW216005   1.664   3.782   3.783
 5036SOL     OW16006   6.820   2.471   5.459
 5036SOL    HW116007   6.769   2.426   5.532
 5036SOL    HW216008   6.766   2.548   5.424
 5037SOL     OW16009   4.320   4.373   1.318
 5037SOL    HW116010   4.285   4.305   1.253
 5037SOL    HW216011   4.373   4.327   1.388
 5038SOL     OW16012   3.631   3.836   3.949
 5038SOL    HW116013   3.664   3.753   3.994
 5038SOL    HW216014   3.708   3.898   3.934
 5039SOL     OW16015   0.992   3.627   6.858
 5039SOL    HW116016   0.928   3.562   6.819
 5039SOL    HW216017   1.068   3.578   6.901
 5040SOL     OW16018   0.265   6.718   5.967
 5040SOL    HW116019   0.257   6.623   5.939
 5040SOL    HW216020   0.356   6.753   5.941
 5041SOL     OW16021   6.831   3.627   2.159
 5041SOL    HW116022   6.895   3.653   2.086
 5041SOL    HW216023   6.812   3.706   2.216
 5042SOL     OW16024   0.589   2.778   6.196
 5042SOL    HW116025   0.519   2.841   6.230
 5042SOL    HW216026   0.547   2.688   6.180
 5043SOL     OW16027   4.070   6.467   1.206
 5043SOL    HW116028   3.998   6.494   1.270
 5043SOL    HW216029   4.041   6.486   1.112
 5044SOL     OW16030   6.112   5.081   0.827
 5044SOL    HW116031   6.075   5.069   0.919
 5044SOL    HW216032   6.060   5.026   0.762
 5045SOL     OW16033   6.469   3.520   6.193
 5045SOL    HW116034   6.547   3.460   6.212
 5045SOL    HW216035   6.402   3.471   6.136
 5046SOL     OW16036   3.376   3.315   3.361
 5046SOL    HW116037   3.459   3.362   3.390
 5046SOL    HW216038   3.316   3.380   3.315
 5047SOL     OW16039   0.996   3.222   3.017
 5047SOL    HW116040   0.978   3.303   2.962
 5047SOL    HW216041   0.967   3.239   3.112
 5048SOL     OW16042   1.686   1.384   5.945
 5048SOL    HW116043   1.702   1.314   6.015
 5048SOL    HW216044   1.759   1.452   5.949
 5049SOL     OW16045   5.281   1.012   6.463
 5049SOL    HW116046   5.326   1.101   6.470
 5049SOL    HW216047   5.270   0.988   6.366
 5050SOL     OW16048   1.535   0.493   1.185
 5050SOL    HW116049   1.514   0.526   1.093
 5050SOL    HW216050   1.518   0.395   1.191
 5051SOL     OW16051   3.807   5.309   1.138
 5051SOL    HW116052   3.875   5.267   1.078
 5051SOL    HW216053   3.746   5.238   1.173
 5052SOL     OW16054   2.653   0.960   5.834
 5052SOL    HW116055   2.725   0.986   5.898
 5052SOL    HW216056   2.689   0.894   5.768
 5053SOL     OW16057   0.193   0.251   2.212
 5053SOL    HW116058   0.151   0.301   2.136
 5053SOL    HW216059   0.142   0.269   2.296
 5054SOL     OW16060   3.726   5.244   3.978
 5054SOL    HW116061   3.818   5.225   4.012
 5054SOL    HW216062   3.667   5.269   4.055
 5055SOL     OW16063   6.317   3.184   6.627
 5055SOL    HW116064   6.222   3.191   6.598
 5055SOL    HW216065   6.323   3.195   6.726
 5056SOL     OW16066   5.245   4.144   4.875
 5056SOL    HW116067   5.171   4.147   4.807
 5056SOL    HW216068   5.206   4.125   4.965
 5057SOL     OW16069   0.984   6.419   2.792
 5057SOL    HW116070   0.893   6.462   2.788
 5057SOL    HW216071   1.036   6.458   2.868
 5058SOL     OW16072   3.254   4.759   5.560
 5058SOL    HW116073   3.308   4.685   5.599
 5058SOL    HW216074   3.221   4.819   5.633
 5059SOL     OW16075   0.782   0.448   2.280
 5059SOL    HW116076   0.688   0.429   2.310
 5059SOL    HW216077   0.786   0.446   2.180
 5060SOL     OW16078   6.615   1.930   5.580
 5060SOL    HW116079   6.669   2.007   5.612
 5060SOL    HW216080   6.646   1.902   5.489
 5061SOL     OW16081   5.416   4.185   0.067
 5061SOL    HW116082   5.461   4.273   0.055
 5061SOL    HW216083   5.330   4.184   0.016
 5062SOL     OW16084   0.597   0.183   0.971
 5062SOL    HW116085   0.509   0.137   0.981
 5062SOL    HW216086   0.671   0.117   0.984
 5063SOL     OW16087   1.172   6.699   1.833
 5063SOL    HW116088   1.108   6.776   1.843
 5063SOL    HW216089   1.153   6.651   1.748
 5064SOL     OW16090   4.876   3.123   6.638
 5064SOL    HW116091   4.968   3.084   6.645
 5064SOL    HW216092   4.870   3.205   6.696
 5065SOL     OW16093   2.238   6.367   5.847
 5065SOL    HW116094   2.197   6.458   5.847
 5065SOL    HW216095   2.304   6.360   5.772
 5066SOL     OW16096   5.298   5.053   1.288
 5066SOL    HW116097   5.199   5.050   1.277
 5066SOL    HW216098   5.341   4.988   1.226
 5067SOL     OW16099   4.979   1.122   0.248
 5067SOL    HW116100   5.007   1.213   0.276
 5067SOL    HW216101   5.056   1.059   0.257
 5068SOL     OW16102   2.769   5.144   1.184
 5068SOL    HW116103   2.833   5.182   1.251
 5068SOL    HW216104   2.818   5.080   1.125
 5069SOL     OW16105   0.744   4.393   3.519
 5069SOL    HW116106   0.669   4.438   3.568
 5069SOL    HW216107   0.779   4.318   3.575
 5070SOL     OW16108   5.322   2.867   3.955
 5070SOL    HW116109   5.351   2.862   4.050
 5070SOL    HW216110   5.394   2.830   3.896
 5071SOL     OW16111   4.352   1.310   6.888
 5071SOL    HW116112   4.322   1.245   6.817
 5071SOL    HW216113   4.415   1.376   6.847
 5072SOL     OW16114   1.474   4.343   1.292
 5072SOL    HW116115   1.541   4.280   1.332
 5072SOL    HW216116   1.386   4.331   1.337
 5073SOL     OW16117   4.041   1.543   3.619
 5073SOL    HW116118   4.046   1.558   3.718
 5073SOL    HW216119   3.957   1.493   3.596
 5074SOL     OW16120   2.843   3.953   6.217
 5074SOL    HW116121   2.912   3.894   6.260
 5074SOL    HW216122   2.858   4.047   6.247
 5075SOL     OW16123   0.022   5.385   4.508
 5075SOL    HW116124   0.023   5.451   4.433
 5075SOL    HW216125   0.048   5.431   4.593
 5076SOL     OW16126   3.336   7.014   1.307
 5076SOL    HW116127   3.331   0.073   1.354
 5076SOL    HW216128   3.387   6.949   1.363
 5077SOL     OW16129   0.100   2.130   2.421
 5077SOL    HW116130   0.010   2.138   2.379
 5077SOL    HW216131   0.150   2.216   2.410
 5078SOL     OW16132   1.030   1.269   3.852
 5078SOL    HW116133   1.121   1.229   3.852
 5078SOL    HW216134   0.987   1.256   3.941
 5079SOL     OW16135   3.826   5.345   5.269
 5079SOL    HW116136   3.830   5.409   5.193
 5079SOL    HW216137   3.912   5.295   5.276
 5080SOL     OW16138   5.940   6.602   5.660
 5080SOL    HW116139   5.843   6.614   5.637
 5080SOL    HW216140   5.990   6.687   5.639
 5081SOL     OW16141   3.575   3.482   3.528
 5081SOL    HW116142   3.498   3.441   3.577
 5081SOL    HW216143   3.546   3.567   3.485
 5082SOL     OW16144   6.094   5.957   4.751
 5082SOL    HW116145   6.146   6.014   4.815
 5082SOL    HW216146   6.006   6.001   4.731
 5083SOL     OW16147   1.800   5.564   1.965
 5083SOL    HW116148   1.729   5.548   2.033
 5083SOL    HW216149   1.785   5.653   1.921
 5084SOL     OW16150   1.852   6.164   3.988
 5084SOL    HW116151   1.897   6.240   3.941
 5084SOL    HW216152   1.869   6.172   4.087
 5085SOL     OW16153   6.356   2.557   6.396
 5085SOL    HW116154   6.267   2.592   6.367
 5085SOL    HW216155   6.371   2.580   6.492
 5086SOL     OW16156   6.652   5.407   3.233
 5086SOL    HW116157   6.651   5.493   3.285
 5086SOL    HW216158   6.716   5.416   3.156
 5087SOL     OW16159   0.261   5.723   5.702
 5087SOL    HW116160   0.171   5.679   5.708
 5087SOL    HW216161   0.287   5.758   5.792
 5088SOL     OW16162   5.696   0.095   6.519
 5088SOL    HW116163   5.635   0.022   6.489
 5088SOL    HW216164   5.661   0.136   6.603
 5089SOL     OW16165   5.220   3.557   3.561
 5089SOL    HW116166   5.288   3.612   3.512
 5089SOL    HW216167   5.141   3.614   3.583
 5090SOL     OW16168   1.504   4.928   1.090
 5090SOL    HW116169   1.482   4.981   1.008
 5090SOL    HW216170   1.426   4.929   1.152
 5091SOL     OW16171   1.354   5.805   2.818
 5091SOL    HW116172   1.404   5.859   2.886
 5091SOL    HW216173   1.307   5.730   2.863
 5092SOL     OW16174   3.618   2.579   1.771
 5092SOL    HW116175   3.708   2.623   1.766
 5092SOL    HW216176   3.628   2.486   1.808
 5093SOL     OW16177   0.498   2.211   1.566
 5093SOL    HW116178   0.399   2.195   1.566
 5093SOL    HW216179   0.519   2.285   1.631
 5094SOL     OW16180   0.036   0.230   6.437
 5094SOL    HW116181   0.118   0.275   6.473
 5094SOL    HW216182   7.017   0.293   6.375
 5095SOL     OW16183   2.616   6.802   5.555
 5095SOL    HW116184   2.663   6.869   5.497
 5095SOL    HW216185   2.665   6.791   5.641
 5096SOL     OW16186   4.059   5.037   1.636
 5096SOL    HW116187   4.117   4.956   1.646
 5096SOL    HW216188   3.972   5.012   1.594
 5097SOL     OW16189   1.031   0.496   6.439
 5097SOL    HW116190   0.991   0.406   6.420
 5097SOL    HW216191   0.975   0.566   6.395
 5098SOL     OW16192   0.310   2.058   2.677
 5098SOL    HW116193   0.359   2.134   2.718
 5098SOL    HW216194   0.213   2.081   2.668
 5099SOL     OW16195   0.658   0.179   4.815
 5099SOL    HW116196   0.639   0.266   4.860
 5099SOL    HW216197   0.585   0.160   4.749
 5100SOL     OW16198   5.102   6.810   5.952
 5100SOL    HW116199   5.077   6.899   5.988
 5100SOL    HW216200   5.153   6.822   5.867
 5101SOL     OW16201   4.291   6.104   0.411
 5101SOL    HW116202   4.300   6.203   0.401
 5101SOL    HW216203   4.326   6.076   0.501
 5102SOL     OW16204   3.439   6.680   5.106
 5102SOL    HW116205   3.366   6.638   5.160
 5102SOL    HW216206   3.439   6.779   5.121
 5103SOL     OW16207   1.019   0.845   4.294
 5103SOL    HW116208   1.073   0.835   4.377
 5103SOL    HW216209   1.052   0.781   4.224
 5104SOL     OW16210   1.099   6.924   1.235
 5104SOL    HW116211   1.143   6.857   1.296
 5104SOL    HW216212   1.019   6.963   1.281
 5105SOL     OW16213   2.628   3.654   6.618
 5105SOL    HW116214   2.531   3.673   6.634
 5105SOL    HW216215   2.638   3.585   6.547
 5106SOL     OW16216   3.540   0.235   2.294
 5106SOL    HW116217   3.479   0.240   2.215
 5106SOL    HW216218   3.486   0.216   2.376
 5107SOL     OW16219   1.656   6.760   5.796
 5107SOL    HW116220   1.602   6.813   5.731
 5107SOL    HW216221   1.599   6.733   5.873
 5108SOL     OW16222   3.214   3.506   3.854
 5108SOL    HW116223   3.224   3.605   3.863
 5108SOL    HW216224   3.133   3.476   3.905
 5109SOL     OW16225   7.017   1.303   1.385
 5109SOL    HW116226   0.038   1.372   1.437
 5109SOL    HW216227   6.921   1.304   1.412
 5110SOL     OW16228   2.251   5.793   5.698
 5110SOL    HW116229   2.296   5.865   5.751
 5110SOL    HW216230   2.287   5.704   5.725
 5111SOL     OW16231   1.577   0.907   0.603
 5111SOL    HW116232   1.517   0.830   0.582
 5111SOL    HW216233   1.617   0.896   0.694
 5112SOL     OW16234   7.013   6.296   3.706
 5112SOL    HW116235   7.018   6.386   3.662
 5112SOL    HW216236   6.962   6.234   3.648
 5113SOL     OW16237   1.217   0.023   6.671
 5113SOL    HW116238   1.183   0.034   6.578
 5113SOL    HW216239   1.165   0.083   6.733
 5114SOL     OW16240   4.183   4.956   0.458
 5114SOL    HW116241   4.130   4.909   0.530
 5114SOL    HW216242   4.130   4.958   0.374
 5115SOL     OW16243   1.899   3.734   5.618
 5115SOL    HW116244   1.953   3.779   5.548
 5115SOL    HW216245   1.874   3.799   5.689
 5116SOL     OW16246   7.013   3.853   1.335
 5116SOL    HW116247   6.929   3.874   1.385
 5116SOL    HW216248   0.028   3.939   1.306
 5117SOL     OW16249   2.352   4.675   4.213
 5117SOL    HW116250   2.265   4.669   4.263
 5117SOL    HW216251   2.428   4.676   4.278
 5118SOL     OW16252   4.737   6.354   0.828
 5118SOL    HW116253   4.795   6.413   0.772
 5118SOL    HW216254   4.649   6.341   0.782
 5119SOL     OW16255   5.833   0.087   2.171
 5119SOL    HW116256   5.783   0.173   2.177
 5119SOL    HW216257   5.922   0.103   2.129
 5120SOL     OW16258   4.672   1.325   2.409
 5120SOL    HW116259   4.631   1.352   2.322
 5120SOL    HW216260   4.728   1.243   2.396
 5121SOL     OW16261   0.445   3.936   5.357
 5121SOL    HW116262   0.456   4.005   5.286
 5121SOL    HW216263   0.350   3.902   5.355
 5122SOL     OW16264   1.629   6.359   4.001
 5122SOL    HW116265   1.662   6.386   3.911
 5122SOL    HW216266   1.704   6.363   4.067
 5123SOL     OW16267   5.584   4.573   2.221
 5123SOL    HW116268   5.528   4.655   2.230
 5123SOL    HW216269   5.605   4.537   2.312
 5124SOL     OW16270   2.598   6.125   6.924
 5124SOL    HW116271   2.531   6.109   6.851
 5124SOL    HW216272   2.619   6.223   6.930
 5125SOL     OW16273   6.949   2.428   5.868
 5125SOL    HW116274   6.992   2.415   5.958
 5125SOL    HW216275   6.860   2.383   5.868
 5126SOL     OW16276   4.971   3.365   6.163
 5126SOL    HW116277   4.925   3.430   6.224
 5126SOL    HW216278   4.987   3.279   6.212
 5127SOL     OW16279   5.638   2.688   6.339
 5127SOL    HW116280   5.724   2.703   6.389
 5127SOL    HW216281   5.658   2.677   6.241
 5128SOL     OW16282   0.812   0.479   6.815
 5128SOL    HW116283   0.755   0.549   6.858
 5128SOL    HW216284   0.760   0.394   6.806
 5129SOL     OW16285   4.228   2.133   2.161
 5129SOL    HW116286   4.149   2.079   2.188
 5129SOL    HW216287   4.257   2.191   2.238
 5130SOL     OW16288   1.069   6.354   4.890
 5130SOL    HW116289   0.978   6.314   4.896
 5130SOL    HW216290   1.131   6.290   4.843
 5131SOL     OW16291   3.832   5.144   3.473
 5131SOL    HW116292   3.867   5.116   3.562
 5131SOL    HW216293   3.885   5.222   3.440
 5132SOL     OW16294   3.368   0.855   6.868
 5132SOL    HW116295   3.464   0.830   6.878
 5132SOL    HW216296   3.330   0.810   6.788
 5133SOL     OW16297   4.998   4.058   6.966
 5133SOL    HW116298   5.025   4.143   6.920
 5133SOL    HW216299   5.076   4.022   7.018
 5134SOL     OW16300   5.935   6.170   1.086
 5134SOL    HW116301   5.956   6.268   1.089
 5134SOL    HW216302   5.851   6.156   1.034
 5135SOL     OW16303   6.570   3.062   2.979
 5135SOL    HW116304   6.499   3.051   2.910
 5135SOL    HW216305   6.616   3.150   2.965
 5136SOL     OW16306   1.311   1.202   5.873
 5136SOL    HW116307   1.393   1.155   5.905
 5136SOL    HW216308   1.317   1.216   5.774
 5137SOL     OW16309   6.000   1.041   4.293
 5137SOL    HW116310   6.054   1.104   4.238
 5137SOL    HW216311   5.924   1.090   4.336
 5138SOL     OW16312   3.116   3.030   3.684
 5138SOL    HW116313   3.131   3.129   3.688
 5138SOL    HW216314   3.121   2.992   3.776
 5139SOL     OW16315   2.532   0.477   5.818
 5139SOL    HW116316   2.561   0.537   5.743
 5139SOL    HW216317   2.584   0.391   5.814
 5140SOL     OW16318   3.590   3.298   6.683
 5140SOL    HW116319   3.608   3.225   6.616
 5140SOL    HW216320   3.677   3.337   6.714
 5141SOL     OW16321   6.852   2.751   1.297
 5141SOL    HW116322   6.852   2.806   1.213
 5141SOL    HW216323   6.946   2.744   1.332
 5142SOL     OW16324   0.164   7.004   2.433
 5142SOL    HW116325   0.239   7.013   2.368
 5142SOL    HW216326   0.187   0.024   2.517
 5143SOL     OW16327   6.812   6.618   2.210
 5143SOL    HW116328   6.904   6.611   2.172
 5143SOL    HW216329   6.817   6.610   2.310
 5144SOL     OW16330   2.310   3.125   5.352
 5144SOL    HW116331   2.361   3.082   5.278
 5144SOL    HW216332   2.330   3.077   5.438
 5145SOL     OW16333   2.363   5.332   6.463
 5145SOL    HW116334   2.339   5.381   6.547
 5145SOL    HW216335   2.279   5.299   6.419
 5146SOL     OW16336   5.539   5.816   6.703
 5146SOL    HW116337   5.581   5.894   6.656
 5146SOL    HW216338   5.499   5.755   6.635
 5147SOL     OW16339   4.297   2.347   3.311
 5147SOL    HW116340   4.335   2.332   3.220
 5147SOL    HW216341   4.336   2.431   3.350
 5148SOL     OW16342   0.642   0.309   6.385
 5148SOL    HW116343   0.711   0.237   6.391
 5148SOL    HW216344   0.573   0.296   6.456
 5149SOL     OW16345   4.819   4.965   4.312
 5149SOL    HW116346   4.780   4.879   4.347
 5149SOL    HW216347   4.843   4.954   4.216
 5150SOL     OW16348   6.832   6.576   3.995
 5150SOL    HW116349   6.785   6.494   4.028
 5150SOL    HW216350   6.800   6.598   3.903
 5151SOL     OW16351   6.035   6.138   2.286
 5151SOL    HW116352   5.942   6.127   2.322
 5151SOL    HW216353   6.054   6.064   2.221
 5152SOL     OW16354   1.732   0.979   7.012
 5152SOL    HW116355   1.656   1.036   6.980
 5152SOL    HW216356   1.818   1.013   6.974
 5153SOL     OW16357   1.198   1.923   0.629
 5153SOL    HW116358   1.240   1.979   0.701
 5153SOL    HW216359   1.223   1.828   0.641
 5154SOL     OW16360   6.689   3.114   0.806
 5154SOL    HW116361   6.739   3.028   0.792
 5154SOL    HW216362   6.753   3.191   0.798
 5155SOL     OW16363   1.523   1.687   6.888
 5155SOL    HW116364   1.451   1.726   6.830
 5155SOL    HW216365   1.599   1.751   6.896
 5156SOL     OW16366   5.716   6.006   5.251
 5156SOL    HW116367   5.673   6.086   5.292
 5156SOL    HW216368   5.811   5.999   5.284
 5157SOL     OW16369   3.531   0.015   1.658
 5157SOL    HW116370   3.483   6.964   1.622
 5157SOL    HW216371   3.473   0.061   1.725
 5158SOL     OW16372   1.628   2.125   1.552
 5158SOL    HW116373   1.623   2.221   1.581
 5158SOL    HW216374   1.723   2.097   1.547
 5159SOL     OW16375   6.454   2.977   5.850
 5159SOL    HW116376   6.450   3.029   5.935
 5159SOL    HW216377   6.361   2.957   5.819
 5160SOL     OW16378   6.363   0.031   3.637
 5160SOL    HW116379   6.396   0.066   3.550
 5160SOL    HW216380   6.272   7.019   3.625
 5161SOL     OW16381   1.774   3.240   0.459
 5161SOL    HW116382   1.777   3.142   0.482
 5161SOL    HW216383   1.687   3.279   0.491
 5162SOL     OW16384   6.524   0.260   4.076
 5162SOL    HW116385   6.541   0.327   4.004
 5162SOL    HW216386   6.530   0.167   4.038
 5163SOL     OW16387   3.122   0.495   2.184
 5163SOL    HW116388   3.142   0.486   2.086
 5163SOL    HW216389   3.177   0.569   2.223
 5164SOL     OW16390   3.039   3.585   6.727
 5164SOL    HW116391   2.952   3.594   6.776
 5164SOL    HW216392   3.022   3.561   6.632
 5165SOL     OW16393   1.850   4.063   6.311
 5165SOL    HW116394   1.762   4.082   6.356
 5165SOL    HW216395   1.897   4.149   6.293
 5166SOL     OW16396   0.992   4.966   0.810
 5166SOL    HW116397   0.903   5.010   0.816
 5166SOL    HW216398   1.048   4.993   0.889
 5167SOL     OW16399   5.522   3.609   5.387
 5167SOL    HW116400   5.525   3.523   5.336
 5167SOL    HW216401   5.427   3.641   5.394
 5168SOL     OW16402   4.484   2.068   3.074
 5168SOL    HW116403   4.386   2.086   3.087
 5168SOL    HW216404   4.496   1.996   3.006
 5169SOL     OW16405   4.021   5.744   4.540
 5169SOL    HW116406   4.021   5.795   4.454
 5169SOL    HW216407   4.091   5.782   4.600
 5170SOL     OW16408   1.798   3.181   6.626
 5170SOL    HW116409   1.897   3.197   6.625
 5170SOL    HW216410   1.765   3.179   6.721
 5171SOL     OW16411   2.238   5.907   6.064
 5171SOL    HW116412   2.187   5.900   5.978
 5171SOL    HW216413   2.324   5.856   6.057
 5172SOL     OW16414   5.961   5.580   5.061
 5172SOL    HW116415   5.883   5.605   5.120
 5172SOL    HW216416   6.043   5.569   5.117
 5173SOL     OW16417   4.207   4.787   5.866
 5173SOL    HW116418   4.302   4.789   5.896
 5173SOL    HW216419   4.186   4.870   5.815
 5174SOL     OW16420   2.317   6.351   4.119
 5174SOL    HW116421   2.231   6.305   4.141
 5174SOL    HW216422   2.319   6.441   4.163
 5175SOL     OW16423   2.856   3.150   6.982
 5175SOL    HW116424   2.831   3.246   6.975
 5175SOL    HW216425   2.893   3.132   0.044
 5176SOL     OW16426   5.984   6.170   6.729
 5176SOL    HW116427   6.073   6.162   6.773
 5176SOL    HW216428   5.974   6.261   6.689
 5177SOL     OW16429   6.343   6.949   0.457
 5177SOL    HW116430   6.301   6.900   0.532
 5177SOL    HW216431   6.299   6.923   0.371
 5178SOL     OW16432   1.073   4.138   1.493
 5178SOL    HW116433   1.119   4.130   1.581
 5178SOL    HW216434   0.975   4.152   1.508
 5179SOL     OW16435   4.863   5.902   3.006
 5179SOL    HW116436   4.829   5.832   2.944
 5179SOL    HW216437   4.812   5.899   3.092
 5180SOL     OW16438   2.119   5.907   2.858
 5180SOL    HW116439   2.165   5.872   2.940
 5180SOL    HW216440   2.071   5.831   2.813
 5181SOL     OW16441   6.845   0.013   6.206
 5181SOL    HW116442   6.863   0.105   6.170
 5181SOL    HW216443   6.759   0.014   6.258
 5182SOL     OW16444   2.646   6.501   3.352
 5182SOL    HW116445   2.722   6.437   3.356
 5182SOL    HW216446   2.564   6.457   3.389
 5183SOL     OW16447   4.349   2.061   3.938
 5183SOL    HW116448   4.324   1.990   4.004
 5183SOL    HW216449   4.335   2.027   3.846
 5184SOL     OW16450   2.660   1.459   3.507
 5184SOL    HW116451   2.598   1.385   3.535
 5184SOL    HW216452   2.694   1.440   3.415
 5185SOL     OW16453   6.532   0.799   1.816
 5185SOL    HW116454   6.608   0.734   1.810
 5185SOL    HW216455   6.512   0.835   1.725
 5186SOL     OW16456   6.817   3.774   6.618
 5186SOL    HW116457   6.844   3.687   6.578
 5186SOL    HW216458   6.834   3.848   6.553
 5187SOL     OW16459   1.321   4.436   5.212
 5187SOL    HW116460   1.236   4.434   5.263
 5187SOL    HW216461   1.388   4.494   5.259
 5188SOL     OW16462   5.753   6.907   2.565
 5188SOL    HW116463   5.791   6.822   2.528
 5188SOL    HW216464   5.669   6.888   2.615
 5189SOL     OW16465   5.303   0.210   6.179
 5189SOL    HW116466   5.273   0.120   6.211
 5189SOL    HW216467   5.387   0.236   6.228
 5190SOL     OW16468   1.911   4.545   0.299
 5190SOL    HW116469   2.010   4.538   0.288
 5190SOL    HW216470   1.889   4.553   0.397
 5191SOL     OW16471   2.737   4.656   1.375
 5191SOL    HW116472   2.826   4.665   1.421
 5191SOL    HW216473   2.718   4.739   1.322
 5192SOL     OW16474   1.670   4.853   2.379
 5192SOL    HW116475   1.632   4.814   2.295
 5192SOL    HW216476   1.702   4.946   2.360
 5193SOL     OW16477   5.755   0.726   5.243
 5193SOL    HW116478   5.821   0.745   5.170
 5193SOL    HW216479   5.754   0.802   5.308
 5194SOL     OW16480   4.999   1.194   5.803
 5194SOL    HW116481   5.025   1.225   5.712
 5194SOL    HW216482   4.991   1.094   5.803
 5195SOL     OW16483   0.735   0.699   4.966
 5195SOL    HW116484   0.693   0.769   4.908
 5195SOL    HW216485   0.802   0.742   5.027
 5196SOL     OW16486   6.257   6.592   3.548
 5196SOL    HW116487   6.303   6.561   3.631
 5196SOL    HW216488   6.181   6.530   3.527
 5197SOL     OW16489   1.018   2.980   4.740
 5197SOL    HW116490   1.026   2.963   4.838
 5197SOL    HW216491   0.934   3.030   4.721
 5198SOL     OW16492   5.712   5.121   3.538
 5198SOL    HW116493   5.773   5.084   3.608
 5198SOL    HW216494   5.743   5.212   3.510
 5199SOL     OW16495   0.508   4.560   1.780
 5199SOL    HW116496   0.493   4.657   1.760
 5199SOL    HW216497   0.425   4.522   1.821
 5200SOL     OW16498   0.236   3.688   4.695
 5200SOL    HW116499   0.283   3.624   4.634
 5200SOL    HW216500   0.231   3.648   4.787
 5201SOL     OW16501   0.662   5.289   4.213
 5201SOL    HW116502   0.682   5.352   4.289
 5201SOL    HW216503   0.683   5.334   4.126
 5202SOL     OW16504   0.931   4.761   1.835
 5202SOL    HW116505   1.008   4.779   1.897
 5202SOL    HW216506   0.857   4.718   1.886
 5203SOL     OW16507   0.534   3.068   0.146
 5203SOL    HW116508   0.625   3.056   0.185
 5203SOL    HW216509   0.466   3.032   0.210
 5204SOL     OW16510   4.739   4.044   0.036
 5204SOL    HW116511   4.825   4.065   7.019
 5204SOL    HW216512   4.672   4.013   6.998
 5205SOL     OW16513   1.574   0.047   1.185
 5205SOL    HW116514   1.500   7.010   1.200
 5205SOL    HW216515   1.603   0.045   1.090
 5206SOL     OW16516   0.239   4.247   4.634
 5206SOL    HW116517   0.279   4.158   4.658
 5206SOL    HW216518   0.303   4.298   4.578
 5207SOL     OW16519   1.786   4.563   4.179
 5207SOL    HW116520   1.779   4.514   4.266
 5207SOL    HW216521   1.707   4.542   4.122
 5208SOL     OW16522   4.382   1.332   0.182
 5208SOL    HW116523   4.353   1.427   0.193
 5208SOL    HW216524   4.382   1.308   0.085
 5209SOL     OW16525   5.617   5.977   2.984
 5209SOL    HW116526   5.524   5.958   2.953
 5209SOL    HW216527   5.651   6.059   2.937
 5210SOL     OW16528   4.267   4.772   3.314
 5210SOL    HW116529   4.326   4.719   3.375
 5210SOL    HW216530   4.262   4.726   3.225
 5211SOL     OW16531   3.796   3.639   2.480
 5211SOL    HW116532   3.699   3.637   2.506
 5211SOL    HW216533   3.825   3.734   2.467
 5212SOL     OW16534   0.871   1.636   0.294
 5212SOL    HW116535   0.832   1.544   0.289
 5212SOL    HW216536   0.946   1.645   0.228
 5213SOL     OW16537   4.109   2.323   6.891
 5213SOL    HW116538   4.151   2.366   6.811
 5213SOL    HW216539   4.118   2.224   6.884
 5214SOL     OW16540   5.529   1.824   6.632
 5214SOL    HW116541   5.594   1.756   6.665
 5214SOL    HW216542   5.443   1.779   6.607
 5215SOL     OW16543   5.498   5.303   2.408
 5215SOL    HW116544   5.596   5.322   2.407
 5215SOL    HW216545   5.449   5.379   2.452
 5216SOL     OW16546   4.628   5.537   0.941
 5216SOL    HW116547   4.643   5.451   0.991
 5216SOL    HW216548   4.562   5.593   0.991
 5217SOL     OW16549   3.159   4.890   3.715
 5217SOL    HW116550   3.140   4.931   3.626
 5217SOL    HW216551   3.084   4.827   3.739
 5218SOL     OW16552   1.780   6.949   4.455
 5218SOL    HW116553   1.829   6.911   4.377
 5218SOL    HW216554   1.845   6.973   4.527
 5219SOL     OW16555   2.531   5.620   0.484
 5219SOL    HW116556   2.521   5.544   0.420
 5219SOL    HW216557   2.462   5.690   0.463
 5220SOL     OW16558   0.496   6.672   2.780
 5220SOL    HW116559   0.447   6.616   2.847
 5220SOL    HW216560   0.440   6.751   2.756
 5221SOL     OW16561   5.151   1.666   4.977
 5221SOL    HW116562   5.186   1.675   4.884
 5221SOL    HW216563   5.061   1.709   4.983
 5222SOL     OW16564   1.295   0.113   2.418
 5222SOL    HW116565   1.357   0.158   2.354
 5222SOL    HW216566   1.348   0.073   2.493
 5223SOL     OW16567   5.148   0.035   1.274
 5223SOL    HW116568   5.148   0.124   1.320
 5223SOL    HW216569   5.138   6.991   1.341
 5224SOL     OW16570   5.845   1.807   2.905
 5224SOL    HW116571   5.923   1.772   2.853
 5224SOL    HW216572   5.879   1.850   2.989
 5225SOL     OW16573   5.355   6.061   5.277
 5225SOL    HW116574   5.264   6.102   5.268
 5225SOL    HW216575   5.384   6.066   5.373
 5226SOL     OW16576   1.359   6.217   4.150
 5226SOL    HW116577   1.284   6.272   4.186
 5226SOL    HW216578   1.393   6.257   4.065
 5227SOL     OW16579   6.037   4.581   3.011
 5227SOL    HW116580   6.080   4.671   3.025
 5227SOL    HW216581   6.108   4.512   3.000
 5228SOL     OW16582   5.771   0.785   1.014
 5228SOL    HW116583   5.831   0.776   1.094
 5228SOL    HW216584   5.825   0.807   0.933
 5229SOL     OW16585   0.995   4.482   4.960
 5229SOL    HW116586   0.938   4.403   4.940
 5229SOL    HW216587   1.092   4.457   4.950
 5230SOL     OW16588   1.329   5.975   6.990
 5230SOL    HW116589   1.368   5.998   0.051
 5230SOL    HW216590   1.294   6.059   6.947
 5231SOL     OW16591   3.650   3.239   4.035
 5231SOL    HW116592   3.722   3.175   4.062
 5231SOL    HW216593   3.659   3.323   4.088
 5232SOL     OW16594   4.580   2.902   6.011
 5232SOL    HW116595   4.611   2.842   6.085
 5232SOL    HW216596   4.597   2.997   6.037
 5233SOL     OW16597   0.567   0.399   2.660
 5233SOL    HW116598   0.630   0.323   2.647
 5233SOL    HW216599   0.579   0.466   2.587
 5234SOL     OW16600   3.791   6.289   1.208
 5234SOL    HW116601   3.867   6.259   1.150
 5234SOL    HW216602   3.791   6.237   1.293
 5235SOL     OW16603   0.831   3.555   1.344
 5235SOL    HW116604   0.825   3.509   1.256
 5235SOL    HW216605   0.807   3.491   1.417
 5236SOL     OW16606   5.088   3.006   0.760
 5236SOL    HW116607   5.143   2.947   0.819
 5236SOL    HW216608   5.001   2.961   0.741
 5237SOL     OW16609   2.576   1.779   4.515
 5237SOL    HW116610   2.488   1.821   4.496
 5237SOL    HW216611   2.622   1.828   4.589
 5238SOL     OW16612   1.793   4.458   1.334
 5238SOL    HW116613   1.717   4.461   1.268
 5238SOL    HW216614   1.769   4.396   1.408
 5239SOL     OW16615   2.928   3.574   4.941
 5239SOL    HW116616   3.002   3.547   4.879
 5239SOL    HW216617   2.908   3.498   5.003
 5240SOL     OW16618   3.302   2.083   5.197
 5240SOL    HW116619   3.243   2.159   5.168
 5240SOL    HW216620   3.265   1.997   5.162
 5241SOL     OW16621   2.088   5.537   6.144
 5241SOL    HW116622   2.187   5.546   6.152
 5241SOL    HW216623   2.059   5.448   6.178
 5242SOL     OW16624   5.293   1.211   5.879
 5242SOL    HW116625   5.352   1.218   5.959
 5242SOL    HW216626   5.234   1.291   5.873
 5243SOL     OW16627   1.211   4.501   0.987
 5243SOL    HW116628   1.180   4.409   1.013
 5243SOL    HW216629   1.163   4.532   0.906
 5244SOL     OW16630   5.480   3.765   6.693
 5244SOL    HW116631   5.531   3.791   6.775
 5244SOL    HW216632   5.388   3.804   6.697
 5245SOL     OW16633   5.238   3.914   6.736
 5245SOL    HW116634   5.312   3.960   6.786
 5245SOL    HW216635   5.188   3.982   6.682
 5246SOL     OW16636   1.056   3.184   2.707
 5246SOL    HW116637   1.019   3.253   2.770
 5246SOL    HW216638   1.155   3.179   2.717
 5247SOL     OW16639   0.593   5.086   1.436
 5247SOL    HW116640   0.563   5.181   1.431
 5247SOL    HW216641   0.660   5.068   1.364
 5248SOL     OW16642   4.536   0.949   6.581
 5248SOL    HW116643   4.533   0.857   6.542
 5248SOL    HW216644   4.446   0.974   6.617
 5249SOL     OW16645   1.281   5.632   5.563
 5249SOL    HW116646   1.314   5.631   5.469
 5249SOL    HW216647   1.288   5.540   5.602
 5250SOL     OW16648   0.507   1.119   5.924
 5250SOL    HW116649   0.493   1.199   5.983
 5250SOL    HW216650   0.604   1.113   5.899
 5251SOL     OW16651   6.953   3.052   1.222
 5251SOL    HW116652   6.931   3.099   1.307
 5251SOL    HW216653   0.019   3.071   1.197
 5252SOL     OW16654   4.079   5.968   0.323
 5252SOL    HW116655   4.122   5.920   0.247
 5252SOL    HW216656   4.146   6.026   0.368
 5253SOL     OW16657   5.629   2.996   3.698
 5253SOL    HW116658   5.723   3.013   3.727
 5253SOL    HW216659   5.578   3.081   3.698
 5254SOL     OW16660   4.446   1.215   3.726
 5254SOL    HW116661   4.391   1.158   3.665
 5254SOL    HW216662   4.543   1.196   3.712
 5255SOL     OW16663   3.306   6.740   4.669
 5255SOL    HW116664   3.341   6.766   4.580
 5255SOL    HW216665   3.342   6.802   4.739
 5256SOL     OW16666   5.881   6.407   3.671
 5256SOL    HW116667   5.904   6.392   3.575
 5256SOL    HW216668   5.880   6.506   3.690
 5257SOL     OW16669   3.356   1.360   1.442
 5257SOL    HW116670   3.332   1.361   1.539
 5257SOL    HW216671   3.333   1.271   1.403
 5258SOL     OW16672   6.335   2.452   1.948
 5258SOL    HW116673   6.319   2.509   2.028
 5258SOL    HW216674   6.321   2.506   1.865
 5259SOL     OW16675   4.979   4.815   2.685
 5259SOL    HW116676   4.936   4.800   2.774
 5259SOL    HW216677   4.909   4.813   2.614
 5260SOL     OW16678   5.256   3.227   1.342
 5260SOL    HW116679   5.240   3.325   1.346
 5260SOL    HW216680   5.168   3.179   1.340
 5261SOL     OW16681   1.819   2.268   4.662
 5261SOL    HW116682   1.892   2.201   4.678
 5261SOL    HW216683   1.823   2.338   4.733
 5262SOL     OW16684   2.737   6.952   2.167
 5262SOL    HW116685   2.815   7.012   2.148
 5262SOL    HW216686   2.765   6.880   2.230
 5263SOL     OW16687   1.037   6.326   0.602
 5263SOL    HW116688   1.017   6.389   0.677
 5263SOL    HW216689   0.967   6.337   0.531
 5264SOL     OW16690   0.534   2.692   0.615
 5264SOL    HW116691   0.457   2.643   0.575
 5264SOL    HW216692   0.612   2.629   0.624
 5265SOL     OW16693   4.897   4.995   2.064
 5265SOL    HW116694   4.887   4.896   2.063
 5265SOL    HW216695   4.818   5.037   2.019
 5266SOL     OW16696   1.998   6.768   0.926
 5266SOL    HW116697   1.909   6.725   0.910
 5266SOL    HW216698   2.071   6.705   0.901
 5267SOL     OW16699   5.275   4.647   4.598
 5267SOL    HW116700   5.203   4.696   4.549
 5267SOL    HW216701   5.339   4.607   4.533
 5268SOL     OW16702   6.194   4.646   4.166
 5268SOL    HW116703   6.286   4.641   4.205
 5268SOL    HW216704   6.132   4.689   4.233
 5269SOL     OW16705   1.494   5.507   4.451
 5269SOL    HW116706   1.571   5.445   4.436
 5269SOL    HW216707   1.412   5.468   4.408
 5270SOL     OW16708   6.383   3.030   2.475
 5270SOL    HW116709   6.314   2.970   2.516
 5270SOL    HW216710   6.411   2.992   2.387
 5271SOL     OW16711   4.818   4.838   5.149
 5271SOL    HW116712   4.885   4.910   5.128
 5271SOL    HW216713   4.756   4.828   5.071
 5272SOL     OW16714   1.474   0.961   4.563
 5272SOL    HW116715   1.455   1.004   4.652
 5272SOL    HW216716   1.389   0.922   4.527
 5273SOL     OW16717   0.580   0.886   4.030
 5273SOL    HW116718   0.639   0.911   3.953
 5273SOL    HW216719   0.637   0.856   4.107
 5274SOL     OW16720   6.402   5.374   3.793
 5274SOL    HW116721   6.345   5.330   3.863
 5274SOL    HW216722   6.451   5.303   3.742
 5275SOL     OW16723   2.583   7.011   6.910
 5275SOL    HW116724   2.603   0.004   7.005
 5275SOL    HW216725   2.589   6.912   6.897
 5276SOL     OW16726   0.317   6.661   1.224
 5276SOL    HW116727   0.349   6.657   1.130
 5276SOL    HW216728   0.296   6.568   1.256
 5277SOL     OW16729   0.924   1.899   2.648
 5277SOL    HW116730   0.924   1.804   2.618
 5277SOL    HW216731   0.830   1.931   2.659
 5278SOL     OW16732   1.298   5.014   5.978
 5278SOL    HW116733   1.392   5.030   5.949
 5278SOL    HW216734   1.288   4.919   6.009
 5279SOL     OW16735   2.204   6.072   6.496
 5279SOL    HW116736   2.177   6.166   6.476
 5279SOL    HW216737   2.137   6.008   6.457
 5280SOL     OW16738   4.010   6.331   5.034
 5280SOL    HW116739   4.099   6.370   5.057
 5280SOL    HW216740   3.985   6.262   5.102
 5281SOL     OW16741   2.752   0.663   4.789
 5281SOL    HW116742   2.722   0.630   4.699
 5281SOL    HW216743   2.704   0.747   4.811
 5282SOL     OW16744   1.414   6.919   1.567
 5282SOL    HW116745   1.370   6.978   1.635
 5282SOL    HW216746   1.488   6.969   1.523
 5283SOL     OW16747   0.809   0.975   4.660
 5283SOL    HW116748   0.788   0.920   4.580
 5283SOL    HW216749   0.810   1.071   4.635
 5284SOL     OW16750   4.125   2.534   1.296
 5284SOL    HW116751   4.144   2.628   1.324
 5284SOL    HW216752   4.195   2.473   1.333
 5285SOL     OW16753   1.533   2.057   4.128
 5285SOL    HW116754   1.479   2.053   4.044
 5285SOL    HW216755   1.624   2.018   4.112
 5286SOL     OW16756   6.099   3.797   0.840
 5286SOL    HW116757   6.064   3.789   0.747
 5286SOL    HW216758   6.159   3.876   0.847
 5287SOL     OW16759   2.749   5.514   1.545
 5287SOL    HW116760   2.820   5.466   1.596
 5287SOL    HW216761   2.776   5.522   1.449
 5288SOL     OW16762   3.965   0.690   2.102
 5288SOL    HW116763   3.995   0.667   2.010
 5288SOL    HW216764   3.998   0.781   2.127
 5289SOL     OW16765   2.242   4.719   6.629
 5289SOL    HW116766   2.324   4.684   6.583
 5289SOL    HW216767   2.205   4.796   6.578
 5290SOL     OW16768   1.549   2.753   5.108
 5290SOL    HW116769   1.509   2.666   5.080
 5290SOL    HW216770   1.635   2.737   5.155
 5291SOL     OW16771   2.765   4.736   4.407
 5291SOL    HW116772   2.763   4.834   4.426
 5291SOL    HW216773   2.763   4.721   4.308
 5292SOL     OW16774   6.967   3.887   6.120
 5292SOL    HW116775   6.878   3.907   6.081
 5292SOL    HW216776   6.968   3.912   6.217
 5293SOL     OW16777   2.309   6.148   4.416
 5293SOL    HW116778   2.348   6.236   4.386
 5293SOL    HW216779   2.331   6.078   4.348
 5294SOL     OW16780   3.709   0.766   5.283
 5294SOL    HW116781   3.624   0.773   5.335
 5294SOL    HW216782   3.785   0.751   5.346
 5295SOL     OW16783   2.508   1.653   2.400
 5295SOL    HW116784   2.527   1.735   2.453
 5295SOL    HW216785   2.522   1.672   2.303
 5296SOL     OW16786   4.785   5.005   1.467
 5296SOL    HW116787   4.848   4.933   1.497
 5296SOL    HW216788   4.752   5.055   1.547
 5297SOL     OW16789   2.686   4.937   0.582
 5297SOL    HW116790   2.690   4.911   0.679
 5297SOL    HW216791   2.777   4.924   0.541
 5298SOL     OW16792   2.311   0.500   0.525
 5298SOL    HW116793   2.289   0.466   0.434
 5298SOL    HW216794   2.405   0.475   0.548
 5299SOL     OW16795   2.987   1.824   0.521
 5299SOL    HW116796   2.992   1.724   0.523
 5299SOL    HW216797   2.972   1.858   0.614
 5300SOL     OW16798   2.186   4.388   0.255
 5300SOL    HW116799   2.237   4.319   0.305
 5300SOL    HW216800   2.200   4.376   0.156
 5301SOL     OW16801   5.495   0.433   5.590
 5301SOL    HW116802   5.474   0.530   5.593
 5301SOL    HW216803   5.424   0.382   5.639
 5302SOL     OW16804   5.678   5.954   3.253
 5302SOL    HW116805   5.620   5.903   3.317
 5302SOL    HW216806   5.630   5.964   3.165
 5303SOL     OW16807   0.396   5.033   6.034
 5303SOL    HW116808   0.438   5.124   6.038
 5303SOL    HW216809   0.429   4.978   6.111
 5304SOL     OW16810   6.694   0.535   1.300
 5304SOL    HW116811   6.753   0.610   1.271
 5304SOL    HW216812   6.609   0.573   1.339
 5305SOL     OW16813   1.662   4.962   3.040
 5305SOL    HW116814   1.599   5.034   3.067
 5305SOL    HW216815   1.755   4.998   3.039
 5306SOL     OW16816   6.971   3.765   5.696
 5306SOL    HW116817   6.879   3.772   5.734
 5306SOL    HW216818   6.998   3.668   5.690
 5307SOL     OW16819   6.010   2.174   1.757
 5307SOL    HW116820   5.914   2.159   1.733
 5307SOL    HW216821   6.040   2.264   1.724
 5308SOL     OW16822   1.506   4.341   2.894
 5308SOL    HW116823   1.454   4.274   2.946
 5308SOL    HW216824   1.470   4.433   2.912
 5309SOL     OW16825   5.834   6.319   2.708
 5309SOL    HW116826   5.780   6.296   2.627
 5309SOL    HW216827   5.842   6.418   2.716
 5310SOL     OW16828   6.034   3.175   2.774
 5310SOL    HW116829   6.031   3.117   2.692
 5310SOL    HW216830   5.942   3.203   2.798
 5311SOL     OW16831   6.093   0.319   0.626
 5311SOL    HW116832   6.137   0.364   0.548
 5311SOL    HW216833   6.074   0.223   0.602
 5312SOL     OW16834   6.822   6.268   0.697
 5312SOL    HW116835   6.740   6.315   0.664
 5312SOL    HW216836   6.795   6.194   0.759
 5313SOL     OW16837   0.505   5.053   5.641
 5313SOL    HW116838   0.444   5.087   5.569
 5313SOL    HW216839   0.452   5.006   5.711
 5314SOL     OW16840   6.623   1.031   1.501
 5314SOL    HW116841   6.597   0.935   1.493
 5314SOL    HW216842   6.563   1.077   1.566
 5315SOL     OW16843   4.342   1.654   3.853
 5315SOL    HW116844   4.256   1.706   3.849
 5315SOL    HW216845   4.418   1.716   3.874
 5316SOL     OW16846   0.363   2.588   5.024
 5316SOL    HW116847   0.381   2.490   5.022
 5316SOL    HW216848   0.411   2.629   5.102
 5317SOL     OW16849   6.820   1.669   6.178
 5317SOL    HW116850   6.888   1.624   6.120
 5317SOL    HW216851   6.812   1.620   6.265
 5318SOL     OW16852   6.680   2.895   6.921
 5318SOL    HW116853   6.736   2.814   6.901
 5318SOL    HW216854   6.722   2.947   6.994
 5319SOL     OW16855   4.164   6.658   1.407
 5319SOL    HW116856   4.206   6.616   1.327
 5319SOL    HW216857   4.118   6.588   1.462
 5320SOL     OW16858   3.364   5.981   1.016
 5320SOL    HW116859   3.299   6.033   1.072
 5320SOL    HW216860   3.442   5.955   1.072
 5321SOL     OW16861   1.822   3.864   4.922
 5321SOL    HW116862   1.921   3.875   4.932
 5321SOL    HW216863   1.787   3.931   4.858
 5322SOL     OW16864   5.368   6.799   1.939
 5322SOL    HW116865   5.388   6.821   2.035
 5322SOL    HW216866   5.341   6.703   1.933
 5323SOL     OW16867   4.448   1.562   5.267
 5323SOL    HW116868   4.432   1.500   5.344
 5323SOL    HW216869   4.455   1.656   5.301
 5324SOL     OW16870   2.217   1.629   0.464
 5324SOL    HW116871   2.298   1.602   0.412
 5324SOL    HW216872   2.171   1.547   0.499
 5325SOL     OW16873   2.691   1.947   4.947
 5325SOL    HW116874   2.657   1.965   5.040
 5325SOL    HW216875   2.615   1.947   4.883
 5326SOL     OW16876   6.063   6.718   2.599
 5326SOL    HW116877   6.111   6.779   2.662
 5326SOL    HW216878   6.129   6.663   2.548
 5327SOL     OW16879   5.871   2.526   5.161
 5327SOL    HW116880   5.948   2.589   5.175
 5327SOL    HW216881   5.898   2.434   5.188
 5328SOL     OW16882   4.207   4.447   6.828
 5328SOL    HW116883   4.256   4.522   6.874
 5328SOL    HW216884   4.150   4.485   6.756
 5329SOL     OW16885   1.357   6.642   6.621
 5329SOL    HW116886   1.279   6.704   6.608
 5329SOL    HW216887   1.442   6.695   6.619
 5330SOL     OW16888   2.439   3.827   0.683
 5330SOL    HW116889   2.348   3.826   0.725
 5330SOL    HW216890   2.481   3.737   0.690
 5331SOL     OW16891   6.372   0.947   6.791
 5331SOL    HW116892   6.458   0.901   6.814
 5331SOL    HW216893   6.299   0.914   6.851
 5332SOL     OW16894   1.128   4.927   2.384
 5332SOL    HW116895   1.110   4.867   2.463
 5332SOL    HW216896   1.050   4.989   2.372
 5333SOL     OW16897   0.817   6.407   3.986
 5333SOL    HW116898   0.780   6.438   4.073
 5333SOL    HW216899   0.917   6.402   3.993
 5334SOL     OW16900   2.921   0.343   4.486
 5334SOL    HW116901   2.899   0.436   4.455
 5334SOL    HW216902   2.981   0.349   4.566
 5335SOL     OW16903   6.806   5.661   0.837
 5335SOL    HW116904   6.710   5.682   0.854
 5335SOL    HW216905   6.815   5.564   0.814
 5336SOL     OW16906   1.683   4.026   2.575
 5336SOL    HW116907   1.607   4.064   2.521
 5336SOL    HW216908   1.705   3.934   2.542
 5337SOL     OW16909   4.356   4.408   0.952
 5337SOL    HW116910   4.386   4.468   1.026
 5337SOL    HW216911   4.431   4.396   0.886
 5338SOL     OW16912   6.430   2.146   6.493
 5338SOL    HW116913   6.504   2.186   6.439
 5338SOL    HW216914   6.363   2.105   6.432
 5339SOL     OW16915   6.356   2.223   3.604
 5339SOL    HW116916   6.438   2.173   3.632
 5339SOL    HW216917   6.326   2.281   3.680
 5340SOL     OW16918   5.416   2.571   6.797
 5340SOL    HW116919   5.361   2.619   6.728
 5340SOL    HW216920   5.369   2.487   6.824
 5341SOL     OW16921   5.065   0.466   6.890
 5341SOL    HW116922   5.084   0.451   6.987
 5341SOL    HW216923   5.053   0.378   6.844
 5342SOL     OW16924   3.986   1.186   5.837
 5342SOL    HW116925   3.993   1.202   5.739
 5342SOL    HW216926   3.908   1.126   5.856
 5343SOL     OW16927   4.062   3.871   2.332
 5343SOL    HW116928   4.083   3.950   2.275
 5343SOL    HW216929   3.987   3.893   2.394
 5344SOL     OW16930   1.895   2.481   2.967
 5344SOL    HW116931   1.836   2.401   2.957
 5344SOL    HW216932   1.975   2.456   3.022
 5345SOL     OW16933   4.399   6.963   1.300
 5345SOL    HW116934   4.351   7.012   1.227
 5345SOL    HW216935   4.333   6.933   1.369
 5346SOL     OW16936   3.295   6.534   3.239
 5346SOL    HW116937   3.268   6.568   3.329
 5346SOL    HW216938   3.216   6.538   3.177
 5347SOL     OW16939   6.927   1.897   1.020
 5347SOL    HW116940   6.944   1.995   1.008
 5347SOL    HW216941   6.850   1.884   1.081
 5348SOL     OW16942   1.030   0.842   6.885
 5348SOL    HW116943   1.054   0.876   6.976
 5348SOL    HW216944   1.073   0.754   6.869
 5349SOL     OW16945   6.762   0.793   1.237
 5349SOL    HW116946   6.856   0.790   1.203
 5349SOL    HW216947   6.714   0.871   1.198
 5350SOL     OW16948   2.444   1.536   6.603
 5350SOL    HW116949   2.359   1.578   6.633
 5350SOL    HW216950   2.520   1.571   6.656
 5351SOL     OW16951   4.501   6.894   1.645
 5351SOL    HW116952   4.473   6.990   1.630
 5351SOL    HW216953   4.600   6.886   1.633
 5352SOL     OW16954   3.300   5.686   3.714
 5352SOL    HW116955   3.269   5.724   3.626
 5352SOL    HW216956   3.299   5.586   3.709
 5353SOL     OW16957   5.672   5.620   5.495
 5353SOL    HW116958   5.589   5.674   5.486
 5353SOL    HW216959   5.651   5.532   5.537
 5354SOL     OW16960   1.106   3.845   1.489
 5354SOL    HW116961   1.131   3.924   1.433
 5354SOL    HW216962   1.018   3.861   1.533
 5355SOL     OW16963   4.437   1.991   4.282
 5355SOL    HW116964   4.505   2.040   4.228
 5355SOL    HW216965   4.431   2.032   4.373
 5356SOL     OW16966   6.366   3.827   1.440
 5356SOL    HW116967   6.441   3.819   1.374
 5356SOL    HW216968   6.365   3.747   1.500
 5357SOL     OW16969   4.125   0.089   0.161
 5357SOL    HW116970   4.070   0.006   0.158
 5357SOL    HW216971   4.065   0.168   0.176
 5358SOL     OW16972   4.937   3.199   0.524
 5358SOL    HW116973   4.934   3.288   0.571
 5358SOL    HW216974   4.987   3.134   0.580
 5359SOL     OW16975   1.892   1.339   0.133
 5359SOL    HW116976   1.956   1.415   0.125
 5359SOL    HW216977   1.864   1.308   0.042
 5360SOL     OW16978   3.656   6.655   6.329
 5360SOL    HW116979   3.701   6.697   6.407
 5360SOL    HW216980   3.723   6.610   6.271
 5361SOL     OW16981   1.864   0.824   5.687
 5361SOL    HW116982   1.801   0.859   5.618
 5361SOL    HW216983   1.919   0.750   5.648
 5362SOL     OW16984   5.115   5.156   2.913
 5362SOL    HW116985   5.102   5.061   2.886
 5362SOL    HW216986   5.073   5.217   2.845
 5363SOL     OW16987   0.695   4.981   6.374
 5363SOL    HW116988   0.772   5.026   6.420
 5363SOL    HW216989   0.689   4.886   6.404
 5364SOL     OW16990   0.014   6.645   0.645
 5364SOL    HW116991   0.076   6.720   0.620
 5364SOL    HW216992   0.049   6.559   0.607
 5365SOL     OW16993   4.604   1.943   5.564
 5365SOL    HW116994   4.613   1.983   5.655
 5365SOL    HW216995   4.673   1.870   5.553
 5366SOL     OW16996   4.147   3.409   0.827
 5366SOL    HW116997   4.239   3.395   0.864
 5366SOL    HW216998   4.080   3.363   0.885
 5367SOL     OW16999   0.421   4.824   1.769
 5367SOL    HW117000   0.431   4.864   1.678
 5367SOL    HW217001   0.324   4.807   1.787
 5368SOL     OW17002   5.967   2.151   3.436
 5368SOL    HW117003   6.050   2.206   3.424
 5368SOL    HW217004   5.920   2.179   3.519
 5369SOL     OW17005   1.952   4.488   2.980
 5369SOL    HW117006   2.023   4.505   2.911
 5369SOL    HW217007   1.951   4.390   3.002
 5370SOL     OW17008   3.563   2.578   1.218
 5370SOL    HW117009   3.636   2.592   1.151
 5370SOL    HW217010   3.474   2.590   1.174
 5371SOL     OW17011   1.198   4.214   5.074
 5371SOL    HW117012   1.248   4.301   5.077
 5371SOL    HW217013   1.192   4.181   4.980
 5372SOL     OW17014   2.639   5.192   2.633
 5372SOL    HW117015   2.620   5.290   2.634
 5372SOL    HW217016   2.660   5.161   2.726
 5373SOL     OW17017   3.648   4.978   3.866
 5373SOL    HW117018   3.557   4.942   3.884
 5373SOL    HW217019   3.679   5.032   3.944
 5374SOL     OW17020   2.349   2.233   6.854
 5374SOL    HW117021   2.260   2.274   6.834
 5374SOL    HW217022   2.420   2.302   6.841
 5375SOL     OW17023   1.414   4.262   4.478
 5375SOL    HW117024   1.487   4.255   4.409
 5375SOL    HW217025   1.361   4.345   4.462
 5376SOL     OW17026   1.594   3.678   1.440
 5376SOL    HW117027   1.569   3.596   1.389
 5376SOL    HW217028   1.664   3.728   1.389
 5377SOL     OW17029   0.551   0.689   1.485
 5377SOL    HW117030   0.650   0.681   1.474
 5377SOL    HW217031   0.511   0.598   1.492
 5378SOL     OW17032   5.544   0.816   0.605
 5378SOL    HW117033   5.488   0.884   0.557
 5378SOL    HW217034   5.570   0.744   0.541
 5379SOL     OW17035   0.372   5.946   2.193
 5379SOL    HW117036   0.320   5.885   2.254
 5379SOL    HW217037   0.448   5.987   2.243
 5380SOL     OW17038   3.204   0.532   3.289
 5380SOL    HW117039   3.274   0.472   3.250
 5380SOL    HW217040   3.245   0.590   3.359
 5381SOL     OW17041   5.862   4.110   1.383
 5381SOL    HW117042   5.799   4.063   1.444
 5381SOL    HW217043   5.941   4.051   1.365
 5382SOL     OW17044   2.792   0.840   1.276
 5382SOL    HW117045   2.795   0.831   1.375
 5382SOL    HW217046   2.882   0.870   1.243
 5383SOL     OW17047   2.447   1.933   4.819
 5383SOL    HW117048   2.421   1.856   4.761
 5383SOL    HW217049   2.366   1.987   4.842
 5384SOL     OW17050   6.159   6.791   4.185
 5384SOL    HW117051   6.219   6.853   4.236
 5384SOL    HW217052   6.106   6.843   4.118
 5385SOL     OW17053   3.509   3.923   2.350
 5385SOL    HW117054   3.517   4.019   2.322
 5385SOL    HW217055   3.537   3.914   2.446
 5386SOL     OW17056   5.501   6.325   4.456
 5386SOL    HW117057   5.537   6.417   4.441
 5386SOL    HW217058   5.485   6.311   4.554
 5387SOL     OW17059   2.927   5.172   1.916
 5387SOL    HW117060   3.012   5.122   1.906
 5387SOL    HW217061   2.852   5.108   1.930
 5388SOL     OW17062   5.535   6.464   2.804
 5388SOL    HW117063   5.576   6.376   2.828
 5388SOL    HW217064   5.531   6.523   2.885
 5389SOL     OW17065   4.655   1.794   1.070
 5389SOL    HW117066   4.668   1.873   1.130
 5389SOL    HW217067   4.735   1.734   1.076
 5390SOL     OW17068   6.214   4.949   5.740
 5390SOL    HW117069   6.133   4.891   5.752
 5390SOL    HW217070   6.193   5.042   5.771
 5391SOL     OW17071   2.507   2.728   0.665
 5391SOL    HW117072   2.525   2.760   0.571
 5391SOL    HW217073   2.583   2.756   0.724
 5392SOL     OW17074   6.086   3.728   2.287
 5392SOL    HW117075   5.992   3.696   2.274
 5392SOL    HW217076   6.124   3.686   2.369
 5393SOL     OW17077   6.963   6.676   6.966
 5393SOL    HW117078   6.896   6.751   6.964
 5393SOL    HW217079   6.970   6.642   0.031
 5394SOL     OW17080   1.144   3.772   5.967
 5394SOL    HW117081   1.095   3.685   5.959
 5394SOL    HW217082   1.120   3.831   5.890
 5395SOL     OW17083   3.605   0.943   0.406
 5395SOL    HW117084   3.695   0.985   0.415
 5395SOL    HW217085   3.591   0.878   0.481
 5396SOL     OW17086   5.495   3.592   2.354
 5396SOL    HW117087   5.478   3.508   2.405
 5396SOL    HW217088   5.443   3.591   2.269
 5397SOL     OW17089   0.098   3.871   1.634
 5397SOL    HW117090   0.097   3.778   1.671
 5397SOL    HW217091   0.144   3.871   1.546
 5398SOL     OW17092   3.020   2.701   1.768
 5398SOL    HW117093   3.106   2.674   1.725
 5398SOL    HW217094   2.980   2.623   1.816
 5399SOL     OW17095   1.781   6.083   1.646
 5399SOL    HW117096   1.737   6.019   1.709
 5399SOL    HW217097   1.747   6.066   1.553
 5400SOL     OW17098   3.162   4.613   0.411
 5400SOL    HW117099   3.108   4.561   0.344
 5400SOL    HW217100   3.109   4.625   0.495
 5401SOL     OW17101   6.079   3.062   2.265
 5401SOL    HW117102   6.132   3.144   2.287
 5401SOL    HW217103   6.025   3.035   2.345
 5402SOL     OW17104   1.371   6.191   1.995
 5402SOL    HW117105   1.471   6.194   2.006
 5402SOL    HW217106   1.342   6.266   1.936
 5403SOL     OW17107   0.019   3.629   6.510
 5403SOL    HW117108   0.108   3.604   6.470
 5403SOL    HW217109   6.977   3.574   6.466
 5404SOL     OW17110   1.506   2.883   3.798
 5404SOL    HW117111   1.605   2.887   3.810
 5404SOL    HW217112   1.463   2.955   3.852
 5405SOL     OW17113   6.662   5.207   5.803
 5405SOL    HW117114   6.716   5.168   5.728
 5405SOL    HW217115   6.629   5.134   5.862
 5406SOL     OW17116   1.768   0.784   6.593
 5406SOL    HW117117   1.716   0.732   6.660
 5406SOL    HW217118   1.706   0.845   6.543
 5407SOL     OW17119   3.634   3.325   0.271
 5407SOL    HW117120   3.700   3.305   0.344
 5407SOL    HW217121   3.578   3.244   0.254
 5408SOL     OW17122   2.385   0.666   6.974
 5408SOL    HW117123   2.478   0.629   6.970
 5408SOL    HW217124   2.343   0.639   0.032
 5409SOL     OW17125   3.785   0.800   2.783
 5409SOL    HW117126   3.769   0.711   2.826
 5409SOL    HW217127   3.701   0.854   2.784
 5410SOL     OW17128   2.602   1.869   1.908
 5410SOL    HW117129   2.611   1.850   2.006
 5410SOL    HW217130   2.628   1.963   1.890
 5411SOL     OW17131   0.654   5.390   5.295
 5411SOL    HW117132   0.594   5.402   5.374
 5411SOL    HW217133   0.602   5.400   5.210
 5412SOL     OW17134   5.851   2.904   0.466
 5412SOL    HW117135   5.836   2.852   0.382
 5412SOL    HW217136   5.792   2.867   0.538
 5413SOL     OW17137   2.158   1.619   1.873
 5413SOL    HW117138   2.240   1.651   1.826
 5413SOL    HW217139   2.157   1.654   1.967
 5414SOL     OW17140   3.992   1.612   5.122
 5414SOL    HW117141   3.999   1.585   5.026
 5414SOL    HW217142   3.897   1.607   5.151
 5415SOL     OW17143   6.406   5.362   2.052
 5415SOL    HW117144   6.362   5.272   2.057
 5415SOL    HW217145   6.439   5.388   2.142
 5416SOL     OW17146   4.387   5.040   4.998
 5416SOL    HW117147   4.339   5.087   4.924
 5416SOL    HW217148   4.322   4.985   5.050
 5417SOL     OW17149   3.219   0.166   4.767
 5417SOL    HW117150   3.306   0.153   4.814
 5417SOL    HW217151   3.204   0.092   4.702
 5418SOL     OW17152   3.718   0.097   2.907
 5418SOL    HW117153   3.780   0.170   2.881
 5418SOL    HW217154   3.770   0.015   2.930
 5419SOL     OW17155   3.582   5.164   6.807
 5419SOL    HW117156   3.561   5.070   6.779
 5419SOL    HW217157   3.521   5.227   6.759
 5420SOL     OW17158   1.591   1.782   2.522
 5420SOL    HW117159   1.614   1.714   2.591
 5420SOL    HW217160   1.676   1.819   2.483
 5421SOL     OW17161   1.811   3.837   2.204
 5421SOL    HW117162   1.754   3.781   2.265
 5421SOL    HW217163   1.876   3.890   2.259
 5422SOL     OW17164   2.260   3.500   0.957
 5422SOL    HW117165   2.245   3.591   0.918
 5422SOL    HW217166   2.181   3.474   1.013
 5423SOL     OW17167   6.094   2.822   6.702
 5423SOL    HW117168   6.107   2.886   6.626
 5423SOL    HW217169   6.013   2.766   6.686
 5424SOL     OW17170   4.962   3.548   4.394
 5424SOL    HW117171   4.918   3.466   4.432
 5424SOL    HW217172   5.061   3.538   4.399
 5425SOL     OW17173   5.009   0.964   5.122
 5425SOL    HW117174   5.097   1.012   5.120
 5425SOL    HW217175   4.938   1.022   5.081
 5426SOL     OW17176   6.182   6.997   4.858
 5426SOL    HW117177   6.225   6.948   4.934
 5426SOL    HW217178   6.164   0.062   4.886
 5427SOL     OW17179   4.479   6.063   6.526
 5427SOL    HW117180   4.520   6.153   6.539
 5427SOL    HW217181   4.410   6.047   6.597
 5428SOL     OW17182   1.116   0.326   0.835
 5428SOL    HW117183   1.038   0.274   0.800
 5428SOL    HW217184   1.142   0.291   0.925
 5429SOL     OW17185   0.861   2.307   6.634
 5429SOL    HW117186   0.877   2.332   6.730
 5429SOL    HW217187   0.840   2.390   6.582
 5430SOL     OW17188   1.655   2.651   6.212
 5430SOL    HW117189   1.739   2.608   6.178
 5430SOL    HW217190   1.582   2.641   6.144
 5431SOL     OW17191   4.044   6.329   5.802
 5431SOL    HW117192   3.986   6.400   5.763
 5431SOL    HW217193   4.129   6.322   5.750
 5432SOL     OW17194   4.917   6.830   0.687
 5432SOL    HW117195   4.844   6.812   0.753
 5432SOL    HW217196   4.996   6.773   0.709
 5433SOL     OW17197   0.290   1.715   4.840
 5433SOL    HW117198   0.220   1.763   4.788
 5433SOL    HW217199   0.380   1.754   4.819
 5434SOL     OW17200   2.591   0.276   6.049
 5434SOL    HW117201   2.610   0.370   6.077
 5434SOL    HW217202   2.596   0.216   6.129
 5435SOL     OW17203   4.424   0.368   1.917
 5435SOL    HW117204   4.438   0.303   1.992
 5435SOL    HW217205   4.331   0.357   1.881
 5436SOL     OW17206   4.737   4.299   2.705
 5436SOL    HW117207   4.678   4.267   2.630
 5436SOL    HW217208   4.765   4.393   2.688
 5437SOL     OW17209   2.889   3.872   0.049
 5437SOL    HW117210   2.803   3.842   0.089
 5437SOL    HW217211   2.870   3.920   6.992
 5438SOL     OW17212   5.847   2.073   1.510
 5438SOL    HW117213   5.833   2.125   1.425
 5438SOL    HW217214   5.766   2.083   1.568
 5439SOL     OW17215   0.872   2.769   1.249
 5439SOL    HW117216   0.970   2.770   1.230
 5439SOL    HW217217   0.851   2.701   1.319
 5440SOL     OW17218   0.703   2.078   1.160
 5440SOL    HW117219   0.604   2.058   1.159
 5440SOL    HW217220   0.724   2.136   1.239
 5441SOL     OW17221   3.242   1.861   3.455
 5441SOL    HW117222   3.287   1.950   3.457
 5441SOL    HW217223   3.146   1.871   3.480
 5442SOL     OW17224   3.706   0.650   2.161
 5442SOL    HW117225   3.801   0.681   2.162
 5442SOL    HW217226   3.667   0.664   2.070
 5443SOL     OW17227   3.030   6.863   5.733
 5443SOL    HW117228   3.057   6.829   5.823
 5443SOL    HW217229   2.931   6.853   5.722
 5444SOL     OW17230   0.042   6.875   3.830
 5444SOL    HW117231   0.076   6.886   3.923
 5444SOL    HW217232   0.006   6.962   3.797
 5445SOL     OW17233   5.599   3.847   2.390
 5445SOL    HW117234   5.558   3.758   2.371
 5445SOL    HW217235   5.578   3.911   2.316
 5446SOL     OW17236   5.905   5.444   5.685
 5446SOL    HW117237   5.966   5.411   5.613
 5446SOL    HW217238   5.815   5.402   5.675
 5447SOL     OW17239   4.040   2.507   0.051
 5447SOL    HW117240   4.046   2.466   6.989
 5447SOL    HW217241   4.106   2.462   0.112
 5448SOL     OW17242   5.439   2.172   5.149
 5448SOL    HW117243   5.536   2.147   5.148
 5448SOL    HW217244   5.427   2.261   5.106
 5449SOL     OW17245   0.964   3.872   6.954
 5449SOL    HW117246   0.943   3.862   0.022
 5449SOL    HW217247   0.968   3.781   6.912
 5450SOL     OW17248   1.854   0.143   1.669
 5450SOL    HW117249   1.853   0.077   1.595
 5450SOL    HW217250   1.794   0.220   1.646
 5451SOL     OW17251   0.983   5.779   3.084
 5451SOL    HW117252   0.958   5.732   3.169
 5451SOL    HW217253   0.948   5.873   3.086
 5452SOL     OW17254   2.444   4.324   6.730
 5452SOL    HW117255   2.429   4.249   6.795
 5452SOL    HW217256   2.474   4.287   6.643
 5453SOL     OW17257   5.651   4.938   0.432
 5453SOL    HW117258   5.563   4.891   0.427
 5453SOL    HW217259   5.719   4.877   0.474
 5454SOL     OW17260   6.908   4.382   6.890
 5454SOL    HW117261   6.873   4.377   6.984
 5454SOL    HW217262   6.833   4.406   6.828
 5455SOL     OW17263   6.472   3.516   1.023
 5455SOL    HW117264   6.404   3.551   0.959
 5455SOL    HW217265   6.456   3.418   1.039
 5456SOL     OW17266   3.242   0.097   6.768
 5456SOL    HW117267   3.172   0.027   6.753
 5456SOL    HW217268   3.255   0.149   6.684
 5457SOL     OW17269   5.954   2.808   0.776
 5457SOL    HW117270   6.023   2.784   0.844
 5457SOL    HW217271   5.941   2.907   0.776
 5458SOL     OW17272   2.180   4.444   6.527
 5458SOL    HW117273   2.142   4.458   6.618
 5458SOL    HW217274   2.270   4.487   6.521
 5459SOL     OW17275   1.547   4.598   6.587
 5459SOL    HW117276   1.614   4.561   6.522
 5459SOL    HW217277   1.475   4.531   6.603
 5460SOL     OW17278   2.895   0.162   1.247
 5460SOL    HW117279   2.812   0.167   1.303
 5460SOL    HW217280   2.891   0.232   1.176
 5461SOL     OW17281   4.469   0.139   4.955
 5461SOL    HW117282   4.532   0.091   4.895
 5461SOL    HW217283   4.379   0.145   4.912
 5462SOL     OW17284   1.419   0.236   0.752
 5462SOL    HW117285   1.324   0.240   0.721
 5462SOL    HW217286   1.458   0.328   0.753
 5463SOL     OW17287   6.463   2.593   0.678
 5463SOL    HW117288   6.538   2.652   0.707
 5463SOL    HW217289   6.404   2.642   0.614
 5464SOL     OW17290   2.219   0.424   4.563
 5464SOL    HW117291   2.277   0.451   4.487
 5464SOL    HW217292   2.248   0.473   4.646
 5465SOL     OW17293   2.866   0.433   4.896
 5465SOL    HW117294   2.843   0.525   4.864
 5465SOL    HW217295   2.791   0.371   4.877
 5466SOL     OW17296   4.742   4.227   4.379
 5466SOL    HW117297   4.732   4.230   4.479
 5466SOL    HW217298   4.761   4.133   4.351
 5467SOL     OW17299   5.303   1.421   2.872
 5467SOL    HW117300   5.208   1.434   2.845
 5467SOL    HW217301   5.320   1.323   2.887
 5468SOL     OW17302   4.390   2.037   4.756
 5468SOL    HW117303   4.368   2.128   4.721
 5468SOL    HW217304   4.489   2.023   4.753
 5469SOL     OW17305   3.899   4.150   6.338
 5469SOL    HW117306   3.892   4.172   6.240
 5469SOL    HW217307   3.841   4.071   6.358
 5470SOL     OW17308   1.961   5.100   3.925
 5470SOL    HW117309   2.039   5.151   3.964
 5470SOL    HW217310   1.978   5.002   3.933
 5471SOL     OW17311   0.101   5.947   1.780
 5471SOL    HW117312   0.184   5.912   1.823
 5471SOL    HW217313   0.063   6.021   1.836
 5472SOL     OW17314   4.068   4.547   5.847
 5472SOL    HW117315   3.987   4.514   5.799
 5472SOL    HW217316   4.121   4.606   5.786
 5473SOL     OW17317   1.360   3.366   3.735
 5473SOL    HW117318   1.391   3.457   3.707
 5473SOL    HW217319   1.348   3.308   3.655
 5474SOL     OW17320   1.717   5.429   4.034
 5474SOL    HW117321   1.631   5.407   3.988
 5474SOL    HW217322   1.703   5.506   4.096
 5475SOL     OW17323   2.823   2.139   1.317
 5475SOL    HW117324   2.896   2.192   1.361
 5475SOL    HW217325   2.839   2.042   1.332
 5476SOL     OW17326   1.163   3.182   6.370
 5476SOL    HW117327   1.112   3.236   6.438
 5476SOL    HW217328   1.209   3.107   6.416
 5477SOL     OW17329   2.219   2.940   3.083
 5477SOL    HW117330   2.266   2.875   3.143
 5477SOL    HW217331   2.191   3.020   3.136
 5478SOL     OW17332   5.426   5.733   5.403
 5478SOL    HW117333   5.417   5.686   5.315
 5478SOL    HW217334   5.393   5.827   5.393
 5479SOL     OW17335   4.930   0.798   4.790
 5479SOL    HW117336   4.942   0.782   4.888
 5479SOL    HW217337   4.836   0.829   4.773
 5480SOL     OW17338   0.910   3.448   4.515
 5480SOL    HW117339   0.830   3.437   4.575
 5480SOL    HW217340   0.993   3.427   4.566
 5481SOL     OW17341   3.936   7.016   4.020
 5481SOL    HW117342   3.964   0.081   4.040
 5481SOL    HW217343   4.004   6.952   4.055
 5482SOL     OW17344   2.193   4.739   1.284
 5482SOL    HW117345   2.256   4.705   1.354
 5482SOL    HW217346   2.239   4.807   1.228
 5483SOL     OW17347   7.013   2.435   6.161
 5483SOL    HW117348   6.990   2.525   6.124
 5483SOL    HW217349   0.081   2.433   6.185
 5484SOL     OW17350   4.664   1.026   4.849
 5484SOL    HW117351   4.577   1.064   4.882
 5484SOL    HW217352   4.646   0.940   4.801
 5485SOL     OW17353   2.683   0.499   5.371
 5485SOL    HW117354   2.743   0.438   5.319
 5485SOL    HW217355   2.592   0.458   5.377
 5486SOL     OW17356   3.012   6.240   5.488
 5486SOL    HW117357   3.024   6.202   5.579
 5486SOL    HW217358   3.060   6.183   5.421
 5487SOL     OW17359   3.757   4.847   5.718
 5487SOL    HW117360   3.816   4.905   5.773
 5487SOL    HW217361   3.667   4.841   5.761
 5488SOL     OW17362   6.254   1.678   0.976
 5488SOL    HW117363   6.183   1.674   0.906
 5488SOL    HW217364   6.285   1.772   0.988
 5489SOL     OW17365   6.778   4.249   2.964
 5489SOL    HW117366   6.720   4.168   2.974
 5489SOL    HW217367   6.721   4.331   2.967
 5490SOL     OW17368   1.521   6.725   2.933
 5490SOL    HW117369   1.426   6.714   2.962
 5490SOL    HW217370   1.525   6.785   2.853
 5491SOL     OW17371   6.564   4.511   0.249
 5491SOL    HW117372   6.540   4.452   0.327
 5491SOL    HW217373   6.648   4.478   0.206
 5492SOL     OW17374   0.211   1.599   5.786
 5492SOL    HW117375   0.143   1.653   5.834
 5492SOL    HW217376   0.299   1.646   5.788
 5493SOL     OW17377   3.651   3.857   1.318
 5493SOL    HW117378   3.744   3.831   1.292
 5493SOL    HW217379   3.586   3.826   1.248
 5494SOL     OW17380   6.036   4.050   5.456
 5494SOL    HW117381   6.091   3.970   5.481
 5494SOL    HW217382   6.093   4.115   5.407
 5495SOL     OW17383   5.872   0.004   0.546
 5495SOL    HW117384   5.873   6.976   0.463
 5495SOL    HW217385   5.901   6.978   0.624
 5496SOL     OW17386   3.894   0.626   4.002
 5496SOL    HW117387   3.920   0.660   4.092
 5496SOL    HW217388   3.921   0.530   3.993
 5497SOL     OW17389   1.127   0.170   5.867
 5497SOL    HW117390   1.085   0.237   5.928
 5497SOL    HW217391   1.156   0.090   5.920
 5498SOL     OW17392   0.679   5.053   1.708
 5498SOL    HW117393   0.639   5.004   1.631
 5498SOL    HW217394   0.691   4.991   1.785
 5499SOL     OW17395   1.794   0.348   4.762
 5499SOL    HW117396   1.808   0.387   4.853
 5499SOL    HW217397   1.697   0.331   4.747
 5500SOL     OW17398   2.637   1.050   0.803
 5500SOL    HW117399   2.609   0.975   0.862
 5500SOL    HW217400   2.564   1.070   0.737
 5501SOL     OW17401   3.498   3.580   6.787
 5501SOL    HW117402   3.498   3.490   6.743
 5501SOL    HW217403   3.414   3.592   6.839
 5502SOL     OW17404   4.419   2.651   6.664
 5502SOL    HW117405   4.345   2.594   6.701
 5502SOL    HW217406   4.494   2.654   6.730
 5503SOL     OW17407   6.650   4.336   0.849
 5503SOL    HW117408   6.743   4.310   0.822
 5503SOL    HW217409   6.655   4.404   0.922
 5504SOL     OW17410   3.433   1.681   6.777
 5504SOL    HW117411   3.357   1.663   6.714
 5504SOL    HW217412   3.520   1.675   6.726
 5505SOL     OW17413   2.869   5.093   3.718
 5505SOL    HW117414   2.780   5.058   3.687
 5505SOL    HW217415   2.940   5.065   3.653
 5506SOL     OW17416   0.566   3.310   5.988
 5506SOL    HW117417   0.506   3.321   6.067
 5506SOL    HW217418   0.619   3.226   5.998
 5507SOL     OW17419   2.373   0.181   0.284
 5507SOL    HW117420   2.445   0.166   0.353
 5507SOL    HW217421   2.332   0.271   0.299
 5508SOL     OW17422   0.101   0.865   6.233
 5508SOL    HW117423   0.166   0.794   6.208
 5508SOL    HW217424   0.097   0.873   6.333
 5509SOL     OW17425   0.164   5.024   0.935
 5509SOL    HW117426   0.116   4.937   0.922
 5509SOL    HW217427   0.105   5.099   0.905
 5510SOL     OW17428   4.152   5.080   0.094
 5510SOL    HW117429   4.168   5.158   0.154
 5510SOL    HW217430   4.163   5.108   7.028
 5511SOL     OW17431   0.738   1.808   5.819
 5511SOL    HW117432   0.797   1.728   5.832
 5511SOL    HW217433   0.786   1.874   5.762
 5512SOL     OW17434   2.910   1.065   2.138
 5512SOL    HW117435   2.891   0.981   2.088
 5512SOL    HW217436   2.972   1.123   2.085
 5513SOL     OW17437   3.850   4.206   6.942
 5513SOL    HW117438   3.869   4.300   6.970
 5513SOL    HW217439   3.906   4.144   6.996
 5514SOL     OW17440   3.248   1.076   7.025
 5514SOL    HW117441   3.151   1.052   7.025
 5514SOL    HW217442   3.294   1.022   6.954
 5515SOL     OW17443   2.832   6.126   2.372
 5515SOL    HW117444   2.875   6.208   2.409
 5515SOL    HW217445   2.831   6.054   2.441
 5516SOL     OW17446   2.336   2.355   5.582
 5516SOL    HW117447   2.313   2.264   5.548
 5516SOL    HW217448   2.433   2.373   5.566
 5517SOL     OW17449   1.304   2.895   3.092
 5517SOL    HW117450   1.250   2.828   3.041
 5517SOL    HW217451   1.398   2.895   3.058
 5518SOL     OW17452   4.255   4.666   6.542
 5518SOL    HW117453   4.169   4.703   6.577
 5518SOL    HW217454   4.268   4.696   6.448
 5519SOL     OW17455   4.724   2.810   3.685
 5519SOL    HW117456   4.671   2.739   3.639
 5519SOL    HW217457   4.789   2.768   3.748
 5520SOL     OW17458   4.795   6.847   1.596
 5520SOL    HW117459   4.794   6.947   1.595
 5520SOL    HW217460   4.889   6.815   1.611
 5521SOL     OW17461   5.351   6.288   1.750
 5521SOL    HW117462   5.332   6.250   1.841
 5521SOL    HW217463   5.281   6.257   1.686
 5522SOL     OW17464   5.727   5.912   1.021
 5522SOL    HW117465   5.810   5.915   1.077
 5522SOL    HW217466   5.647   5.907   1.080
 5523SOL     OW17467   5.766   1.008   1.608
 5523SOL    HW117468   5.736   1.096   1.645
 5523SOL    HW217469   5.786   1.019   1.511
 5524SOL     OW17470   2.999   1.757   4.236
 5524SOL    HW117471   3.007   1.810   4.321
 5524SOL    HW217472   2.909   1.714   4.231
 5525SOL     OW17473   6.288   1.072   1.500
 5525SOL    HW117474   6.328   1.130   1.428
 5525SOL    HW217475   6.281   0.978   1.467
 5526SOL     OW17476   5.178   4.517   3.554
 5526SOL    HW117477   5.107   4.449   3.541
 5526SOL    HW217478   5.137   4.603   3.584
 5527SOL     OW17479   5.826   1.402   3.660
 5527SOL    HW117480   5.925   1.401   3.642
 5527SOL    HW217481   5.808   1.460   3.739
 5528SOL     OW17482   0.811   1.289   0.512
 5528SOL    HW117483   0.835   1.381   0.540
 5528SOL    HW217484   0.894   1.237   0.493
 5529SOL     OW17485   3.734   0.421   2.335
 5529SOL    HW117486   3.702   0.508   2.298
 5529SOL    HW217487   3.667   0.349   2.315
 5530SOL     OW17488   6.466   2.197   1.058
 5530SOL    HW117489   6.557   2.196   1.098
 5530SOL    HW217490   6.404   2.143   1.115
 5531SOL     OW17491   2.136   4.020   1.223
 5531SOL    HW117492   2.191   4.004   1.306
 5531SOL    HW217493   2.085   4.106   1.233
 5532SOL     OW17494   1.516   3.027   0.526
 5532SOL    HW117495   1.594   2.979   0.565
 5532SOL    HW217496   1.512   3.121   0.562
 5533SOL     OW17497   3.409   1.925   2.482
 5533SOL    HW117498   3.314   1.905   2.508
 5533SOL    HW217499   3.445   1.851   2.425
 5534SOL     OW17500   1.239   0.510   4.552
 5534SOL    HW117501   1.235   0.478   4.457
 5534SOL    HW217502   1.210   0.437   4.613
 5535SOL     OW17503   0.558   2.009   3.780
 5535SOL    HW117504   0.540   2.001   3.878
 5535SOL    HW217505   0.555   2.105   3.752
 5536SOL     OW17506   3.983   6.243   4.333
 5536SOL    HW117507   3.983   6.342   4.344
 5536SOL    HW217508   3.927   6.202   4.405
 5537SOL     OW17509   2.996   1.586   3.445
 5537SOL    HW117510   3.040   1.544   3.525
 5537SOL    HW217511   3.063   1.641   3.396
 5538SOL     OW17512   4.241   5.222   5.280
 5538SOL    HW117513   4.173   5.169   5.228
 5538SOL    HW217514   4.254   5.311   5.237
 5539SOL     OW17515   2.799   4.359   0.517
 5539SOL    HW117516   2.711   4.382   0.475
 5539SOL    HW217517   2.873   4.397   0.461
 5540SOL     OW17518   5.345   5.335   1.549
 5540SOL    HW117519   5.404   5.336   1.629
 5540SOL    HW217520   5.401   5.326   1.466
 5541SOL     OW17521   4.196   1.360   5.541
 5541SOL    HW117522   4.103   1.324   5.550
 5541SOL    HW217523   4.199   1.428   5.467
 5542SOL     OW17524   5.051   4.621   6.275
 5542SOL    HW117525   5.139   4.668   6.279
 5542SOL    HW217526   5.041   4.563   6.356
 5543SOL     OW17527   0.053   2.207   6.358
 5543SOL    HW117528   0.039   2.296   6.315
 5543SOL    HW217529   6.997   2.177   6.401
 5544SOL     OW17530   5.739   1.129   0.014
 5544SOL    HW117531   5.742   1.228   0.030
 5544SOL    HW217532   5.665   1.089   0.068
 5545SOL     OW17533   2.670   2.505   1.763
 5545SOL    HW117534   2.737   2.473   1.831
 5545SOL    HW217535   2.600   2.435   1.751
 5546SOL     OW17536   2.915   4.752   5.725
 5546SOL    HW117537   2.816   4.767   5.731
 5546SOL    HW217538   2.940   4.730   5.630
 5547SOL     OW17539   3.701   6.271   4.796
 5547SOL    HW117540   3.653   6.284   4.709
 5547SOL    HW217541   3.799   6.287   4.783
 5548SOL     OW17542   7.014   3.008   5.431
 5548SOL    HW117543   6.964   2.923   5.445
 5548SOL    HW217544   0.038   3.002   5.347
 5549SOL     OW17545   3.405   4.522   6.779
 5549SOL    HW117546   3.473   4.474   6.724
 5549SOL    HW217547   3.429   4.512   6.876
 5550SOL     OW17548   3.417   6.829   2.384
 5550SOL    HW117549   3.499   6.873   2.421
 5550SOL    HW217550   3.347   6.898   2.367
 5551SOL     OW17551   0.370   1.335   3.261
 5551SOL    HW117552   0.446   1.287   3.305
 5551SOL    HW217553   0.362   1.305   3.166
 5552SOL     OW17554   0.404   2.938   0.651
 5552SOL    HW117555   0.446   2.848   0.664
 5552SOL    HW217556   0.323   2.929   0.593
 5553SOL     OW17557   5.369   6.389   6.970
 5553SOL    HW117558   5.303   6.344   6.910
 5553SOL    HW217559   5.324   6.465   7.018
 5554SOL     OW17560   2.914   1.655   4.519
 5554SOL    HW117561   2.996   1.602   4.500
 5554SOL    HW217562   2.917   1.741   4.468
 5555SOL     OW17563   0.523   6.321   2.155
 5555SOL    HW117564   0.458   6.392   2.128
 5555SOL    HW217565   0.501   6.289   2.247
 5556SOL     OW17566   0.542   0.960   4.417
 5556SOL    HW117567   0.595   0.877   4.403
 5556SOL    HW217568   0.509   0.995   4.330
 5557SOL     OW17569   2.689   0.825   3.568
 5557SOL    HW117570   2.629   0.765   3.621
 5557SOL    HW217571   2.634   0.881   3.507
 5558SOL     OW17572   5.283   2.217   4.683
 5558SOL    HW117573   5.281   2.297   4.744
 5558SOL    HW217574   5.189   2.192   4.659
 5559SOL     OW17575   2.534   0.233   1.079
 5559SOL    HW117576   2.452   0.290   1.075
 5559SOL    HW217577   2.510   0.139   1.055
 5560SOL     OW17578   6.980   0.806   4.503
 5560SOL    HW117579   6.904   0.844   4.554
 5560SOL    HW217580   7.025   0.735   4.557
 5561SOL     OW17581   1.390   3.853   3.224
 5561SOL    HW117582   1.479   3.887   3.194
 5561SOL    HW217583   1.393   3.836   3.323
 5562SOL     OW17584   2.816   2.546   6.110
 5562SOL    HW117585   2.818   2.498   6.198
 5562SOL    HW217586   2.725   2.584   6.094
 5563SOL     OW17587   4.372   4.067   1.660
 5563SOL    HW117588   4.302   4.108   1.601
 5563SOL    HW217589   4.398   4.132   1.731
 5564SOL     OW17590   6.164   3.778   1.854
 5564SOL    HW117591   6.148   3.691   1.901
 5564SOL    HW217592   6.164   3.852   1.920
 5565SOL     OW17593   3.204   2.802   5.499
 5565SOL    HW117594   3.255   2.884   5.526
 5565SOL    HW217595   3.132   2.785   5.566
 5566SOL     OW17596   1.954   4.894   0.534
 5566SOL    HW117597   1.871   4.838   0.536
 5566SOL    HW217598   1.935   4.983   0.575
 5567SOL     OW17599   2.234   5.784   3.414
 5567SOL    HW117600   2.181   5.699   3.410
 5567SOL    HW217601   2.318   5.773   3.361
 5568SOL     OW17602   3.888   2.374   1.176
 5568SOL    HW117603   3.968   2.398   1.232
 5568SOL    HW217604   3.813   2.346   1.235
 5569SOL     OW17605   5.780   2.195   7.013
 5569SOL    HW117606   5.861   2.188   6.955
 5569SOL    HW217607   5.771   2.289   0.016
 5570SOL     OW17608   0.276   3.578   5.870
 5570SOL    HW117609   0.199   3.635   5.897
 5570SOL    HW217610   0.357   3.636   5.855
 5571SOL     OW17611   6.665   4.633   6.445
 5571SOL    HW117612   6.606   4.553   6.440
 5571SOL    HW217613   6.761   4.603   6.451
 5572SOL     OW17614   5.684   2.717   5.300
 5572SOL    HW117615   5.731   2.642   5.254
 5572SOL    HW217616   5.611   2.751   5.241
 5573SOL     OW17617   0.676   4.078   0.184
 5573SOL    HW117618   0.617   4.019   0.129
 5573SOL    HW217619   0.645   4.078   0.279
 5574SOL     OW17620   0.068   5.646   4.711
 5574SOL    HW117621   0.165   5.670   4.705
 5574SOL    HW217622   0.018   5.720   4.755
 5575SOL     OW17623   1.265   0.988   1.409
 5575SOL    HW117624   1.309   0.914   1.459
 5575SOL    HW217625   1.200   0.950   1.344
 5576SOL     OW17626   5.759   5.608   0.388
 5576SOL    HW117627   5.827   5.542   0.421
 5576SOL    HW217628   5.803   5.675   0.329
 5577SOL     OW17629   2.095   3.869   4.925
 5577SOL    HW117630   2.166   3.938   4.943
 5577SOL    HW217631   2.116   3.786   4.977
 5578SOL     OW17632   3.156   1.642   5.669
 5578SOL    HW117633   3.146   1.741   5.679
 5578SOL    HW217634   3.170   1.601   5.759
 5579SOL     OW17635   5.090   4.744   1.354
 5579SOL    HW117636   5.041   4.779   1.274
 5579SOL    HW217637   5.064   4.797   1.434
 5580SOL     OW17638   4.855   0.876   1.636
 5580SOL    HW117639   4.901   0.798   1.678
 5580SOL    HW217640   4.893   0.893   1.545
 5581SOL     OW17641   2.234   2.560   0.985
 5581SOL    HW117642   2.152   2.583   1.038
 5581SOL    HW217643   2.314   2.567   1.043
 5582SOL     OW17644   3.964   3.206   3.669
 5582SOL    HW117645   3.903   3.262   3.725
 5582SOL    HW217646   4.042   3.261   3.639
 5583SOL     OW17647   4.037   1.028   0.148
 5583SOL    HW117648   4.112   0.963   0.158
 5583SOL    HW217649   4.066   1.105   0.092
 5584SOL     OW17650   5.703   3.428   3.112
 5584SOL    HW117651   5.757   3.512   3.115
 5584SOL    HW217652   5.650   3.419   3.196
 5585SOL     OW17653   0.020   6.855   4.420
 5585SOL    HW117654   0.032   6.928   4.488
 5585SOL    HW217655   6.952   6.841   4.404
 5586SOL     OW17656   2.194   1.649   6.676
 5586SOL    HW117657   2.165   1.721   6.740
 5586SOL    HW217658   2.113   1.608   6.633
 5587SOL     OW17659   3.824   6.803   3.890
 5587SOL    HW117660   3.853   6.888   3.935
 5587SOL    HW217661   3.903   6.742   3.880
 5588SOL     OW17662   4.382   0.596   5.976
 5588SOL    HW117663   4.450   0.637   6.037
 5588SOL    HW217664   4.308   0.555   6.029
 5589SOL     OW17665   3.316   3.754   6.562
 5589SOL    HW117666   3.327   3.681   6.494
 5589SOL    HW217667   3.349   3.721   6.651
 5590SOL     OW17668   6.829   6.897   3.641
 5590SOL    HW117669   6.862   6.872   3.550
 5590SOL    HW217670   6.865   6.832   3.708
 5591SOL     OW17671   5.036   0.370   0.164
 5591SOL    HW117672   5.105   0.300   0.180
 5591SOL    HW217673   4.945   0.330   0.175
 5592SOL     OW17674   1.783   2.068   2.111
 5592SOL    HW117675   1.773   2.004   2.188
 5592SOL    HW217676   1.796   2.016   2.027
 5593SOL     OW17677   2.029   3.836   4.674
 5593SOL    HW117678   1.987   3.923   4.652
 5593SOL    HW217679   2.061   3.838   4.769
 5594SOL     OW17680   2.412   1.504   7.017
 5594SOL    HW117681   2.317   1.498   6.987
 5594SOL    HW217682   2.452   1.412   7.019
 5595SOL     OW17683   0.443   1.401   5.981
 5595SOL    HW117684   0.350   1.379   5.953
 5595SOL    HW217685   0.469   1.490   5.945
 5596SOL     OW17686   5.114   2.001   3.292
 5596SOL    HW117687   5.035   1.994   3.353
 5596SOL    HW217688   5.151   1.910   3.274
 5597SOL     OW17689   0.837   1.150   5.974
 5597SOL    HW117690   0.934   1.172   5.963
 5597SOL    HW217691   0.795   1.217   6.035
 5598SOL     OW17692   6.836   1.942   4.167
 5598SOL    HW117693   6.877   2.027   4.135
 5598SOL    HW217694   6.906   1.872   4.177
 5599SOL     OW17695   4.928   2.898   3.016
 5599SOL    HW117696   4.851   2.922   3.075
 5599SOL    HW217697   5.014   2.907   3.067
 5600SOL     OW17698   1.921   2.153   2.343
 5600SOL    HW117699   1.891   2.141   2.248
 5600SOL    HW217700   1.925   2.063   2.388
 5601SOL     OW17701   5.828   3.330   5.993
 5601SOL    HW117702   5.839   3.230   5.997
 5601SOL    HW217703   5.731   3.352   5.980
 5602SOL     OW17704   6.614   1.918   2.126
 5602SOL    HW117705   6.591   1.956   2.037
 5602SOL    HW217706   6.631   1.820   2.117
 5603SOL     OW17707   3.699   1.825   5.972
 5603SOL    HW117708   3.735   1.918   5.972
 5603SOL    HW217709   3.637   1.813   6.049
 5604SOL     OW17710   1.481   6.164   3.578
 5604SOL    HW117711   1.429   6.140   3.660
 5604SOL    HW217712   1.500   6.263   3.578
 5605SOL     OW17713   4.365   6.940   4.291
 5605SOL    HW117714   4.345   6.858   4.345
 5605SOL    HW217715   4.456   6.932   4.250
 5606SOL     OW17716   4.959   3.076   0.271
 5606SOL    HW117717   4.966   2.977   0.279
 5606SOL    HW217718   4.945   3.116   0.362
 5607SOL     OW17719   6.511   2.259   2.780
 5607SOL    HW117720   6.508   2.239   2.682
 5607SOL    HW217721   6.577   2.331   2.798
 5608SOL     OW17722   5.137   0.765   3.112
 5608SOL    HW117723   5.063   0.698   3.116
 5608SOL    HW217724   5.208   0.741   3.178
 5609SOL     OW17725   6.969   0.582   0.433
 5609SOL    HW117726   0.018   0.631   0.471
 5609SOL    HW217727   6.912   0.646   0.381
 5610SOL     OW17728   6.049   5.750   0.032
 5610SOL    HW117729   5.955   5.777   0.010
 5610SOL    HW217730   6.050   5.656   0.066
 5611SOL     OW17731   6.067   4.506   2.043
 5611SOL    HW117732   6.001   4.514   2.118
 5611SOL    HW217733   6.148   4.560   2.064
 5612SOL     OW17734   3.992   1.682   0.364
 5612SOL    HW117735   3.902   1.714   0.392
 5612SOL    HW217736   4.059   1.705   0.435
 5613SOL     OW17737   5.731   5.537   5.926
 5613SOL    HW117738   5.648   5.572   5.883
 5613SOL    HW217739   5.808   5.546   5.863
 5614SOL     OW17740   5.113   2.702   4.119
 5614SOL    HW117741   5.127   2.793   4.079
 5614SOL    HW217742   5.201   2.655   4.126
 5615SOL     OW17743   0.458   2.933   3.140
 5615SOL    HW117744   0.424   2.885   3.220
 5615SOL    HW217745   0.552   2.905   3.120
 5616SOL     OW17746   2.192   3.219   2.587
 5616SOL    HW117747   2.102   3.201   2.626
 5616SOL    HW217748   2.249   3.137   2.593
 5617SOL     OW17749   1.249   4.619   6.362
 5617SOL    HW117750   1.245   4.606   6.461
 5617SOL    HW217751   1.345   4.629   6.333
 5618SOL     OW17752   4.953   6.501   2.103
 5618SOL    HW117753   4.862   6.461   2.094
 5618SOL    HW217754   5.012   6.437   2.153
 5619SOL     OW17755   3.405   3.209   3.608
 5619SOL    HW117756   3.372   3.243   3.519
 5619SOL    HW217757   3.418   3.110   3.603
 5620SOL     OW17758   5.014   4.479   3.979
 5620SOL    HW117759   5.037   4.570   4.012
 5620SOL    HW217760   4.987   4.422   4.056
 5621SOL     OW17761   1.351   2.686   6.610
 5621SOL    HW117762   1.328   2.761   6.672
 5621SOL    HW217763   1.325   2.710   6.517
 5622SOL     OW17764   4.805   5.496   4.382
 5622SOL    HW117765   4.829   5.427   4.450
 5622SOL    HW217766   4.722   5.469   4.334
 5623SOL     OW17767   4.471   5.053   4.251
 5623SOL    HW117768   4.394   5.058   4.315
 5623SOL    HW217769   4.486   4.957   4.225
 5624SOL     OW17770   4.920   4.632   3.420
 5624SOL    HW117771   4.845   4.685   3.380
 5624SOL    HW217772   4.929   4.655   3.517
 5625SOL     OW17773   2.617   6.475   6.087
 5625SOL    HW117774   2.555   6.397   6.077
 5625SOL    HW217775   2.575   6.543   6.147
 5626SOL     OW17776   0.399   4.929   6.714
 5626SOL    HW117777   0.326   4.890   6.771
 5626SOL    HW217778   0.419   4.867   6.639
 5627SOL     OW17779   1.439   5.611   0.056
 5627SOL    HW117780   1.402   5.591   6.994
 5627SOL    HW217781   1.489   5.532   0.090
 5628SOL     OW17782   2.265   3.738   0.428
 5628SOL    HW117783   2.199   3.672   0.463
 5628SOL    HW217784   2.332   3.759   0.500
 5629SOL     OW17785   6.945   3.657   3.172
 5629SOL    HW117786   6.925   3.667   3.074
 5629SOL    HW217787   6.864   3.683   3.225
 5630SOL     OW17788   0.947   4.100   0.181
 5630SOL    HW117789   0.847   4.087   0.179
 5630SOL    HW217790   0.985   4.053   0.261
 5631SOL     OW17791   3.969   1.560   1.843
 5631SOL    HW117792   3.926   1.649   1.851
 5631SOL    HW217793   4.017   1.553   1.756
 5632SOL     OW17794   4.963   0.019   5.687
 5632SOL    HW117795   5.018   6.969   5.713
 5632SOL    HW217796   5.012   0.072   5.618
 5633SOL     OW17797   1.057   5.367   5.462
 5633SOL    HW117798   1.119   5.328   5.530
 5633SOL    HW217799   1.017   5.451   5.499
 5634SOL     OW17800   3.118   0.367   1.926
 5634SOL    HW117801   3.183   0.303   1.967
 5634SOL    HW217802   3.077   0.327   1.844
 5635SOL     OW17803   3.346   0.940   1.764
 5635SOL    HW117804   3.378   0.925   1.858
 5635SOL    HW217805   3.401   1.012   1.722
 5636SOL     OW17806   4.905   0.942   5.679
 5636SOL    HW117807   4.942   0.849   5.672
 5636SOL    HW217808   4.812   0.943   5.640
 5637SOL     OW17809   4.623   0.016   4.555
 5637SOL    HW117810   4.663   0.049   4.470
 5637SOL    HW217811   4.565   6.966   4.536
 5638SOL     OW17812   6.910   5.318   1.087
 5638SOL    HW117813   6.904   5.252   1.012
 5638SOL    HW217814   6.827   5.373   1.090
 5639SOL     OW17815   2.090   0.235   1.751
 5639SOL    HW117816   1.995   0.211   1.730
 5639SOL    HW217817   2.114   0.320   1.702
 5640SOL     OW17818   3.341   6.821   3.187
 5640SOL    HW117819   3.331   6.734   3.235
 5640SOL    HW217820   3.266   6.882   3.211
 5641SOL     OW17821   6.734   4.284   4.162
 5641SOL    HW117822   6.830   4.283   4.133
 5641SOL    HW217823   6.725   4.229   4.246
 5642SOL     OW17824   2.335   3.675   6.611
 5642SOL    HW117825   2.305   3.668   6.517
 5642SOL    HW217826   2.260   3.707   6.669
 5643SOL     OW17827   5.909   2.143   4.292
 5643SOL    HW117828   6.002   2.179   4.295
 5643SOL    HW217829   5.912   2.045   4.270
 5644SOL     OW17830   4.060   0.553   4.932
 5644SOL    HW117831   4.081   0.513   5.021
 5644SOL    HW217832   3.999   0.631   4.943
 5645SOL     OW17833   6.922   6.003   4.046
 5645SOL    HW117834   6.914   5.911   4.084
 5645SOL    HW217835   6.832   6.035   4.017
 5646SOL     OW17836   0.110   6.164   4.023
 5646SOL    HW117837   0.167   6.162   3.941
 5646SOL    HW217838   0.042   6.090   4.018
 5647SOL     OW17839   7.026   4.789   6.683
 5647SOL    HW117840   0.013   4.887   6.692
 5647SOL    HW217841   0.064   4.751   6.619
 5648SOL     OW17842   2.210   1.134   4.791
 5648SOL    HW117843   2.113   1.112   4.807
 5648SOL    HW217844   2.262   1.049   4.784
 5649SOL     OW17845   1.177   0.096   4.933
 5649SOL    HW117846   1.087   0.072   4.969
 5649SOL    HW217847   1.166   0.141   4.844
 5650SOL     OW17848   6.637   5.142   6.650
 5650SOL    HW117849   6.561   5.169   6.592
 5650SOL    HW217850   6.605   5.081   6.722
 5651SOL     OW17851   6.032   1.011   2.661
 5651SOL    HW117852   5.965   1.069   2.707
 5651SOL    HW217853   5.998   0.917   2.656
 5652SOL     OW17854   5.804   3.803   0.409
 5652SOL    HW117855   5.851   3.785   0.496
 5652SOL    HW217856   5.777   3.716   0.368
 5653SOL     OW17857   2.288   6.506   6.704
 5653SOL    HW117858   2.231   6.586   6.686
 5653SOL    HW217859   2.237   6.440   6.759
 5654SOL     OW17860   0.757   6.225   6.030
 5654SOL    HW117861   0.842   6.185   5.996
 5654SOL    HW217862   0.759   6.228   6.130
 5655SOL     OW17863   0.295   4.919   3.040
 5655SOL    HW117864   0.282   4.954   3.132
 5655SOL    HW217865   0.391   4.928   3.014
 5656SOL     OW17866   3.604   5.484   6.039
 5656SOL    HW117867   3.589   5.549   5.964
 5656SOL    HW217868   3.642   5.533   6.117
 5657SOL     OW17869   4.256   5.562   2.121
 5657SOL    HW117870   4.279   5.652   2.159
 5657SOL    HW217871   4.181   5.572   2.055
 5658SOL     OW17872   4.890   6.916   4.927
 5658SOL    HW117873   4.945   6.857   4.869
 5658SOL    HW217874   4.877   6.873   5.017
 5659SOL     OW17875   3.473   4.106   2.766
 5659SOL    HW117876   3.439   4.120   2.859
 5659SOL    HW217877   3.404   4.138   2.700
 5660SOL     OW17878   6.231   6.724   0.601
 5660SOL    HW117879   6.231   6.782   0.682
 5660SOL    HW217880   6.139   6.688   0.585
 5661SOL     OW17881   6.577   5.389   4.846
 5661SOL    HW117882   6.490   5.428   4.876
 5661SOL    HW217883   6.607   5.321   4.913
 5662SOL     OW17884   2.167   3.834   4.422
 5662SOL    HW117885   2.226   3.915   4.429
 5662SOL    HW217886   2.102   3.834   4.498
 5663SOL     OW17887   1.914   3.726   0.585
 5663SOL    HW117888   1.822   3.705   0.619
 5663SOL    HW217889   1.910   3.743   0.487
 5664SOL     OW17890   0.102   5.345   2.463
 5664SOL    HW117891   0.160   5.264   2.467
 5664SOL    HW217892   0.045   5.341   2.381
 5665SOL     OW17893   1.667   1.225   6.178
 5665SOL    HW117894   1.610   1.277   6.242
 5665SOL    HW217895   1.742   1.181   6.227
 5666SOL     OW17896   5.918   5.474   0.143
 5666SOL    HW117897   5.981   5.407   0.105
 5666SOL    HW217898   5.909   5.459   0.242
 5667SOL     OW17899   6.869   6.142   3.540
 5667SOL    HW117900   6.916   6.159   3.454
 5667SOL    HW217901   6.823   6.053   3.536
 5668SOL     OW17902   5.797   3.056   6.036
 5668SOL    HW117903   5.844   2.989   5.980
 5668SOL    HW217904   5.723   3.097   5.984
 5669SOL     OW17905   0.027   3.386   5.051
 5669SOL    HW117906   0.088   3.358   5.125
 5669SOL    HW217907   0.015   3.311   4.987
 5670SOL     OW17908   1.754   3.455   2.857
 5670SOL    HW117909   1.685   3.527   2.858
 5670SOL    HW217910   1.806   3.458   2.772
 5671SOL     OW17911   1.525   1.058   4.890
 5671SOL    HW117912   1.575   1.104   4.963
 5671SOL    HW217913   1.485   1.127   4.829
 5672SOL     OW17914   5.455   4.559   5.494
 5672SOL    HW117915   5.522   4.611   5.547
 5672SOL    HW217916   5.497   4.475   5.460
 5673SOL     OW17917   1.824   0.704   1.662
 5673SOL    HW117918   1.798   0.637   1.593
 5673SOL    HW217919   1.750   0.770   1.674
 5674SOL     OW17920   6.624   3.689   1.370
 5674SOL    HW117921   6.642   3.652   1.461
 5674SOL    HW217922   6.615   3.613   1.305
 5675SOL     OW17923   4.134   1.826   5.382
 5675SOL    HW117924   4.097   1.775   5.304
 5675SOL    HW217925   4.224   1.788   5.407
 5676SOL     OW17926   3.266   6.658   1.664
 5676SOL    HW117927   3.168   6.647   1.644
 5676SOL    HW217928   3.308   6.567   1.671
 5677SOL     OW17929   0.187   1.144   4.196
 5677SOL    HW117930   0.286   1.132   4.205
 5677SOL    HW217931   0.141   1.104   4.275
 5678SOL     OW17932   2.018   5.009   3.647
 5678SOL    HW117933   1.977   5.033   3.736
 5678SOL    HW217934   1.953   4.954   3.595
 5679SOL     OW17935   3.041   5.822   5.363
 5679SOL    HW117936   2.997   5.732   5.357
 5679SOL    HW217937   2.972   5.893   5.374
 5680SOL     OW17938   2.050   6.889   5.890
 5680SOL    HW117939   2.023   6.955   5.820
 5680SOL    HW217940   2.059   6.937   5.978
 5681SOL     OW17941   1.903   3.798   0.322
 5681SOL    HW117942   1.898   3.895   0.299
 5681SOL    HW217943   1.960   3.750   0.256
 5682SOL     OW17944   0.673   3.663   3.861
 5682SOL    HW117945   0.755   3.706   3.824
 5682SOL    HW217946   0.699   3.603   3.937
 5683SOL     OW17947   3.865   3.020   5.067
 5683SOL    HW117948   3.839   2.924   5.059
 5683SOL    HW217949   3.784   3.075   5.087
 5684SOL     OW17950   3.233   3.513   3.201
 5684SOL    HW117951   3.230   3.577   3.124
 5684SOL    HW217952   3.139   3.494   3.232
 5685SOL     OW17953   1.157   5.725   2.526
 5685SOL    HW117954   1.242   5.767   2.496
 5685SOL    HW217955   1.113   5.784   2.594
 5686SOL     OW17956   3.543   5.631   0.180
 5686SOL    HW117957   3.509   5.672   0.264
 5686SOL    HW217958   3.612   5.690   0.139
 5687SOL     OW17959   4.778   5.222   5.631
 5687SOL    HW117960   4.771   5.262   5.539
 5687SOL    HW217961   4.830   5.137   5.626
 5688SOL     OW17962   6.143   2.104   2.650
 5688SOL    HW117963   6.208   2.033   2.679
 5688SOL    HW217964   6.061   2.060   2.613
 5689SOL     OW17965   3.905   2.409   6.003
 5689SOL    HW117966   3.947   2.466   6.074
 5689SOL    HW217967   3.969   2.399   5.927
 5690SOL     OW17968   4.821   6.783   1.893
 5690SOL    HW117969   4.870   6.697   1.911
 5690SOL    HW217970   4.789   6.783   1.798
 5691SOL     OW17971   2.154   0.124   2.989
 5691SOL    HW117972   2.097   0.133   2.907
 5691SOL    HW217973   2.198   0.035   2.989
 5692SOL     OW17974   6.188   2.715   0.220
 5692SOL    HW117975   6.213   2.619   0.207
 5692SOL    HW217976   6.220   2.769   0.142
 5693SOL     OW17977   4.784   2.635   2.639
 5693SOL    HW117978   4.778   2.712   2.703
 5693SOL    HW217979   4.832   2.664   2.556
 5694SOL     OW17980   1.336   1.915   4.293
 5694SOL    HW117981   1.248   1.894   4.251
 5694SOL    HW217982   1.385   1.983   4.238
 5695SOL     OW17983   1.401   3.646   3.728
 5695SOL    HW117984   1.364   3.736   3.705
 5695SOL    HW217985   1.468   3.656   3.803
 5696SOL     OW17986   3.463   0.031   5.937
 5696SOL    HW117987   3.410   6.978   5.917
 5696SOL    HW217988   3.484   0.079   5.851
 5697SOL     OW17989   6.517   3.310   0.011
 5697SOL    HW117990   6.448   3.377   0.039
 5697SOL    HW217991   6.471   3.232   6.999
 5698SOL     OW17992   0.844   4.259   2.222
 5698SOL    HW117993   0.856   4.216   2.311
 5698SOL    HW217994   0.890   4.204   2.152
 5699SOL     OW17995   6.372   1.585   4.920
 5699SOL    HW117996   6.428   1.557   4.998
 5699SOL    HW217997   6.276   1.570   4.941
 5700SOL     OW17998   1.043   4.997   3.350
 5700SOL    HW117999   1.084   4.965   3.436
 5700SOL    HW218000   0.976   5.068   3.369
 5701SOL     OW18001   5.203   5.102   1.639
 5701SOL    HW118002   5.187   5.127   1.735
 5701SOL    HW218003   5.243   5.180   1.591
 5702SOL     OW18004   1.970   0.404   6.584
 5702SOL    HW118005   1.989   0.497   6.553
 5702SOL    HW218006   2.052   0.347   6.571
 5703SOL     OW18007   4.277   4.597   0.712
 5703SOL    HW118008   4.326   4.531   0.769
 5703SOL    HW218009   4.179   4.577   0.716
 5704SOL     OW18010   4.145   5.640   4.074
 5704SOL    HW118011   4.230   5.693   4.074
 5704SOL    HW218012   4.101   5.648   3.984
 5705SOL     OW18013   6.120   1.442   2.607
 5705SOL    HW118014   6.054   1.427   2.681
 5705SOL    HW218015   6.201   1.385   2.623
 5706SOL     OW18016   2.229   1.080   6.549
 5706SOL    HW118017   2.223   1.168   6.597
 5706SOL    HW218018   2.196   1.090   6.456
 5707SOL     OW18019   3.138   2.089   5.881
 5707SOL    HW118020   3.127   2.018   5.811
 5707SOL    HW218021   3.176   2.171   5.839
 5708SOL     OW18022   5.602   0.042   2.024
 5708SOL    HW118023   5.697   0.047   2.052
 5708SOL    HW218024   5.559   0.132   2.033
 5709SOL     OW18025   0.872   0.905   3.154
 5709SOL    HW118026   0.867   0.937   3.059
 5709SOL    HW218027   0.795   0.942   3.206
 5710SOL     OW18028   2.989   4.542   5.911
 5710SOL    HW118029   2.988   4.624   5.854
 5710SOL    HW218030   2.931   4.471   5.869
 5711SOL     OW18031   4.625   1.616   4.433
 5711SOL    HW118032   4.530   1.642   4.412
 5711SOL    HW218033   4.687   1.674   4.381
 5712SOL     OW18034   0.038   5.869   6.573
 5712SOL    HW118035   0.098   5.948   6.567
 5712SOL    HW218036   0.057   5.807   6.497
 5713SOL     OW18037   6.821   2.061   3.140
 5713SOL    HW118038   6.913   2.054   3.177
 5713SOL    HW218039   6.825   2.065   3.040
 5714SOL     OW18040   1.985   0.718   6.803
 5714SOL    HW118041   2.037   0.789   6.850
 5714SOL    HW218042   2.046   0.663   6.747
 5715SOL     OW18043   1.679   0.279   3.543
 5715SOL    HW118044   1.774   0.280   3.574
 5715SOL    HW218045   1.630   0.355   3.585
 5716SOL     OW18046   2.045   3.194   5.394
 5716SOL    HW118047   2.133   3.146   5.392
 5716SOL    HW218048   2.052   3.277   5.339
 5717SOL     OW18049   0.565   4.290   0.381
 5717SOL    HW118050   0.493   4.359   0.376
 5717SOL    HW218051   0.647   4.331   0.422
 5718SOL     OW18052   2.008   4.877   5.450
 5718SOL    HW118053   2.025   4.807   5.380
 5718SOL    HW218054   2.079   4.947   5.445
 5719SOL     OW18055   2.452   0.251   6.695
 5719SOL    HW118056   2.538   0.234   6.743
 5719SOL    HW218057   2.406   0.330   6.736
 5720SOL     OW18058   2.192   5.241   4.010
 5720SOL    HW118059   2.161   5.314   3.948
 5720SOL    HW218060   2.219   5.281   4.098
 5721SOL     OW18061   0.659   4.427   1.591
 5721SOL    HW118062   0.579   4.467   1.637
 5721SOL    HW218063   0.706   4.365   1.654
 5722SOL     OW18064   5.095   0.876   3.798
 5722SOL    HW118065   5.157   0.870   3.876
 5722SOL    HW218066   5.001   0.874   3.831
 5723SOL     OW18067   1.628   4.764   1.244
 5723SOL    HW118068   1.563   4.721   1.307
 5723SOL    HW218069   1.580   4.827   1.184
 5724SOL     OW18070   4.855   1.823   6.780
 5724SOL    HW118071   4.933   1.768   6.752
 5724SOL    HW218072   4.833   1.890   6.709
 5725SOL     OW18073   5.192   5.665   6.172
 5725SOL    HW118074   5.182   5.665   6.271
 5725SOL    HW218075   5.102   5.659   6.128
 5726SOL     OW18076   4.459   2.968   6.258
 5726SOL    HW118077   4.498   2.946   6.347
 5726SOL    HW218078   4.521   3.028   6.207
 5727SOL     OW18079   5.944   1.784   3.956
 5727SOL    HW118080   5.880   1.729   3.902
 5727SOL    HW218081   6.022   1.727   3.983
 5728SOL     OW18082   5.834   1.019   6.446
 5728SOL    HW118083   5.774   0.956   6.496
 5728SOL    HW218084   5.880   0.970   6.373
 5729SOL     OW18085   0.990   2.996   5.453
 5729SOL    HW118086   1.077   2.947   5.460
 5729SOL    HW218087   0.969   3.013   5.357
 5730SOL     OW18088   4.295   5.267   6.672
 5730SOL    HW118089   4.239   5.302   6.596
 5730SOL    HW218090   4.346   5.343   6.713
 5731SOL     OW18091   3.702   1.019   4.358
 5731SOL    HW118092   3.670   1.034   4.265
 5731SOL    HW218093   3.624   0.991   4.416
 5732SOL     OW18094   5.785   4.288   3.799
 5732SOL    HW118095   5.880   4.298   3.831
 5732SOL    HW218096   5.757   4.372   3.751
 5733SOL     OW18097   3.052   0.048   0.824
 5733SOL    HW118098   3.117   7.028   0.766
 5733SOL    HW218099   3.054   0.010   0.916
 5734SOL     OW18100   2.323   5.732   6.447
 5734SOL    HW118101   2.332   5.708   6.350
 5734SOL    HW218102   2.397   5.688   6.499
 5735SOL     OW18103   4.966   0.614   2.057
 5735SOL    HW118104   5.003   0.607   2.150
 5735SOL    HW218105   4.922   0.528   2.032
 5736SOL     OW18106   5.842   4.112   0.364
 5736SOL    HW118107   5.941   4.103   0.377
 5736SOL    HW218108   5.801   4.021   0.361
 5737SOL     OW18109   4.213   5.296   1.297
 5737SOL    HW118110   4.306   5.281   1.331
 5737SOL    HW218111   4.150   5.234   1.343
 5738SOL     OW18112   2.987   0.449   0.308
 5738SOL    HW118113   3.001   0.356   0.343
 5738SOL    HW218114   2.890   0.462   0.288
 5739SOL     OW18115   1.953   1.021   5.862
 5739SOL    HW118116   1.906   0.948   5.811
 5739SOL    HW218117   1.970   1.097   5.800
 5740SOL     OW18118   4.814   3.530   1.776
 5740SOL    HW118119   4.849   3.474   1.851
 5740SOL    HW218120   4.887   3.590   1.743
 5741SOL     OW18121   0.644   3.516   4.117
 5741SOL    HW118122   0.638   3.417   4.104
 5741SOL    HW218123   0.732   3.538   4.160
 5742SOL     OW18124   4.941   0.385   3.139
 5742SOL    HW118125   4.944   0.484   3.126
 5742SOL    HW218126   5.032   0.346   3.124
 5743SOL     OW18127   3.885   5.071   0.600
 5743SOL    HW118128   3.925   4.981   0.612
 5743SOL    HW218129   3.787   5.062   0.581
 5744SOL     OW18130   5.079   6.779   2.848
 5744SOL    HW118131   5.120   6.698   2.805
 5744SOL    HW218132   4.988   6.756   2.882
 5745SOL     OW18133   1.395   2.909   2.014
 5745SOL    HW118134   1.387   2.909   1.914
 5745SOL    HW218135   1.310   2.944   2.054
 5746SOL     OW18136   4.938   6.928   3.284
 5746SOL    HW118137   4.874   6.966   3.218
 5746SOL    HW218138   4.965   6.836   3.255
 5747SOL     OW18139   1.163   6.498   0.892
 5747SOL    HW118140   1.158   6.418   0.952
 5747SOL    HW218141   1.102   6.569   0.926
 5748SOL     OW18142   0.333   5.792   0.702
 5748SOL    HW118143   0.250   5.778   0.758
 5748SOL    HW218144   0.375   5.880   0.726
 5749SOL     OW18145   1.652   5.694   6.272
 5749SOL    HW118146   1.703   5.770   6.231
 5749SOL    HW218147   1.578   5.666   6.212
 5750SOL     OW18148   6.348   3.528   4.046
 5750SOL    HW118149   6.355   3.456   4.115
 5750SOL    HW218150   6.399   3.500   3.965
 5751SOL     OW18151   1.513   3.636   4.766
 5751SOL    HW118152   1.575   3.638   4.688
 5751SOL    HW218153   1.560   3.669   4.848
 5752SOL     OW18154   4.576   0.209   1.004
 5752SOL    HW118155   4.611   0.299   1.032
 5752SOL    HW218156   4.648   0.140   1.016
 5753SOL     OW18157   3.710   4.208   4.968
 5753SOL    HW118158   3.623   4.171   5.002
 5753SOL    HW218159   3.696   4.301   4.936
 5754SOL     OW18160   0.581   5.557   1.517
 5754SOL    HW118161   0.653   5.491   1.538
 5754SOL    HW218162   0.555   5.605   1.600
 5755SOL     OW18163   1.185   2.336   6.692
 5755SOL    HW118164   1.283   2.333   6.674
 5755SOL    HW218165   1.136   2.360   6.608
 5756SOL     OW18166   5.694   6.104   1.331
 5756SOL    HW118167   5.773   6.050   1.302
 5756SOL    HW218168   5.623   6.100   1.260
 5757SOL     OW18169   6.531   0.451   4.301
 5757SOL    HW118170   6.570   0.363   4.275
 5757SOL    HW218171   6.594   0.500   4.361
 5758SOL     OW18172   6.118   6.810   3.058
 5758SOL    HW118173   6.029   6.820   3.014
 5758SOL    HW218174   6.188   6.793   2.989
 5759SOL     OW18175   3.699   0.001   1.230
 5759SOL    HW118176   3.655   0.056   1.159
 5759SOL    HW218177   3.797   7.022   1.211
 5760SOL     OW18178   1.097   3.130   0.561
 5760SOL    HW118179   1.167   3.201   0.564
 5760SOL    HW218180   1.025   3.150   0.628
 5761SOL     OW18181   5.836   6.976   4.196
 5761SOL    HW118182   5.882   0.033   4.175
 5761SOL    HW218183   5.865   6.945   4.287
 5762SOL     OW18184   6.632   5.789   6.813
 5762SOL    HW118185   6.732   5.786   6.812
 5762SOL    HW218186   6.597   5.746   6.730
 5763SOL     OW18187   6.111   6.902   6.774
 5763SOL    HW118188   6.021   6.860   6.785
 5763SOL    HW218189   6.107   6.998   6.802
 5764SOL     OW18190   4.868   6.820   3.840
 5764SOL    HW118191   4.845   6.723   3.833
 5764SOL    HW218192   4.791   6.869   3.881
 5765SOL     OW18193   6.128   5.301   2.156
 5765SOL    HW118194   6.037   5.269   2.180
 5765SOL    HW218195   6.172   5.235   2.095
 5766SOL     OW18196   0.154   1.517   4.329
 5766SOL    HW118197   0.228   1.456   4.358
 5766SOL    HW218198   0.082   1.517   4.398
 5767SOL     OW18199   3.609   6.577   6.829
 5767SOL    HW118200   3.581   6.645   6.896
 5767SOL    HW218201   3.709   6.569   6.830
 5768SOL     OW18202   0.217   0.625   4.499
 5768SOL    HW118203   0.232   0.714   4.455
 5768SOL    HW218204   0.157   0.636   4.578
 5769SOL     OW18205   1.613   4.116   6.405
 5769SOL    HW118206   1.634   4.198   6.351
 5769SOL    HW218207   1.515   4.114   6.425
 5770SOL     OW18208   1.721   4.640   1.649
 5770SOL    HW118209   1.804   4.617   1.598
 5770SOL    HW218210   1.731   4.730   1.690
 5771SOL     OW18211   3.495   5.153   3.252
 5771SOL    HW118212   3.515   5.126   3.346
 5771SOL    HW218213   3.457   5.075   3.202
 5772SOL     OW18214   2.882   0.389   2.255
 5772SOL    HW118215   2.910   0.362   2.347
 5772SOL    HW218216   2.963   0.414   2.202
 5773SOL     OW18217   4.808   1.878   2.402
 5773SOL    HW118218   4.783   1.968   2.438
 5773SOL    HW218219   4.756   1.860   2.319
 5774SOL     OW18220   0.295   6.501   2.080
 5774SOL    HW118221   0.335   6.564   2.147
 5774SOL    HW218222   0.335   6.518   1.990
 5775SOL     OW18223   6.582   5.748   1.885
 5775SOL    HW118224   6.516   5.753   1.960
 5775SOL    HW218225   6.549   5.804   1.809
 5776SOL     OW18226   2.520   1.404   4.312
 5776SOL    HW118227   2.553   1.358   4.394
 5776SOL    HW218228   2.444   1.351   4.273
 5777SOL     OW18229   1.541   5.996   2.910
 5777SOL    HW118230   1.565   6.044   2.826
 5777SOL    HW218231   1.616   5.936   2.937
 5778SOL     OW18232   0.507   1.976   0.871
 5778SOL    HW118233   0.579   1.961   0.804
 5778SOL    HW218234   0.476   1.888   0.908
 5779SOL     OW18235   5.843   1.623   5.973
 5779SOL    HW118236   5.746   1.645   5.972
 5779SOL    HW218237   5.888   1.668   5.896
 5780SOL     OW18238   5.181   6.125   3.838
 5780SOL    HW118239   5.257   6.130   3.773
 5780SOL    HW218240   5.094   6.118   3.788
 5781SOL     OW18241   0.579   4.765   4.910
 5781SOL    HW118242   0.566   4.673   4.946
 5781SOL    HW218243   0.535   4.772   4.821
 5782SOL     OW18244   0.849   0.392   0.227
 5782SOL    HW118245   0.919   0.386   0.156
 5782SOL    HW218246   0.771   0.444   0.192
 5783SOL     OW18247   1.284   1.813   0.974
 5783SOL    HW118248   1.292   1.898   0.922
 5783SOL    HW218249   1.371   1.764   0.972
 5784SOL     OW18250   6.647   6.038   6.595
 5784SOL    HW118251   6.701   6.004   6.672
 5784SOL    HW218252   6.644   5.968   6.523
 5785SOL     OW18253   1.474   1.571   0.694
 5785SOL    HW118254   1.500   1.614   0.780
 5785SOL    HW218255   1.478   1.638   0.620
 5786SOL     OW18256   5.728   4.521   1.055
 5786SOL    HW118257   5.726   4.589   1.128
 5786SOL    HW218258   5.790   4.447   1.080
 5787SOL     OW18259   3.397   2.183   5.666
 5787SOL    HW118260   3.341   2.260   5.636
 5787SOL    HW218261   3.366   2.099   5.620
 5788SOL     OW18262   2.658   1.073   3.969
 5788SOL    HW118263   2.658   1.119   4.058
 5788SOL    HW218264   2.620   1.135   3.900
 5789SOL     OW18265   4.063   4.830   6.102
 5789SOL    HW118266   4.093   4.807   6.010
 5789SOL    HW218267   4.007   4.755   6.138
 5790SOL     OW18268   0.418   2.742   3.361
 5790SOL    HW118269   0.473   2.682   3.304
 5790SOL    HW218270   0.409   2.703   3.452
 5791SOL     OW18271   2.593   0.929   2.872
 5791SOL    HW118272   2.522   0.921   2.801
 5791SOL    HW218273   2.680   0.955   2.830
 5792SOL     OW18274   6.494   2.733   2.741
 5792SOL    HW118275   6.442   2.721   2.826
 5792SOL    HW218276   6.441   2.695   2.665
 5793SOL     OW18277   0.401   0.499   3.761
 5793SOL    HW118278   0.340   0.559   3.709
 5793SOL    HW218279   0.415   0.414   3.710
 5794SOL     OW18280   4.723   3.579   6.944
 5794SOL    HW118281   4.782   3.650   6.905
 5794SOL    HW218282   4.628   3.611   6.945
 5795SOL     OW18283   5.684   4.283   6.363
 5795SOL    HW118284   5.732   4.248   6.443
 5795SOL    HW218285   5.748   4.295   6.287
 5796SOL     OW18286   3.926   1.361   0.481
 5796SOL    HW118287   4.017   1.382   0.517
 5796SOL    HW218288   3.896   1.436   0.421
 5797SOL     OW18289   3.023   1.864   4.852
 5797SOL    HW118290   3.094   1.899   4.789
 5797SOL    HW218291   3.012   1.928   4.928
 5798SOL     OW18292   6.567   4.388   4.734
 5798SOL    HW118293   6.596   4.446   4.658
 5798SOL    HW218294   6.523   4.306   4.697
 5799SOL     OW18295   5.252   0.324   3.975
 5799SOL    HW118296   5.302   0.251   4.022
 5799SOL    HW218297   5.261   0.312   3.876
 5800SOL     OW18298   6.319   4.918   0.707
 5800SOL    HW118299   6.322   4.824   0.671
 5800SOL    HW218300   6.252   4.923   0.781
 5801SOL     OW18301   1.993   1.841   3.627
 5801SOL    HW118302   2.026   1.799   3.543
 5801SOL    HW218303   2.037   1.798   3.706
 5802SOL     OW18304   0.663   3.381   5.600
 5802SOL    HW118305   0.686   3.284   5.608
 5802SOL    HW218306   0.581   3.399   5.655
 5803SOL     OW18307   1.528   4.628   0.215
 5803SOL    HW118308   1.513   4.646   0.118
 5803SOL    HW218309   1.528   4.714   0.266
 5804SOL     OW18310   6.201   3.929   4.519
 5804SOL    HW118311   6.154   3.854   4.472
 5804SOL    HW218312   6.294   3.901   4.542
 5805SOL     OW18313   5.139   3.039   6.615
 5805SOL    HW118314   5.197   3.121   6.619
 5805SOL    HW218315   5.134   3.007   6.520
 5806SOL     OW18316   0.855   6.308   6.964
 5806SOL    HW118317   0.829   6.212   6.950
 5806SOL    HW218318   0.777   6.358   7.001
 5807SOL     OW18319   1.859   3.448   1.742
 5807SOL    HW118320   1.900   3.408   1.824
 5807SOL    HW218321   1.790   3.515   1.769
 5808SOL     OW18322   6.588   3.904   2.756
 5808SOL    HW118323   6.500   3.873   2.721
 5808SOL    HW218324   6.659   3.882   2.689
 5809SOL     OW18325   0.067   3.876   4.168
 5809SOL    HW118326   0.149   3.863   4.112
 5809SOL    HW218327   0.081   3.951   4.232
 5810SOL     OW18328   2.653   1.885   2.169
 5810SOL    HW118329   2.746   1.874   2.206
 5810SOL    HW218330   2.594   1.925   2.239
 5811SOL     OW18331   2.578   1.478   4.049
 5811SOL    HW118332   2.483   1.485   4.018
 5811SOL    HW218333   2.580   1.451   4.145
 5812SOL     OW18334   4.532   0.590   4.166
 5812SOL    HW118335   4.447   0.628   4.202
 5812SOL    HW218336   4.545   0.497   4.202
 5813SOL     OW18337   1.174   0.735   5.454
 5813SOL    HW118338   1.120   0.802   5.505
 5813SOL    HW218339   1.195   0.657   5.514
 5814SOL     OW18340   0.685   5.354   1.256
 5814SOL    HW118341   0.591   5.366   1.287
 5814SOL    HW218342   0.746   5.345   1.335
 5815SOL     OW18343   3.376   1.331   2.914
 5815SOL    HW118344   3.436   1.271   2.967
 5815SOL    HW218345   3.308   1.373   2.974
 5816SOL     OW18346   4.723   0.591   0.536
 5816SOL    HW118347   4.703   0.602   0.439
 5816SOL    HW218348   4.656   0.529   0.577
 5817SOL     OW18349   4.847   3.220   5.006
 5817SOL    HW118350   4.750   3.228   4.980
 5817SOL    HW218351   4.854   3.215   5.105
 5818SOL     OW18352   6.235   6.635   6.528
 5818SOL    HW118353   6.141   6.663   6.507
 5818SOL    HW218354   6.282   6.709   6.576
 5819SOL     OW18355   6.077   0.227   1.670
 5819SOL    HW118356   6.117   0.315   1.645
 5819SOL    HW218357   6.057   0.175   1.587
 5820SOL     OW18358   5.644   6.226   3.635
 5820SOL    HW118359   5.728   6.196   3.679
 5820SOL    HW218360   5.619   6.317   3.670
 5821SOL     OW18361   2.720   0.993   1.770
 5821SOL    HW118362   2.683   0.901   1.759
 5821SOL    HW218363   2.783   0.994   1.848
 5822SOL     OW18364   0.215   1.405   2.011
 5822SOL    HW118365   0.274   1.456   1.948
 5822SOL    HW218366   0.125   1.391   1.969
 5823SOL     OW18367   2.346   1.947   4.469
 5823SOL    HW118368   2.304   1.876   4.412
 5823SOL    HW218369   2.291   2.030   4.464
 5824SOL     OW18370   5.284   6.693   3.569
 5824SOL    HW118371   5.242   6.780   3.542
 5824SOL    HW218372   5.277   6.628   3.494
 5825SOL     OW18373   2.701   0.477   0.311
 5825SOL    HW118374   2.662   0.454   0.400
 5825SOL    HW218375   2.692   0.576   0.296
 5826SOL     OW18376   6.305   0.283   5.018
 5826SOL    HW118377   6.379   0.222   5.048
 5826SOL    HW218378   6.253   0.313   5.098
 5827SOL     OW18379   0.818   5.495   4.866
 5827SOL    HW118380   0.856   5.425   4.927
 5827SOL    HW218381   0.860   5.488   4.776
 5828SOL     OW18382   6.986   3.757   1.985
 5828SOL    HW118383   0.024   3.773   2.057
 5828SOL    HW218384   0.000   3.704   1.912
 5829SOL     OW18385   2.006   1.111   1.712
 5829SOL    HW118386   1.940   1.173   1.754
 5829SOL    HW218387   2.030   1.145   1.621
 5830SOL     OW18388   3.021   1.540   6.397
 5830SOL    HW118389   2.923   1.558   6.399
 5830SOL    HW218390   3.069   1.622   6.367
 5831SOL     OW18391   5.537   6.851   3.222
 5831SOL    HW118392   5.457   6.908   3.239
 5831SOL    HW218393   5.544   6.781   3.293
 5832SOL     OW18394   4.010   4.078   5.232
 5832SOL    HW118395   3.976   4.018   5.304
 5832SOL    HW218396   4.077   4.141   5.271
 5833SOL     OW18397   3.548   3.108   4.828
 5833SOL    HW118398   3.648   3.106   4.826
 5833SOL    HW218399   3.512   3.022   4.791
 5834SOL     OW18400   6.351   1.204   0.973
 5834SOL    HW118401   6.380   1.282   1.028
 5834SOL    HW218402   6.255   1.215   0.946
 5835SOL     OW18403   5.551   2.299   3.628
 5835SOL    HW118404   5.480   2.229   3.628
 5835SOL    HW218405   5.543   2.355   3.546
 5836SOL     OW18406   3.909   5.816   2.220
 5836SOL    HW118407   3.855   5.813   2.136
 5836SOL    HW218408   4.004   5.839   2.199
 5837SOL     OW18409   5.034   4.089   6.658
 5837SOL    HW118410   4.937   4.065   6.656
 5837SOL    HW218411   5.069   4.093   6.565
 5838SOL     OW18412   0.953   1.310   5.300
 5838SOL    HW118413   0.935   1.331   5.204
 5838SOL    HW218414   0.984   1.393   5.347
 5839SOL     OW18415   6.644   3.363   3.099
 5839SOL    HW118416   6.699   3.343   3.018
 5839SOL    HW218417   6.547   3.362   3.074
 5840SOL     OW18418   1.669   5.317   6.743
 5840SOL    HW118419   1.708   5.225   6.743
 5840SOL    HW218420   1.583   5.318   6.795
 5841SOL     OW18421   6.810   2.509   3.827
 5841SOL    HW118422   6.733   2.552   3.875
 5841SOL    HW218423   6.810   2.539   3.731
 5842SOL     OW18424   3.763   3.043   0.743
 5842SOL    HW118425   3.808   2.989   0.814
 5842SOL    HW218426   3.717   2.982   0.678
 5843SOL     OW18427   1.980   4.013   2.353
 5843SOL    HW118428   1.992   4.097   2.406
 5843SOL    HW218429   2.028   3.938   2.399
 5844SOL     OW18430   1.034   6.478   6.633
 5844SOL    HW118431   1.062   6.510   6.723
 5844SOL    HW218432   1.068   6.385   6.619
 5845SOL     OW18433   0.885   2.590   4.112
 5845SOL    HW118434   0.804   2.603   4.055
 5845SOL    HW218435   0.867   2.625   4.204
 5846SOL     OW18436   0.134   2.994   5.672
 5846SOL    HW118437   0.227   2.956   5.673
 5846SOL    HW218438   0.103   3.005   5.577
 5847SOL     OW18439   2.242   2.801   2.318
 5847SOL    HW118440   2.220   2.852   2.235
 5847SOL    HW218441   2.239   2.863   2.397
 5848SOL     OW18442   1.304   4.509   3.239
 5848SOL    HW118443   1.295   4.414   3.268
 5848SOL    HW218444   1.376   4.554   3.292
 5849SOL     OW18445   2.417   0.335   5.458
 5849SOL    HW118446   2.374   0.424   5.466
 5849SOL    HW218447   2.463   0.312   5.543
 5850SOL     OW18448   0.687   4.972   2.259
 5850SOL    HW118449   0.629   4.892   2.248
 5850SOL    HW218450   0.631   5.049   2.290
 5851SOL     OW18451   6.143   3.949   2.101
 5851SOL    HW118452   6.071   4.009   2.136
 5851SOL    HW218453   6.151   3.869   2.161
 5852SOL     OW18454   4.437   5.933   2.814
 5852SOL    HW118455   4.477   5.858   2.762
 5852SOL    HW218456   4.475   6.020   2.783
 5853SOL     OW18457   3.402   4.550   5.631
 5853SOL    HW118458   3.424   4.555   5.729
 5853SOL    HW218459   3.486   4.561   5.578
 5854SOL     OW18460   6.853   1.119   5.993
 5854SOL    HW118461   6.806   1.074   5.916
 5854SOL    HW218462   6.796   1.193   6.028
 5855SOL     OW18463   0.804   1.240   4.555
 5855SOL    HW118464   0.808   1.311   4.625
 5855SOL    HW218465   0.896   1.223   4.520
 5856SOL     OW18466   2.018   4.242   3.875
 5856SOL    HW118467   1.924   4.208   3.886
 5856SOL    HW218468   2.022   4.338   3.903
 5857SOL     OW18469   6.348   3.156   5.490
 5857SOL    HW118470   6.251   3.135   5.501
 5857SOL    HW218471   6.362   3.210   5.407
 5858SOL     OW18472   3.467   1.304   2.520
 5858SOL    HW118473   3.533   1.237   2.486
 5858SOL    HW218474   3.485   1.393   2.479
 5859SOL     OW18475   6.004   6.341   0.668
 5859SOL    HW118476   5.922   6.285   0.658
 5859SOL    HW218477   6.068   6.321   0.593
 5860SOL     OW18478   1.714   4.013   1.779
 5860SOL    HW118479   1.768   4.093   1.756
 5860SOL    HW218480   1.663   3.983   1.698
 5861SOL     OW18481   6.396   2.383   4.475
 5861SOL    HW118482   6.398   2.482   4.488
 5861SOL    HW218483   6.462   2.357   4.404
 5862SOL     OW18484   4.324   4.687   3.059
 5862SOL    HW118485   4.307   4.764   2.999
 5862SOL    HW218486   4.366   4.613   3.007
 5863SOL     OW18487   2.613   1.079   6.992
 5863SOL    HW118488   2.595   1.166   0.009
 5863SOL    HW218489   2.687   1.090   6.926
 5864SOL     OW18490   4.721   4.678   1.605
 5864SOL    HW118491   4.751   4.768   1.636
 5864SOL    HW218492   4.725   4.613   1.681
 5865SOL     OW18493   4.716   0.915   3.122
 5865SOL    HW118494   4.814   0.921   3.102
 5865SOL    HW218495   4.680   0.828   3.090
 5866SOL     OW18496   4.163   0.444   6.068
 5866SOL    HW118497   4.064   0.434   6.069
 5866SOL    HW218498   4.200   0.399   5.987
 5867SOL     OW18499   0.179   2.682   1.572
 5867SOL    HW118500   0.167   2.709   1.667
 5867SOL    HW218501   0.238   2.748   1.525
 5868SOL     OW18502   1.652   6.842   5.397
 5868SOL    HW118503   1.629   6.846   5.494
 5868SOL    HW218504   1.684   6.751   5.373
 5869SOL     OW18505   2.955   4.784   3.920
 5869SOL    HW118506   2.879   4.782   3.855
 5869SOL    HW218507   2.946   4.864   3.979
 5870SOL     OW18508   5.172   5.165   4.784
 5870SOL    HW118509   5.180   5.080   4.836
 5870SOL    HW218510   5.235   5.163   4.707
 5871SOL     OW18511   3.168   3.148   6.768
 5871SOL    HW118512   3.120   3.060   6.775
 5871SOL    HW218513   3.167   3.194   6.857
 5872SOL     OW18514   3.175   6.251   5.896
 5872SOL    HW118515   3.206   6.177   5.956
 5872SOL    HW218516   3.255   6.300   5.860
 5873SOL     OW18517   2.778   3.398   7.024
 5873SOL    HW118518   2.781   3.472   6.957
 5873SOL    HW218519   2.699   3.410   0.054
 5874SOL     OW18520   1.664   3.993   1.093
 5874SOL    HW118521   1.670   4.093   1.082
 5874SOL    HW218522   1.752   3.952   1.069
 5875SOL     OW18523   3.787   1.684   6.941
 5875SOL    HW118524   3.855   1.612   6.956
 5875SOL    HW218525   3.704   1.663   6.993
 5876SOL     OW18526   3.256   4.148   6.309
 5876SOL    HW118527   3.241   4.084   6.384
 5876SOL    HW218528   3.351   4.141   6.277
 5877SOL     OW18529   0.167   6.901   3.270
 5877SOL    HW118530   0.116   6.926   3.352
 5877SOL    HW218531   0.265   6.914   3.286
 5878SOL     OW18532   4.873   4.781   2.969
 5878SOL    HW118533   4.893   4.701   3.026
 5878SOL    HW218534   4.775   4.799   2.971
 5879SOL     OW18535   4.091   3.523   5.892
 5879SOL    HW118536   4.046   3.481   5.813
 5879SOL    HW218537   4.116   3.451   5.957
 5880SOL     OW18538   5.267   2.639   5.435
 5880SOL    HW118539   5.229   2.547   5.438
 5880SOL    HW218540   5.354   2.642   5.483
 5881SOL     OW18541   1.408   5.823   2.425
 5881SOL    HW118542   1.472   5.877   2.370
 5881SOL    HW218543   1.458   5.778   2.499
 5882SOL     OW18544   1.790   5.612   6.003
 5882SOL    HW118545   1.697   5.610   6.041
 5882SOL    HW218546   1.855   5.588   6.075
 5883SOL     OW18547   0.469   4.249   1.048
 5883SOL    HW118548   0.434   4.342   1.046
 5883SOL    HW218549   0.525   4.232   0.967
 5884SOL     OW18550   6.342   2.014   3.404
 5884SOL    HW118551   6.340   2.104   3.447
 5884SOL    HW218552   6.366   1.944   3.472
 5885SOL     OW18553   0.135   5.376   0.141
 5885SOL    HW118554   0.086   5.356   0.056
 5885SOL    HW218555   0.094   5.324   0.216
 5886SOL     OW18556   1.719   4.012   3.588
 5886SOL    HW118557   1.786   4.084   3.569
 5886SOL    HW218558   1.746   3.962   3.670
 5887SOL     OW18559   1.980   2.668   1.068
 5887SOL    HW118560   1.946   2.640   1.158
 5887SOL    HW218561   1.951   2.762   1.049
 5888SOL     OW18562   3.363   6.719   0.801
 5888SOL    HW118563   3.296   6.773   0.750
 5888SOL    HW218564   3.427   6.677   0.736
 5889SOL     OW18565   5.941   0.704   2.253
 5889SOL    HW118566   5.858   0.717   2.307
 5889SOL    HW218567   5.919   0.709   2.156
 5890SOL     OW18568   2.277   6.075   2.714
 5890SOL    HW118569   2.233   5.990   2.741
 5890SOL    HW218570   2.356   6.054   2.657
 5891SOL     OW18571   2.487   3.562   0.833
 5891SOL    HW118572   2.400   3.549   0.882
 5891SOL    HW218573   2.507   3.480   0.779
 5892SOL     OW18574   1.151   4.062   1.215
 5892SOL    HW118575   1.152   4.095   1.309
 5892SOL    HW218576   1.244   4.069   1.177
 5893SOL     OW18577   0.670   6.519   1.946
 5893SOL    HW118578   0.698   6.431   1.907
 5893SOL    HW218579   0.734   6.544   2.019
 5894SOL     OW18580   2.162   5.232   6.323
 5894SOL    HW118581   2.181   5.176   6.243
 5894SOL    HW218582   2.076   5.280   6.311
 5895SOL     OW18583   5.496   3.321   4.670
 5895SOL    HW118584   5.412   3.363   4.705
 5895SOL    HW218585   5.474   3.234   4.625
 5896SOL     OW18586   5.500   2.281   1.720
 5896SOL    HW118587   5.417   2.276   1.664
 5896SOL    HW218588   5.502   2.369   1.768
 5897SOL     OW18589   4.287   2.506   0.442
 5897SOL    HW118590   4.375   2.462   0.453
 5897SOL    HW218591   4.298   2.605   0.449
 5898SOL     OW18592   2.105   1.454   5.389
 5898SOL    HW118593   2.118   1.469   5.487
 5898SOL    HW218594   2.042   1.523   5.352
 5899SOL     OW18595   6.982   5.706   6.023
 5899SOL    HW118596   0.047   5.711   6.059
 5899SOL    HW218597   6.921   5.674   6.095
 5900SOL     OW18598   5.932   6.411   3.407
 5900SOL    HW118599   6.028   6.395   3.385
 5900SOL    HW218600   5.916   6.509   3.417
 5901SOL     OW18601   1.625   0.947   5.542
 5901SOL    HW118602   1.654   1.022   5.482
 5901SOL    HW218603   1.526   0.950   5.553
 5902SOL     OW18604   5.029   4.331   5.812
 5902SOL    HW118605   4.935   4.362   5.794
 5902SOL    HW218606   5.060   4.370   5.898
 5903SOL     OW18607   6.203   2.196   5.763
 5903SOL    HW118608   6.208   2.261   5.839
 5903SOL    HW218609   6.290   2.147   5.755
 5904SOL     OW18610   2.232   4.703   2.017
 5904SOL    HW118611   2.233   4.640   1.940
 5904SOL    HW218612   2.324   4.710   2.056
 5905SOL     OW18613   5.812   0.808   4.316
 5905SOL    HW118614   5.857   0.897   4.328
 5905SOL    HW218615   5.777   0.801   4.223
 5906SOL     OW18616   4.705   0.954   5.498
 5906SOL    HW118617   4.622   1.009   5.502
 5906SOL    HW218618   4.682   0.857   5.501
 5907SOL     OW18619   1.742   3.347   6.272
 5907SOL    HW118620   1.829   3.311   6.307
 5907SOL    HW218621   1.736   3.445   6.291
 5908SOL     OW18622   4.668   3.134   5.825
 5908SOL    HW118623   4.689   3.226   5.791
 5908SOL    HW218624   4.738   3.105   5.889
 5909SOL     OW18625   6.984   5.006   4.088
 5909SOL    HW118626   6.913   5.076   4.100
 5909SOL    HW218627   6.977   4.966   3.997
 5910SOL     OW18628   2.205   4.010   0.961
 5910SOL    HW118629   2.148   4.077   0.915
 5910SOL    HW218630   2.171   3.995   1.054
 5911SOL     OW18631   5.799   6.927   6.203
 5911SOL    HW118632   5.847   6.849   6.163
 5911SOL    HW218633   5.706   6.932   6.165
 5912SOL     OW18634   6.879   3.287   6.545
 5912SOL    HW118635   6.797   3.231   6.536
 5912SOL    HW218636   6.868   3.371   6.491
 5913SOL     OW18637   1.262   1.863   5.747
 5913SOL    HW118638   1.354   1.836   5.775
 5913SOL    HW218639   1.251   1.850   5.649
 5914SOL     OW18640   1.944   6.156   1.123
 5914SOL    HW118641   1.945   6.240   1.069
 5914SOL    HW218642   1.886   6.169   1.204
 5915SOL     OW18643   4.915   3.476   2.719
 5915SOL    HW118644   4.918   3.425   2.633
 5915SOL    HW218645   4.895   3.413   2.795
 5916SOL     OW18646   3.139   0.087   5.806
 5916SOL    HW118647   3.130   7.016   5.810
 5916SOL    HW218648   3.124   0.118   5.713
 5917SOL     OW18649   3.807   2.924   2.915
 5917SOL    HW118650   3.824   3.016   2.949
 5917SOL    HW218651   3.759   2.929   2.827
 5918SOL     OW18652   2.257   3.079   4.429
 5918SOL    HW118653   2.259   2.994   4.378
 5918SOL    HW218654   2.270   3.060   4.527
 5919SOL     OW18655   1.197   3.473   6.968
 5919SOL    HW118656   1.199   3.469   0.038
 5919SOL    HW218657   1.290   3.465   6.932
 5920SOL     OW18658   3.897   6.574   6.862
 5920SOL    HW118659   3.935   6.572   6.769
 5920SOL    HW218660   3.891   6.669   6.893
 5921SOL     OW18661   4.181   5.501   5.137
 5921SOL    HW118662   4.230   5.576   5.181
 5921SOL    HW218663   4.223   5.481   5.048
 5922SOL     OW18664   5.720   4.143   1.950
 5922SOL    HW118665   5.622   4.151   1.966
 5922SOL    HW218666   5.744   4.191   1.866
 5923SOL     OW18667   0.550   6.926   3.601
 5923SOL    HW118668   0.534   6.859   3.673
 5923SOL    HW218669   0.594   7.008   3.639
 5924SOL     OW18670   5.523   2.064   4.069
 5924SOL    HW118671   5.501   1.975   4.107
 5924SOL    HW218672   5.460   2.085   3.994
 5925SOL     OW18673   5.968   6.436   1.068
 5925SOL    HW118674   5.890   6.498   1.069
 5925SOL    HW218675   6.030   6.462   0.995
 5926SOL     OW18676   3.726   5.131   1.670
 5926SOL    HW118677   3.652   5.174   1.618
 5926SOL    HW218678   3.800   5.198   1.685
 5927SOL     OW18679   2.520   5.584   2.581
 5927SOL    HW118680   2.519   5.663   2.520
 5927SOL    HW218681   2.448   5.520   2.555
 5928SOL     OW18682   1.344   0.084   1.820
 5928SOL    HW118683   1.256   0.099   1.776
 5928SOL    HW218684   1.331   0.040   1.909
 5929SOL     OW18685   1.207   0.007   6.063
 5929SOL    HW118686   1.303   0.034   6.067
 5929SOL    HW218687   1.198   6.942   6.095
 5930SOL     OW18688   6.910   2.029   4.943
 5930SOL    HW118689   6.866   2.083   5.015
 5930SOL    HW218690   6.840   1.991   4.882
 5931SOL     OW18691   6.017   5.148   1.062
 5931SOL    HW118692   6.103   5.125   1.107
 5931SOL    HW218693   5.962   5.205   1.123
 5932SOL     OW18694   2.280   6.318   0.495
 5932SOL    HW118695   2.333   6.279   0.420
 5932SOL    HW218696   2.217   6.387   0.459
 5933SOL     OW18697   6.282   3.775   2.823
 5933SOL    HW118698   6.341   3.717   2.766
 5933SOL    HW218699   6.263   3.860   2.775
 5934SOL     OW18700   3.546   3.834   3.082
 5934SOL    HW118701   3.476   3.887   3.130
 5934SOL    HW218702   3.619   3.894   3.052
 5935SOL     OW18703   3.971   3.051   3.948
 5935SOL    HW118704   3.973   2.985   3.874
 5935SOL    HW218705   3.987   3.143   3.912
 5936SOL     OW18706   5.361   5.939   6.476
 5936SOL    HW118707   5.430   6.012   6.484
 5936SOL    HW218708   5.323   5.939   6.383
 5937SOL     OW18709   1.838   3.558   1.115
 5937SOL    HW118710   1.808   3.606   1.197
 5937SOL    HW218711   1.904   3.487   1.140
 5938SOL     OW18712   2.260   4.560   1.804
 5938SOL    HW118713   2.181   4.499   1.808
 5938SOL    HW218714   2.309   4.546   1.718
 5939SOL     OW18715   3.453   0.381   3.082
 5939SOL    HW118716   3.498   0.460   3.124
 5939SOL    HW218717   3.424   0.405   2.990
 5940SOL     OW18718   4.193   5.817   3.558
 5940SOL    HW118719   4.241   5.730   3.557
 5940SOL    HW218720   4.116   5.813   3.494
 5941SOL     OW18721   6.292   4.703   1.967
 5941SOL    HW118722   6.254   4.723   2.058
 5941SOL    HW218723   6.220   4.712   1.898
 5942SOL     OW18724   4.830   1.788   5.502
 5942SOL    HW118725   4.785   1.699   5.494
 5942SOL    HW218726   4.915   1.786   5.449
 5943SOL     OW18727   1.076   5.854   6.956
 5943SOL    HW118728   1.164   5.889   6.987
 5943SOL    HW218729   1.066   5.759   6.985
 5944SOL     OW18730   4.207   1.759   2.498
 5944SOL    HW118731   4.267   1.736   2.421
 5944SOL    HW218732   4.227   1.852   2.529
 5945SOL     OW18733   0.127   4.892   4.981
 5945SOL    HW118734   0.157   4.808   5.026
 5945SOL    HW218735   0.050   4.931   5.032
 5946SOL     OW18736   3.972   2.960   5.344
 5946SOL    HW118737   3.995   3.022   5.269
 5946SOL    HW218738   4.015   2.871   5.328
 5947SOL     OW18739   4.292   3.318   1.779
 5947SOL    HW118740   4.282   3.404   1.828
 5947SOL    HW218741   4.202   3.277   1.764
 5948SOL     OW18742   3.690   4.863   2.200
 5948SOL    HW118743   3.669   4.826   2.110
 5948SOL    HW218744   3.608   4.863   2.256
 5949SOL     OW18745   4.580   4.718   2.095
 5949SOL    HW118746   4.570   4.642   2.159
 5949SOL    HW218747   4.674   4.719   2.059
 5950SOL     OW18748   5.984   3.049   3.612
 5950SOL    HW118749   5.958   2.954   3.630
 5950SOL    HW218750   6.074   3.051   3.569
 5951SOL     OW18751   1.666   5.646   4.211
 5951SOL    HW118752   1.567   5.663   4.210
 5951SOL    HW218753   1.713   5.725   4.252
 5952SOL     OW18754   6.827   6.785   5.079
 5952SOL    HW118755   6.900   6.853   5.068
 5952SOL    HW218756   6.776   6.776   4.994
 5953SOL     OW18757   0.295   3.399   6.105
 5953SOL    HW118758   0.265   3.463   6.035
 5953SOL    HW218759   0.244   3.313   6.095
 5954SOL     OW18760   0.209   5.262   6.828
 5954SOL    HW118761   0.112   5.285   6.833
 5954SOL    HW218762   0.233   5.201   6.904
 5955SOL     OW18763   5.527   5.619   2.406
 5955SOL    HW118764   5.457   5.608   2.477
 5955SOL    HW218765   5.517   5.709   2.363
 5956SOL     OW18766   5.959   1.812   0.217
 5956SOL    HW118767   5.995   1.789   0.127
 5956SOL    HW218768   5.864   1.782   0.225
 5957SOL     OW18769   5.332   6.780   6.099
 5957SOL    HW118770   5.264   6.794   6.026
 5957SOL    HW218771   5.410   6.840   6.083
 5958SOL     OW18772   0.467   5.229   1.859
 5958SOL    HW118773   0.461   5.327   1.839
 5958SOL    HW218774   0.539   5.212   1.926
 5959SOL     OW18775   2.254   1.444   6.077
 5959SOL    HW118776   2.263   1.401   6.167
 5959SOL    HW218777   2.335   1.424   6.022
 5960SOL     OW18778   3.052   0.729   3.808
 5960SOL    HW118779   2.965   0.777   3.816
 5960SOL    HW218780   3.053   0.677   3.722
 5961SOL     OW18781   2.835   0.742   5.721
 5961SOL    HW118782   2.870   0.682   5.793
 5961SOL    HW218783   2.909   0.801   5.689
 5962SOL     OW18784   5.203   5.490   2.271
 5962SOL    HW118785   5.205   5.443   2.359
 5962SOL    HW218786   5.227   5.586   2.284
 5963SOL     OW18787   4.041   3.647   2.149
 5963SOL    HW118788   3.999   3.569   2.196
 5963SOL    HW218789   4.029   3.730   2.203
 5964SOL     OW18790   0.993   4.554   5.567
 5964SOL    HW118791   1.021   4.638   5.521
 5964SOL    HW218792   1.021   4.475   5.512
 5965SOL     OW18793   2.761   2.241   5.100
 5965SOL    HW118794   2.717   2.166   5.150
 5965SOL    HW218795   2.691   2.307   5.071
 5966SOL     OW18796   2.327   6.284   3.835
 5966SOL    HW118797   2.345   6.313   3.929
 5966SOL    HW218798   2.363   6.352   3.771
 5967SOL     OW18799   4.724   6.808   2.146
 5967SOL    HW118800   4.751   6.787   2.052
 5967SOL    HW218801   4.791   6.870   2.187
 5968SOL     OW18802   0.370   2.920   4.583
 5968SOL    HW118803   0.277   2.883   4.591
 5968SOL    HW218804   0.436   2.850   4.608
 5969SOL     OW18805   5.529   3.398   3.343
 5969SOL    HW118806   5.443   3.383   3.393
 5969SOL    HW218807   5.603   3.349   3.388
 5970SOL     OW18808   1.517   2.706   3.536
 5970SOL    HW118809   1.418   2.692   3.524
 5970SOL    HW218810   1.539   2.802   3.518
 5971SOL     OW18811   2.441   6.766   2.546
 5971SOL    HW118812   2.378   6.839   2.572
 5971SOL    HW218813   2.395   6.677   2.555
 5972SOL     OW18814   4.679   6.094   0.592
 5972SOL    HW118815   4.710   6.126   0.503
 5972SOL    HW218816   4.626   6.167   0.636
 5973SOL     OW18817   1.755   4.113   3.873
 5973SOL    HW118818   1.683   4.181   3.890
 5973SOL    HW218819   1.734   4.030   3.924
 5974SOL     OW18820   0.812   4.108   6.857
 5974SOL    HW118821   0.860   4.043   6.915
 5974SOL    HW218822   0.761   4.058   6.787
 5975SOL     OW18823   2.465   2.934   0.942
 5975SOL    HW118824   2.517   2.850   0.960
 5975SOL    HW218825   2.405   2.919   0.863
 5976SOL     OW18826   3.262   3.263   5.378
 5976SOL    HW118827   3.263   3.356   5.343
 5976SOL    HW218828   3.356   3.228   5.382
 5977SOL     OW18829   1.314   3.149   2.744
 5977SOL    HW118830   1.336   3.239   2.705
 5977SOL    HW218831   1.307   3.157   2.844
 5978SOL     OW18832   4.896   5.883   2.131
 5978SOL    HW118833   4.890   5.882   2.230
 5978SOL    HW218834   4.805   5.893   2.091
 5979SOL     OW18835   0.692   0.377   3.599
 5979SOL    HW118836   0.742   0.376   3.512
 5979SOL    HW218837   0.705   0.465   3.644
 5980SOL     OW18838   6.192   4.181   6.741
 5980SOL    HW118839   6.263   4.181   6.812
 5980SOL    HW218840   6.196   4.268   6.691
 5981SOL     OW18841   4.587   0.595   2.263
 5981SOL    HW118842   4.503   0.550   2.293
 5981SOL    HW218843   4.665   0.534   2.282
 5982SOL     OW18844   6.887   1.948   6.217
 5982SOL    HW118845   6.895   1.855   6.182
 5982SOL    HW218846   6.923   1.952   6.311
 5983SOL     OW18847   0.886   1.096   4.284
 5983SOL    HW118848   0.947   1.017   4.277
 5983SOL    HW218849   0.807   1.072   4.340
 5984SOL     OW18850   6.962   0.083   5.253
 5984SOL    HW118851   6.980   0.099   5.350
 5984SOL    HW218852   6.865   0.097   5.234
 5985SOL     OW18853   4.503   2.318   4.079
 5985SOL    HW118854   4.554   2.233   4.089
 5985SOL    HW218855   4.474   2.327   3.984
 5986SOL     OW18856   3.667   2.958   2.679
 5986SOL    HW118857   3.733   2.972   2.605
 5986SOL    HW218858   3.577   2.939   2.640
 5987SOL     OW18859   3.772   0.463   5.163
 5987SOL    HW118860   3.846   0.405   5.128
 5987SOL    HW218861   3.784   0.556   5.128
 5988SOL     OW18862   3.910   0.312   3.818
 5988SOL    HW118863   3.937   0.371   3.741
 5988SOL    HW218864   3.854   0.237   3.784
 5989SOL     OW18865   2.847   1.066   6.017
 5989SOL    HW118866   2.818   1.160   6.036
 5989SOL    HW218867   2.811   1.006   6.089
 5990SOL     OW18868   3.216   4.667   1.637
 5990SOL    HW118869   3.154   4.589   1.626
 5990SOL    HW218870   3.310   4.637   1.623
 5991SOL     OW18871   2.881   5.056   3.984
 5991SOL    HW118872   2.883   5.057   3.884
 5991SOL    HW218873   2.786   5.054   4.015
 5992SOL     OW18874   4.591   0.593   3.857
 5992SOL    HW118875   4.621   0.532   3.784
 5992SOL    HW218876   4.647   0.576   3.939
 5993SOL     OW18877   3.147   5.600   5.091
 5993SOL    HW118878   3.160   5.508   5.129
 5993SOL    HW218879   3.051   5.626   5.098
 5994SOL     OW18880   0.348   1.929   2.197
 5994SOL    HW118881   0.307   1.884   2.276
 5994SOL    HW218882   0.276   1.974   2.144
 5995SOL     OW18883   6.960   4.099   1.501
 5995SOL    HW118884   6.915   4.159   1.567
 5995SOL    HW218885   7.012   4.029   1.550
 5996SOL     OW18886   0.705   5.087   5.990
 5996SOL    HW118887   0.700   5.139   6.075
 5996SOL    HW218888   0.712   5.149   5.912
 5997SOL     OW18889   0.407   6.272   2.400
 5997SOL    HW118890   0.312   6.252   2.378
 5997SOL    HW218891   0.421   6.371   2.403
 5998SOL     OW18892   5.263   1.965   2.816
 5998SOL    HW118893   5.187   1.996   2.760
 5998SOL    HW218894   5.257   2.006   2.907
 5999SOL     OW18895   1.558   1.404   2.674
 5999SOL    HW118896   1.504   1.420   2.591
 5999SOL    HW218897   1.608   1.487   2.699
 6000SOL     OW18898   4.580   6.024   2.244
 6000SOL    HW118899   4.526   6.090   2.297
 6000SOL    HW218900   4.629   6.071   2.171
 6001SOL     OW18901   6.288   2.064   0.149
 6001SOL    HW118902   6.253   2.139   0.093
 6001SOL    HW218903   6.212   2.014   0.191
 6002SOL     OW18904   1.695   0.119   2.139
 6002SOL    HW118905   1.666   0.132   2.044
 6002SOL    HW218906   1.763   0.187   2.164
 6003SOL     OW18907   4.822   3.969   3.965
 6003SOL    HW118908   4.816   3.871   3.948
 6003SOL    HW218909   4.918   3.996   3.968
 6004SOL     OW18910   0.150   3.731   2.662
 6004SOL    HW118911   0.096   3.803   2.706
 6004SOL    HW218912   0.208   3.771   2.591
 6005SOL     OW18913   3.180   6.109   2.886
 6005SOL    HW118914   3.099   6.128   2.941
 6005SOL    HW218915   3.153   6.084   2.793
 6006SOL     OW18916   2.462   6.526   6.903
 6006SOL    HW118917   2.416   6.497   6.819
 6006SOL    HW218918   2.399   6.582   6.958
 6007SOL     OW18919   5.548   2.760   3.562
 6007SOL    HW118920   5.601   2.836   3.600
 6007SOL    HW218921   5.453   2.767   3.593
 6008SOL     OW18922   3.700   5.012   6.443
 6008SOL    HW118923   3.723   5.109   6.442
 6008SOL    HW218924   3.763   4.963   6.503
 6009SOL     OW18925   3.412   2.133   4.398
 6009SOL    HW118926   3.401   2.225   4.361
 6009SOL    HW218927   3.349   2.070   4.352
 6010SOL     OW18928   1.107   3.400   3.517
 6010SOL    HW118929   1.100   3.328   3.586
 6010SOL    HW218930   1.204   3.414   3.494
 6011SOL     OW18931   6.063   3.211   3.205
 6011SOL    HW118932   6.003   3.145   3.160
 6011SOL    HW218933   6.007   3.283   3.246
 6012SOL     OW18934   6.737   3.423   0.369
 6012SOL    HW118935   6.831   3.454   0.356
 6012SOL    HW218936   6.674   3.488   0.326
 6013SOL     OW18937   5.709   1.484   2.439
 6013SOL    HW118938   5.725   1.416   2.367
 6013SOL    HW218939   5.657   1.561   2.401
 6014SOL     OW18940   6.053   0.511   0.893
 6014SOL    HW118941   6.137   0.463   0.865
 6014SOL    HW218942   6.038   0.589   0.832
 6015SOL     OW18943   5.547   1.750   4.683
 6015SOL    HW118944   5.546   1.662   4.636
 6015SOL    HW218945   5.454   1.775   4.711
 6016SOL     OW18946   1.906   6.810   5.246
 6016SOL    HW118947   1.818   6.768   5.267
 6016SOL    HW218948   1.967   6.802   5.325
 6017SOL     OW18949   6.759   4.758   2.686
 6017SOL    HW118950   6.850   4.716   2.681
 6017SOL    HW218951   6.731   4.787   2.595
 6018SOL     OW18952   2.139   4.896   0.976
 6018SOL    HW118953   2.050   4.896   1.022
 6018SOL    HW218954   2.135   4.834   0.897
 6019SOL     OW18955   4.211   0.121   4.258
 6019SOL    HW118956   4.277   0.057   4.298
 6019SOL    HW218957   4.188   0.092   4.165
 6020SOL     OW18958   3.859   0.318   2.840
 6020SOL    HW118959   3.838   0.343   2.746
 6020SOL    HW218960   3.839   0.396   2.900
 6021SOL     OW18961   4.234   1.172   2.705
 6021SOL    HW118962   4.163   1.167   2.635
 6021SOL    HW218963   4.308   1.230   2.673
 6022SOL     OW18964   4.212   1.861   4.645
 6022SOL    HW118965   4.266   1.935   4.683
 6022SOL    HW218966   4.177   1.803   4.719
 6023SOL     OW18967   7.001   1.218   2.225
 6023SOL    HW118968   0.008   1.126   2.236
 6023SOL    HW218969   6.995   1.240   2.127
 6024SOL     OW18970   0.851   4.874   2.755
 6024SOL    HW118971   0.841   4.777   2.779
 6024SOL    HW218972   0.764   4.909   2.721
 6025SOL     OW18973   4.421   2.042   1.499
 6025SOL    HW118974   4.484   1.967   1.521
 6025SOL    HW218975   4.375   2.022   1.412
 6026SOL     OW18976   0.441   4.541   5.325
 6026SOL    HW118977   0.405   4.515   5.235
 6026SOL    HW218978   0.398   4.627   5.354
 6027SOL     OW18979   3.013   3.772   0.495
 6027SOL    HW118980   3.044   3.712   0.421
 6027SOL    HW218981   2.946   3.724   0.551
 6028SOL     OW18982   1.668   3.598   0.343
 6028SOL    HW118983   1.585   3.640   0.378
 6028SOL    HW218984   1.730   3.669   0.308
 6029SOL     OW18985   1.871   5.421   1.371
 6029SOL    HW118986   1.895   5.440   1.276
 6029SOL    HW218987   1.943   5.455   1.431
 6030SOL     OW18988   2.206   0.374   1.347
 6030SOL    HW118989   2.164   0.459   1.315
 6030SOL    HW218990   2.240   0.322   1.268
 6031SOL     OW18991   4.993   0.142   5.040
 6031SOL    HW118992   4.916   0.171   5.096
 6031SOL    HW218993   4.965   0.065   4.982
 6032SOL     OW18994   0.416   3.187   2.882
 6032SOL    HW118995   0.336   3.205   2.826
 6032SOL    HW218996   0.387   3.171   2.977
 6033SOL     OW18997   1.125   0.571   4.234
 6033SOL    HW118998   1.084   0.492   4.188
 6033SOL    HW218999   1.225   0.559   4.236
 6034SOL     OW19000   2.020   3.875   5.418
 6034SOL    HW119001   1.943   3.910   5.365
 6034SOL    HW219002   2.092   3.843   5.356
 6035SOL     OW19003   6.162   1.180   4.119
 6035SOL    HW119004   6.245   1.207   4.169
 6035SOL    HW219005   6.108   1.261   4.098
 6036SOL     OW19006   6.945   0.391   4.744
 6036SOL    HW119007   6.857   0.391   4.698
 6036SOL    HW219008   6.932   0.401   4.843
 6037SOL     OW19009   6.158   5.203   4.640
 6037SOL    HW119010   6.255   5.184   4.629
 6037SOL    HW219011   6.143   5.259   4.722
 6038SOL     OW19012   4.658   3.826   6.679
 6038SOL    HW119013   4.577   3.770   6.663
 6038SOL    HW219014   4.739   3.777   6.647
 6039SOL     OW19015   3.376   4.109   3.045
 6039SOL    HW119016   3.277   4.102   3.034
 6039SOL    HW219017   3.397   4.124   3.142
 6040SOL     OW19018   0.376   1.802   0.205
 6040SOL    HW119019   0.447   1.821   0.273
 6040SOL    HW219020   0.313   1.879   0.200
 6041SOL     OW19021   0.598   2.885   0.380
 6041SOL    HW119022   0.570   2.813   0.444
 6041SOL    HW219023   0.692   2.869   0.351
 6042SOL     OW19024   4.949   5.033   3.739
 6042SOL    HW119025   4.924   5.128   3.721
 6042SOL    HW219026   5.042   5.029   3.775
 6043SOL     OW19027   1.091   4.685   4.299
 6043SOL    HW119028   1.020   4.697   4.230
 6043SOL    HW219029   1.068   4.738   4.380
 6044SOL     OW19030   1.205   0.728   1.858
 6044SOL    HW119031   1.301   0.704   1.844
 6044SOL    HW219032   1.160   0.657   1.913
 6045SOL     OW19033   0.052   4.233   1.875
 6045SOL    HW119034   6.992   4.220   1.831
 6045SOL    HW219035   0.123   4.235   1.805
 6046SOL     OW19036   2.738   2.829   0.846
 6046SOL    HW119037   2.755   2.883   0.764
 6046SOL    HW219038   2.773   2.878   0.926
 6047SOL     OW19039   0.110   6.534   4.563
 6047SOL    HW119040   0.162   6.461   4.519
 6047SOL    HW219041   0.110   6.615   4.504
 6048SOL     OW19042   4.234   6.522   5.105
 6048SOL    HW119043   4.248   6.605   5.051
 6048SOL    HW219044   4.270   6.535   5.197
 6049SOL     OW19045   6.456   5.397   1.093
 6049SOL    HW119046   6.545   5.436   1.070
 6049SOL    HW219047   6.412   5.363   1.010
 6050SOL     OW19048   4.968   4.357   4.970
 6050SOL    HW119049   4.943   4.390   5.061
 6050SOL    HW219050   4.989   4.259   4.974
 6051SOL     OW19051   1.736   1.595   2.986
 6051SOL    HW119052   1.782   1.529   3.045
 6051SOL    HW219053   1.722   1.680   3.035
 6052SOL     OW19054   6.860   1.039   0.440
 6052SOL    HW119055   6.853   1.087   0.527
 6052SOL    HW219056   6.768   1.013   0.409
 6053SOL     OW19057   1.698   0.245   6.113
 6053SOL    HW119058   1.795   0.261   6.095
 6053SOL    HW219059   1.680   0.254   6.210
 6054SOL     OW19060   2.488   4.952   0.356
 6054SOL    HW119061   2.566   4.931   0.415
 6054SOL    HW219062   2.497   5.046   0.322
 6055SOL     OW19063   4.995   0.760   4.449
 6055SOL    HW119064   5.069   0.732   4.511
 6055SOL    HW219065   4.915   0.702   4.465
 6056SOL     OW19066   4.876   2.172   6.398
 6056SOL    HW119067   4.793   2.199   6.349
 6056SOL    HW219068   4.956   2.195   6.343
 6057SOL     OW19069   3.760   1.086   5.596
 6057SOL    HW119070   3.798   0.999   5.629
 6057SOL    HW219071   3.669   1.070   5.559
 6058SOL     OW19072   5.635   1.714   4.298
 6058SOL    HW119073   5.703   1.722   4.225
 6058SOL    HW219074   5.660   1.777   4.372
 6059SOL     OW19075   0.170   4.906   6.124
 6059SOL    HW119076   0.241   4.969   6.091
 6059SOL    HW219077   0.158   4.919   6.222
 6060SOL     OW19078   4.298   6.676   5.513
 6060SOL    HW119079   4.353   6.751   5.551
 6060SOL    HW219080   4.359   6.605   5.478
 6061SOL     OW19081   2.488   1.865   6.354
 6061SOL    HW119082   2.565   1.804   6.372
 6061SOL    HW219083   2.461   1.858   6.258
 6062SOL     OW19084   2.658   0.226   4.113
 6062SOL    HW119085   2.671   0.279   4.030
 6062SOL    HW219086   2.711   0.141   4.108
 6063SOL     OW19087   4.472   0.158   6.836
 6063SOL    HW119088   4.434   0.138   6.926
 6063SOL    HW219089   4.486   0.256   6.826
 6064SOL     OW19090   1.564   5.723   3.522
 6064SOL    HW119091   1.491   5.656   3.503
 6064SOL    HW219092   1.541   5.775   3.604
 6065SOL     OW19093   0.275   0.472   0.777
 6065SOL    HW119094   0.189   0.488   0.729
 6065SOL    HW219095   0.326   0.558   0.784
 6066SOL     OW19096   4.299   2.879   6.577
 6066SOL    HW119097   4.230   2.938   6.619
 6066SOL    HW219098   4.317   2.801   6.637
 6067SOL     OW19099   6.581   1.951   6.807
 6067SOL    HW119100   6.497   2.004   6.795
 6067SOL    HW219101   6.557   1.855   6.823
 6068SOL     OW19102   4.693   2.580   4.833
 6068SOL    HW119103   4.618   2.514   4.839
 6068SOL    HW219104   4.731   2.579   4.740
 6069SOL     OW19105   6.358   4.039   4.177
 6069SOL    HW119106   6.323   4.053   4.084
 6069SOL    HW219107   6.342   3.944   4.204
 6070SOL     OW19108   4.533   2.012   6.105
 6070SOL    HW119109   4.595   2.078   6.147
 6070SOL    HW219110   4.586   1.943   6.055
 6071SOL     OW19111   4.238   6.033   4.898
 6071SOL    HW119112   4.275   6.118   4.861
 6071SOL    HW219113   4.226   6.041   4.997
 6072SOL     OW19114   0.409   1.767   1.018
 6072SOL    HW119115   0.378   1.693   0.959
 6072SOL    HW219116   0.331   1.824   1.045
 6073SOL     OW19117   6.750   2.577   1.032
 6073SOL    HW119118   6.740   2.509   1.105
 6073SOL    HW219119   6.734   2.534   0.943
 6074SOL     OW19120   0.585   0.290   4.288
 6074SOL    HW119121   0.505   0.269   4.232
 6074SOL    HW219122   0.630   0.204   4.314
 6075SOL     OW19123   5.818   4.184   6.585
 6075SOL    HW119124   5.821   4.099   6.637
 6075SOL    HW219125   5.814   4.261   6.648
 6076SOL     OW19126   2.036   6.474   4.423
 6076SOL    HW119127   2.026   6.376   4.437
 6076SOL    HW219128   1.979   6.524   4.488
 6077SOL     OW19129   6.050   5.894   2.159
 6077SOL    HW119130   6.124   5.828   2.149
 6077SOL    HW219131   5.965   5.845   2.180
 6078SOL     OW19132   2.571   4.553   3.635
 6078SOL    HW119133   2.515   4.472   3.623
 6078SOL    HW219134   2.646   4.551   3.570
 6079SOL     OW19135   2.408   1.516   0.274
 6079SOL    HW119136   2.455   1.604   0.279
 6079SOL    HW219137   2.351   1.513   0.192
 6080SOL     OW19138   5.986   2.346   2.152
 6080SOL    HW119139   5.927   2.270   2.179
 6080SOL    HW219140   6.056   2.313   2.088
 6081SOL     OW19141   0.571   3.943   3.151
 6081SOL    HW119142   0.488   3.942   3.095
 6081SOL    HW219143   0.573   4.027   3.206
 6082SOL     OW19144   4.097   1.768   3.879
 6082SOL    HW119145   4.060   1.710   3.952
 6082SOL    HW219146   4.045   1.853   3.874
 6083SOL     OW19147   1.741   6.569   0.338
 6083SOL    HW119148   1.679   6.607   0.406
 6083SOL    HW219149   1.691   6.507   0.277
 6084SOL     OW19150   0.706   4.878   5.694
 6084SOL    HW119151   0.795   4.922   5.690
 6084SOL    HW219152   0.634   4.947   5.680
 6085SOL     OW19153   5.533   4.002   1.146
 6085SOL    HW119154   5.567   3.941   1.075
 6085SOL    HW219155   5.433   4.003   1.145
 6086SOL     OW19156   3.030   1.591   3.740
 6086SOL    HW119157   3.068   1.683   3.728
 6086SOL    HW219158   3.016   1.574   3.838
 6087SOL     OW19159   5.238   6.904   6.599
 6087SOL    HW119160   5.149   6.878   6.561
 6087SOL    HW219161   5.225   6.952   6.686
 6088SOL     OW19162   0.475   0.168   4.540
 6088SOL    HW119163   0.550   0.114   4.500
 6088SOL    HW219164   0.397   0.108   4.556
 6089SOL     OW19165   0.230   3.595   0.109
 6089SOL    HW119166   0.263   3.638   0.193
 6089SOL    HW219167   0.231   3.661   0.034
 6090SOL     OW19168   0.057   6.062   4.647
 6090SOL    HW119169   0.100   6.152   4.640
 6090SOL    HW219170   0.064   6.015   4.559
 6091SOL     OW19171   5.702   1.732   2.079
 6091SOL    HW119172   5.692   1.638   2.044
 6091SOL    HW219173   5.799   1.753   2.090
 6092SOL     OW19174   1.882   2.072   1.492
 6092SOL    HW119175   1.918   2.151   1.443
 6092SOL    HW219176   1.943   2.050   1.569
 6093SOL     OW19177   0.805   3.093   1.376
 6093SOL    HW119178   0.736   3.044   1.322
 6093SOL    HW219179   0.878   3.124   1.316
 6094SOL     OW19180   1.080   0.814   1.290
 6094SOL    HW119181   1.125   0.725   1.302
 6094SOL    HW219182   1.067   0.833   1.193
 6095SOL     OW19183   6.698   3.791   5.794
 6095SOL    HW119184   6.646   3.797   5.879
 6095SOL    HW219185   6.640   3.750   5.723
 6096SOL     OW19186   3.624   1.710   3.163
 6096SOL    HW119187   3.584   1.799   3.185
 6096SOL    HW219188   3.603   1.687   3.068
 6097SOL     OW19189   3.002   2.152   2.270
 6097SOL    HW119190   3.100   2.131   2.277
 6097SOL    HW219191   2.989   2.225   2.203
 6098SOL     OW19192   1.831   2.128   5.879
 6098SOL    HW119193   1.797   2.222   5.886
 6098SOL    HW219194   1.926   2.124   5.910
 6099SOL     OW19195   6.121   5.586   4.828
 6099SOL    HW119196   6.063   5.609   4.906
 6099SOL    HW219197   6.070   5.602   4.743
 6100SOL     OW19198   6.534   2.923   0.243
 6100SOL    HW119199   6.613   2.867   0.217
 6100SOL    HW219200   6.565   3.016   0.264
 6101SOL     OW19201   6.088   1.542   4.993
 6101SOL    HW119202   6.090   1.442   5.003
 6101SOL    HW219203   5.995   1.575   5.010
 6102SOL     OW19204   2.753   0.763   5.446
 6102SOL    HW119205   2.733   0.668   5.423
 6102SOL    HW219206   2.668   0.809   5.472
 6103SOL     OW19207   6.103   6.666   6.238
 6103SOL    HW119208   6.045   6.672   6.319
 6103SOL    HW219209   6.083   6.581   6.189
 6104SOL     OW19210   0.983   2.750   6.757
 6104SOL    HW119211   0.900   2.702   6.788
 6104SOL    HW219212   0.993   2.835   6.808
 6105SOL     OW19213   3.395   5.891   4.444
 6105SOL    HW119214   3.475   5.946   4.419
 6105SOL    HW219215   3.313   5.933   4.408
 6106SOL     OW19216   3.429   5.449   5.253
 6106SOL    HW119217   3.434   5.548   5.262
 6106SOL    HW219218   3.495   5.407   5.316
 6107SOL     OW19219   2.206   4.349   5.450
 6107SOL    HW119220   2.260   4.284   5.397
 6107SOL    HW219221   2.136   4.300   5.502
 6108SOL     OW19222   0.369   2.302   4.997
 6108SOL    HW119223   0.335   2.241   4.926
 6108SOL    HW219224   0.344   2.267   5.087
 6109SOL     OW19225   6.551   4.811   1.266
 6109SOL    HW119226   6.556   4.712   1.280
 6109SOL    HW219227   6.597   4.858   1.341
 6110SOL     OW19228   2.896   1.520   4.784
 6110SOL    HW119229   2.800   1.503   4.808
 6110SOL    HW219230   2.902   1.555   4.691
 6111SOL     OW19231   1.254   4.812   3.132
 6111SOL    HW119232   1.215   4.721   3.124
 6111SOL    HW219233   1.339   4.807   3.185
 6112SOL     OW19234   0.328   1.760   2.621
 6112SOL    HW119235   0.311   1.853   2.656
 6112SOL    HW219236   0.382   1.709   2.687
 6113SOL     OW19237   1.743   6.177   5.309
 6113SOL    HW119238   1.669   6.167   5.376
 6113SOL    HW219239   1.825   6.210   5.355
 6114SOL     OW19240   4.761   5.727   0.430
 6114SOL    HW119241   4.699   5.710   0.506
 6114SOL    HW219242   4.838   5.663   0.434
 6115SOL     OW19243   5.873   4.959   2.676
 6115SOL    HW119244   5.900   4.946   2.771
 6115SOL    HW219245   5.882   5.055   2.651
 6116SOL     OW19246   4.333   0.653   1.959
 6116SOL    HW119247   4.296   0.736   2.001
 6116SOL    HW219248   4.374   0.596   2.030
 6117SOL     OW19249   5.340   0.485   4.673
 6117SOL    HW119250   5.279   0.564   4.677
 6117SOL    HW219251   5.312   0.418   4.742
 6118SOL     OW19252   6.038   0.352   3.213
 6118SOL    HW119253   6.095   0.344   3.132
 6118SOL    HW219254   6.010   0.448   3.224
 6119SOL     OW19255   6.736   5.006   4.284
 6119SOL    HW119256   6.740   5.050   4.195
 6119SOL    HW219257   6.784   5.062   4.351
 6120SOL     OW19258   2.454   1.072   3.075
 6120SOL    HW119259   2.370   1.024   3.102
 6120SOL    HW219260   2.497   1.023   2.998
 6121SOL     OW19261   6.737   2.351   4.501
 6121SOL    HW119262   6.697   2.363   4.592
 6121SOL    HW219263   6.740   2.254   4.478
 6122SOL     OW19264   4.962   5.283   3.108
 6122SOL    HW119265   4.924   5.217   3.173
 6122SOL    HW219266   5.011   5.234   3.036
 6123SOL     OW19267   5.766   0.968   1.992
 6123SOL    HW119268   5.738   0.902   1.922
 6123SOL    HW219269   5.737   0.935   2.082
 6124SOL     OW19270   3.539   0.647   5.759
 6124SOL    HW119271   3.502   0.712   5.692
 6124SOL    HW219272   3.466   0.588   5.793
 6125SOL     OW19273   1.915   5.352   1.754
 6125SOL    HW119274   1.935   5.448   1.772
 6125SOL    HW219275   1.851   5.318   1.823
 6126SOL     OW19276   5.287   5.439   2.529
 6126SOL    HW119277   5.320   5.416   2.620
 6126SOL    HW219278   5.204   5.494   2.536
 6127SOL     OW19279   2.516   4.810   1.631
 6127SOL    HW119280   2.466   4.897   1.626
 6127SOL    HW219281   2.600   4.823   1.683
 6128SOL     OW19282   5.385   2.057   0.578
 6128SOL    HW119283   5.416   2.000   0.654
 6128SOL    HW219284   5.376   2.000   0.496
 6129SOL     OW19285   5.893   5.028   3.751
 6129SOL    HW119286   5.855   4.942   3.784
 6129SOL    HW219287   5.991   5.032   3.773
 6130SOL     OW19288   5.239   3.257   2.396
 6130SOL    HW119289   5.302   3.263   2.318
 6130SOL    HW219290   5.151   3.222   2.366
 6131SOL     OW19291   6.484   0.857   5.190
 6131SOL    HW119292   6.488   0.782   5.257
 6131SOL    HW219293   6.559   0.846   5.124
 6132SOL     OW19294   5.810   2.583   0.773
 6132SOL    HW119295   5.865   2.666   0.767
 6132SOL    HW219296   5.769   2.564   0.684
 6133SOL     OW19297   0.751   4.417   0.517
 6133SOL    HW119298   0.771   4.486   0.447
 6133SOL    HW219299   0.751   4.460   0.607
 6134SOL     OW19300   4.607   3.422   6.031
 6134SOL    HW119301   4.579   3.448   5.939
 6134SOL    HW219302   4.672   3.490   6.066
 6135SOL     OW19303   5.931   6.826   1.343
 6135SOL    HW119304   5.953   6.798   1.249
 6135SOL    HW219305   5.884   6.751   1.390
 6136SOL     OW19306   0.323   1.840   1.613
 6136SOL    HW119307   0.308   1.745   1.588
 6136SOL    HW219308   0.330   1.848   1.712
 6137SOL     OW19309   2.600   0.101   6.255
 6137SOL    HW119310   2.682   0.060   6.294
 6137SOL    HW219311   2.525   0.035   6.258
 6138SOL     OW19312   4.381   0.628   3.033
 6138SOL    HW119313   4.290   0.670   3.035
 6138SOL    HW219314   4.372   0.532   3.005
 6139SOL     OW19315   2.011   4.510   4.052
 6139SOL    HW119316   2.070   4.466   4.119
 6139SOL    HW219317   1.923   4.533   4.094
 6140SOL     OW19318   1.751   6.754   1.316
 6140SOL    HW119319   1.761   6.828   1.383
 6140SOL    HW219320   1.822   6.763   1.246
 6141SOL     OW19321   6.495   6.104   6.321
 6141SOL    HW119322   6.428   6.049   6.271
 6141SOL    HW219323   6.457   6.132   6.408
 6142SOL     OW19324   0.558   4.627   2.046
 6142SOL    HW119325   0.496   4.679   2.105
 6142SOL    HW219326   0.523   4.629   1.952
 6143SOL     OW19327   6.326   5.061   6.308
 6143SOL    HW119328   6.240   5.020   6.336
 6143SOL    HW219329   6.399   4.993   6.311
 6144SOL     OW19330   0.422   4.744   3.750
 6144SOL    HW119331   0.472   4.770   3.832
 6144SOL    HW219332   0.354   4.814   3.728
 6145SOL     OW19333   5.282   6.076   3.309
 6145SOL    HW119334   5.228   6.012   3.255
 6145SOL    HW219335   5.349   6.026   3.363
 6146SOL     OW19336   5.349   0.720   3.299
 6146SOL    HW119337   5.304   0.634   3.324
 6146SOL    HW219338   5.352   0.780   3.379
 6147SOL     OW19339   1.741   3.424   3.188
 6147SOL    HW119340   1.830   3.461   3.215
 6147SOL    HW219341   1.715   3.462   3.099
 6148SOL     OW19342   6.689   6.670   4.866
 6148SOL    HW119343   6.615   6.651   4.802
 6148SOL    HW219344   6.777   6.649   4.823
 6149SOL     OW19345   1.998   6.338   3.762
 6149SOL    HW119346   2.027   6.412   3.701
 6149SOL    HW219347   2.026   6.250   3.724
 6150SOL     OW19348   4.727   5.253   5.927
 6150SOL    HW119349   4.761   5.282   5.837
 6150SOL    HW219350   4.805   5.235   5.987
 6151SOL     OW19351   5.158   2.366   5.457
 6151SOL    HW119352   5.083   2.405   5.403
 6151SOL    HW219353   5.148   2.267   5.461
 6152SOL     OW19354   6.747   4.418   6.657
 6152SOL    HW119355   6.663   4.408   6.603
 6152SOL    HW219356   6.822   4.442   6.596
 6153SOL     OW19357   4.780   3.412   0.869
 6153SOL    HW119358   4.827   3.359   0.940
 6153SOL    HW219359   4.829   3.403   0.782
 6154SOL     OW19360   5.281   3.109   3.023
 6154SOL    HW119361   5.375   3.142   3.022
 6154SOL    HW219362   5.245   3.109   2.929
 6155SOL     OW19363   0.949   3.889   4.793
 6155SOL    HW119364   0.883   3.840   4.736
 6155SOL    HW219365   1.032   3.834   4.802
 6156SOL     OW19366   6.796   0.447   3.269
 6156SOL    HW119367   6.800   0.444   3.169
 6156SOL    HW219368   6.776   0.540   3.300
 6157SOL     OW19369   2.150   1.704   3.432
 6157SOL    HW119370   2.188   1.619   3.396
 6157SOL    HW219371   2.174   1.780   3.371
 6158SOL     OW19372   4.552   0.955   0.272
 6158SOL    HW119373   4.601   1.038   0.248
 6158SOL    HW219374   4.556   0.941   0.371
 6159SOL     OW19375   5.287   3.258   6.626
 6159SOL    HW119376   5.288   3.352   6.661
 6159SOL    HW219377   5.362   3.246   6.561
 6160SOL     OW19378   6.080   5.440   1.635
 6160SOL    HW119379   6.044   5.353   1.599
 6160SOL    HW219380   6.098   5.431   1.733
 6161SOL     OW19381   5.890   0.807   6.211
 6161SOL    HW119382   5.891   0.746   6.132
 6161SOL    HW219383   5.983   0.841   6.227
 6162SOL     OW19384   6.042   5.270   3.943
 6162SOL    HW119385   6.037   5.311   3.852
 6162SOL    HW219386   6.036   5.171   3.935
 6163SOL     OW19387   6.293   4.113   1.945
 6163SOL    HW119388   6.229   4.048   1.985
 6163SOL    HW219389   6.246   4.200   1.928
 6164SOL     OW19390   4.044   2.792   0.353
 6164SOL    HW119391   4.139   2.766   0.371
 6164SOL    HW219392   3.992   2.788   0.439
 6165SOL     OW19393   4.368   6.346   6.921
 6165SOL    HW119394   4.402   6.252   6.924
 6165SOL    HW219395   4.437   6.408   6.957
 6166SOL     OW19396   3.492   1.853   6.184
 6166SOL    HW119397   3.437   1.929   6.218
 6166SOL    HW219398   3.528   1.801   6.261
 6167SOL     OW19399   6.595   4.622   3.539
 6167SOL    HW119400   6.571   4.713   3.505
 6167SOL    HW219401   6.569   4.553   3.471
 6168SOL     OW19402   0.441   2.734   2.400
 6168SOL    HW119403   0.376   2.773   2.465
 6168SOL    HW219404   0.486   2.807   2.350
 6169SOL     OW19405   1.621   4.364   2.482
 6169SOL    HW119406   1.677   4.282   2.482
 6169SOL    HW219407   1.658   4.430   2.416
 6170SOL     OW19408   0.176   2.660   4.398
 6170SOL    HW119409   0.116   2.730   4.361
 6170SOL    HW219410   0.124   2.597   4.455
 6171SOL     OW19411   0.229   0.629   6.155
 6171SOL    HW119412   0.253   0.539   6.120
 6171SOL    HW219413   0.309   0.671   6.198
 6172SOL     OW19414   0.963   3.454   3.960
 6172SOL    HW119415   0.940   3.412   4.048
 6172SOL    HW219416   0.986   3.550   3.974
 6173SOL     OW19417   6.480   6.365   3.241
 6173SOL    HW119418   6.526   6.277   3.249
 6173SOL    HW219419   6.418   6.363   3.163
 6174SOL     OW19420   5.769   4.258   2.207
 6174SOL    HW119421   5.689   4.238   2.264
 6174SOL    HW219422   5.751   4.229   2.113
 6175SOL     OW19423   3.165   2.363   5.664
 6175SOL    HW119424   3.077   2.319   5.646
 6175SOL    HW219425   3.150   2.445   5.719
 6176SOL     OW19426   4.816   4.136   6.285
 6176SOL    HW119427   4.796   4.113   6.380
 6176SOL    HW219428   4.787   4.229   6.266
 6177SOL     OW19429   6.238   0.960   1.746
 6177SOL    HW119430   6.142   0.935   1.760
 6177SOL    HW219431   6.245   1.026   1.670
 6178SOL     OW19432   3.970   4.717   1.504
 6178SOL    HW119433   3.941   4.778   1.431
 6178SOL    HW219434   3.934   4.751   1.591
 6179SOL     OW19435   5.812   5.068   4.149
 6179SOL    HW119436   5.740   5.065   4.080
 6179SOL    HW219437   5.813   5.158   4.193
 6180SOL     OW19438   3.306   4.423   0.075
 6180SOL    HW119439   3.320   4.408   0.173
 6180SOL    HW219440   3.321   4.519   0.053
 6181SOL     OW19441   6.243   6.160   6.866
 6181SOL    HW119442   6.309   6.086   6.856
 6181SOL    HW219443   6.289   6.247   6.848
 6182SOL     OW19444   3.252   2.641   0.535
 6182SOL    HW119445   3.237   2.551   0.576
 6182SOL    HW219446   3.295   2.702   0.602
 6183SOL     OW19447   0.636   0.065   0.516
 6183SOL    HW119448   0.607   0.137   0.579
 6183SOL    HW219449   0.631   0.100   0.422
 6184SOL     OW19450   2.170   0.191   5.657
 6184SOL    HW119451   2.235   0.116   5.653
 6184SOL    HW219452   2.217   0.276   5.680
 6185SOL     OW19453   3.745   2.946   5.493
 6185SOL    HW119454   3.666   2.942   5.431
 6185SOL    HW219455   3.829   2.926   5.442
 6186SOL     OW19456   0.387   1.499   1.799
 6186SOL    HW119457   0.459   1.568   1.789
 6186SOL    HW219458   0.428   1.410   1.815
 6187SOL     OW19459   4.592   1.375   5.830
 6187SOL    HW119460   4.568   1.418   5.917
 6187SOL    HW219461   4.533   1.296   5.814
 6188SOL     OW19462   1.347   1.467   4.840
 6188SOL    HW119463   1.282   1.404   4.883
 6188SOL    HW219464   1.363   1.545   4.901
 6189SOL     OW19465   6.346   6.249   1.396
 6189SOL    HW119466   6.410   6.310   1.443
 6189SOL    HW219467   6.274   6.303   1.353
 6190SOL     OW19468   0.838   2.935   5.008
 6190SOL    HW119469   0.739   2.948   5.003
 6190SOL    HW219470   0.879   3.015   5.051
 6191SOL     OW19471   4.078   3.499   0.121
 6191SOL    HW119472   4.068   3.412   0.170
 6191SOL    HW219473   4.175   3.521   0.113
 6192SOL     OW19474   2.902   1.062   0.709
 6192SOL    HW119475   2.809   1.067   0.746
 6192SOL    HW219476   2.904   1.107   0.620
 6193SOL     OW19477   4.432   5.749   6.662
 6193SOL    HW119478   4.403   5.822   6.600
 6193SOL    HW219479   4.451   5.787   6.752
 6194SOL     OW19480   5.964   6.647   6.453
 6194SOL    HW119481   5.942   6.551   6.474
 6194SOL    HW219482   5.879   6.701   6.454
 6195SOL     OW19483   6.411   6.215   6.561
 6195SOL    HW119484   6.373   6.266   6.638
 6195SOL    HW219485   6.484   6.155   6.594
 6196SOL     OW19486   5.887   3.696   2.979
 6196SOL    HW119487   5.882   3.644   2.894
 6196SOL    HW219488   5.970   3.671   3.029
 6197SOL     OW19489   2.145   5.520   1.818
 6197SOL    HW119490   2.146   5.501   1.917
 6197SOL    HW219491   2.235   5.553   1.789
 6198SOL     OW19492   5.951   0.966   6.982
 6198SOL    HW119493   5.966   0.950   6.885
 6198SOL    HW219494   5.870   1.023   6.996
 6199SOL     OW19495   1.279   0.210   6.454
 6199SOL    HW119496   1.358   0.165   6.411
 6199SOL    HW219497   1.310   0.293   6.500
 6200SOL     OW19498   1.548   1.326   2.215
 6200SOL    HW119499   1.450   1.335   2.233
 6200SOL    HW219500   1.590   1.271   2.286
 6201SOL     OW19501   0.424   4.724   3.410
 6201SOL    HW119502   0.346   4.663   3.398
 6201SOL    HW219503   0.480   4.723   3.327
 6202SOL     OW19504   5.968   1.933   2.565
 6202SOL    HW119505   5.880   1.945   2.612
 6202SOL    HW219506   5.979   1.837   2.541
 6203SOL     OW19507   6.466   0.264   1.696
 6203SOL    HW119508   6.492   0.308   1.782
 6203SOL    HW219509   6.432   0.333   1.632
 6204SOL     OW19510   1.689   0.063   5.017
 6204SOL    HW119511   1.642   7.028   5.079
 6204SOL    HW219512   1.653   0.052   4.925
 6205SOL     OW19513   5.228   4.450   3.261
 6205SOL    HW119514   5.230   4.481   3.356
 6205SOL    HW219515   5.134   4.449   3.227
 6206SOL     OW19516   6.111   1.722   4.377
 6206SOL    HW119517   6.194   1.686   4.419
 6206SOL    HW219518   6.031   1.686   4.424
 6207SOL     OW19519   1.844   5.122   4.632
 6207SOL    HW119520   1.775   5.171   4.686
 6207SOL    HW219521   1.847   5.027   4.662
 6208SOL     OW19522   3.932   3.712   6.013
 6208SOL    HW119523   3.966   3.649   5.943
 6208SOL    HW219524   4.007   3.736   6.075
 6209SOL     OW19525   3.259   2.554   1.668
 6209SOL    HW119526   3.326   2.480   1.677
 6209SOL    HW219527   3.249   2.577   1.571
 6210SOL     OW19528   4.900   2.297   4.163
 6210SOL    HW119529   4.980   2.248   4.127
 6210SOL    HW219530   4.896   2.388   4.121
 6211SOL     OW19531   5.521   4.325   5.360
 6211SOL    HW119532   5.446   4.323   5.294
 6211SOL    HW219533   5.607   4.342   5.313
 6212SOL     OW19534   4.241   5.567   4.748
 6212SOL    HW119535   4.293   5.576   4.663
 6212SOL    HW219536   4.273   5.636   4.813
 6213SOL     OW19537   4.415   6.124   0.088
 6213SOL    HW119538   4.506   6.165   0.086
 6213SOL    HW219539   4.363   6.161   0.165
 6214SOL     OW19540   6.887   5.971   6.201
 6214SOL    HW119541   6.885   6.031   6.282
 6214SOL    HW219542   6.834   5.889   6.219
 6215SOL     OW19543   5.597   2.373   5.592
 6215SOL    HW119544   5.550   2.306   5.536
 6215SOL    HW219545   5.560   2.464   5.574
 6216SOL     OW19546   4.484   1.706   3.509
 6216SOL    HW119547   4.542   1.694   3.590
 6216SOL    HW219548   4.389   1.688   3.533
 6217SOL     OW19549   0.291   4.515   3.199
 6217SOL    HW119550   0.207   4.565   3.178
 6217SOL    HW219551   0.335   4.486   3.114
 6218SOL     OW19552   4.797   6.472   0.102
 6218SOL    HW119553   4.879   6.429   0.139
 6218SOL    HW219554   4.815   6.569   0.083
 6219SOL     OW19555   1.860   1.072   6.293
 6219SOL    HW119556   1.916   1.127   6.355
 6219SOL    HW219557   1.920   1.026   6.227
 6220SOL     OW19558   3.549   6.610   0.639
 6220SOL    HW119559   3.558   6.670   0.560
 6220SOL    HW219560   3.616   6.536   0.632
 6221SOL     OW19561   5.649   5.524   6.990
 6221SOL    HW119562   5.667   5.596   6.923
 6221SOL    HW219563   5.718   5.527   0.033
 6222SOL     OW19564   6.366   1.606   1.730
 6222SOL    HW119565   6.273   1.641   1.721
 6222SOL    HW219566   6.425   1.679   1.764
 6223SOL     OW19567   0.378   4.880   4.038
 6223SOL    HW119568   0.431   4.964   4.040
 6223SOL    HW219569   0.294   4.893   4.091
 6224SOL     OW19570   3.579   0.371   6.917
 6224SOL    HW119571   3.554   0.317   6.998
 6224SOL    HW219572   3.508   0.440   6.899
 6225SOL     OW19573   4.730   6.520   6.620
 6225SOL    HW119574   4.688   6.605   6.649
 6225SOL    HW219575   4.765   6.530   6.527
 6226SOL     OW19576   1.436   1.263   4.709
 6226SOL    HW119577   1.412   1.274   4.612
 6226SOL    HW219578   1.416   1.348   4.758
 6227SOL     OW19579   2.779   4.353   5.313
 6227SOL    HW119580   2.844   4.420   5.277
 6227SOL    HW219581   2.816   4.312   5.396
 6228SOL     OW19582   0.757   3.082   3.284
 6228SOL    HW119583   0.670   3.123   3.313
 6228SOL    HW219584   0.738   3.003   3.226
 6229SOL     OW19585   0.362   3.120   3.923
 6229SOL    HW119586   0.278   3.174   3.919
 6229SOL    HW219587   0.399   3.124   4.016
 6230SOL     OW19588   0.011   0.492   1.707
 6230SOL    HW119589   0.019   0.418   1.640
 6230SOL    HW219590   6.993   0.570   1.666
 6231SOL     OW19591   2.215   5.197   6.893
 6231SOL    HW119592   2.263   5.128   6.840
 6231SOL    HW219593   2.263   5.213   6.980
 6232SOL     OW19594   3.914   0.892   6.511
 6232SOL    HW119595   3.865   0.847   6.436
 6232SOL    HW219596   3.849   0.933   6.574
 6233SOL     OW19597   6.867   3.516   1.667
 6233SOL    HW119598   6.791   3.579   1.654
 6233SOL    HW219599   6.848   3.455   1.745
 6234SOL     OW19600   4.821   5.422   4.659
 6234SOL    HW119601   4.885   5.495   4.682
 6234SOL    HW219602   4.730   5.460   4.645
 6235SOL     OW19603   0.226   0.105   2.675
 6235SOL    HW119604   0.189   0.075   2.763
 6235SOL    HW219605   0.185   0.193   2.649
 6236SOL     OW19606   0.042   5.855   1.519
 6236SOL    HW119607   0.039   5.904   1.606
 6236SOL    HW219608   0.136   5.824   1.502
 6237SOL     OW19609   3.037   1.319   1.056
 6237SOL    HW119610   3.087   1.233   1.044
 6237SOL    HW219611   3.102   1.395   1.056
 6238SOL     OW19612   2.336   0.710   4.049
 6238SOL    HW119613   2.264   0.673   3.989
 6238SOL    HW219614   2.364   0.800   4.016
 6239SOL     OW19615   4.699   1.354   4.414
 6239SOL    HW119616   4.669   1.447   4.435
 6239SOL    HW219617   4.735   1.310   4.496
 6240SOL     OW19618   3.584   2.861   4.133
 6240SOL    HW119619   3.566   2.775   4.085
 6240SOL    HW219620   3.527   2.934   4.095
 6241SOL     OW19621   3.073   0.574   3.549
 6241SOL    HW119622   3.022   0.659   3.556
 6241SOL    HW219623   3.048   0.527   3.464
 6242SOL     OW19624   2.550   1.975   3.294
 6242SOL    HW119625   2.583   1.884   3.316
 6242SOL    HW219626   2.602   2.043   3.346
 6243SOL     OW19627   4.436   1.898   6.332
 6243SOL    HW119628   4.442   1.803   6.302
 6243SOL    HW219629   4.423   1.957   6.253
 6244SOL     OW19630   5.310   3.478   2.569
 6244SOL    HW119631   5.258   3.400   2.536
 6244SOL    HW219632   5.256   3.561   2.558
 6245SOL     OW19633   0.218   4.437   2.328
 6245SOL    HW119634   0.121   4.417   2.318
 6245SOL    HW219635   0.271   4.370   2.276
 6246SOL     OW19636   6.899   0.034   4.135
 6246SOL    HW119637   6.898   0.068   4.041
 6246SOL    HW219638   6.968   6.992   4.144
 6247SOL     OW19639   5.956   6.371   3.942
 6247SOL    HW119640   6.028   6.436   3.965
 6247SOL    HW219641   5.950   6.362   3.842
 6248SOL     OW19642   3.834   2.780   5.677
 6248SOL    HW119643   3.785   2.846   5.621
 6248SOL    HW219644   3.786   2.692   5.674
 6249SOL     OW19645   6.177   2.961   2.052
 6249SOL    HW119646   6.153   2.991   2.144
 6249SOL    HW219647   6.096   2.959   1.994
 6250SOL     OW19648   5.971   0.332   0.003
 6250SOL    HW119649   5.894   0.360   0.060
 6250SOL    HW219650   6.056   0.360   0.046
 6251SOL     OW19651   2.971   0.442   3.767
 6251SOL    HW119652   2.946   0.437   3.670
 6251SOL    HW219653   3.064   0.479   3.776
 6252SOL     OW19654   3.246   5.720   6.396
 6252SOL    HW119655   3.223   5.726   6.298
 6252SOL    HW219656   3.237   5.625   6.426
 6253SOL     OW19657   3.756   5.640   4.625
 6253SOL    HW119658   3.824   5.644   4.552
 6253SOL    HW219659   3.802   5.641   4.714
 6254SOL     OW19660   0.178   0.037   1.152
 6254SOL    HW119661   0.131   0.122   1.129
 6254SOL    HW219662   0.111   6.997   1.178
 6255SOL     OW19663   0.587   1.264   1.331
 6255SOL    HW119664   0.624   1.171   1.330
 6255SOL    HW219665   0.654   1.327   1.290
 6256SOL     OW19666   5.725   6.174   2.130
 6256SOL    HW119667   5.720   6.078   2.101
 6256SOL    HW219668   5.644   6.197   2.183
 6257SOL     OW19669   3.063   4.033   1.132
 6257SOL    HW119670   3.131   4.105   1.145
 6257SOL    HW219671   3.081   3.984   1.047
 6258SOL     OW19672   4.677   5.501   4.984
 6258SOL    HW119673   4.622   5.498   4.900
 6258SOL    HW219674   4.637   5.438   5.051
 6259SOL     OW19675   3.466   0.689   4.265
 6259SOL    HW119676   3.485   0.719   4.359
 6259SOL    HW219677   3.542   0.717   4.206
 6260SOL     OW19678   1.637   1.260   6.649
 6260SOL    HW119679   1.635   1.198   6.727
 6260SOL    HW219680   1.720   1.243   6.595
 6261SOL     OW19681   3.640   0.012   0.831
 6261SOL    HW119682   3.681   6.961   0.788
 6261SOL    HW219683   3.542   0.015   0.811
 6262SOL     OW19684   5.401   0.813   2.433
 6262SOL    HW119685   5.459   0.741   2.395
 6262SOL    HW219686   5.436   0.839   2.523
 6263SOL     OW19687   5.502   6.052   5.510
 6263SOL    HW119688   5.553   6.138   5.511
 6263SOL    HW219689   5.554   5.982   5.560
 6264SOL     OW19690   2.628   6.500   0.339
 6264SOL    HW119691   2.551   6.441   0.314
 6264SOL    HW219692   2.642   6.497   0.438
 6265SOL     OW19693   4.943   6.998   6.228
 6265SOL    HW119694   4.939   0.012   6.137
 6265SOL    HW219695   4.879   0.016   6.289
 6266SOL     OW19696   2.751   5.069   2.863
 6266SOL    HW119697   2.764   5.103   2.956
 6266SOL    HW219698   2.697   4.985   2.866
 6267SOL     OW19699   2.147   6.622   4.709
 6267SOL    HW119700   2.177   6.626   4.614
 6267SOL    HW219701   2.111   6.531   4.729
 6268SOL     OW19702   3.063   1.502   0.532
 6268SOL    HW119703   3.138   1.504   0.467
 6268SOL    HW219704   3.097   1.474   0.622
 6269SOL     OW19705   6.547   4.823   0.321
 6269SOL    HW119706   6.593   4.747   0.274
 6269SOL    HW219707   6.541   4.901   0.259
 6270SOL     OW19708   1.764   6.090   0.679
 6270SOL    HW119709   1.811   6.169   0.640
 6270SOL    HW219710   1.728   6.033   0.606
 6271SOL     OW19711   6.586   3.379   5.925
 6271SOL    HW119712   6.495   3.420   5.933
 6271SOL    HW219713   6.654   3.441   5.965
 6272SOL     OW19714   6.856   0.101   0.114
 6272SOL    HW119715   6.769   0.061   0.144
 6272SOL    HW219716   6.896   0.153   0.189
 6273SOL     OW19717   0.825   6.521   1.545
 6273SOL    HW119718   0.774   6.507   1.461
 6273SOL    HW219719   0.833   6.619   1.563
 6274SOL     OW19720   3.033   5.078   3.436
 6274SOL    HW119721   2.990   5.167   3.447
 6274SOL    HW219722   3.130   5.084   3.461
 6275SOL     OW19723   2.555   5.614   6.554
 6275SOL    HW119724   2.606   5.562   6.486
 6275SOL    HW219725   2.600   5.702   6.569
 6276SOL     OW19726   1.817   5.044   2.582
 6276SOL    HW119727   1.742   5.103   2.551
 6276SOL    HW219728   1.873   5.094   2.648
 6277SOL     OW19729   5.677   2.838   1.009
 6277SOL    HW119730   5.663   2.934   1.031
 6277SOL    HW219731   5.771   2.811   1.032
 6278SOL     OW19732   3.225   2.207   0.266
 6278SOL    HW119733   3.231   2.189   0.168
 6278SOL    HW219734   3.171   2.135   0.310
 6279SOL     OW19735   2.984   6.812   1.849
 6279SOL    HW119736   2.970   6.864   1.764
 6279SOL    HW219737   2.899   6.814   1.903
 6280SOL     OW19738   5.624   2.382   6.513
 6280SOL    HW119739   5.642   2.354   6.608
 6280SOL    HW219740   5.650   2.478   6.502
 6281SOL     OW19741   5.634   4.212   5.959
 6281SOL    HW119742   5.625   4.113   5.957
 6281SOL    HW219743   5.729   4.238   5.943
 6282SOL     OW19744   6.925   3.175   5.944
 6282SOL    HW119745   6.963   3.089   5.910
 6282SOL    HW219746   6.885   3.226   5.867
 6283SOL     OW19747   1.980   6.366   4.752
 6283SOL    HW119748   1.901   6.411   4.793
 6283SOL    HW219749   1.949   6.294   4.691
 6284SOL     OW19750   1.352   3.640   5.284
 6284SOL    HW119751   1.391   3.729   5.307
 6284SOL    HW219752   1.389   3.571   5.346
 6285SOL     OW19753   1.322   3.421   3.154
 6285SOL    HW119754   1.295   3.332   3.118
 6285SOL    HW219755   1.344   3.482   3.078
 6286SOL     OW19756   0.317   2.778   6.916
 6286SOL    HW119757   0.243   2.713   6.935
 6286SOL    HW219758   0.402   2.746   6.956
 6287SOL     OW19759   4.652   5.075   5.215
 6287SOL    HW119760   4.575   5.067   5.279
 6287SOL    HW219761   4.679   4.983   5.185
 6288SOL     OW19762   3.122   3.845   6.317
 6288SOL    HW119763   3.216   3.843   6.283
 6288SOL    HW219764   3.083   3.753   6.315
 6289SOL     OW19765   2.668   4.255   6.003
 6289SOL    HW119766   2.649   4.157   6.012
 6289SOL    HW219767   2.718   4.272   5.918
 6290SOL     OW19768   6.176   6.282   4.730
 6290SOL    HW119769   6.127   6.365   4.759
 6290SOL    HW219770   6.166   6.211   4.800
 6291SOL     OW19771   4.068   3.371   2.901
 6291SOL    HW119772   4.110   3.446   2.953
 6291SOL    HW219773   4.073   3.391   2.803
 6292SOL     OW19774   1.808   4.022   4.195
 6292SOL    HW119775   1.769   3.932   4.172
 6292SOL    HW219776   1.906   4.022   4.177
 6293SOL     OW19777   3.062   1.090   6.711
 6293SOL    HW119778   3.158   1.104   6.737
 6293SOL    HW219779   3.057   1.068   6.614
 6294SOL     OW19780   1.644   1.135   2.406
 6294SOL    HW119781   1.613   1.106   2.497
 6294SOL    HW219782   1.735   1.174   2.412
 6295SOL     OW19783   4.873   3.275   6.405
 6295SOL    HW119784   4.871   3.190   6.458
 6295SOL    HW219785   4.847   3.351   6.464
 6296SOL     OW19786   1.005   3.527   0.490
 6296SOL    HW119787   1.024   3.579   0.407
 6296SOL    HW219788   1.004   3.588   0.568
 6297SOL     OW19789   6.068   1.433   4.175
 6297SOL    HW119790   6.074   1.488   4.092
 6297SOL    HW219791   6.040   1.491   4.252
 6298SOL     OW19792   0.061   6.029   0.998
 6298SOL    HW119793   6.999   6.048   0.960
 6298SOL    HW219794   0.065   6.062   1.092
 6299SOL     OW19795   3.764   1.492   3.640
 6299SOL    HW119796   3.694   1.499   3.711
 6299SOL    HW219797   3.719   1.480   3.551
 6300SOL     OW19798   2.889   1.394   6.891
 6300SOL    HW119799   2.944   1.396   6.808
 6300SOL    HW219800   2.940   1.435   6.967
 6301SOL     OW19801   4.279   6.379   0.399
 6301SOL    HW119802   4.237   6.398   0.488
 6301SOL    HW219803   4.348   6.449   0.379
 6302SOL     OW19804   3.052   2.777   6.115
 6302SOL    HW119805   2.960   2.760   6.079
 6302SOL    HW219806   3.062   2.874   6.137
 6303SOL     OW19807   0.333   5.688   4.797
 6303SOL    HW119808   0.305   5.664   4.890
 6303SOL    HW219809   0.414   5.635   4.772
 6304SOL     OW19810   4.011   0.697   4.253
 6304SOL    HW119811   4.069   0.773   4.283
 6304SOL    HW219812   3.967   0.656   4.332
 6305SOL     OW19813   0.980   5.796   6.125
 6305SOL    HW119814   1.014   5.890   6.132
 6305SOL    HW219815   1.022   5.740   6.196
 6306SOL     OW19816   0.413   5.122   4.763
 6306SOL    HW119817   0.355   5.191   4.721
 6306SOL    HW219818   0.468   5.163   4.836
 6307SOL     OW19819   3.711   2.903   2.113
 6307SOL    HW119820   3.625   2.907   2.063
 6307SOL    HW219821   3.692   2.891   2.211
 6308SOL     OW19822   0.546   2.344   0.434
 6308SOL    HW119823   0.583   2.356   0.527
 6308SOL    HW219824   0.573   2.254   0.399
 6309SOL     OW19825   2.623   6.147   4.788
 6309SOL    HW119826   2.709   6.109   4.822
 6309SOL    HW219827   2.561   6.164   4.864
 6310SOL     OW19828   1.594   0.089   3.088
 6310SOL    HW119829   1.667   0.147   3.123
 6310SOL    HW219830   1.617   7.022   3.103
 6311SOL     OW19831   5.929   0.914   6.695
 6311SOL    HW119832   5.842   0.870   6.673
 6311SOL    HW219833   5.947   0.987   6.629
 6312SOL     OW19834   3.344   6.123   6.574
 6312SOL    HW119835   3.318   6.214   6.607
 6312SOL    HW219836   3.431   6.097   6.615
 6313SOL     OW19837   5.955   5.111   4.476
 6313SOL    HW119838   6.021   5.116   4.551
 6313SOL    HW219839   5.871   5.159   4.502
 6314SOL     OW19840   1.940   6.459   2.863
 6314SOL    HW119841   1.852   6.456   2.815
 6314SOL    HW219842   1.971   6.365   2.880
 6315SOL     OW19843   2.365   2.002   3.562
 6315SOL    HW119844   2.364   2.102   3.569
 6315SOL    HW219845   2.316   1.974   3.479
 6316SOL     OW19846   4.769   1.200   4.634
 6316SOL    HW119847   4.723   1.179   4.721
 6316SOL    HW219848   4.846   1.138   4.621
 6317SOL     OW19849   5.380   5.092   2.084
 6317SOL    HW119850   5.374   5.121   2.180
 6317SOL    HW219851   5.290   5.101   2.041
 6318SOL     OW19852   6.681   6.663   0.457
 6318SOL    HW119853   6.718   6.657   0.365
 6318SOL    HW219854   6.728   6.736   0.507
 6319SOL     OW19855   5.717   1.577   3.878
 6319SOL    HW119856   5.670   1.664   3.866
 6319SOL    HW219857   5.678   1.527   3.955
 6320SOL     OW19858   6.151   1.308   5.975
 6320SOL    HW119859   6.219   1.312   5.902
 6320SOL    HW219860   6.138   1.400   6.013
 6321SOL     OW19861   6.851   2.707   6.852
 6321SOL    HW119862   6.835   2.615   6.887
 6321SOL    HW219863   6.947   2.716   6.826
 6322SOL     OW19864   0.839   0.717   2.519
 6322SOL    HW119865   0.890   0.652   2.463
 6322SOL    HW219866   0.867   0.707   2.615
 6323SOL     OW19867   2.366   5.062   1.023
 6323SOL    HW119868   2.382   5.123   0.945
 6323SOL    HW219869   2.285   5.005   1.005
 6324SOL     OW19870   4.356   3.202   1.160
 6324SOL    HW119871   4.361   3.103   1.173
 6324SOL    HW219872   4.280   3.239   1.214
 6325SOL     OW19873   1.413   2.529   4.039
 6325SOL    HW119874   1.477   2.554   3.966
 6325SOL    HW219875   1.450   2.452   4.090
 6326SOL     OW19876   5.302   4.986   5.538
 6326SOL    HW119877   5.230   4.918   5.540
 6326SOL    HW219878   5.262   5.078   5.545
 6327SOL     OW19879   0.491   1.177   3.772
 6327SOL    HW119880   0.442   1.091   3.755
 6327SOL    HW219881   0.438   1.233   3.835
 6328SOL     OW19882   4.470   3.476   5.327
 6328SOL    HW119883   4.545   3.508   5.269
 6328SOL    HW219884   4.384   3.478   5.276
 6329SOL     OW19885   0.637   1.976   5.563
 6329SOL    HW119886   0.678   2.044   5.503
 6329SOL    HW219887   0.598   2.021   5.643
 6330SOL     OW19888   5.386   1.536   3.594
 6330SOL    HW119889   5.390   1.442   3.627
 6330SOL    HW219890   5.474   1.560   3.553
 6331SOL     OW19891   0.536   3.205   3.440
 6331SOL    HW119892   0.439   3.230   3.442
 6331SOL    HW219893   0.570   3.201   3.534
 6332SOL     OW19894   3.282   1.728   6.539
 6332SOL    HW119895   3.196   1.722   6.590
 6332SOL    HW219896   3.264   1.715   6.442
 6333SOL     OW19897   6.062   0.818   1.255
 6333SOL    HW119898   6.095   0.845   1.165
 6333SOL    HW219899   5.975   0.865   1.274
 6334SOL     OW19900   1.465   1.273   1.658
 6334SOL    HW119901   1.391   1.214   1.691
 6334SOL    HW219902   1.428   1.364   1.639
 6335SOL     OW19903   6.459   2.857   6.746
 6335SOL    HW119904   6.541   2.880   6.798
 6335SOL    HW219905   6.422   2.940   6.703
 6336SOL     OW19906   0.804   3.988   5.064
 6336SOL    HW119907   0.744   3.947   5.133
 6336SOL    HW219908   0.869   3.919   5.031
 6337SOL     OW19909   5.222   6.762   5.108
 6337SOL    HW119910   5.226   6.854   5.147
 6337SOL    HW219911   5.282   6.701   5.160
 6338SOL     OW19912   1.259   1.039   3.020
 6338SOL    HW119913   1.279   0.981   2.941
 6338SOL    HW219914   1.260   1.135   2.992
 6339SOL     OW19915   0.330   4.597   4.045
 6339SOL    HW119916   0.350   4.692   4.023
 6339SOL    HW219917   0.246   4.568   3.999
 6340SOL     OW19918   2.686   3.893   0.516
 6340SOL    HW119919   2.744   3.974   0.525
 6340SOL    HW219920   2.599   3.909   0.563
 6341SOL     OW19921   0.660   5.443   2.418
 6341SOL    HW119922   0.617   5.484   2.498
 6341SOL    HW219923   0.746   5.491   2.397
 6342SOL     OW19924   1.608   1.015   1.092
 6342SOL    HW119925   1.599   0.924   1.134
 6342SOL    HW219926   1.705   1.036   1.079
 6343SOL     OW19927   1.024   5.558   0.409
 6343SOL    HW119928   0.954   5.487   0.419
 6343SOL    HW219929   1.077   5.565   0.493
 6344SOL     OW19930   0.504   1.345   4.070
 6344SOL    HW119931   0.586   1.399   4.089
 6344SOL    HW219932   0.428   1.407   4.048
 6345SOL     OW19933   5.976   2.613   2.267
 6345SOL    HW119934   5.977   2.523   2.224
 6345SOL    HW219935   5.883   2.649   2.269
 6346SOL     OW19936   0.165   4.491   5.440
 6346SOL    HW119937   0.237   4.426   5.417
 6346SOL    HW219938   0.117   4.460   5.522
 6347SOL     OW19939   2.052   2.036   3.149
 6347SOL    HW119940   1.968   2.077   3.112
 6347SOL    HW219941   2.126   2.046   3.082
 6348SOL     OW19942   0.998   2.007   6.060
 6348SOL    HW119943   0.969   1.989   6.154
 6348SOL    HW219944   1.066   2.080   6.060
 6349SOL     OW19945   6.863   1.155   0.667
 6349SOL    HW119946   6.803   1.175   0.744
 6349SOL    HW219947   6.958   1.166   0.695
 6350SOL     OW19948   0.756   6.063   1.460
 6350SOL    HW119949   0.728   6.055   1.364
 6350SOL    HW219950   0.701   6.133   1.505
 6351SOL     OW19951   5.668   4.030   1.560
 6351SOL    HW119952   5.650   3.933   1.575
 6351SOL    HW219953   5.739   4.061   1.623
 6352SOL     OW19954   3.446   0.742   4.569
 6352SOL    HW119955   3.424   0.835   4.538
 6352SOL    HW219956   3.364   0.685   4.566
 6353SOL     OW19957   3.555   6.618   5.951
 6353SOL    HW119958   3.560   6.529   5.906
 6353SOL    HW219959   3.625   6.679   5.913
 6354SOL     OW19960   4.407   5.548   1.755
 6354SOL    HW119961   4.395   5.638   1.798
 6354SOL    HW219962   4.406   5.558   1.656
 6355SOL     OW19963   3.257   5.140   0.787
 6355SOL    HW119964   3.176   5.188   0.753
 6355SOL    HW219965   3.281   5.175   0.878
 6356SOL     OW19966   0.300   5.462   6.047
 6356SOL    HW119967   0.215   5.423   6.012
 6356SOL    HW219968   0.284   5.556   6.077
 6357SOL     OW19969   5.009   1.141   1.866
 6357SOL    HW119970   5.064   1.184   1.937
 6357SOL    HW219971   5.060   1.064   1.827
 6358SOL     OW19972   1.248   1.805   5.451
 6358SOL    HW119973   1.265   1.899   5.419
 6358SOL    HW219974   1.150   1.789   5.457
 6359SOL     OW19975   5.449   6.805   0.737
 6359SOL    HW119976   5.449   6.896   0.697
 6359SOL    HW219977   5.399   6.742   0.679
 6360SOL     OW19978   0.659   1.337   1.570
 6360SOL    HW119979   0.607   1.312   1.488
 6360SOL    HW219980   0.750   1.368   1.542
 6361SOL     OW19981   0.476   1.654   0.499
 6361SOL    HW119982   0.534   1.635   0.578
 6361SOL    HW219983   0.445   1.750   0.502
 6362SOL     OW19984   1.183   5.456   0.628
 6362SOL    HW119985   1.280   5.478   0.622
 6362SOL    HW219986   1.156   5.450   0.724
 6363SOL     OW19987   2.233   4.010   3.022
 6363SOL    HW119988   2.293   3.969   2.953
 6363SOL    HW219989   2.185   3.938   3.071
 6364SOL     OW19990   2.534   2.562   4.145
 6364SOL    HW119991   2.560   2.513   4.228
 6364SOL    HW219992   2.465   2.631   4.167
 6365SOL     OW19993   5.626   6.901   2.926
 6365SOL    HW119994   5.566   6.855   2.992
 6365SOL    HW219995   5.587   6.894   2.835
 6366SOL     OW19996   5.931   0.859   5.065
 6366SOL    HW119997   5.930   0.937   5.128
 6366SOL    HW219998   5.995   0.876   4.991
 6367SOL     OW19999   1.186   2.450   2.722
 6367SOL    HW120000   1.243   2.532   2.710
 6367SOL    HW220001   1.212   2.381   2.655
 6368SOL     OW20002   5.351   3.629   4.548
 6368SOL    HW120003   5.292   3.647   4.626
 6368SOL    HW220004   5.367   3.714   4.498
 6369SOL     OW20005   4.259   5.257   0.583
 6369SOL    HW120006   4.327   5.301   0.525
 6369SOL    HW220007   4.209   5.188   0.531
 6370SOL     OW20008   5.364   3.878   4.431
 6370SOL    HW120009   5.306   3.860   4.352
 6370SOL    HW220010   5.337   3.964   4.473
 6371SOL     OW20011   5.240   3.990   1.512
 6371SOL    HW120012   5.150   4.012   1.473
 6371SOL    HW220013   5.308   4.054   1.477
 6372SOL     OW20014   6.345   1.636   2.347
 6372SOL    HW120015   6.417   1.580   2.306
 6372SOL    HW220016   6.286   1.672   2.275
 6373SOL     OW20017   4.985   3.695   1.674
 6373SOL    HW120018   5.065   3.755   1.683
 6373SOL    HW220019   4.935   3.719   1.590
 6374SOL     OW20020   4.480   3.715   6.922
 6374SOL    HW120021   4.438   3.685   6.837
 6374SOL    HW220022   4.500   3.813   6.917
 6375SOL     OW20023   4.671   1.554   1.843
 6375SOL    HW120024   4.764   1.559   1.806
 6375SOL    HW220025   4.675   1.553   1.942
 6376SOL     OW20026   3.480   0.639   0.229
 6376SOL    HW120027   3.468   0.630   0.328
 6376SOL    HW220028   3.428   0.567   0.182
 6377SOL     OW20029   0.858   0.718   0.587
 6377SOL    HW120030   0.888   0.664   0.508
 6377SOL    HW220031   0.873   0.666   0.671
 6378SOL     OW20032   5.122   4.707   2.037
 6378SOL    HW120033   5.130   4.660   1.949
 6378SOL    HW220034   5.208   4.754   2.058
 6379SOL     OW20035   1.950   5.201   6.867
 6379SOL    HW120036   2.048   5.191   6.884
 6379SOL    HW220037   1.930   5.297   6.845
 6380SOL     OW20038   0.954   4.308   5.210
 6380SOL    HW120039   0.901   4.238   5.257
 6380SOL    HW220040   1.009   4.266   5.139
 6381SOL     OW20041   4.507   2.946   0.433
 6381SOL    HW120042   4.484   3.031   0.480
 6381SOL    HW220043   4.505   2.960   0.334
 6382SOL     OW20044   1.370   1.364   0.212
 6382SOL    HW120045   1.374   1.264   0.214
 6382SOL    HW220046   1.443   1.401   0.269
 6383SOL     OW20047   2.447   2.234   2.057
 6383SOL    HW120048   2.535   2.229   2.104
 6383SOL    HW220049   2.375   2.257   2.122
 6384SOL     OW20050   6.316   3.088   1.835
 6384SOL    HW120051   6.263   3.064   1.917
 6384SOL    HW220052   6.261   3.145   1.774
 6385SOL     OW20053   0.282   3.231   0.492
 6385SOL    HW120054   0.350   3.300   0.519
 6385SOL    HW220055   0.258   3.177   0.572
 6386SOL     OW20056   2.563   2.808   0.416
 6386SOL    HW120057   2.495   2.815   0.343
 6386SOL    HW220058   2.622   2.889   0.414
 6387SOL     OW20059   0.235   6.963   0.227
 6387SOL    HW120060   0.171   6.885   0.231
 6387SOL    HW220061   0.254   6.994   0.321
 6388SOL     OW20062   5.843   5.336   2.083
 6388SOL    HW120063   5.870   5.389   2.003
 6388SOL    HW220064   5.800   5.398   2.149
 6389SOL     OW20065   6.858   0.101   0.614
 6389SOL    HW120066   6.787   0.170   0.630
 6389SOL    HW220067   6.942   0.146   0.584
 6390SOL     OW20068   5.255   0.590   6.699
 6390SOL    HW120069   5.202   0.588   6.615
 6390SOL    HW220070   5.229   0.514   6.759
 6391SOL     OW20071   1.349   1.958   4.810
 6391SOL    HW120072   1.252   1.969   4.834
 6391SOL    HW220073   1.358   1.951   4.711
 6392SOL     OW20074   4.009   6.668   3.743
 6392SOL    HW120075   4.022   6.722   3.660
 6392SOL    HW220076   3.981   6.576   3.718
 6393SOL     OW20077   1.058   5.575   7.003
 6393SOL    HW120078   1.146   5.535   6.978
 6393SOL    HW220079   1.064   5.613   0.066
 6394SOL     OW20080   1.747   5.222   1.917
 6394SOL    HW120081   1.814   5.148   1.923
 6394SOL    HW220082   1.693   5.211   1.833
 6395SOL     OW20083   2.117   3.659   3.765
 6395SOL    HW120084   2.202   3.638   3.811
 6395SOL    HW220085   2.040   3.634   3.823
 6396SOL     OW20086   1.504   2.846   5.405
 6396SOL    HW120087   1.563   2.915   5.447
 6396SOL    HW220088   1.536   2.826   5.313
 6397SOL     OW20089   5.640   3.719   4.797
 6397SOL    HW120090   5.635   3.635   4.744
 6397SOL    HW220091   5.610   3.796   4.741
 6398SOL     OW20092   2.113   7.027   2.592
 6398SOL    HW120093   2.071   6.959   2.653
 6398SOL    HW220094   2.208   0.013   2.618
 6399SOL     OW20095   3.234   0.445   6.743
 6399SOL    HW120096   3.265   0.358   6.782
 6399SOL    HW220097   3.136   0.440   6.725
 6400SOL     OW20098   0.828   5.724   3.339
 6400SOL    HW120099   0.865   5.816   3.352
 6400SOL    HW220100   0.850   5.667   3.418
 6401SOL     OW20101   4.078   5.213   3.044
 6401SOL    HW120102   4.020   5.139   3.078
 6401SOL    HW220103   4.039   5.250   2.959
 6402SOL     OW20104   2.582   4.841   5.510
 6402SOL    HW120105   2.584   4.742   5.505
 6402SOL    HW220106   2.629   4.871   5.593
 6403SOL     OW20107   4.888   5.230   5.212
 6403SOL    HW120108   4.896   5.254   5.115
 6403SOL    HW220109   4.809   5.171   5.226
 6404SOL     OW20110   4.737   0.095   1.668
 6404SOL    HW120111   4.693   0.174   1.625
 6404SOL    HW220112   4.713   0.092   1.765
 6405SOL     OW20113   5.300   1.668   2.988
 6405SOL    HW120114   5.286   1.587   2.931
 6405SOL    HW220115   5.332   1.743   2.931
 6406SOL     OW20116   0.179   3.221   2.756
 6406SOL    HW120117   0.224   3.310   2.751
 6406SOL    HW220118   0.102   3.226   2.820
 6407SOL     OW20119   0.363   6.231   2.769
 6407SOL    HW120120   0.427   6.220   2.844
 6407SOL    HW220121   0.312   6.317   2.781
 6408SOL     OW20122   6.696   0.722   2.218
 6408SOL    HW120123   6.736   0.725   2.309
 6408SOL    HW220124   6.651   0.809   2.197
 6409SOL     OW20125   5.080   4.752   3.629
 6409SOL    HW120126   5.088   4.774   3.727
 6409SOL    HW220127   5.001   4.800   3.591
 6410SOL     OW20128   1.739   1.707   0.198
 6410SOL    HW120129   1.822   1.762   0.210
 6410SOL    HW220130   1.722   1.695   0.100
 6411SOL     OW20131   0.209   2.737   1.878
 6411SOL    HW120132   0.295   2.770   1.918
 6411SOL    HW220133   0.132   2.781   1.923
 6412SOL     OW20134   3.226   1.325   0.294
 6412SOL    HW120135   3.291   1.374   0.352
 6412SOL    HW220136   3.223   1.228   0.321
 6413SOL     OW20137   4.866   6.240   3.467
 6413SOL    HW120138   4.831   6.330   3.493
 6413SOL    HW220139   4.815   6.206   3.388
 6414SOL     OW20140   2.222   7.029   0.510
 6414SOL    HW120141   2.167   0.071   0.467
 6414SOL    HW220142   2.196   7.020   0.606
 6415SOL     OW20143   0.198   2.588   3.615
 6415SOL    HW120144   0.292   2.614   3.639
 6415SOL    HW220145   0.157   2.661   3.561
 6416SOL     OW20146   2.600   5.326   6.972
 6416SOL    HW120147   2.564   5.400   6.915
 6416SOL    HW220148   2.696   5.312   6.950
 6417SOL     OW20149   4.396   2.620   6.404
 6417SOL    HW120150   4.405   2.654   6.498
 6417SOL    HW220151   4.400   2.697   6.340
 6418SOL     OW20152   4.681   4.367   0.324
 6418SOL    HW120153   4.586   4.363   0.356
 6418SOL    HW220154   4.742   4.344   0.399
 6419SOL     OW20155   0.632   6.516   6.348
 6419SOL    HW120156   0.625   6.596   6.407
 6419SOL    HW220157   0.597   6.539   6.257
 6420SOL     OW20158   2.354   4.833   3.983
 6420SOL    HW120159   2.393   4.762   4.042
 6420SOL    HW220160   2.381   4.815   3.889
 6421SOL     OW20161   3.450   0.935   2.053
 6421SOL    HW120162   3.410   0.855   2.098
 6421SOL    HW220163   3.545   0.944   2.081
 6422SOL     OW20164   6.070   2.437   4.826
 6422SOL    HW120165   5.981   2.406   4.857
 6422SOL    HW220166   6.137   2.429   4.900
 6423SOL     OW20167   1.544   4.925   4.534
 6423SOL    HW120168   1.452   4.935   4.573
 6423SOL    HW220169   1.611   4.922   4.607
 6424SOL     OW20170   6.772   5.053   5.617
 6424SOL    HW120171   6.784   4.958   5.646
 6424SOL    HW220172   6.708   5.057   5.540
 6425SOL     OW20173   6.946   5.726   4.044
 6425SOL    HW120174   6.914   5.645   4.093
 6425SOL    HW220175   7.012   5.700   3.974
 6426SOL     OW20176   4.718   4.209   4.678
 6426SOL    HW120177   4.758   4.124   4.711
 6426SOL    HW220178   4.726   4.279   4.749
 6427SOL     OW20179   3.848   3.426   3.419
 6427SOL    HW120180   3.812   3.484   3.346
 6427SOL    HW220181   3.786   3.427   3.497
 6428SOL     OW20182   5.607   2.663   0.406
 6428SOL    HW120183   5.671   2.614   0.465
 6428SOL    HW220184   5.540   2.712   0.462
 6429SOL     OW20185   2.148   1.227   5.250
 6429SOL    HW120186   2.136   1.317   5.291
 6429SOL    HW220187   2.245   1.202   5.252
 6430SOL     OW20188   6.261   0.430   5.331
 6430SOL    HW120189   6.251   0.530   5.332
 6430SOL    HW220190   6.257   0.396   5.425
 6431SOL     OW20191   3.772   4.972   1.912
 6431SOL    HW120192   3.709   4.899   1.937
 6431SOL    HW220193   3.726   5.039   1.854
 6432SOL     OW20194   5.254   4.301   6.422
 6432SOL    HW120195   5.218   4.219   6.377
 6432SOL    HW220196   5.178   4.362   6.446
 6433SOL     OW20197   3.251   4.412   6.135
 6433SOL    HW120198   3.241   4.327   6.187
 6433SOL    HW220199   3.164   4.433   6.090
 6434SOL     OW20200   4.955   5.999   6.500
 6434SOL    HW120201   5.004   6.086   6.507
 6434SOL    HW220202   5.009   5.926   6.542
 6435SOL     OW20203   4.591   2.103   0.778
 6435SOL    HW120204   4.677   2.090   0.729
 6435SOL    HW220205   4.585   2.196   0.812
 6436SOL     OW20206   6.622   3.114   3.449
 6436SOL    HW120207   6.568   3.095   3.367
 6436SOL    HW220208   6.643   3.029   3.496
 6437SOL     OW20209   1.451   2.128   5.818
 6437SOL    HW120210   1.428   2.144   5.722
 6437SOL    HW220211   1.495   2.038   5.827
 6438SOL     OW20212   0.590   4.675   0.159
 6438SOL    HW120213   0.636   4.691   0.071
 6438SOL    HW220214   0.510   4.618   0.143
 6439SOL     OW20215   5.064   6.662   3.199
 6439SOL    HW120216   5.116   6.728   3.144
 6439SOL    HW220217   5.128   6.603   3.249
 6440SOL     OW20218   2.885   1.893   6.241
 6440SOL    HW120219   2.983   1.887   6.224
 6440SOL    HW220220   2.839   1.934   6.162
 6441SOL     OW20221   0.268   1.528   2.432
 6441SOL    HW120222   0.306   1.621   2.431
 6441SOL    HW220223   0.215   1.513   2.348
 6442SOL     OW20224   3.014   2.063   5.057
 6442SOL    HW120225   3.065   2.148   5.051
 6442SOL    HW220226   2.937   2.074   5.120
 6443SOL     OW20227   3.896   3.322   6.688
 6443SOL    HW120228   3.992   3.340   6.710
 6443SOL    HW220229   3.889   3.282   6.597
 6444SOL     OW20230   6.078   3.992   4.764
 6444SOL    HW120231   6.114   3.987   4.670
 6444SOL    HW220232   6.142   4.043   4.821
 6445SOL     OW20233   2.995   3.181   3.459
 6445SOL    HW120234   3.080   3.133   3.482
 6445SOL    HW220235   2.918   3.118   3.472
 6446SOL     OW20236   1.383   1.353   6.712
 6446SOL    HW120237   1.469   1.327   6.667
 6446SOL    HW220238   1.403   1.387   6.804
 6447SOL     OW20239   5.982   3.461   2.089
 6447SOL    HW120240   6.070   3.496   2.057
 6447SOL    HW220241   5.922   3.538   2.110
 6448SOL     OW20242   3.003   4.669   1.421
 6448SOL    HW120243   3.024   4.576   1.450
 6448SOL    HW220244   3.059   4.734   1.473
 6449SOL     OW20245   2.797   5.268   0.878
 6449SOL    HW120246   2.799   5.254   0.977
 6449SOL    HW220247   2.721   5.329   0.855
 6450SOL     OW20248   0.081   4.211   6.876
 6450SOL    HW120249   0.031   4.297   6.861
 6450SOL    HW220250   0.119   4.179   6.789
 6451SOL     OW20251   3.832   2.715   1.631
 6451SOL    HW120252   3.752   2.751   1.583
 6451SOL    HW220253   3.889   2.791   1.661
 6452SOL     OW20254   4.000   2.021   3.953
 6452SOL    HW120255   4.019   2.118   3.942
 6452SOL    HW220256   4.018   1.995   4.048
 6453SOL     OW20257   2.113   0.884   2.493
 6453SOL    HW120258   2.197   0.937   2.483
 6453SOL    HW220259   2.097   0.864   2.590
 6454SOL     OW20260   5.013   2.251   3.277
 6454SOL    HW120261   4.948   2.271   3.203
 6454SOL    HW220262   5.047   2.158   3.267
 6455SOL     OW20263   6.598   2.889   4.024
 6455SOL    HW120264   6.558   2.802   3.994
 6455SOL    HW220265   6.634   2.879   4.117
 6456SOL     OW20266   5.735   1.312   2.237
 6456SOL    HW120267   5.761   1.292   2.143
 6456SOL    HW220268   5.650   1.265   2.258
 6457SOL     OW20269   3.625   6.974   2.485
 6457SOL    HW120270   3.638   0.021   2.549
 6457SOL    HW220271   3.632   7.008   2.392
 6458SOL     OW20272   0.277   5.829   3.885
 6458SOL    HW120273   0.290   5.891   3.807
 6458SOL    HW220274   0.201   5.767   3.866
 6459SOL     OW20275   0.529   3.671   3.053
 6459SOL    HW120276   0.457   3.615   3.093
 6459SOL    HW220277   0.572   3.726   3.124
 6460SOL     OW20278   0.441   5.447   6.903
 6460SOL    HW120279   0.372   5.380   6.877
 6460SOL    HW220280   0.403   5.510   6.971
 6461SOL     OW20281   1.401   6.359   1.206
 6461SOL    HW120282   1.493   6.342   1.241
 6461SOL    HW220283   1.404   6.428   1.134
 6462SOL     OW20284   1.515   3.863   5.370
 6462SOL    HW120285   1.566   3.885   5.453
 6462SOL    HW220286   1.476   3.947   5.332
 6463SOL     OW20287   4.087   2.607   0.991
 6463SOL    HW120288   4.174   2.652   0.972
 6463SOL    HW220289   4.085   2.576   1.086
 6464SOL     OW20290   1.112   4.096   3.752
 6464SOL    HW120291   1.113   4.114   3.851
 6464SOL    HW220292   1.156   4.008   3.733
 6465SOL     OW20293   3.623   1.149   3.723
 6465SOL    HW120294   3.683   1.072   3.700
 6465SOL    HW220295   3.608   1.205   3.642
 6466SOL     OW20296   6.007   4.435   0.127
 6466SOL    HW120297   5.940   4.418   0.199
 6466SOL    HW220298   6.096   4.452   0.168
 6467SOL     OW20299   2.558   3.074   6.999
 6467SOL    HW120300   2.656   3.093   6.992
 6467SOL    HW220301   2.523   3.045   6.910
 6468SOL     OW20302   2.562   0.972   1.270
 6468SOL    HW120303   2.572   1.061   1.225
 6468SOL    HW220304   2.651   0.928   1.278
 6469SOL     OW20305   2.457   1.429   1.929
 6469SOL    HW120306   2.524   1.483   1.878
 6469SOL    HW220307   2.448   1.338   1.886
 6470SOL     OW20308   6.946   1.383   0.147
 6470SOL    HW120309   6.938   1.369   0.246
 6470SOL    HW220310   0.004   1.427   0.127
 6471SOL     OW20311   0.617   6.217   5.602
 6471SOL    HW120312   0.635   6.280   5.677
 6471SOL    HW220313   0.669   6.132   5.615
 6472SOL     OW20314   6.744   6.660   2.758
 6472SOL    HW120315   6.694   6.590   2.809
 6472SOL    HW220316   6.679   6.719   2.709
 6473SOL     OW20317   2.438   1.292   3.510
 6473SOL    HW120318   2.387   1.206   3.511
 6473SOL    HW220319   2.385   1.361   3.461
 6474SOL     OW20320   4.170   6.069   5.447
 6474SOL    HW120321   4.135   6.161   5.463
 6474SOL    HW220322   4.253   6.055   5.500
 6475SOL     OW20323   5.911   5.673   2.495
 6475SOL    HW120324   5.879   5.745   2.556
 6475SOL    HW220325   6.011   5.674   2.491
 6476SOL     OW20326   3.776   2.765   6.764
 6476SOL    HW120327   3.678   2.781   6.755
 6476SOL    HW220328   3.823   2.852   6.779
 6477SOL     OW20329   0.326   5.901   1.935
 6477SOL    HW120330   0.345   5.914   2.032
 6477SOL    HW220331   0.412   5.905   1.884
 6478SOL     OW20332   2.890   6.047   1.227
 6478SOL    HW120333   2.888   6.066   1.129
 6478SOL    HW220334   2.889   6.133   1.278
 6479SOL     OW20335   4.011   6.172   3.497
 6479SOL    HW120336   3.928   6.228   3.501
 6479SOL    HW220337   4.000   6.092   3.556
 6480SOL     OW20338   3.796   1.147   6.635
 6480SOL    HW120339   3.714   1.133   6.691
 6480SOL    HW220340   3.771   1.143   6.538
 6481SOL     OW20341   3.875   2.973   1.902
 6481SOL    HW120342   3.911   3.059   1.940
 6481SOL    HW220343   3.817   2.929   1.970
 6482SOL     OW20344   5.558   3.910   5.707
 6482SOL    HW120345   5.549   4.008   5.726
 6482SOL    HW220346   5.654   3.887   5.695
 6483SOL     OW20347   1.983   6.520   5.381
 6483SOL    HW120348   1.974   6.558   5.289
 6483SOL    HW220349   2.031   6.585   5.440
 6484SOL     OW20350   2.822   1.128   3.442
 6484SOL    HW120351   2.751   1.080   3.493
 6484SOL    HW220352   2.805   1.118   3.344
 6485SOL     OW20353   2.857   5.877   4.942
 6485SOL    HW120354   2.956   5.869   4.939
 6485SOL    HW220355   2.820   5.872   4.849
 6486SOL     OW20356   0.822   5.120   3.000
 6486SOL    HW120357   0.761   5.094   3.074
 6486SOL    HW220358   0.893   5.051   2.989
 6487SOL     OW20359   6.386   4.501   3.674
 6487SOL    HW120360   6.310   4.471   3.617
 6487SOL    HW220361   6.461   4.532   3.615
 6488SOL     OW20362   3.532   5.324   4.694
 6488SOL    HW120363   3.516   5.423   4.687
 6488SOL    HW220364   3.629   5.307   4.712
 6489SOL     OW20365   5.367   2.996   5.402
 6489SOL    HW120366   5.408   2.933   5.337
 6489SOL    HW220367   5.280   2.960   5.433
 6490SOL     OW20368   1.941   2.415   0.077
 6490SOL    HW120369   1.880   2.474   0.024
 6490SOL    HW220370   1.954   2.455   0.168
 6491SOL     OW20371   2.266   6.919   1.958
 6491SOL    HW120372   2.287   6.950   1.865
 6491SOL    HW220373   2.199   6.981   1.999
 6492SOL     OW20374   4.138   3.342   5.003
 6492SOL    HW120375   4.039   3.326   4.996
 6492SOL    HW220376   4.174   3.365   4.912
 6493SOL     OW20377   1.511   4.644   4.519
 6493SOL    HW120378   1.507   4.736   4.480
 6493SOL    HW220379   1.461   4.642   4.606
 6494SOL     OW20380   6.524   0.779   1.533
 6494SOL    HW120381   6.521   0.688   1.575
 6494SOL    HW220382   6.460   0.783   1.456
 6495SOL     OW20383   6.675   0.318   2.938
 6495SOL    HW120384   6.576   0.303   2.945
 6495SOL    HW220385   6.692   0.404   2.892
 6496SOL     OW20386   3.329   2.346   1.393
 6496SOL    HW120387   3.340   2.251   1.364
 6496SOL    HW220388   3.414   2.378   1.434
 6497SOL     OW20389   0.345   1.374   1.050
 6497SOL    HW120390   0.409   1.411   1.118
 6497SOL    HW220391   0.306   1.449   0.997
 6498SOL     OW20392   2.244   4.179   4.024
 6498SOL    HW120393   2.159   4.196   3.974
 6498SOL    HW220394   2.226   4.112   4.097
 6499SOL     OW20395   4.813   2.954   3.257
 6499SOL    HW120396   4.873   2.924   3.331
 6499SOL    HW220397   4.808   3.054   3.257
 6500SOL     OW20398   1.583   4.450   3.342
 6500SOL    HW120399   1.577   4.351   3.351
 6500SOL    HW220400   1.658   4.473   3.280
 6501SOL     OW20401   5.717   2.012   2.657
 6501SOL    HW120402   5.715   2.076   2.734
 6501SOL    HW220403   5.642   1.946   2.666
 6502SOL     OW20404   6.850   3.886   2.322
 6502SOL    HW120405   6.885   3.979   2.309
 6502SOL    HW220406   6.899   3.842   2.397
 6503SOL     OW20407   0.005   3.498   5.703
 6503SOL    HW120408   0.087   3.442   5.709
 6503SOL    HW220409   6.957   3.450   5.746
 6504SOL     OW20410   3.928   6.844   6.206
 6504SOL    HW120411   4.017   6.878   6.176
 6504SOL    HW220412   3.903   6.764   6.152
 6505SOL     OW20413   0.110   5.485   1.010
 6505SOL    HW120414   0.023   5.442   1.034
 6505SOL    HW220415   0.182   5.453   1.071
 6506SOL     OW20416   1.160   4.251   2.332
 6506SOL    HW120417   1.190   4.280   2.422
 6506SOL    HW220418   1.190   4.317   2.263
 6507SOL     OW20419   3.953   5.215   0.378
 6507SOL    HW120420   3.935   5.169   0.465
 6507SOL    HW220421   3.875   5.273   0.354
 6508SOL     OW20422   0.779   0.323   3.244
 6508SOL    HW120423   0.812   0.233   3.218
 6508SOL    HW220424   0.854   0.377   3.282
 6509SOL     OW20425   2.635   1.571   6.829
 6509SOL    HW120426   2.721   1.522   6.846
 6509SOL    HW220427   2.563   1.531   6.885
 6510SOL     OW20428   3.006   6.540   5.462
 6510SOL    HW120429   3.030   6.449   5.496
 6510SOL    HW220430   3.015   6.542   5.363
 6511SOL     OW20431   3.258   2.364   0.604
 6511SOL    HW120432   3.164   2.337   0.624
 6511SOL    HW220433   3.296   2.305   0.534
 6512SOL     OW20434   4.203   1.394   0.509
 6512SOL    HW120435   4.247   1.473   0.466
 6512SOL    HW220436   4.254   1.311   0.486
 6513SOL     OW20437   2.845   4.774   2.854
 6513SOL    HW120438   2.912   4.801   2.785
 6513SOL    HW220439   2.781   4.707   2.815
 6514SOL     OW20440   5.374   6.620   5.296
 6514SOL    HW120441   5.401   6.716   5.300
 6514SOL    HW220442   5.455   6.563   5.284
 6515SOL     OW20443   1.105   5.018   2.769
 6515SOL    HW120444   1.067   4.961   2.842
 6515SOL    HW220445   1.033   5.077   2.732
 6516SOL     OW20446   6.567   3.206   1.792
 6516SOL    HW120447   6.487   3.145   1.797
 6516SOL    HW220448   6.642   3.166   1.845
 6517SOL     OW20449   6.955   3.246   0.526
 6517SOL    HW120450   6.961   3.326   0.466
 6517SOL    HW220451   6.912   3.271   0.612
 6518SOL     OW20452   0.934   1.378   2.092
 6518SOL    HW120453   0.937   1.351   1.996
 6518SOL    HW220454   0.848   1.425   2.111
 6519SOL     OW20455   1.079   1.350   3.130
 6519SOL    HW120456   1.161   1.300   3.158
 6519SOL    HW220457   1.034   1.388   3.211
 6520SOL     OW20458   0.253   5.208   0.578
 6520SOL    HW120459   0.255   5.234   0.674
 6520SOL    HW220460   0.336   5.243   0.533
 6521SOL     OW20461   1.580   3.888   3.886
 6521SOL    HW120462   1.530   3.972   3.908
 6521SOL    HW220463   1.595   3.836   3.970
 6522SOL     OW20464   2.563   2.810   5.318
 6522SOL    HW120465   2.536   2.880   5.252
 6522SOL    HW220466   2.506   2.818   5.400
 6523SOL     OW20467   6.140   6.887   0.268
 6523SOL    HW120468   6.135   6.970   0.212
 6523SOL    HW220469   6.047   6.854   0.286
 6524SOL     OW20470   2.871   2.954   1.049
 6524SOL    HW120471   2.955   2.937   1.102
 6524SOL    HW220472   2.834   3.043   1.072
 6525SOL     OW20473   1.177   4.869   3.543
 6525SOL    HW120474   1.151   4.772   3.541
 6525SOL    HW220475   1.277   4.876   3.553
 6526SOL     OW20476   0.839   5.586   0.827
 6526SOL    HW120477   0.750   5.551   0.855
 6526SOL    HW220478   0.830   5.639   0.743
 6527SOL     OW20479   6.854   1.671   0.730
 6527SOL    HW120480   6.803   1.602   0.678
 6527SOL    HW220481   6.853   1.647   0.827
 6528SOL     OW20482   4.266   6.940   6.782
 6528SOL    HW120483   4.364   6.925   6.769
 6528SOL    HW220484   4.243   0.005   6.755
 6529SOL     OW20485   5.587   0.318   2.081
 6529SOL    HW120486   5.501   0.314   2.132
 6529SOL    HW220487   5.630   0.406   2.096
 6530SOL     OW20488   0.317   2.543   2.931
 6530SOL    HW120489   0.314   2.443   2.936
 6530SOL    HW220490   0.238   2.576   2.879
 6531SOL     OW20491   3.765   3.831   4.628
 6531SOL    HW120492   3.701   3.899   4.665
 6531SOL    HW220493   3.859   3.861   4.646
 6532SOL     OW20494   1.461   0.134   0.103
 6532SOL    HW120495   1.370   0.171   0.083
 6532SOL    HW220496   1.519   0.206   0.140
 6533SOL     OW20497   4.838   4.685   1.975
 6533SOL    HW120498   4.791   4.601   1.951
 6533SOL    HW220499   4.936   4.666   1.989
 6534SOL     OW20500   0.136   4.089   2.974
 6534SOL    HW120501   0.102   4.183   2.981
 6534SOL    HW220502   0.117   4.040   3.059
 6535SOL     OW20503   4.855   3.073   4.724
 6535SOL    HW120504   4.888   2.984   4.755
 6535SOL    HW220505   4.837   3.131   4.803
 6536SOL     OW20506   0.775   4.525   5.160
 6536SOL    HW120507   0.771   4.594   5.232
 6536SOL    HW220508   0.870   4.497   5.146
 6537SOL     OW20509   6.270   5.804   3.900
 6537SOL    HW120510   6.187   5.858   3.886
 6537SOL    HW220511   6.333   5.854   3.959
 6538SOL     OW20512   1.348   2.343   5.214
 6538SOL    HW120513   1.364   2.433   5.173
 6538SOL    HW220514   1.407   2.332   5.295
 6539SOL     OW20515   5.120   0.344   6.064
 6539SOL    HW120516   5.185   0.295   6.121
 6539SOL    HW220517   5.149   0.439   6.053
 6540SOL     OW20518   6.496   2.777   5.662
 6540SOL    HW120519   6.404   2.750   5.633
 6540SOL    HW220520   6.489   2.852   5.728
 6541SOL     OW20521   5.699   2.068   5.612
 6541SOL    HW120522   5.756   2.118   5.676
 6541SOL    HW220523   5.638   2.132   5.564
 6542SOL     OW20524   1.339   4.180   3.067
 6542SOL    HW120525   1.341   4.170   3.166
 6542SOL    HW220526   1.257   4.136   3.031
 6543SOL     OW20527   3.505   1.617   4.374
 6543SOL    HW120528   3.535   1.554   4.445
 6543SOL    HW220529   3.424   1.668   4.406
 6544SOL     OW20530   0.581   6.569   1.036
 6544SOL    HW120531   0.653   6.613   0.983
 6544SOL    HW220532   0.492   6.603   1.005
 6545SOL     OW20533   4.828   6.717   1.001
 6545SOL    HW120534   4.797   6.793   1.059
 6545SOL    HW220535   4.768   6.709   0.922
 6546SOL     OW20536   4.688   4.061   6.538
 6546SOL    HW120537   4.667   3.977   6.588
 6546SOL    HW220538   4.604   4.114   6.524
 6547SOL     OW20539   0.568   6.034   5.919
 6547SOL    HW120540   0.635   6.105   5.942
 6547SOL    HW220541   0.577   6.010   5.823
 6548SOL     OW20542   6.966   1.313   5.781
 6548SOL    HW120543   6.945   1.370   5.702
 6548SOL    HW220544   6.898   1.241   5.791
 6549SOL     OW20545   4.390   1.627   2.273
 6549SOL    HW120546   4.448   1.555   2.233
 6549SOL    HW220547   4.320   1.654   2.206
 6550SOL     OW20548   6.634   6.525   3.373
 6550SOL    HW120549   6.567   6.480   3.315
 6550SOL    HW220550   6.600   6.615   3.400
 6551SOL     OW20551   2.801   3.887   1.021
 6551SOL    HW120552   2.734   3.903   1.093
 6551SOL    HW220553   2.878   3.951   1.032
 6552SOL     OW20554   1.875   5.192   0.287
 6552SOL    HW120555   1.847   5.217   0.380
 6552SOL    HW220556   1.975   5.199   0.279
 6553SOL     OW20557   0.722   1.439   3.379
 6553SOL    HW120558   0.820   1.456   3.367
 6553SOL    HW220559   0.676   1.526   3.399
 6554SOL     OW20560   1.241   2.286   4.127
 6554SOL    HW120561   1.257   2.215   4.059
 6554SOL    HW220562   1.327   2.333   4.148
 6555SOL     OW20563   6.574   4.097   3.699
 6555SOL    HW120564   6.549   4.004   3.672
 6555SOL    HW220565   6.576   4.103   3.799
 6556SOL     OW20566   4.909   3.176   2.716
 6556SOL    HW120567   4.871   3.211   2.802
 6556SOL    HW220568   5.003   3.147   2.731
 6557SOL     OW20569   1.851   0.706   2.399
 6557SOL    HW120570   1.818   0.697   2.493
 6557SOL    HW220571   1.929   0.768   2.396
 6558SOL     OW20572   5.418   6.256   6.257
 6558SOL    HW120573   5.403   6.228   6.352
 6558SOL    HW220574   5.369   6.341   6.239
 6559SOL     OW20575   0.132   2.950   6.337
 6559SOL    HW120576   0.116   3.043   6.370
 6559SOL    HW220577   0.083   2.884   6.395
 6560SOL     OW20578   5.690   4.619   0.193
 6560SOL    HW120579   5.743   4.695   0.229
 6560SOL    HW220580   5.744   4.535   0.200
 6561SOL     OW20581   3.539   4.375   6.958
 6561SOL    HW120582   3.627   4.343   6.990
 6561SOL    HW220583   3.476   4.384   0.007
 6562SOL     OW20584   5.404   2.479   1.105
 6562SOL    HW120585   5.358   2.480   1.194
 6562SOL    HW220586   5.422   2.572   1.076
 6563SOL     OW20587   6.348   5.184   5.613
 6563SOL    HW120588   6.435   5.137   5.624
 6563SOL    HW220589   6.276   5.133   5.659
 6564SOL     OW20590   6.154   3.655   3.064
 6564SOL    HW120591   6.168   3.672   3.161
 6564SOL    HW220592   6.196   3.728   3.011
 6565SOL     OW20593   5.296   0.286   3.144
 6565SOL    HW120594   5.360   0.289   3.067
 6565SOL    HW220595   5.275   0.191   3.165
 6566SOL     OW20596   4.904   5.843   3.418
 6566SOL    HW120597   4.856   5.755   3.420
 6566SOL    HW220598   4.876   5.895   3.338
 6567SOL     OW20599   4.053   0.655   1.827
 6567SOL    HW120600   3.974   0.681   1.771
 6567SOL    HW220601   4.134   0.702   1.792
 6568SOL     OW20602   4.231   1.782   1.165
 6568SOL    HW120603   4.308   1.825   1.213
 6568SOL    HW220604   4.266   1.707   1.108
 6569SOL     OW20605   0.863   4.549   4.547
 6569SOL    HW120606   0.889   4.610   4.621
 6569SOL    HW220607   0.781   4.498   4.573
 6570SOL     OW20608   4.502   6.927   2.268
 6570SOL    HW120609   4.511   6.975   2.355
 6570SOL    HW220610   4.584   6.940   2.213
 6571SOL     OW20611   3.568   5.782   2.964
 6571SOL    HW120612   3.499   5.824   2.905
 6571SOL    HW220613   3.562   5.682   2.955
 6572SOL     OW20614   1.408   5.732   4.155
 6572SOL    HW120615   1.346   5.810   4.151
 6572SOL    HW220616   1.421   5.694   4.063
 6573SOL     OW20617   0.897   1.806   3.089
 6573SOL    HW120618   0.954   1.887   3.072
 6573SOL    HW220619   0.873   1.764   3.001
 6574SOL     OW20620   1.498   5.280   2.190
 6574SOL    HW120621   1.442   5.322   2.261
 6574SOL    HW220622   1.467   5.310   2.100
 6575SOL     OW20623   0.335   1.241   3.516
 6575SOL    HW120624   0.244   1.201   3.523
 6575SOL    HW220625   0.342   1.292   3.430
 6576SOL     OW20626   4.809   5.888   1.052
 6576SOL    HW120627   4.875   5.947   1.098
 6576SOL    HW220628   4.825   5.892   0.953
 6577SOL     OW20629   3.432   1.226   4.167
 6577SOL    HW120630   3.367   1.155   4.140
 6577SOL    HW220631   3.513   1.220   4.109
 6578SOL     OW20632   1.236   4.901   1.188
 6578SOL    HW120633   1.242   4.973   1.257
 6578SOL    HW220634   1.256   4.813   1.230
 6579SOL     OW20635   6.934   0.774   4.238
 6579SOL    HW120636   6.949   0.776   4.337
 6579SOL    HW220637   6.979   0.852   4.196
 6580SOL     OW20638   2.218   2.132   0.414
 6580SOL    HW120639   2.265   2.187   0.483
 6580SOL    HW220640   2.124   2.116   0.443
 6581SOL     OW20641   0.513   1.914   1.397
 6581SOL    HW120642   0.478   1.915   1.491
 6581SOL    HW220643   0.500   2.004   1.355
 6582SOL     OW20644   6.171   1.222   2.859
 6582SOL    HW120645   6.150   1.173   2.774
 6582SOL    HW220646   6.268   1.211   2.880
 6583SOL     OW20647   3.876   5.268   6.849
 6583SOL    HW120648   3.883   5.326   6.930
 6583SOL    HW220649   3.781   5.238   6.837
 6584SOL     OW20650   4.386   2.342   6.480
 6584SOL    HW120651   4.299   2.312   6.443
 6584SOL    HW220652   4.416   2.425   6.432
 6585SOL     OW20653   5.496   6.758   1.653
 6585SOL    HW120654   5.448   6.679   1.613
 6585SOL    HW220655   5.593   6.735   1.666
 6586SOL     OW20656   0.173   1.154   0.045
 6586SOL    HW120657   0.202   1.181   0.137
 6586SOL    HW220658   0.098   1.213   0.015
 6587SOL     OW20659   2.221   4.616   5.423
 6587SOL    HW120660   2.238   4.631   5.326
 6587SOL    HW220661   2.228   4.518   5.443
 6588SOL     OW20662   0.179   2.502   0.780
 6588SOL    HW120663   0.143   2.419   0.737
 6588SOL    HW220664   0.123   2.580   0.753
 6589SOL     OW20665   6.705   7.009   2.479
 6589SOL    HW120666   6.657   0.019   2.401
 6589SOL    HW220667   6.801   6.992   2.455
 6590SOL     OW20668   1.110   6.338   4.321
 6590SOL    HW120669   1.105   6.435   4.343
 6590SOL    HW220670   1.049   6.287   4.381
 6591SOL     OW20671   6.018   4.651   3.444
 6591SOL    HW120672   5.931   4.699   3.456
 6591SOL    HW220673   6.000   4.555   3.422
 6592SOL     OW20674   6.148   6.859   3.597
 6592SOL    HW120675   6.095   6.893   3.520
 6592SOL    HW220676   6.214   6.790   3.564
 6593SOL     OW20677   1.901   1.366   2.067
 6593SOL    HW120678   1.811   1.408   2.083
 6593SOL    HW220679   1.914   1.352   1.969
 6594SOL     OW20680   5.246   0.320   6.448
 6594SOL    HW120681   5.255   0.283   6.355
 6594SOL    HW220682   5.174   0.390   6.449
 6595SOL     OW20683   0.865   1.843   5.352
 6595SOL    HW120684   0.881   1.810   5.259
 6595SOL    HW220685   0.801   1.920   5.350
 6596SOL     OW20686   5.321   0.085   2.711
 6596SOL    HW120687   5.332   0.156   2.781
 6596SOL    HW220688   5.228   0.047   2.716
 6597SOL     OW20689   0.837   4.264   1.756
 6597SOL    HW120690   0.830   4.214   1.670
 6597SOL    HW220691   0.842   4.200   1.832
 6598SOL     OW20692   1.871   4.428   4.416
 6598SOL    HW120693   1.842   4.487   4.491
 6598SOL    HW220694   1.971   4.422   4.414
 6599SOL     OW20695   6.794   5.357   6.384
 6599SOL    HW120696   6.737   5.379   6.304
 6599SOL    HW220697   6.783   5.429   6.452
 6600SOL     OW20698   4.409   0.316   5.176
 6600SOL    HW120699   4.463   0.397   5.153
 6600SOL    HW220700   4.412   0.251   5.099
 6601SOL     OW20701   1.586   2.376   1.603
 6601SOL    HW120702   1.546   2.382   1.695
 6601SOL    HW220703   1.672   2.426   1.600
 6602SOL     OW20704   1.362   5.731   1.692
 6602SOL    HW120705   1.315   5.658   1.741
 6602SOL    HW220706   1.296   5.801   1.665
 6603SOL     OW20707   0.603   3.570   2.768
 6603SOL    HW120708   0.564   3.594   2.856
 6603SOL    HW220709   0.614   3.470   2.762
 6604SOL     OW20710   1.967   6.124   3.411
 6604SOL    HW120711   1.878   6.106   3.453
 6604SOL    HW220712   2.036   6.138   3.482
 6605SOL     OW20713   0.353   6.033   0.937
 6605SOL    HW120714   0.395   5.961   0.993
 6605SOL    HW220715   0.257   6.043   0.963
 6606SOL     OW20716   2.020   2.908   2.912
 6606SOL    HW120717   2.100   2.918   2.972
 6606SOL    HW220718   1.938   2.935   2.962
 6607SOL     OW20719   5.816   3.671   3.606
 6607SOL    HW120720   5.770   3.591   3.645
 6607SOL    HW220721   5.897   3.640   3.555
 6608SOL     OW20722   1.274   6.124   6.345
 6608SOL    HW120723   1.182   6.125   6.306
 6608SOL    HW220724   1.330   6.195   6.300
 6609SOL     OW20725   4.541   1.491   6.361
 6609SOL    HW120726   4.444   1.475   6.379
 6609SOL    HW220727   4.592   1.406   6.376
 6610SOL     OW20728   3.119   5.746   0.610
 6610SOL    HW120729   3.021   5.743   0.630
 6610SOL    HW220730   3.136   5.702   0.521
 6611SOL     OW20731   3.490   1.556   4.756
 6611SOL    HW120732   3.546   1.531   4.835
 6611SOL    HW220733   3.491   1.656   4.745
 6612SOL     OW20734   0.287   0.351   6.548
 6612SOL    HW120735   0.328   0.260   6.542
 6612SOL    HW220736   0.359   0.420   6.545
 6613SOL     OW20737   4.407   0.273   0.813
 6613SOL    HW120738   4.459   0.235   0.889
 6613SOL    HW220739   4.344   0.343   0.847
 6614SOL     OW20740   4.297   5.168   0.851
 6614SOL    HW120741   4.294   5.195   0.755
 6614SOL    HW220742   4.310   5.069   0.858
 6615SOL     OW20743   3.934   5.566   5.790
 6615SOL    HW120744   3.938   5.525   5.699
 6615SOL    HW220745   3.859   5.632   5.794
 6616SOL     OW20746   3.862   1.580   6.466
 6616SOL    HW120747   3.879   1.590   6.368
 6616SOL    HW220748   3.906   1.496   6.499
 6617SOL     OW20749   3.647   0.498   4.001
 6617SOL    HW120750   3.702   0.578   4.025
 6617SOL    HW220751   3.596   0.467   4.082
 6618SOL     OW20752   6.044   2.657   3.860
 6618SOL    HW120753   6.116   2.726   3.856
 6618SOL    HW220754   6.039   2.619   3.952
 6619SOL     OW20755   4.524   6.070   4.367
 6619SOL    HW120756   4.605   6.087   4.310
 6619SOL    HW220757   4.467   6.152   4.368
 6620SOL     OW20758   0.985   2.922   3.420
 6620SOL    HW120759   0.916   2.985   3.385
 6620SOL    HW220760   0.951   2.828   3.413
 6621SOL     OW20761   3.613   3.240   4.373
 6621SOL    HW120762   3.675   3.162   4.360
 6621SOL    HW220763   3.667   3.324   4.382
 6622SOL     OW20764   0.889   5.262   1.107
 6622SOL    HW120765   0.984   5.272   1.137
 6622SOL    HW220766   0.828   5.302   1.175
 6623SOL     OW20767   3.063   4.075   4.976
 6623SOL    HW120768   3.019   4.139   4.913
 6623SOL    HW220769   3.013   3.989   4.977
 6624SOL     OW20770   2.387   1.723   3.159
 6624SOL    HW120771   2.418   1.810   3.198
 6624SOL    HW220772   2.341   1.740   3.072
 6625SOL     OW20773   5.881   4.255   5.863
 6625SOL    HW120774   5.918   4.174   5.907
 6625SOL    HW220775   5.892   4.247   5.764
 6626SOL     OW20776   3.136   6.086   5.300
 6626SOL    HW120777   3.119   5.992   5.329
 6626SOL    HW220778   3.167   6.086   5.205
 6627SOL     OW20779   2.367   6.389   4.647
 6627SOL    HW120780   2.286   6.336   4.623
 6627SOL    HW220781   2.449   6.341   4.615
 6628SOL     OW20782   3.782   5.937   4.663
 6628SOL    HW120783   3.846   5.961   4.736
 6628SOL    HW220784   3.813   5.853   4.618
 6629SOL     OW20785   5.090   6.206   6.283
 6629SOL    HW120786   5.121   6.260   6.361
 6629SOL    HW220787   5.149   6.126   6.272
 6630SOL     OW20788   1.836   0.904   0.229
 6630SOL    HW120789   1.843   0.944   0.137
 6630SOL    HW220790   1.742   0.874   0.245
 6631SOL     OW20791   1.683   3.811   6.016
 6631SOL    HW120792   1.595   3.851   6.043
 6631SOL    HW220793   1.733   3.781   6.098
 6632SOL     OW20794   1.809   0.067   0.425
 6632SOL    HW120795   1.717   0.106   0.427
 6632SOL    HW220796   1.835   0.048   0.330
 6633SOL     OW20797   3.990   5.319   5.997
 6633SOL    HW120798   3.973   5.222   5.981
 6633SOL    HW220799   3.975   5.370   5.912
 6634SOL     OW20800   3.571   1.726   3.934
 6634SOL    HW120801   3.656   1.774   3.909
 6634SOL    HW220802   3.593   1.649   3.994
 6635SOL     OW20803   5.067   4.749   4.444
 6635SOL    HW120804   5.060   4.847   4.427
 6635SOL    HW220805   5.001   4.700   4.386
 6636SOL     OW20806   4.059   0.723   6.991
 6636SOL    HW120807   4.137   0.757   0.016
 6636SOL    HW220808   3.979   0.780   7.010
 6637SOL     OW20809   0.794   2.283   0.842
 6637SOL    HW120810   0.764   2.195   0.879
 6637SOL    HW220811   0.840   2.335   0.914
 6638SOL     OW20812   2.961   3.416   3.909
 6638SOL    HW120813   2.923   3.407   3.817
 6638SOL    HW220814   3.024   3.340   3.926
 6639SOL     OW20815   4.791   2.970   0.847
 6639SOL    HW120816   4.754   2.980   0.939
 6639SOL    HW220817   4.749   3.038   0.787
 6640SOL     OW20818   1.741   4.085   4.751
 6640SOL    HW120819   1.757   4.051   4.658
 6640SOL    HW220820   1.810   4.153   4.774
 6641SOL     OW20821   5.298   2.043   1.130
 6641SOL    HW120822   5.269   2.026   1.224
 6641SOL    HW220823   5.385   2.092   1.130
 6642SOL     OW20824   1.731   5.780   0.240
 6642SOL    HW120825   1.685   5.850   0.186
 6642SOL    HW220826   1.814   5.820   0.281
 6643SOL     OW20827   3.867   6.120   6.179
 6643SOL    HW120828   3.956   6.160   6.157
 6643SOL    HW220829   3.881   6.029   6.219
 6644SOL     OW20830   2.535   6.453   3.723
 6644SOL    HW120831   2.632   6.477   3.714
 6644SOL    HW220832   2.480   6.528   3.689
 6645SOL     OW20833   6.042   2.175   6.909
 6645SOL    HW120834   6.010   2.126   6.990
 6645SOL    HW220835   6.135   2.208   6.926
 6646SOL     OW20836   4.091   6.823   5.641
 6646SOL    HW120837   4.146   6.747   5.674
 6646SOL    HW220838   4.145   6.881   5.580
 6647SOL     OW20839   4.134   4.884   0.937
 6647SOL    HW120840   4.145   4.909   1.033
 6647SOL    HW220841   4.225   4.871   0.895
 6648SOL     OW20842   3.270   6.591   5.531
 6648SOL    HW120843   3.283   6.498   5.498
 6648SOL    HW220844   3.182   6.626   5.497
 6649SOL     OW20845   5.220   2.712   6.656
 6649SOL    HW120846   5.151   2.751   6.716
 6649SOL    HW220847   5.210   2.749   6.564
 6650SOL     OW20848   2.168   1.680   4.711
 6650SOL    HW120849   2.102   1.750   4.682
 6650SOL    HW220850   2.141   1.644   4.800
 6651SOL     OW20851   6.559   1.793   6.117
 6651SOL    HW120852   6.509   1.798   6.203
 6651SOL    HW220853   6.657   1.785   6.135
 6652SOL     OW20854   6.926   4.256   0.342
 6652SOL    HW120855   6.881   4.181   0.390
 6652SOL    HW220856   6.951   4.327   0.408
 6653SOL     OW20857   5.456   4.725   0.297
 6653SOL    HW120858   5.543   4.705   0.253
 6653SOL    HW220859   5.427   4.818   0.272
 6654SOL     OW20860   6.621   4.126   3.356
 6654SOL    HW120861   6.666   4.088   3.276
 6654SOL    HW220862   6.551   4.063   3.389
 6655SOL     OW20863   0.217   5.122   1.989
 6655SOL    HW120864   0.194   5.213   2.023
 6655SOL    HW220865   0.299   5.127   1.932
 6656SOL     OW20866   4.371   1.545   3.129
 6656SOL    HW120867   4.309   1.554   3.051
 6656SOL    HW220868   4.318   1.530   3.212
 6657SOL     OW20869   6.114   1.936   3.633
 6657SOL    HW120870   6.059   1.981   3.703
 6657SOL    HW220871   6.095   1.976   3.544
 6658SOL     OW20872   6.812   5.821   5.200
 6658SOL    HW120873   6.755   5.794   5.279
 6658SOL    HW220874   6.769   5.790   5.116
 6659SOL     OW20875   0.651   4.900   1.932
 6659SOL    HW120876   0.631   4.949   2.017
 6659SOL    HW220877   0.565   4.868   1.891
 6660SOL     OW20878   6.582   6.687   4.358
 6660SOL    HW120879   6.514   6.617   4.335
 6660SOL    HW220880   6.660   6.644   4.404
 6661SOL     OW20881   3.758   5.979   3.919
 6661SOL    HW120882   3.803   6.051   3.972
 6661SOL    HW220883   3.707   5.919   3.981
 6662SOL     OW20884   4.103   6.599   2.397
 6662SOL    HW120885   4.082   6.684   2.348
 6662SOL    HW220886   4.021   6.542   2.402
 6663SOL     OW20887   0.772   3.971   5.906
 6663SOL    HW120888   0.831   4.051   5.902
 6663SOL    HW220889   0.761   3.933   5.814
 6664SOL     OW20890   2.834   6.937   1.088
 6664SOL    HW120891   2.779   6.872   1.141
 6664SOL    HW220892   2.852   7.018   1.144
 6665SOL     OW20893   2.506   0.973   6.284
 6665SOL    HW120894   2.490   0.995   6.380
 6665SOL    HW220895   2.450   0.895   6.258
 6666SOL     OW20896   3.856   6.534   5.679
 6666SOL    HW120897   3.914   6.538   5.598
 6666SOL    HW220898   3.814   6.624   5.695
 6667SOL     OW20899   0.962   6.172   6.681
 6667SOL    HW120900   0.879   6.224   6.661
 6667SOL    HW220901   0.946   6.113   6.760
 6668SOL     OW20902   6.966   4.756   0.608
 6668SOL    HW120903   6.981   4.665   0.569
 6668SOL    HW220904   6.897   4.804   0.554
 6669SOL     OW20905   1.008   1.760   3.345
 6669SOL    HW120906   0.960   1.765   3.257
 6669SOL    HW220907   1.100   1.798   3.335
 6670SOL     OW20908   4.154   2.897   0.639
 6670SOL    HW120909   4.118   2.806   0.659
 6670SOL    HW220910   4.177   2.943   0.725
 6671SOL     OW20911   4.189   5.291   0.241
 6671SOL    HW120912   4.125   5.235   0.294
 6671SOL    HW220913   4.141   5.370   0.204
 6672SOL     OW20914   1.512   3.030   1.519
 6672SOL    HW120915   1.580   3.095   1.552
 6672SOL    HW220916   1.423   3.074   1.515
 6673SOL     OW20917   6.471   3.400   3.828
 6673SOL    HW120918   6.458   3.316   3.880
 6673SOL    HW220919   6.509   3.378   3.738
 6674SOL     OW20920   0.474   1.381   0.412
 6674SOL    HW120921   0.508   1.315   0.479
 6674SOL    HW220922   0.471   1.472   0.453
 6675SOL     OW20923   4.628   1.152   6.159
 6675SOL    HW120924   4.684   1.197   6.090
 6675SOL    HW220925   4.688   1.103   6.223
 6676SOL     OW20926   1.266   4.325   4.165
 6676SOL    HW120927   1.312   4.391   4.224
 6676SOL    HW220928   1.196   4.276   4.217
 6677SOL     OW20929   0.886   1.229   6.773
 6677SOL    HW120930   0.958   1.202   6.837
 6677SOL    HW220931   0.800   1.243   6.823
 6678SOL     OW20932   2.690   4.415   6.446
 6678SOL    HW120933   2.771   4.401   6.503
 6678SOL    HW220934   2.620   4.348   6.470
 6679SOL     OW20935   1.768   1.167   3.996
 6679SOL    HW120936   1.729   1.250   4.036
 6679SOL    HW220937   1.742   1.088   4.052
 6680SOL     OW20938   6.196   6.718   1.364
 6680SOL    HW120939   6.274   6.729   1.425
 6680SOL    HW220940   6.118   6.771   1.399
 6681SOL     OW20941   3.408   5.890   1.697
 6681SOL    HW120942   3.343   5.911   1.770
 6681SOL    HW220943   3.435   5.794   1.702
 6682SOL     OW20944   3.301   5.582   5.706
 6682SOL    HW120945   3.357   5.515   5.657
 6682SOL    HW220946   3.225   5.536   5.751
 6683SOL     OW20947   6.722   4.209   6.290
 6683SOL    HW120948   6.677   4.291   6.255
 6683SOL    HW220949   6.817   4.231   6.314
 6684SOL     OW20950   3.087   5.555   0.109
 6684SOL    HW120951   3.040   5.483   0.159
 6684SOL    HW220952   3.150   5.515   0.043
 6685SOL     OW20953   5.103   2.932   6.910
 6685SOL    HW120954   5.094   3.017   6.961
 6685SOL    HW220955   5.138   2.951   6.819
 6686SOL     OW20956   5.074   5.027   4.426
 6686SOL    HW120957   5.151   5.077   4.464
 6686SOL    HW220958   4.989   5.073   4.452
 6687SOL     OW20959   6.223   1.783   2.168
 6687SOL    HW120960   6.123   1.782   2.171
 6687SOL    HW220961   6.257   1.875   2.187
 6688SOL     OW20962   4.370   4.862   0.816
 6688SOL    HW120963   4.458   4.866   0.862
 6688SOL    HW220964   4.363   4.777   0.764
 6689SOL     OW20965   2.427   4.410   5.648
 6689SOL    HW120966   2.409   4.347   5.572
 6689SOL    HW220967   2.372   4.383   5.727
 6690SOL     OW20968   0.503   6.867   5.903
 6690SOL    HW120969   0.563   6.838   5.828
 6690SOL    HW220970   0.485   6.965   5.894
 6691SOL     OW20971   3.085   2.181   2.579
 6691SOL    HW120972   3.123   2.105   2.633
 6691SOL    HW220973   3.079   2.154   2.483
 6692SOL     OW20974   4.377   5.349   2.382
 6692SOL    HW120975   4.437   5.423   2.411
 6692SOL    HW220976   4.286   5.385   2.362
 6693SOL     OW20977   3.824   1.794   4.856
 6693SOL    HW120978   3.761   1.809   4.933
 6693SOL    HW220979   3.778   1.818   4.771
 6694SOL     OW20980   3.425   4.046   1.744
 6694SOL    HW120981   3.418   3.962   1.690
 6694SOL    HW220982   3.344   4.102   1.729
 6695SOL     OW20983   2.344   1.979   0.021
 6695SOL    HW120984   2.293   1.997   6.965
 6695SOL    HW220985   2.437   1.951   7.028
 6696SOL     OW20986   4.062   3.685   4.455
 6696SOL    HW120987   4.072   3.696   4.356
 6696SOL    HW220988   4.149   3.705   4.500
 6697SOL     OW20989   4.258   2.319   2.346
 6697SOL    HW120990   4.327   2.340   2.417
 6697SOL    HW220991   4.184   2.386   2.351
 6698SOL     OW20992   3.216   4.009   1.469
 6698SOL    HW120993   3.311   3.989   1.493
 6698SOL    HW220994   3.170   3.925   1.441
 6699SOL     OW20995   1.073   3.977   5.780
 6699SOL    HW120996   0.981   3.963   5.743
 6699SOL    HW220997   1.132   4.015   5.709
 6700SOL     OW20998   5.792   0.011   6.869
 6700SOL    HW120999   5.880   0.059   6.867
 6700SOL    HW221000   5.759   0.006   6.964
 6701SOL     OW21001   6.497   0.328   1.045
 6701SOL    HW121002   6.419   0.352   0.988
 6701SOL    HW221003   6.579   0.373   1.009
 6702SOL     OW21004   3.176   2.710   1.456
 6702SOL    HW121005   3.218   2.799   1.439
 6702SOL    HW221006   3.101   2.696   1.392
 6703SOL     OW21007   0.084   1.146   0.437
 6703SOL    HW121008   0.131   1.106   0.516
 6703SOL    HW221009   7.020   1.110   0.433
 6704SOL     OW21010   2.858   0.407   6.176
 6704SOL    HW121011   2.878   0.350   6.256
 6704SOL    HW221012   2.833   0.348   6.099
 6705SOL     OW21013   6.888   4.387   2.390
 6705SOL    HW121014   6.795   4.358   2.369
 6705SOL    HW221015   6.924   4.332   2.466
 6706SOL     OW21016   0.415   6.517   1.467
 6706SOL    HW121017   0.455   6.447   1.525
 6706SOL    HW221018   0.341   6.478   1.413
 6707SOL     OW21019   5.132   1.006   2.233
 6707SOL    HW121020   5.132   0.968   2.325
 6707SOL    HW221021   5.072   0.951   2.174
 6708SOL     OW21022   0.616   3.680   1.060
 6708SOL    HW121023   0.663   3.768   1.063
 6708SOL    HW221024   0.592   3.659   0.965
 6709SOL     OW21025   1.980   4.199   2.164
 6709SOL    HW121026   1.978   4.122   2.227
 6709SOL    HW221027   2.071   4.205   2.122
 6710SOL     OW21028   5.258   1.600   0.935
 6710SOL    HW121029   5.186   1.531   0.937
 6710SOL    HW221030   5.218   1.690   0.919
 6711SOL     OW21031   3.505   6.348   6.478
 6711SOL    HW121032   3.592   6.384   6.447
 6711SOL    HW221033   3.495   6.253   6.447
 6712SOL     OW21034   5.459   3.947   1.743
 6712SOL    HW121035   5.447   3.855   1.780
 6712SOL    HW221036   5.467   3.943   1.644
 6713SOL     OW21037   1.772   5.213   4.998
 6713SOL    HW121038   1.863   5.184   4.968
 6713SOL    HW221039   1.759   5.310   4.977
 6714SOL     OW21040   4.753   1.387   1.238
 6714SOL    HW121041   4.742   1.340   1.151
 6714SOL    HW221042   4.675   1.448   1.253
 6715SOL     OW21043   1.355   0.430   6.953
 6715SOL    HW121044   1.332   0.341   6.913
 6715SOL    HW221045   1.371   0.419   0.022
 6716SOL     OW21046   0.134   6.156   2.621
 6716SOL    HW121047   0.233   6.160   2.623
 6716SOL    HW221048   0.098   6.160   2.714
 6717SOL     OW21049   5.667   1.842   5.446
 6717SOL    HW121050   5.682   1.922   5.503
 6717SOL    HW221051   5.733   1.841   5.370
 6718SOL     OW21052   3.873   1.004   1.331
 6718SOL    HW121053   3.904   0.909   1.334
 6718SOL    HW221054   3.949   1.064   1.306
 6719SOL     OW21055   2.085   1.193   0.262
 6719SOL    HW121056   2.128   1.134   0.194
 6719SOL    HW221057   2.007   1.240   0.221
 6720SOL     OW21058   1.881   0.528   6.261
 6720SOL    HW121059   1.860   0.436   6.227
 6720SOL    HW221060   1.834   0.596   6.204
 6721SOL     OW21061   5.962   0.852   0.448
 6721SOL    HW121062   6.013   0.937   0.433
 6721SOL    HW221063   5.907   0.831   0.367
 6722SOL     OW21064   5.871   3.387   6.896
 6722SOL    HW121065   5.917   3.396   6.985
 6722SOL    HW221066   5.781   3.430   6.900
 6723SOL     OW21067   1.046   2.309   5.923
 6723SOL    HW121068   1.043   2.409   5.927
 6723SOL    HW221069   1.048   2.279   5.828
 6724SOL     OW21070   2.155   3.616   5.029
 6724SOL    HW121071   2.138   3.553   4.953
 6724SOL    HW221072   2.252   3.613   5.053
 6725SOL     OW21073   5.166   2.936   3.181
 6725SOL    HW121074   5.197   3.005   3.115
 6725SOL    HW221075   5.245   2.896   3.227
 6726SOL     OW21076   0.714   0.256   5.261
 6726SOL    HW121077   0.784   0.301   5.206
 6726SOL    HW221078   0.701   0.162   5.230
 6727SOL     OW21079   1.386   5.091   5.363
 6727SOL    HW121080   1.369   5.005   5.411
 6727SOL    HW221081   1.483   5.098   5.340
 6728SOL     OW21082   3.295   1.853   3.174
 6728SOL    HW121083   3.343   1.931   3.134
 6728SOL    HW221084   3.314   1.848   3.272
 6729SOL     OW21085   4.374   1.102   2.364
 6729SOL    HW121086   4.279   1.071   2.365
 6729SOL    HW221087   4.431   1.036   2.315
 6730SOL     OW21088   0.650   0.948   1.401
 6730SOL    HW121089   0.747   0.973   1.400
 6730SOL    HW221090   0.637   0.871   1.465
 6731SOL     OW21091   3.675   0.127   6.178
 6731SOL    HW121092   3.605   0.074   6.129
 6731SOL    HW221093   3.668   0.106   6.276
 6732SOL     OW21094   6.853   5.559   4.873
 6732SOL    HW121095   6.774   5.518   4.826
 6732SOL    HW221096   6.930   5.565   4.810
 6733SOL     OW21097   4.790   4.929   6.380
 6733SOL    HW121098   4.734   4.900   6.301
 6733SOL    HW221099   4.868   4.981   6.348
 6734SOL     OW21100   6.461   1.990   4.279
 6734SOL    HW121101   6.477   1.961   4.374
 6734SOL    HW221102   6.495   1.920   4.217
 6735SOL     OW21103   6.306   3.222   3.305
 6735SOL    HW121104   6.206   3.211   3.300
 6735SOL    HW221105   6.350   3.138   3.273
 6736SOL     OW21106   3.358   3.605   0.597
 6736SOL    HW121107   3.440   3.607   0.654
 6736SOL    HW221108   3.380   3.563   0.509
 6737SOL     OW21109   6.986   3.506   0.414
 6737SOL    HW121110   0.018   3.453   0.355
 6737SOL    HW221111   0.012   3.569   0.469
 6738SOL     OW21112   1.141   5.732   3.565
 6738SOL    HW121113   1.148   5.807   3.499
 6738SOL    HW221114   1.230   5.685   3.571
 6739SOL     OW21115   6.726   0.089   4.921
 6739SOL    HW121116   6.677   0.011   4.962
 6739SOL    HW221117   6.809   0.056   4.877
 6740SOL     OW21118   0.628   6.671   3.092
 6740SOL    HW121119   0.554   6.666   3.025
 6740SOL    HW221120   0.621   6.757   3.142
 6741SOL     OW21121   3.896   1.934   6.821
 6741SOL    HW121122   3.979   1.926   6.876
 6741SOL    HW221123   3.832   1.861   6.845
 6742SOL     OW21124   5.430   4.893   3.739
 6742SOL    HW121125   5.351   4.934   3.786
 6742SOL    HW221126   5.430   4.794   3.754
 6743SOL     OW21127   4.136   4.013   0.713
 6743SOL    HW121128   4.212   3.984   0.772
 6743SOL    HW221129   4.142   3.966   0.625
 6744SOL     OW21130   0.253   6.202   6.148
 6744SOL    HW121131   0.205   6.167   6.068
 6744SOL    HW221132   0.243   6.301   6.153
 6745SOL     OW21133   0.169   4.647   5.145
 6745SOL    HW121134   0.227   4.583   5.095
 6745SOL    HW221135   0.135   4.602   5.228
 6746SOL     OW21136   0.878   2.145   2.300
 6746SOL    HW121137   0.925   2.130   2.386
 6746SOL    HW221138   0.892   2.239   2.270
 6747SOL     OW21139   1.777   6.324   5.723
 6747SOL    HW121140   1.731   6.237   5.738
 6747SOL    HW221141   1.827   6.322   5.637
 6748SOL     OW21142   1.885   1.160   4.819
 6748SOL    HW121143   1.874   1.093   4.892
 6748SOL    HW221144   1.815   1.231   4.827
 6749SOL     OW21145   3.502   5.223   1.493
 6749SOL    HW121146   3.472   5.194   1.584
 6749SOL    HW221147   3.442   5.183   1.424
 6750SOL     OW21148   3.343   1.422   5.031
 6750SOL    HW121149   3.254   1.431   4.986
 6750SOL    HW221150   3.356   1.328   5.061
 6751SOL     OW21151   4.998   7.001   4.288
 6751SOL    HW121152   4.920   0.032   4.309
 6751SOL    HW221153   5.081   0.026   4.281
 6752SOL     OW21154   2.140   5.364   2.065
 6752SOL    HW121155   2.059   5.364   2.123
 6752SOL    HW221156   2.205   5.295   2.099
 6753SOL     OW21157   3.727   3.318   5.855
 6753SOL    HW121158   3.751   3.264   5.774
 6753SOL    HW221159   3.721   3.258   5.935
 6754SOL     OW21160   6.343   1.940   0.985
 6754SOL    HW121161   6.264   1.975   0.934
 6754SOL    HW221162   6.427   1.968   0.939
 6755SOL     OW21163   2.687   5.695   6.217
 6755SOL    HW121164   2.754   5.713   6.288
 6755SOL    HW221165   2.731   5.649   6.140
 6756SOL     OW21166   2.367   2.129   5.413
 6756SOL    HW121167   2.370   2.049   5.352
 6756SOL    HW221168   2.353   2.212   5.359
 6757SOL     OW21169   4.020   6.706   0.615
 6757SOL    HW121170   4.015   6.614   0.575
 6757SOL    HW221171   4.070   6.702   0.701
 6758SOL     OW21172   5.577   1.937   3.034
 6758SOL    HW121173   5.598   1.957   2.938
 6758SOL    HW221174   5.539   2.019   3.077
 6759SOL     OW21175   0.804   2.551   2.511
 6759SOL    HW121176   0.736   2.498   2.460
 6759SOL    HW221177   0.791   2.536   2.609
 6760SOL     OW21178   5.148   2.680   3.348
 6760SOL    HW121179   5.068   2.625   3.372
 6760SOL    HW221180   5.118   2.773   3.326
 6761SOL     OW21181   4.003   1.923   4.492
 6761SOL    HW121182   3.954   1.996   4.540
 6761SOL    HW221183   4.092   1.909   4.534
 6762SOL     OW21184   6.940   5.659   3.586
 6762SOL    HW121185   6.860   5.604   3.610
 6762SOL    HW221186   6.955   5.728   3.656
 6763SOL     OW21187   5.121   5.294   5.419
 6763SOL    HW121188   5.078   5.380   5.445
 6763SOL    HW221189   5.068   5.251   5.346
 6764SOL     OW21190   1.705   5.464   0.959
 6764SOL    HW121191   1.725   5.529   0.885
 6764SOL    HW221192   1.648   5.509   1.028
 6765SOL     OW21193   6.801   5.133   2.803
 6765SOL    HW121194   6.797   5.045   2.849
 6765SOL    HW221195   6.708   5.162   2.778
 6766SOL     OW21196   6.103   0.742   0.696
 6766SOL    HW121197   6.108   0.841   0.682
 6766SOL    HW221198   6.176   0.697   0.646
 6767SOL     OW21199   2.954   0.183   0.376
 6767SOL    HW121200   3.051   0.165   0.396
 6767SOL    HW221201   2.917   0.108   0.323
 6768SOL     OW21202   1.971   0.681   0.594
 6768SOL    HW121203   2.058   0.634   0.612
 6768SOL    HW221204   1.982   0.743   0.516
 6769SOL     OW21205   4.208   2.815   1.683
 6769SOL    HW121206   4.244   2.723   1.697
 6769SOL    HW221207   4.278   2.882   1.705
 6770SOL     OW21208   6.983   0.275   1.537
 6770SOL    HW121209   6.926   0.306   1.461
 6770SOL    HW221210   0.007   0.195   1.508
 6771SOL     OW21211   4.063   2.157   3.368
 6771SOL    HW121212   4.106   2.231   3.318
 6771SOL    HW221213   4.115   2.073   3.355
 6772SOL     OW21214   2.941   1.636   2.797
 6772SOL    HW121215   2.889   1.630   2.712
 6772SOL    HW221216   2.946   1.546   2.840
 6773SOL     OW21217   0.386   4.237   1.998
 6773SOL    HW121218   0.398   4.144   1.962
 6773SOL    HW221219   0.475   4.275   2.022
 6774SOL     OW21220   0.785   1.562   6.956
 6774SOL    HW121221   0.814   1.565   0.022
 6774SOL    HW221222   0.707   1.624   6.942
 6775SOL     OW21223   2.411   4.718   0.771
 6775SOL    HW121224   2.447   4.694   0.680
 6775SOL    HW221225   2.320   4.757   0.761
 6776SOL     OW21226   6.255   5.472   6.943
 6776SOL    HW121227   6.218   5.432   7.027
 6776SOL    HW221228   6.353   5.455   6.939
 6777SOL     OW21229   4.510   4.569   6.611
 6777SOL    HW121230   4.524   4.667   6.595
 6777SOL    HW221231   4.417   4.544   6.586
 6778SOL     OW21232   0.828   5.845   2.849
 6778SOL    HW121233   0.910   5.894   2.819
 6778SOL    HW221234   0.851   5.787   2.927
 6779SOL     OW21235   0.010   4.522   0.484
 6779SOL    HW121236   0.022   4.529   0.385
 6779SOL    HW221237   0.059   4.441   0.518
 6780SOL     OW21238   0.258   2.204   1.827
 6780SOL    HW121239   0.234   2.300   1.812
 6780SOL    HW221240   0.233   2.151   1.745
 6781SOL     OW21241   5.431   5.677   5.693
 6781SOL    HW121242   5.398   5.694   5.600
 6781SOL    HW221243   5.494   5.750   5.720
 6782SOL     OW21244   6.201   1.493   2.937
 6782SOL    HW121245   6.183   1.498   3.035
 6782SOL    HW221246   6.179   1.401   2.904
 6783SOL     OW21247   0.373   6.248   6.888
 6783SOL    HW121248   0.330   6.162   6.914
 6783SOL    HW221249   0.306   6.322   6.893
 6784SOL     OW21250   3.053   3.399   0.428
 6784SOL    HW121251   3.059   3.486   0.378
 6784SOL    HW221252   3.067   3.416   0.526
 6785SOL     OW21253   5.560   5.899   2.302
 6785SOL    HW121254   5.536   5.917   2.206
 6785SOL    HW221255   5.641   5.952   2.326
 6786SOL     OW21256   1.729   2.847   5.824
 6786SOL    HW121257   1.692   2.899   5.902
 6786SOL    HW221258   1.692   2.885   5.739
 6787SOL     OW21259   1.343   3.643   2.145
 6787SOL    HW121260   1.396   3.691   2.075
 6787SOL    HW221261   1.354   3.544   2.132
 6788SOL     OW21262   3.092   3.840   0.893
 6788SOL    HW121263   3.041   3.760   0.863
 6788SOL    HW221264   3.177   3.847   0.840
 6789SOL     OW21265   0.694   6.333   2.527
 6789SOL    HW121266   0.721   6.270   2.599
 6789SOL    HW221267   0.594   6.337   2.522
 6790SOL     OW21268   1.897   2.951   0.180
 6790SOL    HW121269   1.968   3.021   0.189
 6790SOL    HW221270   1.929   2.865   0.221
 6791SOL     OW21271   4.195   2.899   6.163
 6791SOL    HW121272   4.286   2.892   6.203
 6791SOL    HW221273   4.201   2.891   6.064
 6792SOL     OW21274   6.682   5.981   0.737
 6792SOL    HW121275   6.624   5.984   0.818
 6792SOL    HW221276   6.761   5.921   0.755
 6793SOL     OW21277   0.622   2.872   1.287
 6793SOL    HW121278   0.582   2.820   1.362
 6793SOL    HW221279   0.716   2.840   1.271
 6794SOL     OW21280   5.095   1.747   5.388
 6794SOL    HW121281   5.112   1.666   5.332
 6794SOL    HW221282   5.124   1.829   5.338
 6795SOL     OW21283   2.871   6.065   6.820
 6795SOL    HW121284   2.772   6.077   6.825
 6795SOL    HW221285   2.895   5.973   6.850
 6796SOL     OW21286   4.609   1.421   3.143
 6796SOL    HW121287   4.664   1.481   3.202
 6796SOL    HW221288   4.514   1.453   3.144
 6797SOL     OW21289   5.663   3.303   2.346
 6797SOL    HW121290   5.716   3.383   2.374
 6797SOL    HW221291   5.698   3.267   2.260
 6798SOL     OW21292   5.387   6.295   2.560
 6798SOL    HW121293   5.385   6.274   2.657
 6798SOL    HW221294   5.347   6.219   2.509
 6799SOL     OW21295   5.529   6.781   0.400
 6799SOL    HW121296   5.455   6.726   0.438
 6799SOL    HW221297   5.535   6.766   0.301
 6800SOL     OW21298   2.195   4.951   0.048
 6800SOL    HW121299   2.131   5.007   0.099
 6800SOL    HW221300   2.153   4.922   6.991
 6801SOL     OW21301   1.665   2.386   2.317
 6801SOL    HW121302   1.665   2.484   2.336
 6801SOL    HW221303   1.754   2.347   2.338
 6802SOL     OW21304   2.337   6.191   1.726
 6802SOL    HW121305   2.363   6.096   1.706
 6802SOL    HW221306   2.260   6.191   1.790
 6803SOL     OW21307   5.281   1.992   6.996
 6803SOL    HW121308   5.204   2.054   6.978
 6803SOL    HW221309   5.367   2.043   6.990
 6804SOL     OW21310   1.587   5.867   3.752
 6804SOL    HW121311   1.685   5.865   3.767
 6804SOL    HW221312   1.548   5.948   3.796
 6805SOL     OW21313   5.970   0.432   4.750
 6805SOL    HW121314   6.004   0.438   4.656
 6805SOL    HW221315   5.882   0.478   4.756
 6806SOL     OW21316   4.422   0.776   5.313
 6806SOL    HW121317   4.396   0.765   5.409
 6806SOL    HW221318   4.396   0.867   5.281
 6807SOL     OW21319   2.927   3.027   0.235
 6807SOL    HW121320   2.831   3.052   0.253
 6807SOL    HW221321   2.948   2.940   0.280
 6808SOL     OW21322   0.956   2.669   6.078
 6808SOL    HW121323   0.908   2.628   6.156
 6808SOL    HW221324   0.895   2.734   6.032
 6809SOL     OW21325   2.512   3.933   6.729
 6809SOL    HW121326   2.442   3.898   6.667
 6809SOL    HW221327   2.601   3.934   6.682
 6810SOL     OW21328   6.022   1.124   2.407
 6810SOL    HW121329   6.033   1.087   2.499
 6810SOL    HW221330   5.925   1.126   2.383
 6811SOL     OW21331   5.703   5.087   1.490
 6811SOL    HW121332   5.639   5.013   1.510
 6811SOL    HW221333   5.797   5.052   1.490
 6812SOL     OW21334   3.460   3.182   3.064
 6812SOL    HW121335   3.500   3.111   3.121
 6812SOL    HW221336   3.533   3.230   3.014
 6813SOL     OW21337   4.399   3.329   0.926
 6813SOL    HW121338   4.479   3.389   0.930
 6813SOL    HW221339   4.385   3.286   1.016
 6814SOL     OW21340   2.107   3.321   0.831
 6814SOL    HW121341   2.032   3.350   0.772
 6814SOL    HW221342   2.182   3.387   0.825
 6815SOL     OW21343   2.298   0.396   1.944
 6815SOL    HW121344   2.274   0.487   1.979
 6815SOL    HW221345   2.238   0.372   1.868
 6816SOL     OW21346   6.774   4.890   0.487
 6816SOL    HW121347   6.693   4.831   0.484
 6816SOL    HW221348   6.747   4.985   0.478
 6817SOL     OW21349   0.182   1.358   5.913
 6817SOL    HW121350   0.094   1.317   5.888
 6817SOL    HW221351   0.199   1.438   5.854
 6818SOL     OW21352   3.777   6.124   2.838
 6818SOL    HW121353   3.746   6.219   2.843
 6818SOL    HW221354   3.722   6.074   2.772
 6819SOL     OW21355   3.650   1.184   3.980
 6819SOL    HW121356   3.635   1.198   3.882
 6819SOL    HW221357   3.701   1.099   3.995
 6820SOL     OW21358   1.048   4.204   3.253
 6820SOL    HW121359   0.992   4.136   3.300
 6820SOL    HW221360   1.120   4.237   3.314
 6821SOL     OW21361   2.260   2.337   4.339
 6821SOL    HW121362   2.338   2.305   4.285
 6821SOL    HW221363   2.289   2.413   4.397
 6822SOL     OW21364   5.374   2.112   5.932
 6822SOL    HW121365   5.436   2.036   5.951
 6822SOL    HW221366   5.423   2.198   5.945
 6823SOL     OW21367   3.121   3.048   3.067
 6823SOL    HW121368   3.185   3.045   2.990
 6823SOL    HW221369   3.028   3.046   3.033
 6824SOL     OW21370   0.883   4.482   0.130
 6824SOL    HW121371   0.812   4.437   0.076
 6824SOL    HW221372   0.954   4.416   0.154
 6825SOL     OW21373   4.934   6.943   2.275
 6825SOL    HW121374   4.992   6.937   2.356
 6825SOL    HW221375   4.991   6.941   2.192
 6826SOL     OW21376   1.605   3.182   2.807
 6826SOL    HW121377   1.584   3.111   2.874
 6826SOL    HW221378   1.657   3.255   2.851
 6827SOL     OW21379   6.124   5.671   6.031
 6827SOL    HW121380   6.028   5.680   6.059
 6827SOL    HW221381   6.181   5.660   6.113
 6828SOL     OW21382   1.094   2.419   1.235
 6828SOL    HW121383   1.179   2.371   1.257
 6828SOL    HW221384   1.034   2.418   1.315
 6829SOL     OW21385   4.920   6.103   3.712
 6829SOL    HW121386   4.945   6.006   3.714
 6829SOL    HW221387   4.907   6.132   3.618
 6830SOL     OW21388   5.209   2.280   3.736
 6830SOL    HW121389   5.217   2.232   3.649
 6830SOL    HW221390   5.113   2.301   3.754
 6831SOL     OW21391   0.358   0.568   5.840
 6831SOL    HW121392   0.418   0.509   5.894
 6831SOL    HW221393   0.383   0.664   5.856
 6832SOL     OW21394   3.265   5.413   2.030
 6832SOL    HW121395   3.280   5.380   2.123
 6832SOL    HW221396   3.229   5.506   2.033
 6833SOL     OW21397   4.011   4.810   0.625
 6833SOL    HW121398   3.993   4.736   0.560
 6833SOL    HW221399   4.003   4.775   0.719
 6834SOL     OW21400   4.170   5.884   2.208
 6834SOL    HW121401   4.237   5.859   2.138
 6834SOL    HW221402   4.217   5.926   2.286
 6835SOL     OW21403   3.971   0.301   5.013
 6835SOL    HW121404   3.902   0.264   4.951
 6835SOL    HW221405   4.031   0.364   4.963
 6836SOL     OW21406   3.607   6.387   0.120
 6836SOL    HW121407   3.597   6.294   0.157
 6836SOL    HW221408   3.647   6.382   0.029
 6837SOL     OW21409   1.843   3.133   1.864
 6837SOL    HW121410   1.908   3.056   1.859
 6837SOL    HW221411   1.797   3.133   1.952
 6838SOL     OW21412   2.689   1.040   0.397
 6838SOL    HW121413   2.593   1.016   0.411
 6838SOL    HW221414   2.716   1.111   0.462
 6839SOL     OW21415   4.152   1.280   0.759
 6839SOL    HW121416   4.174   1.333   0.841
 6839SOL    HW221417   4.164   1.338   0.678
 6840SOL     OW21418   1.256   1.551   6.050
 6840SOL    HW121419   1.355   1.540   6.063
 6840SOL    HW221420   1.208   1.490   6.112
 6841SOL     OW21421   6.352   3.103   6.359
 6841SOL    HW121422   6.442   3.060   6.352
 6841SOL    HW221423   6.352   3.168   6.434
 6842SOL     OW21424   2.252   4.655   3.125
 6842SOL    HW121425   2.286   4.568   3.090
 6842SOL    HW221426   2.286   4.669   3.218
 6843SOL     OW21427   4.870   6.784   6.663
 6843SOL    HW121428   4.897   6.711   6.725
 6843SOL    HW221429   4.843   6.865   6.716
 6844SOL     OW21430   5.529   0.706   5.487
 6844SOL    HW121431   5.609   0.676   5.435
 6844SOL    HW221432   5.455   0.728   5.425
 6845SOL     OW21433   5.216   1.643   2.204
 6845SOL    HW121434   5.246   1.708   2.273
 6845SOL    HW221435   5.274   1.651   2.123
 6846SOL     OW21436   2.425   3.675   0.204
 6846SOL    HW121437   2.368   3.704   0.282
 6846SOL    HW221438   2.374   3.686   0.119
 6847SOL     OW21439   6.236   4.007   3.933
 6847SOL    HW121440   6.151   3.963   3.962
 6847SOL    HW221441   6.309   3.938   3.927
 6848SOL     OW21442   5.876   5.210   3.257
 6848SOL    HW121443   5.850   5.249   3.345
 6848SOL    HW221444   5.817   5.132   3.237
 6849SOL     OW21445   3.616   4.378   6.658
 6849SOL    HW121446   3.621   4.342   6.752
 6849SOL    HW221447   3.709   4.402   6.627
 6850SOL     OW21448   3.883   1.785   3.561
 6850SOL    HW121449   3.945   1.711   3.532
 6850SOL    HW221450   3.789   1.759   3.541
 6851SOL     OW21451   1.813   3.175   3.767
 6851SOL    HW121452   1.870   3.229   3.705
 6851SOL    HW221453   1.870   3.136   3.839
 6852SOL     OW21454   2.701   5.059   0.112
 6852SOL    HW121455   2.734   5.114   0.035
 6852SOL    HW221456   2.607   5.030   0.094
 6853SOL     OW21457   4.878   3.360   6.750
 6853SOL    HW121458   4.840   3.418   6.823
 6853SOL    HW221459   4.977   3.370   6.748
 6854SOL     OW21460   5.303   6.512   6.196
 6854SOL    HW121461   5.209   6.501   6.164
 6854SOL    HW221462   5.335   6.605   6.173
 6855SOL     OW21463   3.708   5.545   3.927
 6855SOL    HW121464   3.745   5.509   4.013
 6855SOL    HW221465   3.671   5.636   3.942
 6856SOL     OW21466   1.049   1.671   6.786
 6856SOL    HW121467   1.086   1.583   6.813
 6856SOL    HW221468   0.980   1.700   6.852
 6857SOL     OW21469   0.778   3.869   5.653
 6857SOL    HW121470   0.699   3.919   5.619
 6857SOL    HW221471   0.839   3.847   5.576
 6858SOL     OW21472   2.446   3.805   1.606
 6858SOL    HW121473   2.429   3.873   1.677
 6858SOL    HW221474   2.544   3.799   1.588
 6859SOL     OW21475   0.858   1.262   2.597
 6859SOL    HW121476   0.824   1.170   2.577
 6859SOL    HW221477   0.908   1.297   2.517
 6860SOL     OW21478   0.699   6.682   2.334
 6860SOL    HW121479   0.703   6.721   2.426
 6860SOL    HW221480   0.759   6.602   2.328
 6861SOL     OW21481   5.463   2.786   5.149
 6861SOL    HW121482   5.390   2.731   5.110
 6861SOL    HW221483   5.502   2.845   5.078
 6862SOL     OW21484   0.649   4.335   5.337
 6862SOL    HW121485   0.715   4.382   5.279
 6862SOL    HW221486   0.574   4.397   5.359
 6863SOL     OW21487   6.370   7.012   5.860
 6863SOL    HW121488   6.425   0.058   5.896
 6863SOL    HW221489   6.339   6.953   5.935
 6864SOL     OW21490   1.140   3.763   6.237
 6864SOL    HW121491   1.112   3.772   6.142
 6864SOL    HW221492   1.224   3.709   6.242
 6865SOL     OW21493   2.370   0.145   4.082
 6865SOL    HW121494   2.443   0.193   4.132
 6865SOL    HW221495   2.289   0.204   4.078
 6866SOL     OW21496   0.797   4.538   1.231
 6866SOL    HW121497   0.877   4.587   1.266
 6866SOL    HW221498   0.797   4.445   1.267
 6867SOL     OW21499   2.134   3.801   6.765
 6867SOL    HW121500   2.162   3.877   6.706
 6867SOL    HW221501   2.043   3.770   6.739
 6868SOL     OW21502   2.532   5.082   4.440
 6868SOL    HW121503   2.562   5.026   4.517
 6868SOL    HW221504   2.558   5.038   4.354
 6869SOL     OW21505   3.302   0.683   6.157
 6869SOL    HW121506   3.204   0.704   6.159
 6869SOL    HW221507   3.329   0.657   6.064
 6870SOL     OW21508   6.361   2.469   0.924
 6870SOL    HW121509   6.393   2.527   0.849
 6870SOL    HW221510   6.418   2.387   0.930
 6871SOL     OW21511   0.797   4.037   2.482
 6871SOL    HW121512   0.882   4.004   2.523
 6871SOL    HW221513   0.746   3.959   2.444
 6872SOL     OW21514   1.932   3.688   0.902
 6872SOL    HW121515   1.859   3.641   0.953
 6872SOL    HW221516   1.905   3.696   0.806
 6873SOL     OW21517   0.978   4.360   3.973
 6873SOL    HW121518   1.064   4.328   4.011
 6873SOL    HW221519   0.908   4.362   4.044
 6874SOL     OW21520   5.542   6.659   3.432
 6874SOL    HW121521   5.517   6.702   3.519
 6874SOL    HW221522   5.561   6.562   3.448
 6875SOL     OW21523   1.546   2.313   0.561
 6875SOL    HW121524   1.564   2.226   0.605
 6875SOL    HW221525   1.472   2.302   0.494
 6876SOL     OW21526   4.717   5.645   3.456
 6876SOL    HW121527   4.700   5.549   3.434
 6876SOL    HW221528   4.631   5.694   3.464
 6877SOL     OW21529   1.659   3.690   2.370
 6877SOL    HW121530   1.683   3.594   2.378
 6877SOL    HW221531   1.564   3.704   2.397
 6878SOL     OW21532   1.964   0.536   4.615
 6878SOL    HW121533   1.881   0.480   4.625
 6878SOL    HW221534   2.042   0.477   4.595
 6879SOL     OW21535   1.960   2.072   0.486
 6879SOL    HW121536   1.910   2.157   0.471
 6879SOL    HW221537   1.909   2.013   0.549
 6880SOL     OW21538   1.372   5.528   6.698
 6880SOL    HW121539   1.411   5.493   6.614
 6880SOL    HW221540   1.379   5.628   6.699
 6881SOL     OW21541   1.299   2.938   0.389
 6881SOL    HW121542   1.233   3.012   0.371
 6881SOL    HW221543   1.374   2.973   0.445
 6882SOL     OW21544   2.671   6.724   6.560
 6882SOL    HW121545   2.575   6.749   6.547
 6882SOL    HW221546   2.702   6.667   6.484
 6883SOL     OW21547   5.089   0.224   6.777
 6883SOL    HW121548   5.050   0.189   6.692
 6883SOL    HW221549   5.187   0.237   6.766
 6884SOL     OW21550   1.969   4.208   3.004
 6884SOL    HW121551   1.916   4.188   2.921
 6884SOL    HW221552   2.041   4.140   3.014
 6885SOL     OW21553   5.588   5.389   4.938
 6885SOL    HW121554   5.652   5.315   4.915
 6885SOL    HW221555   5.515   5.393   4.869
 6886SOL     OW21556   4.915   1.694   6.493
 6886SOL    HW121557   4.970   1.662   6.570
 6886SOL    HW221558   4.889   1.789   6.508
 6887SOL     OW21559   5.607   6.003   6.195
 6887SOL    HW121560   5.553   6.070   6.246
 6887SOL    HW221561   5.582   6.006   6.098
 6888SOL     OW21562   6.092   4.997   6.621
 6888SOL    HW121563   6.188   5.016   6.643
 6888SOL    HW221564   6.054   5.074   6.570
 6889SOL     OW21565   0.594   2.313   6.801
 6889SOL    HW121566   0.655   2.311   6.722
 6889SOL    HW221567   0.557   2.406   6.813
 6890SOL     OW21568   4.601   4.779   2.987
 6890SOL    HW121569   4.531   4.821   3.045
 6890SOL    HW221570   4.564   4.699   2.941
 6891SOL     OW21571   1.693   0.917   0.836
 6891SOL    HW121572   1.649   0.928   0.925
 6891SOL    HW221573   1.787   0.951   0.841
 6892SOL     OW21574   2.647   1.243   4.523
 6892SOL    HW121575   2.585   1.165   4.514
 6892SOL    HW221576   2.675   1.253   4.618
 6893SOL     OW21577   6.126   3.404   0.508
 6893SOL    HW121578   6.187   3.461   0.564
 6893SOL    HW221579   6.164   3.312   0.501
 6894SOL     OW21580   5.567   5.566   0.734
 6894SOL    HW121581   5.521   5.630   0.795
 6894SOL    HW221582   5.660   5.548   0.768
 6895SOL     OW21583   0.550   6.750   1.421
 6895SOL    HW121584   0.486   6.676   1.439
 6895SOL    HW221585   0.553   6.812   1.500
 6896SOL     OW21586   4.250   2.251   4.564
 6896SOL    HW121587   4.158   2.214   4.554
 6896SOL    HW221588   4.271   2.313   4.489
 6897SOL     OW21589   4.848   3.365   5.246
 6897SOL    HW121590   4.861   3.394   5.340
 6897SOL    HW221591   4.794   3.433   5.197
 6898SOL     OW21592   2.412   1.147   1.498
 6898SOL    HW121593   2.347   1.075   1.522
 6898SOL    HW221594   2.429   1.145   1.400
 6899SOL     OW21595   6.216   6.127   2.501
 6899SOL    HW121596   6.286   6.198   2.499
 6899SOL    HW221597   6.194   6.100   2.407
 6900SOL     OW21598   6.218   3.780   5.468
 6900SOL    HW121599   6.316   3.795   5.478
 6900SOL    HW221600   6.189   3.811   5.377
 6901SOL     OW21601   4.991   4.340   6.912
 6901SOL    HW121602   4.952   4.409   6.851
 6901SOL    HW221603   4.976   4.366   7.007
 6902SOL     OW21604   0.737   5.981   5.668
 6902SOL    HW121605   0.835   5.963   5.662
 6902SOL    HW221606   0.688   5.895   5.682
 6903SOL     OW21607   1.759   5.800   4.641
 6903SOL    HW121608   1.808   5.735   4.584
 6903SOL    HW221609   1.786   5.788   4.736
 6904SOL     OW21610   6.187   6.585   5.281
 6904SOL    HW121611   6.278   6.552   5.259
 6904SOL    HW221612   6.123   6.507   5.284
 6905SOL     OW21613   4.830   5.965   5.946
 6905SOL    HW121614   4.800   5.903   6.018
 6905SOL    HW221615   4.768   6.044   5.943
 6906SOL     OW21616   3.453   1.852   3.661
 6906SOL    HW121617   3.489   1.836   3.753
 6906SOL    HW221618   3.488   1.939   3.626
 6907SOL     OW21619   5.750   2.434   0.521
 6907SOL    HW121620   5.811   2.396   0.451
 6907SOL    HW221621   5.669   2.377   0.528
 6908SOL     OW21622   2.640   4.419   6.962
 6908SOL    HW121623   2.701   4.485   7.006
 6908SOL    HW221624   2.572   4.468   6.908
 6909SOL     OW21625   5.829   5.711   2.221
 6909SOL    HW121626   5.867   5.708   2.314
 6909SOL    HW221627   5.773   5.629   2.206
 6910SOL     OW21628   0.906   2.932   2.908
 6910SOL    HW121629   0.846   2.927   2.828
 6910SOL    HW221630   0.956   3.019   2.907
 6911SOL     OW21631   2.018   6.755   5.520
 6911SOL    HW121632   1.949   6.690   5.549
 6911SOL    HW221633   2.008   6.840   5.570
 6912SOL     OW21634   2.799   3.636   6.845
 6912SOL    HW121635   2.786   3.735   6.853
 6912SOL    HW221636   2.741   3.601   6.772
 6913SOL     OW21637   5.087   6.491   5.820
 6913SOL    HW121638   5.069   6.427   5.895
 6913SOL    HW221639   5.081   6.585   5.853
 6914SOL     OW21640   6.715   2.879   2.409
 6914SOL    HW121641   6.645   2.940   2.446
 6914SOL    HW221642   6.672   2.814   2.346
 6915SOL     OW21643   0.766   2.926   2.676
 6915SOL    HW121644   0.672   2.893   2.684
 6915SOL    HW221645   0.807   2.890   2.593
 6916SOL     OW21646   5.137   6.128   0.023
 6916SOL    HW121647   5.134   6.036   7.013
 6916SOL    HW221648   5.179   6.124   0.114
 6917SOL     OW21649   4.969   5.514   1.328
 6917SOL    HW121650   4.888   5.572   1.316
 6917SOL    HW221651   4.989   5.468   1.242
 6918SOL     OW21652   2.137   3.620   1.331
 6918SOL    HW121653   2.125   3.720   1.328
 6918SOL    HW221654   2.164   3.592   1.423
 6919SOL     OW21655   6.427   6.133   3.434
 6919SOL    HW121656   6.402   6.125   3.531
 6919SOL    HW221657   6.361   6.192   3.388
 6920SOL     OW21658   5.951   0.673   5.944
 6920SOL    HW121659   5.956   0.574   5.942
 6920SOL    HW221660   6.021   0.712   5.884
 6921SOL     OW21661   4.150   0.380   4.280
 6921SOL    HW121662   4.179   0.288   4.305
 6921SOL    HW221663   4.066   0.375   4.226
 6922SOL     OW21664   1.553   4.503   6.088
 6922SOL    HW121665   1.458   4.503   6.055
 6922SOL    HW221666   1.594   4.593   6.071
 6923SOL     OW21667   6.262   6.859   2.759
 6923SOL    HW121668   6.293   6.783   2.818
 6923SOL    HW221669   6.275   6.946   2.807
 6924SOL     OW21670   3.171   6.098   1.161
 6924SOL    HW121671   3.144   6.187   1.126
 6924SOL    HW221672   3.102   6.066   1.226
 6925SOL     OW21673   5.865   6.228   5.918
 6925SOL    HW121674   5.890   6.277   5.835
 6925SOL    HW221675   5.831   6.137   5.895
 6926SOL     OW21676   2.992   2.066   0.386
 6926SOL    HW121677   2.954   2.063   0.294
 6926SOL    HW221678   2.968   1.982   0.435
 6927SOL     OW21679   4.889   0.584   0.929
 6927SOL    HW121680   4.921   0.539   0.846
 6927SOL    HW221681   4.954   0.655   0.956
 6928SOL     OW21682   4.878   5.024   0.903
 6928SOL    HW121683   4.864   5.104   0.843
 6928SOL    HW221684   4.894   5.055   0.996
 6929SOL     OW21685   6.409   5.345   1.353
 6929SOL    HW121686   6.491   5.290   1.373
 6929SOL    HW221687   6.423   5.395   1.268
 6930SOL     OW21688   1.380   0.250   1.189
 6930SOL    HW121689   1.428   0.162   1.199
 6930SOL    HW221690   1.327   0.249   1.105
 6931SOL     OW21691   2.915   3.270   1.002
 6931SOL    HW121692   3.012   3.269   0.977
 6931SOL    HW221693   2.900   3.340   1.072
 6932SOL     OW21694   4.848   5.976   0.315
 6932SOL    HW121695   4.879   5.954   0.222
 6932SOL    HW221696   4.812   5.893   0.358
 6933SOL     OW21697   3.530   5.757   6.410
 6933SOL    HW121698   3.508   5.720   6.500
 6933SOL    HW221699   3.450   5.801   6.371
 6934SOL     OW21700   4.916   3.724   0.185
 6934SOL    HW121701   4.994   3.712   0.247
 6934SOL    HW221702   4.876   3.814   0.200
 6935SOL     OW21703   4.783   5.959   1.415
 6935SOL    HW121704   4.811   6.007   1.498
 6935SOL    HW221705   4.700   6.002   1.378
 6936SOL     OW21706   0.747   2.107   5.337
 6936SOL    HW121707   0.664   2.154   5.307
 6936SOL    HW221708   0.827   2.162   5.313
 6937SOL     OW21709   5.422   5.630   0.053
 6937SOL    HW121710   5.351   5.574   0.009
 6937SOL    HW221711   5.512   5.593   0.029
 6938SOL     OW21712   1.238   0.401   4.851
 6938SOL    HW121713   1.252   0.303   4.833
 6938SOL    HW221714   1.327   0.446   4.857
 6939SOL     OW21715   5.976   3.972   3.405
 6939SOL    HW121716   6.018   4.052   3.446
 6939SOL    HW221717   5.876   3.979   3.411
 6940SOL     OW21718   3.352   5.928   0.574
 6940SOL    HW121719   3.339   6.009   0.517
 6940SOL    HW221720   3.272   5.869   0.567
 6941SOL     OW21721   3.353   3.823   2.619
 6941SOL    HW121722   3.304   3.908   2.598
 6941SOL    HW221723   3.452   3.839   2.613
 6942SOL     OW21724   6.306   6.625   1.676
 6942SOL    HW121725   6.351   6.695   1.621
 6942SOL    HW221726   6.323   6.643   1.773
 6943SOL     OW21727   4.571   4.817   6.569
 6943SOL    HW121728   4.650   4.849   6.516
 6943SOL    HW221729   4.491   4.872   6.546
 6944SOL     OW21730   1.112   4.370   5.422
 6944SOL    HW121731   1.157   4.282   5.435
 6944SOL    HW221732   1.071   4.374   5.331
 6945SOL     OW21733   5.442   1.882   0.785
 6945SOL    HW121734   5.476   1.812   0.722
 6945SOL    HW221735   5.518   1.920   0.837
 6946SOL     OW21736   4.314   5.235   3.157
 6946SOL    HW121737   4.372   5.313   3.132
 6946SOL    HW221738   4.231   5.236   3.101
 6947SOL     OW21739   5.635   4.619   5.059
 6947SOL    HW121740   5.573   4.611   4.980
 6947SOL    HW221741   5.584   4.656   5.137
 6948SOL     OW21742   7.018   4.569   0.217
 6948SOL    HW121743   0.034   4.607   0.137
 6948SOL    HW221744   6.946   4.506   0.189
 6949SOL     OW21745   2.462   1.521   3.766
 6949SOL    HW121746   2.398   1.585   3.724
 6949SOL    HW221747   2.556   1.553   3.751
 6950SOL     OW21748   0.073   0.476   4.280
 6950SOL    HW121749   0.134   0.532   4.336
 6950SOL    HW221750   0.004   0.434   4.338
 6951SOL     OW21751   0.165   4.637   6.502
 6951SOL    HW121752   0.263   4.657   6.508
 6951SOL    HW221753   0.148   4.574   6.426
 6952SOL     OW21754   4.474   5.754   3.506
 6952SOL    HW121755   4.428   5.804   3.432
 6952SOL    HW221756   4.413   5.682   3.540
 6953SOL     OW21757   5.627   1.274   1.049
 6953SOL    HW121758   5.701   1.322   1.096
 6953SOL    HW221759   5.540   1.294   1.094
 6954SOL     OW21760   5.884   4.094   0.026
 6954SOL    HW121761   5.943   4.164   0.066
 6954SOL    HW221762   5.913   4.004   0.058
 6955SOL     OW21763   4.545   6.624   2.229
 6955SOL    HW121764   4.600   6.546   2.199
 6955SOL    HW221765   4.580   6.708   2.187
 6956SOL     OW21766   5.737   5.473   2.480
 6956SOL    HW121767   5.812   5.538   2.478
 6956SOL    HW221768   5.654   5.516   2.443
 6957SOL     OW21769   5.601   5.910   5.724
 6957SOL    HW121770   5.594   5.992   5.779
 6957SOL    HW221771   5.697   5.884   5.715
 6958SOL     OW21772   3.068   3.736   3.532
 6958SOL    HW121773   3.037   3.767   3.623
 6958SOL    HW221774   3.127   3.656   3.543
 6959SOL     OW21775   0.728   4.214   2.923
 6959SOL    HW121776   0.764   4.302   2.953
 6959SOL    HW221777   0.748   4.144   2.991
 6960SOL     OW21778   3.328   4.408   0.359
 6960SOL    HW121779   3.297   4.491   0.405
 6960SOL    HW221780   3.304   4.328   0.413
 6961SOL     OW21781   4.924   2.399   4.977
 6961SOL    HW121782   4.978   2.452   4.912
 6961SOL    HW221783   4.841   2.366   4.932
 6962SOL     OW21784   2.294   6.405   6.261
 6962SOL    HW121785   2.358   6.439   6.192
 6962SOL    HW221786   2.216   6.467   6.267
 6963SOL     OW21787   5.548   6.395   1.044
 6963SOL    HW121788   5.618   6.455   1.004
 6963SOL    HW221789   5.459   6.420   1.006
 6964SOL     OW21790   1.251   0.212   5.196
 6964SOL    HW121791   1.259   0.301   5.151
 6964SOL    HW221792   1.241   0.140   5.127
 6965SOL     OW21793   0.664   1.818   0.360
 6965SOL    HW121794   0.614   1.735   0.383
 6965SOL    HW221795   0.762   1.798   0.356
 6966SOL     OW21796   1.324   6.379   1.492
 6966SOL    HW121797   1.314   6.341   1.400
 6966SOL    HW221798   1.361   6.309   1.553
 6967SOL     OW21799   4.261   1.438   6.505
 6967SOL    HW121800   4.306   1.501   6.568
 6967SOL    HW221801   4.165   1.430   6.529
 6968SOL     OW21802   3.858   6.525   2.731
 6968SOL    HW121803   3.928   6.589   2.698
 6968SOL    HW221804   3.791   6.575   2.785
 6969SOL     OW21805   2.056   1.934   1.692
 6969SOL    HW121806   2.093   1.857   1.641
 6969SOL    HW221807   2.126   1.970   1.754
 6970SOL     OW21808   3.909   5.550   5.463
 6970SOL    HW121809   3.877   5.494   5.386
 6970SOL    HW221810   3.867   5.641   5.458
 6971SOL     OW21811   6.802   4.378   0.139
 6971SOL    HW121812   6.830   4.312   0.209
 6971SOL    HW221813   6.731   4.337   0.081
 6972SOL     OW21814   5.344   3.647   2.081
 6972SOL    HW121815   5.252   3.606   2.078
 6972SOL    HW221816   5.344   3.723   2.145
 6973SOL     OW21817   1.769   2.748   3.059
 6973SOL    HW121818   1.768   2.752   3.159
 6973SOL    HW221819   1.801   2.658   3.029
 6974SOL     OW21820   3.768   3.576   3.215
 6974SOL    HW121821   3.855   3.626   3.212
 6974SOL    HW221822   3.755   3.527   3.129
 6975SOL     OW21823   2.802   5.207   4.613
 6975SOL    HW121824   2.723   5.253   4.654
 6975SOL    HW221825   2.808   5.114   4.649
 6976SOL     OW21826   4.538   4.119   6.170
 6976SOL    HW121827   4.616   4.119   6.232
 6976SOL    HW221828   4.554   4.053   6.096
 6977SOL     OW21829   4.193   4.984   1.185
 6977SOL    HW121830   4.131   5.058   1.207
 6977SOL    HW221831   4.287   5.019   1.183
 6978SOL     OW21832   6.504   3.916   2.052
 6978SOL    HW121833   6.564   3.948   1.979
 6978SOL    HW221834   6.418   3.968   2.050
 6979SOL     OW21835   1.757   3.142   1.610
 6979SOL    HW121836   1.785   3.155   1.705
 6979SOL    HW221837   1.798   3.213   1.552
 6980SOL     OW21838   1.513   5.452   2.464
 6980SOL    HW121839   1.417   5.428   2.451
 6980SOL    HW221840   1.520   5.529   2.528
 6981SOL     OW21841   3.854   3.059   6.792
 6981SOL    HW121842   3.851   3.159   6.781
 6981SOL    HW221843   3.791   3.031   6.864
 6982SOL     OW21844   1.438   0.790   3.002
 6982SOL    HW121845   1.420   0.858   3.073
 6982SOL    HW221846   1.384   0.812   2.921
 6983SOL     OW21847   4.736   0.774   4.148
 6983SOL    HW121848   4.659   0.711   4.160
 6983SOL    HW221849   4.749   0.827   4.232
 6984SOL     OW21850   0.695   2.353   3.199
 6984SOL    HW121851   0.748   2.426   3.158
 6984SOL    HW221852   0.725   2.338   3.293
 6985SOL     OW21853   5.916   3.864   0.163
 6985SOL    HW121854   5.874   3.853   0.253
 6985SOL    HW221855   6.010   3.830   0.166
 6986SOL     OW21856   5.037   4.906   5.570
 6986SOL    HW121857   5.073   4.813   5.575
 6986SOL    HW221858   4.979   4.923   5.650
 6987SOL     OW21859   0.417   1.334   6.386
 6987SOL    HW121860   0.333   1.304   6.431
 6987SOL    HW221861   0.471   1.254   6.358
 6988SOL     OW21862   3.497   1.473   6.514
 6988SOL    HW121863   3.566   1.512   6.575
 6988SOL    HW221864   3.445   1.546   6.471
 6989SOL     OW21865   0.606   5.248   2.107
 6989SOL    HW121866   0.629   5.344   2.117
 6989SOL    HW221867   0.570   5.212   2.193
 6990SOL     OW21868   3.865   3.023   1.117
 6990SOL    HW121869   3.884   2.970   1.200
 6990SOL    HW221870   3.862   2.963   1.038
 6991SOL     OW21871   6.600   3.359   2.499
 6991SOL    HW121872   6.533   3.308   2.552
 6991SOL    HW221873   6.680   3.378   2.556
 6992SOL     OW21874   1.069   5.988   0.255
 6992SOL    HW121875   1.024   5.901   0.231
 6992SOL    HW221876   1.167   5.973   0.264
 6993SOL     OW21877   4.936   1.600   0.979
 6993SOL    HW121878   4.916   1.680   0.922
 6993SOL    HW221879   4.890   1.520   0.941
 6994SOL     OW21880   2.576   0.468   3.137
 6994SOL    HW121881   2.655   0.416   3.106
 6994SOL    HW221882   2.605   0.561   3.162
 6995SOL     OW21883   0.488   3.801   1.580
 6995SOL    HW121884   0.474   3.892   1.620
 6995SOL    HW221885   0.537   3.810   1.493
 6996SOL     OW21886   1.301   0.977   6.815
 6996SOL    HW121887   1.288   0.878   6.825
 6996SOL    HW221888   1.220   1.017   6.773
 6997SOL     OW21889   5.658   5.454   6.253
 6997SOL    HW121890   5.589   5.505   6.202
 6997SOL    HW221891   5.688   5.375   6.199
 6998SOL     OW21892   6.309   1.271   0.008
 6998SOL    HW121893   6.306   1.234   6.944
 6998SOL    HW221894   6.350   1.362   0.006
 6999SOL     OW21895   0.263   3.042   6.967
 6999SOL    HW121896   0.284   2.945   6.956
 6999SOL    HW221897   0.271   3.088   6.879
 7000SOL     OW21898   6.665   6.338   3.609
 7000SOL    HW121899   6.732   6.266   3.595
 7000SOL    HW221900   6.635   6.373   3.521
 7001SOL     OW21901   0.532   2.279   4.402
 7001SOL    HW121902   0.497   2.372   4.390
 7001SOL    HW221903   0.606   2.263   4.337
 7002SOL     OW21904   0.675   5.311   2.856
 7002SOL    HW121905   0.745   5.260   2.907
 7002SOL    HW221906   0.717   5.350   2.774
 7003SOL     OW21907   6.870   4.056   0.507
 7003SOL    HW121908   6.905   3.977   0.557
 7003SOL    HW221909   6.833   4.123   0.572
 7004SOL     OW21910   1.575   6.474   0.937
 7004SOL    HW121911   1.599   6.378   0.923
 7004SOL    HW221912   1.526   6.507   0.856
 7005SOL     OW21913   0.668   6.073   1.198
 7005SOL    HW121914   0.627   6.163   1.180
 7005SOL    HW221915   0.698   6.033   1.111
 7006SOL     OW21916   1.526   7.013   4.355
 7006SOL    HW121917   1.548   0.030   4.268
 7006SOL    HW221918   1.610   6.977   4.395
 7007SOL     OW21919   2.272   0.432   5.738
 7007SOL    HW121920   2.213   0.438   5.819
 7007SOL    HW221921   2.362   0.469   5.760
 7008SOL     OW21922   5.641   3.817   2.853
 7008SOL    HW121923   5.580   3.792   2.777
 7008SOL    HW221924   5.696   3.738   2.879
 7009SOL     OW21925   4.675   5.791   1.987
 7009SOL    HW121926   4.672   5.888   1.961
 7009SOL    HW221927   4.720   5.739   1.914
 7010SOL     OW21928   5.178   3.304   1.835
 7010SOL    HW121929   5.135   3.269   1.752
 7010SOL    HW221930   5.215   3.396   1.817
 7011SOL     OW21931   3.390   6.019   6.960
 7011SOL    HW121932   3.489   6.015   6.964
 7011SOL    HW221933   3.358   6.110   6.986
 7012SOL     OW21934   6.656   2.558   0.338
 7012SOL    HW121935   6.627   2.482   0.397
 7012SOL    HW221936   6.578   2.618   0.321
 7013SOL     OW21937   2.868   1.697   0.238
 7013SOL    HW121938   2.964   1.705   0.214
 7013SOL    HW221939   2.856   1.718   0.336
 7014SOL     OW21940   6.388   3.002   1.149
 7014SOL    HW121941   6.477   2.961   1.171
 7014SOL    HW221942   6.315   2.940   1.179
 7015SOL     OW21943   5.149   6.374   0.656
 7015SOL    HW121944   5.088   6.321   0.715
 7015SOL    HW221945   5.229   6.319   0.633
 7016SOL     OW21946   3.062   5.260   0.984
 7016SOL    HW121947   2.974   5.257   0.936
 7016SOL    HW221948   3.113   5.341   0.954
 7017SOL     OW21949   5.821   5.204   4.975
 7017SOL    HW121950   5.782   5.237   5.061
 7017SOL    HW221951   5.906   5.253   4.956
 7018SOL     OW21952   5.278   3.171   4.446
 7018SOL    HW121953   5.336   3.111   4.501
 7018SOL    HW221954   5.189   3.127   4.433
 7019SOL     OW21955   4.488   5.642   2.416
 7019SOL    HW121956   4.509   5.700   2.337
 7019SOL    HW221957   4.393   5.658   2.444
 7020SOL     OW21958   0.594   3.050   6.476
 7020SOL    HW121959   0.625   3.032   6.570
 7020SOL    HW221960   0.672   3.047   6.414
 7021SOL     OW21961   1.006   2.094   5.170
 7021SOL    HW121962   0.960   2.010   5.142
 7021SOL    HW221963   1.078   2.117   5.103
 7022SOL     OW21964   3.016   2.048   0.733
 7022SOL    HW121965   3.036   2.140   0.766
 7022SOL    HW221966   2.988   1.990   0.809
 7023SOL     OW21967   0.571   2.405   0.763
 7023SOL    HW121968   0.635   2.334   0.790
 7023SOL    HW221969   0.484   2.392   0.810
 7024SOL     OW21970   4.068   3.162   4.424
 7024SOL    HW121971   4.116   3.132   4.341
 7024SOL    HW221972   4.101   3.253   4.450
 7025SOL     OW21973   3.796   6.718   0.888
 7025SOL    HW121974   3.853   6.738   0.968
 7025SOL    HW221975   3.799   6.796   0.825
 7026SOL     OW21976   3.294   2.532   1.168
 7026SOL    HW121977   3.321   2.484   1.251
 7026SOL    HW221978   3.210   2.584   1.185
 7027SOL     OW21979   2.474   5.264   2.976
 7027SOL    HW121980   2.393   5.230   2.928
 7027SOL    HW221981   2.513   5.190   3.032
 7028SOL     OW21982   2.805   0.368   3.469
 7028SOL    HW121983   2.705   0.364   3.474
 7028SOL    HW221984   2.839   0.292   3.414
 7029SOL     OW21985   3.353   3.730   4.139
 7029SOL    HW121986   3.335   3.763   4.046
 7029SOL    HW221987   3.396   3.802   4.193
 7030SOL     OW21988   6.562   1.252   5.076
 7030SOL    HW121989   6.559   1.242   4.977
 7030SOL    HW221990   6.502   1.184   5.119
 7031SOL     OW21991   4.471   6.782   0.534
 7031SOL    HW121992   4.556   6.746   0.496
 7031SOL    HW221993   4.402   6.789   0.461
 7032SOL     OW21994   4.226   5.926   4.644
 7032SOL    HW121995   4.232   5.993   4.569
 7032SOL    HW221996   4.240   5.973   4.731
 7033SOL     OW21997   1.876   1.671   5.135
 7033SOL    HW121998   1.839   1.763   5.123
 7033SOL    HW221999   1.855   1.616   5.054
 7034SOL     OW22000   6.747   0.496   3.757
 7034SOL    HW122001   6.709   0.585   3.731
 7034SOL    HW222002   6.778   0.499   3.852
 7035SOL     OW22003   1.902   0.607   0.192
 7035SOL    HW122004   1.863   0.533   0.246
 7035SOL    HW222005   1.864   0.695   0.224
 7036SOL     OW22006   6.614   1.232   2.696
 7036SOL    HW122007   6.606   1.193   2.605
 7036SOL    HW222008   6.700   1.203   2.738
 7037SOL     OW22009   0.962   0.735   6.017
 7037SOL    HW122010   1.025   0.661   6.044
 7037SOL    HW222011   1.008   0.796   5.953
 7038SOL     OW22012   1.791   3.998   6.882
 7038SOL    HW122013   1.835   3.976   6.969
 7038SOL    HW222014   1.857   3.989   6.808
 7039SOL     OW22015   0.916   6.298   2.378
 7039SOL    HW122016   0.923   6.203   2.347
 7039SOL    HW222017   0.834   6.310   2.433
 7040SOL     OW22018   4.906   3.283   4.547
 7040SOL    HW122019   4.861   3.218   4.608
 7040SOL    HW222020   4.991   3.315   4.589
 7041SOL     OW22021   1.881   0.091   4.095
 7041SOL    HW122022   1.795   0.133   4.068
 7041SOL    HW222023   1.867   7.022   4.112
 7042SOL     OW22024   4.948   6.151   5.472
 7042SOL    HW122025   4.850   6.167   5.472
 7042SOL    HW222026   4.995   6.230   5.511
 7043SOL     OW22027   2.506   5.149   1.260
 7043SOL    HW122028   2.600   5.119   1.248
 7043SOL    HW222029   2.454   5.129   1.178
 7044SOL     OW22030   5.058   6.394   4.961
 7044SOL    HW122031   5.001   6.446   5.025
 7044SOL    HW222032   5.032   6.297   4.965
 7045SOL     OW22033   6.531   6.472   2.218
 7045SOL    HW122034   6.539   6.572   2.208
 7045SOL    HW222035   6.500   6.433   2.131
 7046SOL     OW22036   2.811   2.200   4.443
 7046SOL    HW122037   2.729   2.153   4.475
 7046SOL    HW222038   2.881   2.196   4.515
 7047SOL     OW22039   1.127   6.058   0.942
 7047SOL    HW122040   1.118   6.087   0.846
 7047SOL    HW222041   1.108   6.136   1.002
 7048SOL     OW22042   6.720   6.261   5.008
 7048SOL    HW122043   6.687   6.228   4.919
 7048SOL    HW222044   6.758   6.184   5.060
 7049SOL     OW22045   3.549   0.976   2.852
 7049SOL    HW122046   3.568   1.046   2.921
 7049SOL    HW222047   3.450   0.968   2.840
 7050SOL     OW22048   4.317   3.911   0.888
 7050SOL    HW122049   4.412   3.904   0.919
 7050SOL    HW222050   4.259   3.850   0.942
 7051SOL     OW22051   0.656   0.698   2.032
 7051SOL    HW122052   0.609   0.719   1.946
 7051SOL    HW222053   0.624   0.760   2.104
 7052SOL     OW22054   5.056   0.016   2.719
 7052SOL    HW122055   4.968   0.042   2.759
 7052SOL    HW222056   5.066   6.945   2.722
 7053SOL     OW22057   2.010   3.504   3.199
 7053SOL    HW122058   2.050   3.578   3.253
 7053SOL    HW222059   2.023   3.522   3.101
 7054SOL     OW22060   6.411   0.875   0.195
 7054SOL    HW122061   6.333   0.935   0.176
 7054SOL    HW222062   6.457   0.905   0.278
 7055SOL     OW22063   2.899   1.143   0.260
 7055SOL    HW122064   2.822   1.088   0.293
 7055SOL    HW222065   2.870   1.239   0.255
 7056SOL     OW22066   0.436   5.334   1.414
 7056SOL    HW122067   0.479   5.416   1.450
 7056SOL    HW222068   0.376   5.295   1.484
 7057SOL     OW22069   2.822   5.044   4.388
 7057SOL    HW122070   2.760   5.049   4.310
 7057SOL    HW222071   2.789   5.105   4.461
 7058SOL     OW22072   5.410   3.096   6.152
 7058SOL    HW122073   5.428   3.084   6.054
 7058SOL    HW222074   5.340   3.166   6.164
 7059SOL     OW22075   1.980   0.134   5.268
 7059SOL    HW122076   1.926   0.090   5.339
 7059SOL    HW222077   1.967   0.087   5.181
 7060SOL     OW22078   3.986   0.769   1.282
 7060SOL    HW122079   4.069   0.803   1.326
 7060SOL    HW222080   4.008   0.733   1.192
 7061SOL     OW22081   0.672   1.632   1.512
 7061SOL    HW122082   0.664   1.614   1.414
 7061SOL    HW222083   0.713   1.722   1.526
 7062SOL     OW22084   3.377   0.986   3.274
 7062SOL    HW122085   3.312   1.030   3.213
 7062SOL    HW222086   3.361   1.015   3.368
 7063SOL     OW22087   0.984   0.844   1.716
 7063SOL    HW122088   1.083   0.844   1.731
 7063SOL    HW222089   0.939   0.890   1.793
 7064SOL     OW22090   4.199   1.539   5.355
 7064SOL    HW122091   4.274   1.577   5.301
 7064SOL    HW222092   4.128   1.503   5.294
 7065SOL     OW22093   3.906   5.205   5.573
 7065SOL    HW122094   3.825   5.258   5.599
 7065SOL    HW222095   3.880   5.136   5.506
 7066SOL     OW22096   3.964   0.292   0.114
 7066SOL    HW122097   3.927   0.260   0.027
 7066SOL    HW222098   3.913   0.373   0.144
 7067SOL     OW22099   1.695   3.541   6.852
 7067SOL    HW122100   1.695   3.481   6.772
 7067SOL    HW222101   1.745   3.496   6.927
 7068SOL     OW22102   5.392   3.127   4.111
 7068SOL    HW122103   5.361   3.208   4.061
 7068SOL    HW222104   5.364   3.134   4.206
 7069SOL     OW22105   5.929   0.449   6.649
 7069SOL    HW122106   6.023   0.417   6.645
 7069SOL    HW222107   5.883   0.430   6.562
 7070SOL     OW22108   0.139   6.759   5.049
 7070SOL    HW122109   0.157   6.716   4.961
 7070SOL    HW222110   0.160   6.694   5.122
 7071SOL     OW22111   4.915   5.736   6.753
 7071SOL    HW122112   4.924   5.651   6.804
 7071SOL    HW222113   4.872   5.717   6.665
 7072SOL     OW22114   0.638   3.568   6.302
 7072SOL    HW122115   0.714   3.503   6.292
 7072SOL    HW222116   0.671   3.650   6.348
 7073SOL     OW22117   4.917   1.529   3.423
 7073SOL    HW122118   5.006   1.569   3.401
 7073SOL    HW222119   4.901   1.449   3.364
 7074SOL     OW22120   5.809   4.464   2.638
 7074SOL    HW122121   5.811   4.371   2.603
 7074SOL    HW222122   5.794   4.462   2.737
 7075SOL     OW22123   3.293   5.010   3.453
 7075SOL    HW122124   3.349   5.089   3.479
 7075SOL    HW222125   3.305   4.992   3.356
 7076SOL     OW22126   5.780   2.156   2.224
 7076SOL    HW122127   5.736   2.106   2.299
 7076SOL    HW222128   5.725   2.237   2.201
 7077SOL     OW22129   3.550   5.481   1.457
 7077SOL    HW122130   3.560   5.382   1.454
 7077SOL    HW222131   3.481   5.510   1.390
 7078SOL     OW22132   5.469   0.727   7.006
 7078SOL    HW122133   5.552   0.684   6.969
 7078SOL    HW222134   5.410   0.756   6.930
 7079SOL     OW22135   1.117   6.386   5.151
 7079SOL    HW122136   1.065   6.456   5.200
 7079SOL    HW222137   1.082   6.376   5.058
 7080SOL     OW22138   4.090   2.101   5.642
 7080SOL    HW122139   4.082   2.149   5.729
 7080SOL    HW222140   4.180   2.118   5.602
 7081SOL     OW22141   1.578   0.187   0.481
 7081SOL    HW122142   1.516   0.109   0.481
 7081SOL    HW222143   1.566   0.239   0.566
 7082SOL     OW22144   0.020   4.343   3.005
 7082SOL    HW122145   6.955   4.315   2.986
 7082SOL    HW222146   0.021   4.440   3.030
 7083SOL     OW22147   6.214   2.884   2.614
 7083SOL    HW122148   6.266   2.810   2.658
 7083SOL    HW222149   6.131   2.902   2.667
 7084SOL     OW22150   0.638   5.855   6.827
 7084SOL    HW122151   0.591   5.899   6.750
 7084SOL    HW222152   0.691   5.778   6.794
 7085SOL     OW22153   0.412   3.556   2.320
 7085SOL    HW122154   0.426   3.589   2.413
 7085SOL    HW222155   0.449   3.622   2.255
 7086SOL     OW22156   5.374   1.089   3.877
 7086SOL    HW122157   5.323   1.078   3.962
 7086SOL    HW222158   5.383   1.000   3.832
 7087SOL     OW22159   5.436   3.781   2.675
 7087SOL    HW122160   5.450   3.751   2.581
 7087SOL    HW222161   5.379   3.715   2.723
 7088SOL     OW22162   5.909   1.774   5.252
 7088SOL    HW122163   5.955   1.769   5.163
 7088SOL    HW222164   5.911   1.868   5.285
 7089SOL     OW22165   3.147   5.991   1.845
 7089SOL    HW122166   3.171   6.086   1.830
 7089SOL    HW222167   3.048   5.979   1.836
 7090SOL     OW22168   4.334   2.845   1.009
 7090SOL    HW122169   4.276   2.907   0.956
 7090SOL    HW222170   4.323   2.864   1.107
 7091SOL     OW22171   0.083   6.042   0.311
 7091SOL    HW122172   0.146   5.964   0.301
 7091SOL    HW222173   0.022   6.025   0.387
 7092SOL     OW22174   3.985   1.187   6.306
 7092SOL    HW122175   4.006   1.246   6.383
 7092SOL    HW222176   3.896   1.142   6.322
 7093SOL     OW22177   2.753   2.860   1.324
 7093SOL    HW122178   2.752   2.890   1.420
 7093SOL    HW222179   2.727   2.936   1.265
 7094SOL     OW22180   3.055   0.195   5.573
 7094SOL    HW122181   2.973   0.244   5.601
 7094SOL    HW222182   3.122   0.261   5.538
 7095SOL     OW22183   2.593   4.756   4.887
 7095SOL    HW122184   2.599   4.698   4.969
 7095SOL    HW222185   2.685   4.789   4.864
 7096SOL     OW22186   0.308   0.775   1.383
 7096SOL    HW122187   0.312   0.837   1.305
 7096SOL    HW222188   0.399   0.740   1.404
 7097SOL     OW22189   4.274   1.072   1.933
 7097SOL    HW122190   4.362   1.113   1.958
 7097SOL    HW222191   4.270   1.059   1.834
 7098SOL     OW22192   1.558   6.864   4.036
 7098SOL    HW122193   1.645   6.823   4.063
 7098SOL    HW222194   1.563   6.895   3.941
 7099SOL     OW22195   2.921   2.263   3.803
 7099SOL    HW122196   2.831   2.239   3.838
 7099SOL    HW222197   2.980   2.290   3.879
 7100SOL     OW22198   6.047   3.772   1.587
 7100SOL    HW122199   6.068   3.847   1.525
 7100SOL    HW222200   6.087   3.790   1.676
 7101SOL     OW22201   2.676   6.224   5.701
 7101SOL    HW122202   2.774   6.207   5.700
 7101SOL    HW222203   2.629   6.144   5.740
 7102SOL     OW22204   5.445   0.876   1.914
 7102SOL    HW122205   5.508   0.857   1.838
 7102SOL    HW222206   5.462   0.968   1.949
 7103SOL     OW22207   4.948   3.914   2.986
 7103SOL    HW122208   4.935   3.840   2.920
 7103SOL    HW222209   5.019   3.976   2.953
 7104SOL     OW22210   5.307   3.289   3.522
 7104SOL    HW122211   5.253   3.211   3.555
 7104SOL    HW222212   5.250   3.371   3.522
 7105SOL     OW22213   3.178   4.066   3.697
 7105SOL    HW122214   3.081   4.074   3.720
 7105SOL    HW222215   3.231   4.122   3.761
 7106SOL     OW22216   2.866   2.482   1.097
 7106SOL    HW122217   2.894   2.517   1.008
 7106SOL    HW222218   2.866   2.382   1.095
 7107SOL     OW22219   3.454   0.726   6.384
 7107SOL    HW122220   3.406   0.721   6.297
 7107SOL    HW222221   3.449   0.638   6.431
 7108SOL     OW22222   4.989   0.874   2.045
 7108SOL    HW122223   4.949   0.784   2.063
 7108SOL    HW222224   5.051   0.868   1.966
 7109SOL     OW22225   3.165   5.479   6.365
 7109SOL    HW122226   3.083   5.453   6.417
 7109SOL    HW222227   3.186   5.408   6.298
 7110SOL     OW22228   3.562   6.659   4.222
 7110SOL    HW122229   3.582   6.643   4.126
 7110SOL    HW222230   3.622   6.601   4.278
 7111SOL     OW22231   6.898   0.956   5.002
 7111SOL    HW122232   6.963   0.912   5.064
 7111SOL    HW222233   6.936   0.958   4.910
 7112SOL     OW22234   1.607   5.127   4.775
 7112SOL    HW122235   1.671   5.158   4.846
 7112SOL    HW222236   1.513   5.144   4.804
 7113SOL     OW22237   3.632   6.398   5.298
 7113SOL    HW122238   3.606   6.309   5.337
 7113SOL    HW222239   3.600   6.471   5.358
 7114SOL     OW22240   5.790   4.380   0.318
 7114SOL    HW122241   5.803   4.281   0.327
 7114SOL    HW222242   5.712   4.408   0.375
 7115SOL     OW22243   5.689   3.960   5.965
 7115SOL    HW122244   5.781   3.977   5.930
 7115SOL    HW222245   5.684   3.867   6.001
 7116SOL     OW22246   6.242   4.046   3.685
 7116SOL    HW122247   6.244   4.047   3.785
 7116SOL    HW222248   6.245   3.951   3.653
 7117SOL     OW22249   5.804   0.486   2.922
 7117SOL    HW122250   5.811   0.405   2.980
 7117SOL    HW222251   5.839   0.566   2.972
 7118SOL     OW22252   4.299   4.391   5.556
 7118SOL    HW122253   4.385   4.432   5.527
 7118SOL    HW222254   4.304   4.365   5.653
 7119SOL     OW22255   3.430   6.843   4.868
 7119SOL    HW122256   3.447   6.940   4.886
 7119SOL    HW222257   3.474   6.788   4.938
 7120SOL     OW22258   4.589   0.411   0.344
 7120SOL    HW122259   4.583   0.421   0.443
 7120SOL    HW222260   4.559   0.495   0.300
 7121SOL     OW22261   1.784   5.802   2.207
 7121SOL    HW122262   1.749   5.709   2.216
 7121SOL    HW222263   1.856   5.817   2.274
 7122SOL     OW22264   3.437   1.928   0.070
 7122SOL    HW122265   3.390   1.889   0.149
 7122SOL    HW222266   3.405   2.022   0.055
 7123SOL     OW22267   5.426   5.296   6.009
 7123SOL    HW122268   5.386   5.240   5.937
 7123SOL    HW222269   5.515   5.259   6.034
 7124SOL     OW22270   1.170   2.328   1.542
 7124SOL    HW122271   1.184   2.236   1.580
 7124SOL    HW222272   1.081   2.332   1.496
 7125SOL     OW22273   0.500   6.743   1.899
 7125SOL    HW122274   0.531   6.819   1.957
 7125SOL    HW222275   0.562   6.665   1.910
 7126SOL     OW22276   3.252   5.457   0.928
 7126SOL    HW122277   3.242   5.555   0.943
 7126SOL    HW222278   3.327   5.422   0.985
 7127SOL     OW22279   2.249   6.704   6.010
 7127SOL    HW122280   2.327   6.719   5.949
 7127SOL    HW222281   2.172   6.760   5.979
 7128SOL     OW22282   4.145   4.064   6.438
 7128SOL    HW122283   4.115   4.158   6.454
 7128SOL    HW222284   4.140   4.044   6.340
 7129SOL     OW22285   0.655   6.931   0.797
 7129SOL    HW122286   0.629   7.003   0.733
 7129SOL    HW222287   0.598   6.936   0.879
 7130SOL     OW22288   3.395   6.736   3.893
 7130SOL    HW122289   3.325   6.720   3.963
 7130SOL    HW222290   3.481   6.692   3.921
 7131SOL     OW22291   3.250   1.286   2.299
 7131SOL    HW122292   3.309   1.214   2.334
 7131SOL    HW222293   3.180   1.307   2.366
 7132SOL     OW22294   5.321   4.748   0.555
 7132SOL    HW122295   5.232   4.704   0.568
 7132SOL    HW222296   5.350   4.738   0.459
 7133SOL     OW22297   5.202   5.673   2.958
 7133SOL    HW122298   5.114   5.629   2.976
 7133SOL    HW222299   5.276   5.607   2.975
 7134SOL     OW22300   4.726   5.095   0.261
 7134SOL    HW122301   4.709   5.189   0.291
 7134SOL    HW222302   4.648   5.063   0.206
 7135SOL     OW22303   1.763   3.262   0.918
 7135SOL    HW122304   1.665   3.274   0.929
 7135SOL    HW222305   1.808   3.271   1.007
 7136SOL     OW22306   1.890   1.628   1.879
 7136SOL    HW122307   1.983   1.643   1.911
 7136SOL    HW222308   1.890   1.556   1.809
 7137SOL     OW22309   2.817   1.909   1.591
 7137SOL    HW122310   2.792   1.958   1.675
 7137SOL    HW222311   2.742   1.849   1.565
 7138SOL     OW22312   0.856   2.696   0.467
 7138SOL    HW122313   0.861   2.619   0.531
 7138SOL    HW222314   0.821   2.665   0.379
 7139SOL     OW22315   6.186   6.456   0.855
 7139SOL    HW122316   6.274   6.441   0.811
 7139SOL    HW222317   6.113   6.416   0.799
 7140SOL     OW22318   6.336   3.500   0.059
 7140SOL    HW122319   6.302   3.520   6.996
 7140SOL    HW222320   6.266   3.522   0.127
 7141SOL     OW22321   3.314   0.266   0.723
 7141SOL    HW122322   3.295   0.283   0.820
 7141SOL    HW222323   3.260   0.329   0.667
 7142SOL     OW22324   3.359   0.255   5.049
 7142SOL    HW122325   3.264   0.259   5.018
 7142SOL    HW222326   3.384   0.342   5.090
 7143SOL     OW22327   2.883   4.319   6.619
 7143SOL    HW122328   2.981   4.317   6.598
 7143SOL    HW222329   2.866   4.267   6.702
 7144SOL     OW22330   6.803   0.751   6.137
 7144SOL    HW122331   6.707   0.780   6.142
 7144SOL    HW222332   6.808   0.661   6.095
 7145SOL     OW22333   5.116   2.241   6.268
 7145SOL    HW122334   5.192   2.193   6.313
 7145SOL    HW222335   5.102   2.202   6.177
 7146SOL     OW22336   1.296   2.267   5.595
 7146SOL    HW122337   1.290   2.359   5.555
 7146SOL    HW222338   1.230   2.207   5.550
 7147SOL     OW22339   6.341   6.682   1.976
 7147SOL    HW122340   6.433   6.674   2.013
 7147SOL    HW222341   6.305   6.773   1.995
 7148SOL     OW22342   6.261   0.029   0.871
 7148SOL    HW122343   6.238   6.986   0.937
 7148SOL    HW222344   6.186   0.096   0.868
 7149SOL     OW22345   5.642   4.668   5.686
 7149SOL    HW122346   5.661   4.582   5.733
 7149SOL    HW222347   5.723   4.696   5.635
 7150SOL     OW22348   3.343   3.352   6.559
 7150SOL    HW122349   3.273   3.295   6.602
 7150SOL    HW222350   3.429   3.345   6.610
 7151SOL     OW22351   3.470   1.343   0.516
 7151SOL    HW122352   3.460   1.423   0.575
 7151SOL    HW222353   3.474   1.261   0.572
 7152SOL     OW22354   6.573   1.221   6.591
 7152SOL    HW122355   6.671   1.225   6.609
 7152SOL    HW222356   6.557   1.222   6.492
 7153SOL     OW22357   3.797   5.809   0.401
 7153SOL    HW122358   3.771   5.798   0.497
 7153SOL    HW222359   3.850   5.893   0.390
 7154SOL     OW22360   3.908   2.124   1.999
 7154SOL    HW122361   3.812   2.135   2.024
 7154SOL    HW222362   3.934   2.194   1.933
 7155SOL     OW22363   1.606   1.355   1.912
 7155SOL    HW122364   1.526   1.319   1.863
 7155SOL    HW222365   1.595   1.338   2.010
 7156SOL     OW22366   5.924   3.408   5.754
 7156SOL    HW122367   5.899   3.373   5.845
 7156SOL    HW222368   5.880   3.496   5.739
 7157SOL     OW22369   0.012   4.086   5.753
 7157SOL    HW122370   0.031   4.157   5.820
 7157SOL    HW222371   0.059   4.001   5.780
 7158SOL     OW22372   4.560   0.176   3.913
 7158SOL    HW122373   4.465   0.201   3.933
 7158SOL    HW222374   4.588   0.218   3.827
 7159SOL     OW22375   0.471   6.269   3.218
 7159SOL    HW122376   0.427   6.359   3.225
 7159SOL    HW222377   0.413   6.200   3.261
 7160SOL     OW22378   6.915   0.253   3.416
 7160SOL    HW122379   6.877   0.344   3.402
 7160SOL    HW222380   7.011   0.261   3.443
 7161SOL     OW22381   4.018   3.180   3.093
 7161SOL    HW122382   4.087   3.239   3.052
 7161SOL    HW222383   4.031   3.178   3.192
 7162SOL     OW22384   0.699   5.792   1.723
 7162SOL    HW122385   0.710   5.710   1.778
 7162SOL    HW222386   0.784   5.813   1.675
 7163SOL     OW22387   0.108   1.214   1.712
 7163SOL    HW122388   0.090   1.299   1.662
 7163SOL    HW222389   0.026   1.157   1.712
 7164SOL     OW22390   2.354   1.302   6.705
 7164SOL    HW122391   2.391   1.382   6.657
 7164SOL    HW222392   2.274   1.329   6.758
 7165SOL     OW22393   5.806   1.449   0.540
 7165SOL    HW122394   5.849   1.487   0.458
 7165SOL    HW222395   5.811   1.516   0.615
 7166SOL     OW22396   6.668   5.451   6.154
 7166SOL    HW122397   6.591   5.390   6.178
 7166SOL    HW222398   6.657   5.482   6.060
 7167SOL     OW22399   6.140   2.746   4.985
 7167SOL    HW122400   6.169   2.652   5.000
 7167SOL    HW222401   6.149   2.798   5.071
 7168SOL     OW22402   2.610   1.034   2.130
 7168SOL    HW122403   2.522   1.050   2.085
 7168SOL    HW222404   2.649   1.122   2.157
 7169SOL     OW22405   2.209   3.944   6.156
 7169SOL    HW122406   2.291   3.911   6.109
 7169SOL    HW222407   2.135   3.957   6.090
 7170SOL     OW22408   3.784   1.550   0.675
 7170SOL    HW122409   3.711   1.610   0.642
 7170SOL    HW222410   3.803   1.481   0.605
 7171SOL     OW22411   6.961   3.853   0.642
 7171SOL    HW122412   6.915   3.764   0.631
 7171SOL    HW222413   7.001   3.858   0.733
 7172SOL     OW22414   1.215   2.511   3.810
 7172SOL    HW122415   1.146   2.460   3.862
 7172SOL    HW222416   1.299   2.519   3.864
 7173SOL     OW22417   4.888   5.564   6.097
 7173SOL    HW122418   4.864   5.477   6.139
 7173SOL    HW222419   4.820   5.634   6.123
 7174SOL     OW22420   6.190   4.357   1.857
 7174SOL    HW122421   6.256   4.426   1.828
 7174SOL    HW222422   6.120   4.401   1.914
 7175SOL     OW22423   6.790   3.583   6.001
 7175SOL    HW122424   6.772   3.655   6.069
 7175SOL    HW222425   6.887   3.561   6.001
 7176SOL     OW22426   0.600   0.375   5.501
 7176SOL    HW122427   0.671   0.362   5.571
 7176SOL    HW222428   0.625   0.324   5.419
 7177SOL     OW22429   1.166   5.836   3.926
 7177SOL    HW122430   1.221   5.899   3.981
 7177SOL    HW222431   1.204   5.830   3.834
 7178SOL     OW22432   1.932   7.000   5.066
 7178SOL    HW122433   1.842   0.009   5.043
 7178SOL    HW222434   1.922   6.934   5.140
 7179SOL     OW22435   3.488   5.308   5.856
 7179SOL    HW122436   3.522   5.381   5.916
 7179SOL    HW222437   3.472   5.345   5.764
 7180SOL     OW22438   1.791   2.888   1.472
 7180SOL    HW122439   1.753   2.915   1.384
 7180SOL    HW222440   1.737   2.928   1.546
 7181SOL     OW22441   2.480   1.361   5.935
 7181SOL    HW122442   2.561   1.387   5.987
 7181SOL    HW222443   2.506   1.300   5.860
 7182SOL     OW22444   1.854   1.946   3.842
 7182SOL    HW122445   1.797   2.028   3.833
 7182SOL    HW222446   1.875   1.911   3.751
 7183SOL     OW22447   0.484   6.901   1.651
 7183SOL    HW122448   0.472   6.836   1.725
 7183SOL    HW222449   0.493   6.993   1.688
 7184SOL     OW22450   6.780   0.301   4.146
 7184SOL    HW122451   6.825   0.214   4.128
 7184SOL    HW222452   6.681   0.290   4.138
 7185SOL     OW22453   4.272   1.061   4.654
 7185SOL    HW122454   4.175   1.053   4.674
 7185SOL    HW222455   4.289   1.148   4.609
 7186SOL     OW22456   0.244   0.683   6.559
 7186SOL    HW122457   0.191   0.600   6.577
 7186SOL    HW222458   0.182   0.761   6.551
 7187SOL     OW22459   3.444   3.066   3.979
 7187SOL    HW122460   3.469   3.007   3.901
 7187SOL    HW222461   3.509   3.141   3.985
 7188SOL     OW22462   4.353   4.173   0.038
 7188SOL    HW122463   4.275   4.231   0.012
 7188SOL    HW222464   4.435   4.208   7.023
 7189SOL     OW22465   6.475   2.437   5.967
 7189SOL    HW122466   6.485   2.522   6.018
 7189SOL    HW222467   6.378   2.420   5.948
 7190SOL     OW22468   5.716   4.979   0.748
 7190SOL    HW122469   5.620   5.007   0.737
 7190SOL    HW222470   5.723   4.880   0.730
 7191SOL     OW22471   6.722   5.105   4.029
 7191SOL    HW122472   6.634   5.144   4.056
 7191SOL    HW222473   6.716   5.071   3.936
 7192SOL     OW22474   3.159   4.534   6.700
 7192SOL    HW122475   3.152   4.444   6.657
 7192SOL    HW222476   3.254   4.553   6.723
 7193SOL     OW22477   2.838   2.128   2.699
 7193SOL    HW122478   2.801   2.176   2.778
 7193SOL    HW222479   2.925   2.169   2.673
 7194SOL     OW22480   3.211   2.697   5.885
 7194SOL    HW122481   3.153   2.623   5.851
 7194SOL    HW222482   3.210   2.697   5.985
 7195SOL     OW22483   0.840   4.881   4.922
 7195SOL    HW122484   0.745   4.863   4.899
 7195SOL    HW222485   0.850   4.886   5.022
 7196SOL     OW22486   3.327   4.063   2.089
 7196SOL    HW122487   3.344   4.069   1.991
 7196SOL    HW222488   3.239   4.018   2.105
 7197SOL     OW22489   3.274   4.699   6.185
 7197SOL    HW122490   3.312   4.611   6.154
 7197SOL    HW222491   3.251   4.693   6.282
 7198SOL     OW22492   0.758   0.439   1.985
 7198SOL    HW122493   0.718   0.530   1.983
 7198SOL    HW222494   0.698   0.376   1.935
 7199SOL     OW22495   6.523   0.874   2.527
 7199SOL    HW122496   6.555   0.830   2.611
 7199SOL    HW222497   6.427   0.899   2.537
 7200SOL     OW22498   1.115   2.380   0.626
 7200SOL    HW122499   1.019   2.403   0.642
 7200SOL    HW222500   1.120   2.303   0.562
 7201SOL     OW22501   5.156   5.511   3.754
 7201SOL    HW122502   5.095   5.530   3.831
 7201SOL    HW222503   5.230   5.450   3.784
 7202SOL     OW22504   5.113   0.811   5.974
 7202SOL    HW122505   5.171   0.816   5.893
 7202SOL    HW222506   5.141   0.882   6.039
 7203SOL     OW22507   0.329   1.101   1.089
 7203SOL    HW122508   0.267   1.091   1.167
 7203SOL    HW222509   0.333   1.198   1.062
 7204SOL     OW22510   6.148   6.995   1.855
 7204SOL    HW122511   6.060   6.976   1.810
 7204SOL    HW222512   6.160   0.065   1.863
 7205SOL     OW22513   2.887   1.854   3.963
 7205SOL    HW122514   2.893   1.762   4.003
 7205SOL    HW222515   2.970   1.872   3.911
 7206SOL     OW22516   2.093   3.510   0.468
 7206SOL    HW122517   2.037   3.560   0.534
 7206SOL    HW222518   2.035   3.479   0.392
 7207SOL     OW22519   2.106   1.184   3.734
 7207SOL    HW122520   2.084   1.282   3.733
 7207SOL    HW222521   2.021   1.131   3.731
 7208SOL     OW22522   2.681   0.516   4.584
 7208SOL    HW122523   2.718   0.532   4.492
 7208SOL    HW222524   2.603   0.453   4.578
 7209SOL     OW22525   3.302   1.199   2.037
 7209SOL    HW122526   3.318   1.242   2.126
 7209SOL    HW222527   3.339   1.106   2.038
 7210SOL     OW22528   2.975   1.982   3.416
 7210SOL    HW122529   2.982   2.079   3.439
 7210SOL    HW222530   2.900   1.940   3.466
 7211SOL     OW22531   4.550   6.206   4.775
 7211SOL    HW122532   4.513   6.297   4.758
 7211SOL    HW222533   4.642   6.199   4.735
 7212SOL     OW22534   6.863   4.532   5.745
 7212SOL    HW122535   6.950   4.488   5.723
 7212SOL    HW222536   6.869   4.630   5.724
 7213SOL     OW22537   3.628   2.225   6.638
 7213SOL    HW122538   3.592   2.236   6.730
 7213SOL    HW222539   3.558   2.253   6.571
 7214SOL     OW22540   6.879   0.685   6.454
 7214SOL    HW122541   6.810   0.733   6.508
 7214SOL    HW222542   6.865   0.706   6.357
 7215SOL     OW22543   6.397   2.482   2.261
 7215SOL    HW122544   6.419   2.554   2.196
 7215SOL    HW222545   6.390   2.394   2.213
 7216SOL     OW22546   3.472   6.431   3.554
 7216SOL    HW122547   3.496   6.416   3.650
 7216SOL    HW222548   3.550   6.471   3.506
 7217SOL     OW22549   1.681   3.150   3.228
 7217SOL    HW122550   1.592   3.155   3.273
 7217SOL    HW222551   1.712   3.241   3.203
 7218SOL     OW22552   6.161   3.597   4.390
 7218SOL    HW122553   6.067   3.575   4.418
 7218SOL    HW222554   6.201   3.517   4.346
 7219SOL     OW22555   3.533   5.930   2.695
 7219SOL    HW122556   3.522   5.952   2.598
 7219SOL    HW222557   3.459   5.871   2.724
 7220SOL     OW22558   6.441   4.842   4.390
 7220SOL    HW122559   6.377   4.779   4.435
 7220SOL    HW222560   6.515   4.789   4.348
 7221SOL     OW22561   3.845   5.777   3.700
 7221SOL    HW122562   3.767   5.715   3.694
 7221SOL    HW222563   3.819   5.860   3.750
 7222SOL     OW22564   6.695   5.730   4.472
 7222SOL    HW122565   6.635   5.709   4.395
 7222SOL    HW222566   6.686   5.660   4.542
 7223SOL     OW22567   6.717   3.900   1.863
 7223SOL    HW122568   6.704   3.965   1.789
 7223SOL    HW222569   6.798   3.926   1.916
 7224SOL     OW22570   4.030   1.874   3.147
 7224SOL    HW122571   4.027   1.787   3.097
 7224SOL    HW222572   3.939   1.916   3.145
 7225SOL     OW22573   1.668   6.297   1.206
 7225SOL    HW122574   1.641   6.257   1.119
 7225SOL    HW222575   1.756   6.342   1.197
 7226SOL     OW22576   6.314   6.522   0.431
 7226SOL    HW122577   6.306   6.584   0.509
 7226SOL    HW222578   6.290   6.429   0.461
 7227SOL     OW22579   2.300   0.720   2.271
 7227SOL    HW122580   2.288   0.816   2.296
 7227SOL    HW222581   2.283   0.662   2.351
 7228SOL     OW22582   6.984   3.090   2.159
 7228SOL    HW122583   7.014   3.183   2.144
 7228SOL    HW222584   7.002   3.064   2.254
 7229SOL     OW22585   6.742   0.873   5.623
 7229SOL    HW122586   6.818   0.811   5.602
 7229SOL    HW222587   6.672   0.823   5.674
 7230SOL     OW22588   2.036   5.341   4.353
 7230SOL    HW122589   1.988   5.354   4.440
 7230SOL    HW222590   2.126   5.301   4.370
 7231SOL     OW22591   4.176   2.073   6.818
 7231SOL    HW122592   4.265   2.112   6.794
 7231SOL    HW222593   4.140   2.022   6.739
 7232SOL     OW22594   5.404   0.019   3.407
 7232SOL    HW122595   5.353   0.007   3.492
 7232SOL    HW222596   5.340   0.027   3.331
 7233SOL     OW22597   6.900   1.239   4.690
 7233SOL    HW122598   6.886   1.293   4.773
 7233SOL    HW222599   6.831   1.264   4.622
 7234SOL     OW22600   5.068   4.227   3.052
 7234SOL    HW122601   5.120   4.174   2.984
 7234SOL    HW222602   5.091   4.324   3.044
 7235SOL     OW22603   0.024   5.597   1.653
 7235SOL    HW122604   6.980   5.582   1.720
 7235SOL    HW222605   7.028   5.673   1.593
 7236SOL     OW22606   1.746   3.045   2.607
 7236SOL    HW122607   1.675   3.106   2.643
 7236SOL    HW222608   1.742   2.957   2.655
 7237SOL     OW22609   5.235   0.970   0.327
 7237SOL    HW122610   5.281   1.028   0.394
 7237SOL    HW222611   5.189   0.894   0.375
 7238SOL     OW22612   3.772   3.180   0.457
 7238SOL    HW122613   3.696   3.167   0.520
 7238SOL    HW222614   3.859   3.161   0.503
 7239SOL     OW22615   0.073   2.357   2.124
 7239SOL    HW122616   0.027   2.303   2.054
 7239SOL    HW222617   0.004   2.396   2.186
 7240SOL     OW22618   6.910   2.029   6.503
 7240SOL    HW122619   6.861   1.963   6.559
 7240SOL    HW222620   7.005   2.035   6.534
 7241SOL     OW22621   2.083   1.169   1.449
 7241SOL    HW122622   2.019   1.244   1.436
 7241SOL    HW222623   2.165   1.185   1.395
 7242SOL     OW22624   6.435   5.089   4.557
 7242SOL    HW122625   6.437   5.018   4.487
 7242SOL    HW222626   6.523   5.092   4.604
 7243SOL     OW22627   6.256   4.369   6.458
 7243SOL    HW122628   6.208   4.421   6.387
 7243SOL    HW222629   6.269   4.275   6.428
 7244SOL     OW22630   0.569   6.040   0.037
 7244SOL    HW122631   0.481   6.017   7.025
 7244SOL    HW222632   0.632   5.963   0.024
 7245SOL     OW22633   1.065   3.685   0.269
 7245SOL    HW122634   1.134   3.757   0.279
 7245SOL    HW222635   1.006   3.706   0.191
 7246SOL     OW22636   3.629   6.621   3.951
 7246SOL    HW122637   3.669   6.534   3.924
 7246SOL    HW222638   3.695   6.695   3.934
 7247SOL     OW22639   3.276   3.528   5.293
 7247SOL    HW122640   3.187   3.573   5.305
 7247SOL    HW222641   3.300   3.528   5.196
 7248SOL     OW22642   3.412   1.017   4.807
 7248SOL    HW122643   3.483   0.958   4.769
 7248SOL    HW222644   3.375   1.076   4.736
 7249SOL     OW22645   4.147   5.408   2.312
 7249SOL    HW122646   4.062   5.434   2.358
 7249SOL    HW222647   4.157   5.462   2.228
 7250SOL     OW22648   5.186   5.589   5.843
 7250SOL    HW122649   5.108   5.581   5.781
 7250SOL    HW222650   5.271   5.586   5.790
 7251SOL     OW22651   6.994   5.615   5.353
 7251SOL    HW122652   0.003   5.699   5.392
 7251SOL    HW222653   6.942   5.567   5.424
 7252SOL     OW22654   3.360   4.156   2.345
 7252SOL    HW122655   3.339   4.103   2.263
 7252SOL    HW222656   3.370   4.252   2.322
 7253SOL     OW22657   1.637   5.889   5.378
 7253SOL    HW122658   1.576   5.888   5.457
 7253SOL    HW222659   1.679   5.979   5.369
 7254SOL     OW22660   5.099   3.691   4.018
 7254SOL    HW122661   5.024   3.640   3.976
 7254SOL    HW222662   5.186   3.664   3.977
 7255SOL     OW22663   5.237   3.280   6.297
 7255SOL    HW122664   5.239   3.378   6.277
 7255SOL    HW222665   5.313   3.257   6.358
 7256SOL     OW22666   3.445   6.825   5.638
 7256SOL    HW122667   3.435   6.919   5.603
 7256SOL    HW222668   3.367   6.770   5.609
 7257SOL     OW22669   0.790   1.771   4.664
 7257SOL    HW122670   0.698   1.768   4.627
 7257SOL    HW222671   0.825   1.865   4.659
 7258SOL     OW22672   6.277   1.975   3.135
 7258SOL    HW122673   6.304   1.961   3.230
 7258SOL    HW222674   6.358   2.002   3.082
 7259SOL     OW22675   1.129   4.455   3.035
 7259SOL    HW122676   1.130   4.356   3.048
 7259SOL    HW222677   1.176   4.499   3.111
 7260SOL     OW22678   5.537   3.208   1.294
 7260SOL    HW122679   5.438   3.204   1.311
 7260SOL    HW222680   5.586   3.200   1.381
 7261SOL     OW22681   7.006   4.191   6.516
 7261SOL    HW122682   0.060   4.194   6.572
 7261SOL    HW222683   6.930   4.154   6.569
 7262SOL     OW22684   6.539   1.463   5.783
 7262SOL    HW122685   6.443   1.441   5.764
 7262SOL    HW222686   6.586   1.481   5.697
 7263SOL     OW22687   0.391   5.250   0.210
 7263SOL    HW122688   0.422   5.176   0.151
 7263SOL    HW222689   0.302   5.284   0.177
 7264SOL     OW22690   6.062   1.707   0.766
 7264SOL    HW122691   6.105   1.620   0.744
 7264SOL    HW222692   6.031   1.752   0.682
 7265SOL     OW22693   4.323   5.427   5.714
 7265SOL    HW122694   4.281   5.429   5.624
 7265SOL    HW222695   4.327   5.333   5.747
 7266SOL     OW22696   0.342   0.624   3.995
 7266SOL    HW122697   0.338   0.589   3.901
 7266SOL    HW222698   0.253   0.664   4.019
 7267SOL     OW22699   6.252   5.553   4.283
 7267SOL    HW122700   6.204   5.628   4.329
 7267SOL    HW222701   6.210   5.466   4.309
 7268SOL     OW22702   6.137   6.329   4.250
 7268SOL    HW122703   6.054   6.384   4.260
 7268SOL    HW222704   6.125   6.242   4.297
 7269SOL     OW22705   2.506   4.858   5.230
 7269SOL    HW122706   2.515   4.877   5.328
 7269SOL    HW222707   2.597   4.844   5.191
 7270SOL     OW22708   0.823   1.717   4.368
 7270SOL    HW122709   0.902   1.656   4.371
 7270SOL    HW222710   0.752   1.683   4.429
 7271SOL     OW22711   0.637   4.289   3.894
 7271SOL    HW122712   0.650   4.359   3.824
 7271SOL    HW222713   0.602   4.332   3.977
 7272SOL     OW22714   5.776   5.491   3.134
 7272SOL    HW122715   5.841   5.548   3.185
 7272SOL    HW222716   5.820   5.405   3.110
 7273SOL     OW22717   0.125   2.670   5.652
 7273SOL    HW122718   0.119   2.614   5.569
 7273SOL    HW222719   0.033   2.689   5.687
 7274SOL     OW22720   0.714   4.319   7.028
 7274SOL    HW122721   0.675   4.264   0.072
 7274SOL    HW222722   0.778   4.264   6.974
 7275SOL     OW22723   6.417   0.220   2.888
 7275SOL    HW122724   6.346   0.152   2.905
 7275SOL    HW222725   6.475   0.189   2.812
 7276SOL     OW22726   4.651   6.946   3.927
 7276SOL    HW122727   4.626   0.014   3.923
 7276SOL    HW222728   4.572   6.893   3.957
 7277SOL     OW22729   4.333   0.516   5.706
 7277SOL    HW122730   4.412   0.460   5.681
 7277SOL    HW222731   4.324   0.519   5.805
 7278SOL     OW22732   2.989   3.587   2.790
 7278SOL    HW122733   2.962   3.502   2.834
 7278SOL    HW222734   3.078   3.576   2.747
 7279SOL     OW22735   3.647   6.114   6.353
 7279SOL    HW122736   3.707   6.118   6.273
 7279SOL    HW222737   3.665   6.029   6.403
 7280SOL     OW22738   4.291   0.984   5.731
 7280SOL    HW122739   4.232   0.918   5.776
 7280SOL    HW222740   4.285   1.072   5.779
 7281SOL     OW22741   4.122   1.259   0.017
 7281SOL    HW122742   4.102   1.302   0.104
 7281SOL    HW222743   4.166   1.325   6.985
 7282SOL     OW22744   6.302   5.445   1.818
 7282SOL    HW122745   6.316   5.408   1.910
 7282SOL    HW222746   6.372   5.410   1.756
 7283SOL     OW22747   2.300   0.811   3.750
 7283SOL    HW122748   2.334   0.719   3.771
 7283SOL    HW222749   2.342   0.877   3.813
 7284SOL     OW22750   6.954   3.866   5.443
 7284SOL    HW122751   6.911   3.785   5.402
 7284SOL    HW222752   6.955   3.856   5.542
 7285SOL     OW22753   5.219   5.778   2.203
 7285SOL    HW122754   5.299   5.822   2.162
 7285SOL    HW222755   5.146   5.773   2.135
 7286SOL     OW22756   2.346   3.086   1.135
 7286SOL    HW122757   2.383   3.179   1.139
 7286SOL    HW222758   2.387   3.037   1.058
 7287SOL     OW22759   6.550   0.778   6.403
 7287SOL    HW122760   6.491   0.848   6.442
 7287SOL    HW222761   6.518   0.687   6.430
 7288SOL     OW22762   3.976   0.304   6.703
 7288SOL    HW122763   3.949   0.283   6.609
 7288SOL    HW222764   3.999   0.401   6.710
 7289SOL     OW22765   5.249   2.154   3.055
 7289SOL    HW122766   5.333   2.209   3.060
 7289SOL    HW222767   5.229   2.116   3.145
 7290SOL     OW22768   2.378   4.732   4.703
 7290SOL    HW122769   2.289   4.751   4.745
 7290SOL    HW222770   2.445   4.712   4.774
 7291SOL     OW22771   2.815   5.916   1.644
 7291SOL    HW122772   2.796   5.943   1.738
 7291SOL    HW222773   2.729   5.892   1.598
 7292SOL     OW22774   2.722   6.811   4.005
 7292SOL    HW122775   2.783   6.825   3.927
 7292SOL    HW222776   2.694   6.715   4.007
 7293SOL     OW22777   2.055   2.110   5.177
 7293SOL    HW122778   2.106   2.025   5.170
 7293SOL    HW222779   2.018   2.119   5.269
 7294SOL     OW22780   2.940   4.917   0.473
 7294SOL    HW122781   2.965   4.832   0.519
 7294SOL    HW222782   2.925   4.898   0.375
 7295SOL     OW22783   7.025   0.983   1.072
 7295SOL    HW122784   7.017   0.887   1.102
 7295SOL    HW222785   0.027   1.039   1.148
 7296SOL     OW22786   3.099   4.899   0.823
 7296SOL    HW122787   3.133   4.993   0.820
 7296SOL    HW222788   3.084   4.872   0.918
 7297SOL     OW22789   4.752   6.700   1.354
 7297SOL    HW122790   4.709   6.758   1.285
 7297SOL    HW222791   4.753   6.747   1.442
 7298SOL     OW22792   6.265   3.799   4.236
 7298SOL    HW122793   6.187   3.814   4.175
 7298SOL    HW222794   6.236   3.740   4.312
 7299SOL     OW22795   6.136   3.533   0.232
 7299SOL    HW122796   6.051   3.513   0.184
 7299SOL    HW222797   6.148   3.468   0.307
 7300SOL     OW22798   5.257   5.319   1.000
 7300SOL    HW122799   5.306   5.385   1.057
 7300SOL    HW222800   5.313   5.296   0.920
 7301SOL     OW22801   6.626   6.835   6.200
 7301SOL    HW122802   6.627   6.755   6.139
 7301SOL    HW222803   6.709   6.889   6.186
 7302SOL     OW22804   6.209   0.813   6.966
 7302SOL    HW122805   6.120   0.841   7.003
 7302SOL    HW222806   6.209   0.714   6.952
 7303SOL     OW22807   3.053   0.451   0.022
 7303SOL    HW122808   3.068   0.360   7.010
 7303SOL    HW222809   3.022   0.440   0.116
 7304SOL     OW22810   4.498   3.926   5.979
 7304SOL    HW122811   4.417   3.911   5.923
 7304SOL    HW222812   4.579   3.897   5.929
 7305SOL     OW22813   4.653   1.481   0.274
 7305SOL    HW122814   4.637   1.557   0.210
 7305SOL    HW222815   4.643   1.394   0.225
 7306SOL     OW22816   4.693   5.159   1.700
 7306SOL    HW122817   4.747   5.236   1.664
 7306SOL    HW222818   4.596   5.177   1.687
 7307SOL     OW22819   3.782   6.776   1.896
 7307SOL    HW122820   3.752   6.728   1.978
 7307SOL    HW222821   3.866   6.734   1.861
 7308SOL     OW22822   6.574   2.935   4.725
 7308SOL    HW122823   6.547   3.018   4.773
 7308SOL    HW222824   6.494   2.892   4.685
 7309SOL     OW22825   5.092   6.614   0.743
 7309SOL    HW122826   5.130   6.531   0.704
 7309SOL    HW222827   5.125   6.625   0.837
 7310SOL     OW22828   2.912   5.218   1.397
 7310SOL    HW122829   3.000   5.262   1.379
 7310SOL    HW222830   2.873   5.254   1.482
 7311SOL     OW22831   2.716   2.097   1.839
 7311SOL    HW122832   2.807   2.102   1.882
 7311SOL    HW222833   2.674   2.187   1.839
 7312SOL     OW22834   6.850   1.844   5.852
 7312SOL    HW122835   6.840   1.914   5.782
 7312SOL    HW222836   6.764   1.794   5.863
 7313SOL     OW22837   3.798   2.378   6.472
 7313SOL    HW122838   3.734   2.303   6.490
 7313SOL    HW222839   3.785   2.450   6.540
 7314SOL     OW22840   0.217   3.574   4.925
 7314SOL    HW122841   0.143   3.547   4.986
 7314SOL    HW222842   0.303   3.534   4.957
 7315SOL     OW22843   6.954   0.118   3.884
 7315SOL    HW122844   0.003   0.182   3.880
 7315SOL    HW222845   6.884   0.148   3.819
 7316SOL     OW22846   3.896   3.497   5.692
 7316SOL    HW122847   3.828   3.558   5.652
 7316SOL    HW222848   3.850   3.421   5.739
 7317SOL     OW22849   3.197   1.087   3.074
 7317SOL    HW122850   3.210   1.016   3.005
 7317SOL    HW222851   3.099   1.097   3.093
 7318SOL     OW22852   1.425   2.391   1.394
 7318SOL    HW122853   1.502   2.379   1.456
 7318SOL    HW222854   1.340   2.392   1.446
 7319SOL     OW22855   6.248   4.478   6.747
 7319SOL    HW122856   6.224   4.564   6.791
 7319SOL    HW222857   6.243   4.488   6.647
 7320SOL     OW22858   0.383   3.320   2.154
 7320SOL    HW122859   0.398   3.415   2.180
 7320SOL    HW222860   0.406   3.261   2.232
 7321SOL     OW22861   2.198   1.529   4.450
 7321SOL    HW122862   2.239   1.583   4.376
 7321SOL    HW222863   2.141   1.588   4.507
 7322SOL     OW22864   0.862   4.001   3.084
 7322SOL    HW122865   0.822   3.914   3.056
 7322SOL    HW222866   0.869   4.004   3.184
 7323SOL     OW22867   1.906   2.560   3.585
 7323SOL    HW122868   1.919   2.462   3.598
 7323SOL    HW222869   1.928   2.608   3.669
 7324SOL     OW22870   6.383   1.145   3.469
 7324SOL    HW122871   6.285   1.128   3.472
 7324SOL    HW222872   6.399   1.241   3.447
 7325SOL     OW22873   3.334   6.778   6.518
 7325SOL    HW122874   3.284   6.752   6.436
 7325SOL    HW222875   3.373   6.697   6.561
 7326SOL     OW22876   2.574   0.174   5.641
 7326SOL    HW122877   2.589   0.094   5.584
 7326SOL    HW222878   2.568   0.147   5.737
 7327SOL     OW22879   1.805   2.636   6.449
 7327SOL    HW122880   1.737   2.637   6.376
 7327SOL    HW222881   1.805   2.724   6.496
 7328SOL     OW22882   2.603   6.753   6.846
 7328SOL    HW122883   2.642   6.731   6.757
 7328SOL    HW222884   2.548   6.676   6.879
 7329SOL     OW22885   3.990   3.510   1.145
 7329SOL    HW122886   4.034   3.441   1.203
 7329SOL    HW222887   3.920   3.465   1.088
 7330SOL     OW22888   3.311   1.348   6.728
 7330SOL    HW122889   3.403   1.344   6.691
 7330SOL    HW222890   3.314   1.379   6.823
 7331SOL     OW22891   5.049   0.623   2.334
 7331SOL    HW122892   4.973   0.642   2.396
 7331SOL    HW222893   5.120   0.693   2.347
 7332SOL     OW22894   3.141   5.579   0.394
 7332SOL    HW122895   3.077   5.521   0.444
 7332SOL    HW222896   3.216   5.523   0.358
 7333SOL     OW22897   1.027   4.924   3.015
 7333SOL    HW122898   0.973   4.842   3.035
 7333SOL    HW222899   1.101   4.932   3.082
 7334SOL     OW22900   3.963   6.098   5.174
 7334SOL    HW122901   3.877   6.103   5.122
 7334SOL    HW222902   3.944   6.057   5.264
 7335SOL     OW22903   1.692   1.632   2.713
 7335SOL    HW122904   1.781   1.658   2.676
 7335SOL    HW222905   1.700   1.613   2.811
 7336SOL     OW22906   2.103   5.903   4.346
 7336SOL    HW122907   2.119   5.809   4.377
 7336SOL    HW222908   2.191   5.949   4.331
 7337SOL     OW22909   0.115   3.356   2.165
 7337SOL    HW122910   0.212   3.340   2.179
 7337SOL    HW222911   0.085   3.433   2.222
 7338SOL     OW22912   6.717   2.173   1.148
 7338SOL    HW122913   6.808   2.172   1.107
 7338SOL    HW222914   6.724   2.202   1.244
 7339SOL     OW22915   6.670   5.491   4.610
 7339SOL    HW122916   6.672   5.435   4.527
 7339SOL    HW222917   6.664   5.431   4.690
 7340SOL     OW22918   2.075   6.813   6.987
 7340SOL    HW122919   1.979   6.786   6.979
 7340SOL    HW222920   2.080   6.906   7.023
 7341SOL     OW22921   6.126   2.276   6.503
 7341SOL    HW122922   6.094   2.319   6.587
 7341SOL    HW222923   6.225   2.288   6.494
 7342SOL     OW22924   0.033   6.666   2.496
 7342SOL    HW122925   6.971   6.635   2.525
 7342SOL    HW222926   0.097   6.589   2.500
 7343SOL     OW22927   5.618   3.574   0.662
 7343SOL    HW122928   5.712   3.544   0.681
 7343SOL    HW222929   5.565   3.570   0.747
 7344SOL     OW22930   1.476   5.848   6.492
 7344SOL    HW122931   1.527   5.918   6.443
 7344SOL    HW222932   1.465   5.768   6.434
 7345SOL     OW22933   3.781   4.476   5.736
 7345SOL    HW122934   3.776   4.515   5.644
 7345SOL    HW222935   3.715   4.522   5.796
 7346SOL     OW22936   4.656   5.086   3.015
 7346SOL    HW122937   4.706   5.102   3.101
 7346SOL    HW222938   4.572   5.035   3.035
 7347SOL     OW22939   5.875   2.297   6.388
 7347SOL    HW122940   5.971   2.297   6.414
 7347SOL    HW222941   5.840   2.390   6.390
 7348SOL     OW22942   1.227   4.441   2.131
 7348SOL    HW122943   1.279   4.526   2.134
 7348SOL    HW222944   1.160   4.446   2.057
 7349SOL     OW22945   3.583   1.463   1.384
 7349SOL    HW122946   3.589   1.548   1.437
 7349SOL    HW222947   3.494   1.420   1.401
 7350SOL     OW22948   3.033   0.690   5.495
 7350SOL    HW122949   2.937   0.712   5.511
 7350SOL    HW222950   3.047   0.672   5.398
 7351SOL     OW22951   3.947   5.110   4.143
 7351SOL    HW122952   4.001   5.190   4.168
 7351SOL    HW222953   3.890   5.082   4.220
 7352SOL     OW22954   6.945   2.846   3.160
 7352SOL    HW122955   7.024   2.784   3.152
 7352SOL    HW222956   6.874   2.818   3.096
 7353SOL     OW22957   6.377   0.281   6.858
 7353SOL    HW122958   6.447   0.353   6.863
 7353SOL    HW222959   6.370   0.235   6.946
 7354SOL     OW22960   1.174   1.196   2.529
 7354SOL    HW122961   1.237   1.145   2.470
 7354SOL    HW222962   1.142   1.277   2.482
 7355SOL     OW22963   0.716   2.149   6.459
 7355SOL    HW122964   0.766   2.202   6.528
 7355SOL    HW222965   0.657   2.083   6.504
 7356SOL     OW22966   4.387   3.697   6.117
 7356SOL    HW122967   4.417   3.601   6.111
 7356SOL    HW222968   4.463   3.756   6.090
 7357SOL     OW22969   5.308   6.072   2.391
 7357SOL    HW122970   5.227   6.023   2.361
 7357SOL    HW222971   5.387   6.010   2.390
 7358SOL     OW22972   5.578   1.719   3.230
 7358SOL    HW122973   5.571   1.634   3.178
 7358SOL    HW222974   5.541   1.794   3.176
 7359SOL     OW22975   4.565   0.094   6.584
 7359SOL    HW122976   4.532   0.113   6.676
 7359SOL    HW222977   4.549   7.027   6.561
 7360SOL     OW22978   2.883   3.140   5.229
 7360SOL    HW122979   2.908   3.073   5.299
 7360SOL    HW222980   2.928   3.116   5.142
 7361SOL     OW22981   5.137   0.439   2.548
 7361SOL    HW122982   5.096   0.487   2.470
 7361SOL    HW222983   5.069   0.427   2.619
 7362SOL     OW22984   3.581   5.451   6.873
 7362SOL    HW122985   3.661   5.480   6.925
 7362SOL    HW222986   3.527   5.386   6.927
 7363SOL     OW22987   3.771   0.341   1.495
 7363SOL    HW122988   3.751   0.244   1.510
 7363SOL    HW222989   3.788   0.358   1.398
 7364SOL     OW22990   5.503   0.096   1.639
 7364SOL    HW122991   5.554   0.164   1.693
 7364SOL    HW222992   5.434   0.142   1.584
 7365SOL     OW22993   5.728   5.072   2.180
 7365SOL    HW122994   5.687   5.078   2.270
 7365SOL    HW222995   5.771   5.160   2.157
 7366SOL     OW22996   2.061   1.382   4.117
 7366SOL    HW122997   2.042   1.288   4.088
 7366SOL    HW222998   2.065   1.386   4.217
 7367SOL     OW22999   4.418   0.754   6.241
 7367SOL    HW123000   4.355   0.821   6.200
 7367SOL    HW223001   4.510   0.770   6.206
 7368SOL     OW23002   4.162   3.614   3.011
 7368SOL    HW123003   4.106   3.666   3.076
 7368SOL    HW223004   4.259   3.627   3.033
 7369SOL     OW23005   5.793   2.259   1.160
 7369SOL    HW123006   5.819   2.332   1.096
 7369SOL    HW223007   5.857   2.183   1.151
 7370SOL     OW23008   2.147   2.131   4.464
 7370SOL    HW123009   2.065   2.085   4.429
 7370SOL    HW223010   2.168   2.209   4.405
 7371SOL     OW23011   3.997   0.479   3.606
 7371SOL    HW123012   3.972   0.570   3.640
 7371SOL    HW223013   4.006   0.482   3.506
 7372SOL     OW23014   4.905   0.171   4.672
 7372SOL    HW123015   4.829   0.116   4.636
 7372SOL    HW223016   4.908   0.258   4.623
 7373SOL     OW23017   5.470   3.032   4.591
 7373SOL    HW123018   5.436   3.041   4.685
 7373SOL    HW223019   5.460   2.937   4.561
 7374SOL     OW23020   0.399   1.970   5.772
 7374SOL    HW123021   0.438   1.959   5.863
 7374SOL    HW223022   0.380   2.067   5.754
 7375SOL     OW23023   2.091   3.209   2.262
 7375SOL    HW123024   2.133   3.130   2.217
 7375SOL    HW223025   2.130   3.219   2.354
 7376SOL     OW23026   0.459   4.047   0.415
 7376SOL    HW123027   0.485   4.143   0.420
 7376SOL    HW223028   0.379   4.037   0.355
 7377SOL     OW23029   3.199   5.821   0.175
 7377SOL    HW123030   3.179   5.724   0.181
 7377SOL    HW223031   3.285   5.841   0.221
 7378SOL     OW23032   1.249   5.959   4.180
 7378SOL    HW123033   1.270   6.054   4.160
 7378SOL    HW223034   1.183   5.955   4.255
 7379SOL     OW23035   4.253   0.816   0.561
 7379SOL    HW123036   4.258   0.764   0.476
 7379SOL    HW223037   4.306   0.769   0.632
 7380SOL     OW23038   5.393   3.399   2.831
 7380SOL    HW123039   5.366   3.493   2.851
 7380SOL    HW223040   5.356   3.372   2.742
 7381SOL     OW23041   3.624   0.778   0.631
 7381SOL    HW123042   3.690   0.852   0.641
 7381SOL    HW223043   3.599   0.744   0.722
 7382SOL     OW23044   6.805   1.092   6.343
 7382SOL    HW123045   6.782   1.031   6.419
 7382SOL    HW223046   6.744   1.074   6.266
 7383SOL     OW23047   2.488   6.511   0.914
 7383SOL    HW123048   2.553   6.470   0.978
 7383SOL    HW223049   2.522   6.601   0.885
 7384SOL     OW23050   0.420   6.945   0.970
 7384SOL    HW123051   0.341   6.970   1.026
 7384SOL    HW223052   0.389   6.890   0.892
 7385SOL     OW23053   5.335   4.838   2.728
 7385SOL    HW123054   5.411   4.899   2.750
 7385SOL    HW223055   5.343   4.755   2.783
 7386SOL     OW23056   6.214   3.789   0.355
 7386SOL    HW123057   6.167   3.714   0.309
 7386SOL    HW223058   6.293   3.752   0.406
 7387SOL     OW23059   6.477   5.662   5.598
 7387SOL    HW123060   6.501   5.690   5.691
 7387SOL    HW223061   6.431   5.573   5.602
 7388SOL     OW23062   1.980   5.751   2.686
 7388SOL    HW123063   2.051   5.683   2.705
 7388SOL    HW223064   2.007   5.806   2.608
 7389SOL     OW23065   5.883   3.434   0.612
 7389SOL    HW123066   5.827   3.391   0.542
 7389SOL    HW223067   5.980   3.421   0.590
 7390SOL     OW23068   2.321   1.663   2.650
 7390SOL    HW123069   2.376   1.726   2.595
 7390SOL    HW223070   2.273   1.599   2.591
 7391SOL     OW23071   3.769   3.193   3.026
 7391SOL    HW123072   3.734   3.108   3.065
 7391SOL    HW223073   3.869   3.190   3.023
 7392SOL     OW23074   3.033   6.047   6.529
 7392SOL    HW123075   3.119   6.095   6.546
 7392SOL    HW223076   2.981   6.042   6.615
 7393SOL     OW23077   5.256   5.707   4.487
 7393SOL    HW123078   5.159   5.730   4.480
 7393SOL    HW223079   5.303   5.734   4.403
 7394SOL     OW23080   2.022   1.808   6.164
 7394SOL    HW123081   2.100   1.766   6.211
 7394SOL    HW223082   2.054   1.879   6.102
 7395SOL     OW23083   3.012   5.509   0.777
 7395SOL    HW123084   2.937   5.564   0.814
 7395SOL    HW223085   3.093   5.520   0.834
 7396SOL     OW23086   2.535   5.175   2.211
 7396SOL    HW123087   2.473   5.119   2.266
 7396SOL    HW223088   2.554   5.128   2.125
 7397SOL     OW23089   5.701   3.984   3.868
 7397SOL    HW123090   5.666   4.007   3.777
 7397SOL    HW223091   5.661   4.045   3.936
 7398SOL     OW23092   2.294   4.194   2.614
 7398SOL    HW123093   2.258   4.147   2.694
 7398SOL    HW223094   2.382   4.154   2.588
 7399SOL     OW23095   5.013   2.187   4.648
 7399SOL    HW123096   4.983   2.250   4.577
 7399SOL    HW223097   4.934   2.151   4.698
 7400SOL     OW23098   5.488   2.847   5.685
 7400SOL    HW123099   5.554   2.914   5.650
 7400SOL    HW223100   5.415   2.895   5.734
 7401SOL     OW23101   1.127   2.910   3.929
 7401SOL    HW123102   1.183   2.984   3.892
 7401SOL    HW223103   1.182   2.855   3.992
 7402SOL     OW23104   3.320   6.296   5.390
 7402SOL    HW123105   3.246   6.249   5.341
 7402SOL    HW223106   3.390   6.230   5.416
 7403SOL     OW23107   1.461   3.366   4.840
 7403SOL    HW123108   1.380   3.380   4.897
 7403SOL    HW223109   1.483   3.452   4.793
 7404SOL     OW23110   3.108   4.019   0.510
 7404SOL    HW123111   3.020   4.066   0.509
 7404SOL    HW223112   3.093   3.921   0.503
 7405SOL     OW23113   3.352   6.466   4.721
 7405SOL    HW123114   3.338   6.563   4.702
 7405SOL    HW223115   3.405   6.456   4.806
 7406SOL     OW23116   1.077   1.147   4.578
 7406SOL    HW123117   1.161   1.169   4.528
 7406SOL    HW223118   1.083   1.053   4.613
 7407SOL     OW23119   0.929   5.641   5.485
 7407SOL    HW123120   0.860   5.619   5.553
 7407SOL    HW223121   0.905   5.598   5.398
 7408SOL     OW23122   3.605   4.327   5.411
 7408SOL    HW123123   3.697   4.360   5.387
 7408SOL    HW223124   3.544   4.406   5.421
 7409SOL     OW23125   6.454   3.899   0.621
 7409SOL    HW123126   6.528   3.891   0.689
 7409SOL    HW223127   6.433   3.808   0.585
 7410SOL     OW23128   0.035   0.245   1.091
 7410SOL    HW123129   0.112   0.307   1.073
 7410SOL    HW223130   6.985   0.298   1.120
 7411SOL     OW23131   1.447   2.260   4.849
 7411SOL    HW123132   1.388   2.274   4.769
 7411SOL    HW223133   1.510   2.185   4.831
 7412SOL     OW23134   4.461   6.584   6.794
 7412SOL    HW123135   4.395   6.594   6.719
 7412SOL    HW223136   4.509   6.497   6.785
 7413SOL     OW23137   4.047   6.705   3.015
 7413SOL    HW123138   4.096   6.782   3.056
 7413SOL    HW223139   3.992   6.660   3.085
 7414SOL     OW23140   2.606   1.921   4.199
 7414SOL    HW123141   2.601   1.888   4.105
 7414SOL    HW223142   2.588   1.845   4.262
 7415SOL     OW23143   3.759   6.605   6.586
 7415SOL    HW123144   3.671   6.609   6.633
 7415SOL    HW223145   3.752   6.541   6.509
 7416SOL     OW23146   1.166   1.510   2.085
 7416SOL    HW123147   1.150   1.608   2.097
 7416SOL    HW223148   1.079   1.461   2.086
 7417SOL     OW23149   0.659   1.644   3.572
 7417SOL    HW123150   0.720   1.659   3.650
 7417SOL    HW223151   0.578   1.594   3.603
 7418SOL     OW23152   2.020   4.051   5.947
 7418SOL    HW123153   1.949   4.000   5.899
 7418SOL    HW223154   1.993   4.147   5.956
 7419SOL     OW23155   6.803   3.840   4.210
 7419SOL    HW123156   6.897   3.812   4.225
 7419SOL    HW223157   6.775   3.814   4.117
 7420SOL     OW23158   6.506   0.030   1.039
 7420SOL    HW123159   6.425   0.010   0.984
 7420SOL    HW223160   6.537   0.123   1.020
 7421SOL     OW23161   4.883   3.887   1.908
 7421SOL    HW123162   4.807   3.864   1.847
 7421SOL    HW223163   4.969   3.877   1.859
 7422SOL     OW23164   5.419   2.388   2.804
 7422SOL    HW123165   5.320   2.378   2.794
 7422SOL    HW223166   5.440   2.479   2.841
 7423SOL     OW23167   5.635   1.932   6.090
 7423SOL    HW123168   5.627   1.845   6.041
 7423SOL    HW223169   5.595   1.923   6.181
 7424SOL     OW23170   1.024   1.700   3.772
 7424SOL    HW123171   0.981   1.615   3.741
 7424SOL    HW223172   0.954   1.770   3.788
 7425SOL     OW23173   5.755   0.443   0.126
 7425SOL    HW123174   5.766   0.528   0.074
 7425SOL    HW223175   5.761   0.464   0.224
 7426SOL     OW23176   3.734   3.095   6.017
 7426SOL    HW123177   3.798   3.025   5.984
 7426SOL    HW223178   3.654   3.050   6.056
 7427SOL     OW23179   3.363   1.207   3.871
 7427SOL    HW123180   3.277   1.234   3.828
 7427SOL    HW223181   3.439   1.229   3.811
 7428SOL     OW23182   4.574   5.833   5.635
 7428SOL    HW123183   4.504   5.892   5.675
 7428SOL    HW223184   4.531   5.748   5.603
 7429SOL     OW23185   1.489   6.788   2.472
 7429SOL    HW123186   1.517   6.866   2.527
 7429SOL    HW223187   1.389   6.786   2.464
 7430SOL     OW23188   6.861   5.401   2.401
 7430SOL    HW123189   6.888   5.390   2.497
 7430SOL    HW223190   6.788   5.470   2.395
 7431SOL     OW23191   1.750   1.510   3.818
 7431SOL    HW123192   1.673   1.544   3.763
 7431SOL    HW223193   1.768   1.575   3.893
 7432SOL     OW23194   2.094   0.164   3.360
 7432SOL    HW123195   2.158   0.123   3.424
 7432SOL    HW223196   2.004   0.122   3.371
 7433SOL     OW23197   2.890   6.795   6.914
 7433SOL    HW123198   2.878   6.699   6.889
 7433SOL    HW223199   2.815   6.824   6.973
 7434SOL     OW23200   3.894   6.336   5.448
 7434SOL    HW123201   3.962   6.409   5.452
 7434SOL    HW223202   3.804   6.374   5.427
 7435SOL     OW23203   4.775   5.131   3.265
 7435SOL    HW123204   4.715   5.124   3.346
 7435SOL    HW223205   4.868   5.153   3.294
 7436SOL     OW23206   5.111   3.035   6.180
 7436SOL    HW123207   5.169   2.975   6.125
 7436SOL    HW223208   5.168   3.097   6.234
 7437SOL     OW23209   3.943   6.480   0.955
 7437SOL    HW123210   3.940   6.381   0.967
 7437SOL    HW223211   3.852   6.515   0.935
 7438SOL     OW23212   2.238   0.419   0.260
 7438SOL    HW123213   2.212   0.515   0.251
 7438SOL    HW223214   2.297   0.392   0.184
 7439SOL     OW23215   1.280   4.496   6.018
 7439SOL    HW123216   1.250   4.471   5.926
 7439SOL    HW223217   1.233   4.439   6.085
 7440SOL     OW23218   5.631   3.542   4.588
 7440SOL    HW123219   5.592   3.454   4.613
 7440SOL    HW223220   5.557   3.605   4.562
 7441SOL     OW23221   5.848   5.793   1.625
 7441SOL    HW123222   5.867   5.886   1.656
 7441SOL    HW223223   5.909   5.770   1.550
 7442SOL     OW23224   5.076   1.248   5.553
 7442SOL    HW123225   5.033   1.337   5.539
 7442SOL    HW223226   5.071   1.195   5.469
 7443SOL     OW23227   0.053   0.409   2.001
 7443SOL    HW123228   7.027   0.461   2.067
 7443SOL    HW223229   0.031   0.438   1.908
 7444SOL     OW23230   1.331   6.243   6.846
 7444SOL    HW123231   1.311   6.203   6.757
 7444SOL    HW223232   1.376   6.331   6.834
 7445SOL     OW23233   4.293   6.323   1.249
 7445SOL    HW123234   4.205   6.370   1.243
 7445SOL    HW223235   4.306   6.266   1.168
 7446SOL     OW23236   5.451   3.928   0.221
 7446SOL    HW123237   5.475   3.929   0.318
 7446SOL    HW223238   5.464   4.020   0.183
 7447SOL     OW23239   0.902   4.828   1.183
 7447SOL    HW123240   0.935   4.764   1.252
 7447SOL    HW223241   0.950   4.915   1.192
 7448SOL     OW23242   4.616   5.087   6.696
 7448SOL    HW123243   4.636   5.181   6.722
 7448SOL    HW223244   4.536   5.085   6.636
 7449SOL     OW23245   0.657   4.397   6.755
 7449SOL    HW123246   0.736   4.355   6.712
 7449SOL    HW223247   0.665   4.391   6.855
 7450SOL     OW23248   5.497   2.096   4.825
 7450SOL    HW123249   5.440   2.061   4.898
 7450SOL    HW223250   5.441   2.117   4.745
 7451SOL     OW23251   5.303   4.968   3.521
 7451SOL    HW123252   5.349   4.928   3.600
 7451SOL    HW223253   5.283   5.064   3.539
 7452SOL     OW23254   6.193   5.532   5.202
 7452SOL    HW123255   6.186   5.626   5.236
 7452SOL    HW223256   6.254   5.480   5.262
 7453SOL     OW23257   3.777   6.373   6.424
 7453SOL    HW123258   3.772   6.373   6.324
 7453SOL    HW223259   3.761   6.281   6.459
 7454SOL     OW23260   3.900   2.292   0.780
 7454SOL    HW123261   3.985   2.344   0.779
 7454SOL    HW223262   3.902   2.224   0.854
 7455SOL     OW23263   6.912   2.902   3.586
 7455SOL    HW123264   6.885   2.904   3.490
 7455SOL    HW223265   6.831   2.895   3.644
 7456SOL     OW23266   3.076   1.917   5.657
 7456SOL    HW123267   3.101   1.940   5.564
 7456SOL    HW223268   2.980   1.942   5.673
 7457SOL     OW23269   2.554   0.149   2.943
 7457SOL    HW123270   2.633   0.182   2.891
 7457SOL    HW223271   2.471   0.196   2.913
 7458SOL     OW23272   1.476   5.350   5.540
 7458SOL    HW123273   1.475   5.330   5.442
 7458SOL    HW223274   1.406   5.296   5.585
 7459SOL     OW23275   5.753   0.525   2.659
 7459SOL    HW123276   5.765   0.501   2.755
 7459SOL    HW223277   5.782   0.448   2.602
 7460SOL     OW23278   1.537   6.655   1.126
 7460SOL    HW123279   1.554   6.572   1.072
 7460SOL    HW223280   1.618   6.675   1.181
 7461SOL     OW23281   1.500   5.299   6.472
 7461SOL    HW123282   1.422   5.266   6.526
 7461SOL    HW223283   1.578   5.239   6.488
 7462SOL     OW23284   1.369   4.939   0.572
 7462SOL    HW123285   1.346   5.031   0.603
 7462SOL    HW223286   1.335   4.872   0.639
 7463SOL     OW23287   3.540   4.850   1.175
 7463SOL    HW123288   3.587   4.832   1.261
 7463SOL    HW223289   3.537   4.766   1.120
 7464SOL     OW23290   6.498   6.014   5.647
 7464SOL    HW123291   6.593   6.033   5.625
 7464SOL    HW223292   6.480   5.916   5.641
 7465SOL     OW23293   1.526   5.103   0.211
 7465SOL    HW123294   1.463   5.139   0.142
 7465SOL    HW223295   1.584   5.177   0.245
 7466SOL     OW23296   0.493   6.560   4.848
 7466SOL    HW123297   0.402   6.588   4.818
 7466SOL    HW223298   0.562   6.596   4.785
 7467SOL     OW23299   0.281   2.741   6.181
 7467SOL    HW123300   0.275   2.837   6.209
 7467SOL    HW223301   0.309   2.736   6.085
 7468SOL     OW23302   5.740   3.670   6.008
 7468SOL    HW123303   5.838   3.653   6.022
 7468SOL    HW223304   5.702   3.600   5.947
 7469SOL     OW23305   6.362   2.139   1.385
 7469SOL    HW123306   6.356   2.169   1.480
 7469SOL    HW223307   6.277   2.161   1.337
 7470SOL     OW23308   5.907   2.945   3.953
 7470SOL    HW123309   5.975   3.018   3.962
 7470SOL    HW223310   5.953   2.856   3.955
 7471SOL     OW23311   4.634   6.355   5.764
 7471SOL    HW123312   4.648   6.322   5.671
 7471SOL    HW223313   4.685   6.297   5.828
 7472SOL     OW23314   6.002   6.138   5.459
 7472SOL    HW123315   6.085   6.145   5.514
 7472SOL    HW223316   5.988   6.043   5.432
 7473SOL     OW23317   4.311   5.845   4.029
 7473SOL    HW123318   4.266   5.880   3.947
 7473SOL    HW223319   4.409   5.862   4.023
 7474SOL     OW23320   6.084   1.907   5.535
 7474SOL    HW123321   6.037   1.950   5.458
 7474SOL    HW223322   6.145   1.974   5.578
 7475SOL     OW23323   4.695   2.763   0.502
 7475SOL    HW123324   4.708   2.716   0.415
 7475SOL    HW223325   4.618   2.827   0.494
 7476SOL     OW23326   1.465   0.794   2.594
 7476SOL    HW123327   1.547   0.849   2.602
 7476SOL    HW223328   1.482   0.717   2.533
 7477SOL     OW23329   0.675   4.373   4.631
 7477SOL    HW123330   0.687   4.274   4.641
 7477SOL    HW223331   0.578   4.392   4.614
 7478SOL     OW23332   0.636   0.862   5.282
 7478SOL    HW123333   0.650   0.783   5.342
 7478SOL    HW223334   0.563   0.842   5.217
 7479SOL     OW23335   5.920   3.197   0.238
 7479SOL    HW123336   5.830   3.153   0.232
 7479SOL    HW223337   5.961   3.176   0.327
 7480SOL     OW23338   3.521   4.881   2.530
 7480SOL    HW123339   3.438   4.923   2.492
 7480SOL    HW223340   3.543   4.923   2.618
 7481SOL     OW23341   0.396   4.072   6.256
 7481SOL    HW123342   0.402   3.986   6.307
 7481SOL    HW223343   0.474   4.079   6.194
 7482SOL     OW23344   4.064   1.825   2.765
 7482SOL    HW123345   3.984   1.766   2.775
 7482SOL    HW223346   4.103   1.814   2.673
 7483SOL     OW23347   5.092   2.446   5.724
 7483SOL    HW123348   5.019   2.507   5.694
 7483SOL    HW223349   5.135   2.404   5.644
 7484SOL     OW23350   3.217   6.999   4.205
 7484SOL    HW123351   3.165   0.042   4.253
 7484SOL    HW223352   3.272   6.948   4.271
 7485SOL     OW23353   3.142   7.000   5.195
 7485SOL    HW123354   3.110   0.056   5.152
 7485SOL    HW223355   3.146   7.013   5.294
 7486SOL     OW23356   2.710   6.562   1.473
 7486SOL    HW123357   2.778   6.549   1.545
 7486SOL    HW223358   2.624   6.594   1.512
 7487SOL     OW23359   4.292   6.670   4.427
 7487SOL    HW123360   4.284   6.638   4.333
 7487SOL    HW223361   4.202   6.701   4.459
 7488SOL     OW23362   1.271   5.401   3.767
 7488SOL    HW123363   1.177   5.423   3.792
 7488SOL    HW223364   1.270   5.340   3.688
 7489SOL     OW23365   5.816   3.121   6.456
 7489SOL    HW123366   5.795   3.103   6.552
 7489SOL    HW223367   5.782   3.212   6.432
 7490SOL     OW23368   1.302   2.178   2.208
 7490SOL    HW123369   1.379   2.144   2.154
 7490SOL    HW223370   1.322   2.269   2.243
 7491SOL     OW23371   4.130   3.046   6.758
 7491SOL    HW123372   4.171   3.100   6.831
 7491SOL    HW223373   4.030   3.056   6.760
 7492SOL     OW23374   1.670   0.376   4.320
 7492SOL    HW123375   1.622   0.397   4.405
 7492SOL    HW223376   1.735   0.302   4.335
 7493SOL     OW23377   6.818   4.072   5.003
 7493SOL    HW123378   6.795   4.157   4.954
 7493SOL    HW223379   6.887   4.092   5.072
 7494SOL     OW23380   6.191   0.705   2.449
 7494SOL    HW123381   6.168   0.761   2.369
 7494SOL    HW223382   6.286   0.675   2.442
 7495SOL     OW23383   1.462   3.484   5.500
 7495SOL    HW123384   1.478   3.549   5.574
 7495SOL    HW223385   1.545   3.429   5.485
 7496SOL     OW23386   5.906   4.486   2.255
 7496SOL    HW123387   5.836   4.422   2.222
 7496SOL    HW223388   5.928   4.466   2.350
 7497SOL     OW23389   0.120   6.476   0.318
 7497SOL    HW123390   0.181   6.400   0.292
 7497SOL    HW223391   0.075   6.454   0.405
 7498SOL     OW23392   2.824   6.677   2.935
 7498SOL    HW123393   2.852   6.770   2.956
 7498SOL    HW223394   2.770   6.677   2.851
 7499SOL     OW23395   3.811   1.870   3.818
 7499SOL    HW123396   3.850   1.853   3.728
 7499SOL    HW223397   3.871   1.929   3.871
 7500SOL     OW23398   3.816   6.854   2.987
 7500SOL    HW123399   3.895   6.793   2.994
 7500SOL    HW223400   3.751   6.832   3.060
 7501SOL     OW23401   6.183   2.145   4.986
 7501SOL    HW123402   6.187   2.058   5.035
 7501SOL    HW223403   6.219   2.133   4.893
 7502SOL     OW23404   4.356   0.775   4.575
 7502SOL    HW123405   4.403   0.760   4.489
 7502SOL    HW223406   4.339   0.872   4.588
 7503SOL     OW23407   1.890   6.324   1.685
 7503SOL    HW123408   1.846   6.390   1.624
 7503SOL    HW223409   1.850   6.234   1.670
 7504SOL     OW23410   6.132   6.591   3.940
 7504SOL    HW123411   6.090   6.667   3.890
 7504SOL    HW223412   6.183   6.627   4.018
 7505SOL     OW23413   0.883   6.464   5.354
 7505SOL    HW123414   0.807   6.490   5.413
 7505SOL    HW223415   0.941   6.544   5.336
 7506SOL     OW23416   3.119   2.128   3.167
 7506SOL    HW123417   3.206   2.146   3.121
 7506SOL    HW223418   3.131   2.049   3.228
 7507SOL     OW23419   6.376   3.990   5.119
 7507SOL    HW123420   6.317   3.924   5.166
 7507SOL    HW223421   6.320   4.054   5.067
 7508SOL     OW23422   2.437   5.723   6.966
 7508SOL    HW123423   2.340   5.715   6.943
 7508SOL    HW223424   2.447   5.735   0.035
 7509SOL     OW23425   6.071   4.434   0.893
 7509SOL    HW123426   6.155   4.388   0.861
 7509SOL    HW223427   6.061   4.420   0.991
 7510SOL     OW23428   3.795   3.380   3.787
 7510SOL    HW123429   3.788   3.396   3.885
 7510SOL    HW223430   3.731   3.439   3.738
 7511SOL     OW23431   3.971   6.369   3.695
 7511SOL    HW123432   4.053   6.407   3.651
 7511SOL    HW223433   3.900   6.356   3.626
 7512SOL     OW23434   3.596   0.470   6.502
 7512SOL    HW123435   3.572   0.528   6.581
 7512SOL    HW223436   3.667   0.405   6.529
 7513SOL     OW23437   1.075   2.052   2.494
 7513SOL    HW123438   1.031   1.985   2.555
 7513SOL    HW223439   1.081   2.015   2.402
 7514SOL     OW23440   1.162   4.134   1.990
 7514SOL    HW123441   1.116   4.219   2.018
 7514SOL    HW223442   1.252   4.129   2.034
 7515SOL     OW23443   0.027   5.025   4.552
 7515SOL    HW123444   0.116   5.000   4.515
 7515SOL    HW223445   0.040   5.079   4.635
 7516SOL     OW23446   1.613   6.438   5.063
 7516SOL    HW123447   1.637   6.341   5.064
 7516SOL    HW223448   1.617   6.473   4.970
 7517SOL     OW23449   0.479   1.365   6.701
 7517SOL    HW123450   0.463   1.361   6.602
 7517SOL    HW223451   0.421   1.298   6.747
 7518SOL     OW23452   4.527   2.540   3.338
 7518SOL    HW123453   4.549   2.444   3.324
 7518SOL    HW223454   4.571   2.596   3.268
 7519SOL     OW23455   3.855   6.159   4.544
 7519SOL    HW123456   3.817   6.072   4.574
 7519SOL    HW223457   3.857   6.223   4.620
 7520SOL     OW23458   1.614   2.450   0.788
 7520SOL    HW123459   1.630   2.372   0.849
 7520SOL    HW223460   1.583   2.417   0.699
 7521SOL     OW23461   3.775   1.591   5.303
 7521SOL    HW123462   3.747   1.676   5.350
 7521SOL    HW223463   3.717   1.516   5.334
 7522SOL     OW23464   2.198   6.980   3.498
 7522SOL    HW123465   2.106   7.008   3.525
 7522SOL    HW223466   2.192   6.897   3.442
 7523SOL     OW23467   5.497   0.987   0.123
 7523SOL    HW123468   5.500   0.890   0.099
 7523SOL    HW223469   5.418   1.005   0.181
 7524SOL     OW23470   0.274   3.188   4.492
 7524SOL    HW123471   0.293   3.095   4.458
 7524SOL    HW223472   0.217   3.182   4.574
 7525SOL     OW23473   4.734   6.034   6.628
 7525SOL    HW123474   4.820   6.026   6.578
 7525SOL    HW223475   4.661   6.059   6.564
 7526SOL     OW23476   2.406   3.392   1.637
 7526SOL    HW123477   2.369   3.403   1.729
 7526SOL    HW223478   2.389   3.475   1.584
 7527SOL     OW23479   4.263   4.900   3.833
 7527SOL    HW123480   4.177   4.872   3.791
 7527SOL    HW223481   4.337   4.895   3.765
 7528SOL     OW23482   6.303   3.198   6.881
 7528SOL    HW123483   6.240   3.156   6.947
 7528SOL    HW223484   6.313   3.295   6.901
 7529SOL     OW23485   6.018   3.096   4.332
 7529SOL    HW123486   5.971   3.143   4.406
 7529SOL    HW223487   6.043   3.004   4.360
 7530SOL     OW23488   6.928   2.021   1.995
 7530SOL    HW123489   6.838   1.981   1.977
 7530SOL    HW223490   6.932   2.112   1.955
 7531SOL     OW23491   4.242   2.015   3.669
 7531SOL    HW123492   4.273   2.090   3.610
 7531SOL    HW223493   4.143   2.003   3.657
 7532SOL     OW23494   4.647   5.572   6.522
 7532SOL    HW123495   4.611   5.592   6.431
 7532SOL    HW223496   4.608   5.636   6.588
 7533SOL     OW23497   4.724   4.370   1.237
 7533SOL    HW123498   4.690   4.280   1.210
 7533SOL    HW223499   4.695   4.390   1.331
 7534SOL     OW23500   4.185   0.313   4.636
 7534SOL    HW123501   4.102   0.293   4.584
 7534SOL    HW223502   4.201   0.412   4.638
 7535SOL     OW23503   0.716   5.738   3.702
 7535SOL    HW123504   0.707   5.805   3.628
 7535SOL    HW223505   0.750   5.652   3.665
 7536SOL     OW23506   4.911   6.095   4.907
 7536SOL    HW123507   4.854   6.141   4.840
 7536SOL    HW223508   4.857   6.028   4.958
 7537SOL     OW23509   3.000   6.445   3.544
 7537SOL    HW123510   3.061   6.524   3.552
 7537SOL    HW223511   2.934   6.447   3.618
 7538SOL     OW23512   0.673   3.911   0.768
 7538SOL    HW123513   0.575   3.921   0.750
 7538SOL    HW223514   0.723   3.912   0.681
 7539SOL     OW23515   0.515   6.701   3.737
 7539SOL    HW123516   0.456   6.673   3.813
 7539SOL    HW223517   0.500   6.641   3.659
 7540SOL     OW23518   6.502   5.436   2.790
 7540SOL    HW123519   6.424   5.450   2.850
 7540SOL    HW223520   6.508   5.510   2.723
 7541SOL     OW23521   1.647   4.474   6.956
 7541SOL    HW123522   1.633   4.375   6.947
 7541SOL    HW223523   1.558   4.520   6.961
 7542SOL     OW23524   5.946   5.888   5.348
 7542SOL    HW123525   6.040   5.864   5.325
 7542SOL    HW223526   5.885   5.812   5.324
 7543SOL     OW23527   2.356   1.094   6.870
 7543SOL    HW123528   2.362   1.169   6.803
 7543SOL    HW223529   2.442   1.088   6.920
 7544SOL     OW23530   6.708   2.834   4.258
 7544SOL    HW123531   6.720   2.736   4.275
 7544SOL    HW223532   6.764   2.886   4.322
 7545SOL     OW23533   0.940   4.872   6.686
 7545SOL    HW123534   0.929   4.904   6.780
 7545SOL    HW223535   0.862   4.816   6.660
 7546SOL     OW23536   2.942   2.933   1.507
 7546SOL    HW123537   2.997   2.907   1.427
 7546SOL    HW223538   2.959   2.867   1.581
 7547SOL     OW23539   5.042   0.420   1.780
 7547SOL    HW123540   5.080   0.342   1.730
 7547SOL    HW223541   4.943   0.423   1.766
 7548SOL     OW23542   3.936   2.125   6.359
 7548SOL    HW123543   3.907   2.218   6.381
 7548SOL    HW223544   3.880   2.060   6.411
 7549SOL     OW23545   5.120   2.203   4.030
 7549SOL    HW123546   5.082   2.204   3.937
 7549SOL    HW223547   5.195   2.269   4.035
 7550SOL     OW23548   2.519   4.647   4.418
 7550SOL    HW123549   2.461   4.613   4.493
 7550SOL    HW223550   2.609   4.672   4.454
 7551SOL     OW23551   5.813   2.351   5.964
 7551SOL    HW123552   5.833   2.418   6.034
 7551SOL    HW223553   5.725   2.373   5.920
 7552SOL     OW23554   2.777   6.091   5.118
 7552SOL    HW123555   2.802   6.180   5.080
 7552SOL    HW223556   2.838   6.021   5.080
 7553SOL     OW23557   5.888   6.409   6.121
 7553SOL    HW123558   5.955   6.377   6.188
 7553SOL    HW223559   5.883   6.345   6.045
 7554SOL     OW23560   4.900   0.916   1.232
 7554SOL    HW123561   4.955   0.997   1.210
 7554SOL    HW223562   4.960   0.837   1.240
 7555SOL     OW23563   3.820   4.992   5.402
 7555SOL    HW123564   3.736   5.004   5.348
 7555SOL    HW223565   3.804   4.923   5.473
 7556SOL     OW23566   0.321   6.624   0.948
 7556SOL    HW123567   0.275   6.697   0.898
 7556SOL    HW223568   0.277   6.536   0.926
 7557SOL     OW23569   4.773   0.260   0.214
 7557SOL    HW123570   4.826   0.228   0.294
 7557SOL    HW223571   4.703   0.324   0.244
 7558SOL     OW23572   1.604   1.709   4.208
 7558SOL    HW123573   1.552   1.758   4.138
 7558SOL    HW223574   1.619   1.768   4.287
 7559SOL     OW23575   3.235   1.449   4.721
 7559SOL    HW123576   3.329   1.482   4.730
 7559SOL    HW223577   3.189   1.456   4.809
 7560SOL     OW23578   0.704   1.073   5.466
 7560SOL    HW123579   0.705   1.002   5.396
 7560SOL    HW223580   0.701   1.163   5.422
 7561SOL     OW23581   5.704   2.090   5.163
 7561SOL    HW123582   5.697   2.015   5.097
 7561SOL    HW223583   5.776   2.153   5.135
 7562SOL     OW23584   1.377   5.047   3.974
 7562SOL    HW123585   1.346   5.008   4.061
 7562SOL    HW223586   1.322   5.012   3.899
 7563SOL     OW23587   3.308   5.250   2.345
 7563SOL    HW123588   3.232   5.294   2.391
 7563SOL    HW223589   3.298   5.150   2.351
 7564SOL     OW23590   4.205   1.979   5.063
 7564SOL    HW123591   4.223   1.987   5.161
 7564SOL    HW223592   4.130   2.040   5.038
 7565SOL     OW23593   6.092   4.107   6.211
 7565SOL    HW123594   6.114   4.050   6.290
 7565SOL    HW223595   6.176   4.127   6.160
 7566SOL     OW23596   4.470   4.570   1.159
 7566SOL    HW123597   4.566   4.558   1.136
 7566SOL    HW223598   4.449   4.518   1.242
 7567SOL     OW23599   1.706   0.687   4.631
 7567SOL    HW123600   1.806   0.694   4.635
 7567SOL    HW223601   1.667   0.730   4.713
 7568SOL     OW23602   6.038   5.229   1.875
 7568SOL    HW123603   6.000   5.294   1.942
 7568SOL    HW223604   5.977   5.151   1.866
 7569SOL     OW23605   4.496   3.756   0.257
 7569SOL    HW123606   4.416   3.769   0.315
 7569SOL    HW223607   4.475   3.788   0.164
 7570SOL     OW23608   0.237   2.575   2.630
 7570SOL    HW123609   0.246   2.672   2.611
 7570SOL    HW223610   0.140   2.549   2.627
 7571SOL     OW23611   4.451   2.048   3.357
 7571SOL    HW123612   4.480   2.046   3.261
 7571SOL    HW223613   4.357   2.014   3.364
 7572SOL     OW23614   4.281   6.607   2.596
 7572SOL    HW123615   4.209   6.618   2.528
 7572SOL    HW223616   4.252   6.646   2.683
 7573SOL     OW23617   5.119   6.605   5.416
 7573SOL    HW123618   5.214   6.613   5.388
 7573SOL    HW223619   5.109   6.525   5.476
 7574SOL     OW23620   0.438   1.688   3.931
 7574SOL    HW123621   0.370   1.639   3.986
 7574SOL    HW223622   0.485   1.624   3.870
 7575SOL     OW23623   6.927   6.877   1.902
 7575SOL    HW123624   6.918   6.920   1.992
 7575SOL    HW223625   7.004   6.919   1.853
 7576SOL     OW23626   5.695   3.108   0.691
 7576SOL    HW123627   5.790   3.138   0.705
 7576SOL    HW223628   5.694   3.013   0.660
 7577SOL     OW23629   1.529   6.824   0.885
 7577SOL    HW123630   1.539   6.775   0.972
 7577SOL    HW223631   1.549   6.921   0.900
 7578SOL     OW23632   6.931   5.857   3.173
 7578SOL    HW123633   6.951   5.908   3.089
 7578SOL    HW223634   7.016   5.825   3.214
 7579SOL     OW23635   0.231   1.296   0.287
 7579SOL    HW123636   0.183   1.235   0.349
 7579SOL    HW223637   0.318   1.323   0.326
 7580SOL     OW23638   2.195   4.628   3.450
 7580SOL    HW123639   2.265   4.557   3.451
 7580SOL    HW223640   2.210   4.691   3.526
 7581SOL     OW23641   6.952   0.954   2.623
 7581SOL    HW123642   6.968   1.052   2.632
 7581SOL    HW223643   6.900   0.921   2.702
 7582SOL     OW23644   3.115   1.431   5.419
 7582SOL    HW123645   3.119   1.489   5.500
 7582SOL    HW223646   3.037   1.459   5.362
 7583SOL     OW23647   4.897   3.263   2.465
 7583SOL    HW123648   4.899   3.224   2.557
 7583SOL    HW223649   4.948   3.204   2.403
 7584SOL     OW23650   0.080   1.157   3.491
 7584SOL    HW123651   0.061   1.174   3.588
 7584SOL    HW223652   7.023   1.148   3.441
 7585SOL     OW23653   1.171   0.999   0.118
 7585SOL    HW123654   1.235   0.929   0.085
 7585SOL    HW223655   1.125   0.965   0.200
 7586SOL     OW23656   1.034   1.384   2.789
 7586SOL    HW123657   0.982   1.358   2.708
 7586SOL    HW223658   1.069   1.302   2.833
 7587SOL     OW23659   3.419   0.488   1.070
 7587SOL    HW123660   3.484   0.426   1.114
 7587SOL    HW223661   3.349   0.435   1.022
 7588SOL     OW23662   1.688   2.478   4.374
 7588SOL    HW123663   1.696   2.577   4.360
 7588SOL    HW223664   1.776   2.442   4.407
 7589SOL     OW23665   0.414   0.941   2.980
 7589SOL    HW123666   0.492   1.004   2.974
 7589SOL    HW223667   0.408   0.903   3.072
 7590SOL     OW23668   7.000   1.293   6.868
 7590SOL    HW123669   0.027   1.365   6.827
 7590SOL    HW223670   6.915   1.333   6.903
 7591SOL     OW23671   4.126   3.174   5.242
 7591SOL    HW123672   4.120   3.223   5.329
 7591SOL    HW223673   4.166   3.234   5.173
 7592SOL     OW23674   0.107   6.279   5.206
 7592SOL    HW123675   0.051   6.297   5.125
 7592SOL    HW223676   0.058   6.309   5.288
 7593SOL     OW23677   1.115   1.176   6.052
 7593SOL    HW123678   1.115   1.254   6.115
 7593SOL    HW223679   1.178   1.194   5.976
 7594SOL     OW23680   0.230   4.816   6.900
 7594SOL    HW123681   0.294   4.742   6.878
 7594SOL    HW223682   0.147   4.778   6.940
 7595SOL     OW23683   0.442   3.075   6.234
 7595SOL    HW123684   0.356   3.124   6.245
 7595SOL    HW223685   0.502   3.095   6.311
 7596SOL     OW23686   3.080   1.012   5.389
 7596SOL    HW123687   3.136   0.944   5.342
 7596SOL    HW223688   2.985   1.005   5.357
 7597SOL     OW23689   2.025   4.653   2.236
 7597SOL    HW123690   2.037   4.710   2.155
 7597SOL    HW223691   2.103   4.591   2.245
 7598SOL     OW23692   6.614   1.374   3.057
 7598SOL    HW123693   6.569   1.440   3.117
 7598SOL    HW223694   6.712   1.372   3.076
 7599SOL     OW23695   3.560   3.553   0.771
 7599SOL    HW123696   3.570   3.566   0.870
 7599SOL    HW223697   3.589   3.461   0.746
 7600SOL     OW23698   1.663   6.759   4.721
 7600SOL    HW123699   1.733   6.767   4.793
 7600SOL    HW223700   1.626   6.849   4.700
 7601SOL     OW23701   3.278   6.219   2.464
 7601SOL    HW123702   3.307   6.225   2.369
 7601SOL    HW223703   3.319   6.294   2.516
 7602SOL     OW23704   6.972   1.380   0.410
 7602SOL    HW123705   0.013   1.452   0.416
 7602SOL    HW223706   7.017   1.291   0.397
 7603SOL     OW23707   3.545   0.292   5.575
 7603SOL    HW123708   3.621   0.351   5.602
 7603SOL    HW223709   3.499   0.332   5.496
 7604SOL     OW23710   0.713   2.334   4.893
 7604SOL    HW123711   0.775   2.395   4.942
 7604SOL    HW223712   0.626   2.381   4.877
 7605SOL     OW23713   2.077   6.800   0.334
 7605SOL    HW123714   2.004   6.816   0.401
 7605SOL    HW223715   2.132   6.883   0.324
 7606SOL     OW23716   6.770   1.697   3.211
 7606SOL    HW123717   6.751   1.767   3.279
 7606SOL    HW223718   6.764   1.737   3.120
 7607SOL     OW23719   2.627   6.002   5.952
 7607SOL    HW123720   2.698   5.953   5.901
 7607SOL    HW223721   2.663   6.090   5.983
 7608SOL     OW23722   5.834   2.753   6.104
 7608SOL    HW123723   5.811   2.773   6.009
 7608SOL    HW223724   5.840   2.839   6.155
 7609SOL     OW23725   0.622   1.718   4.968
 7609SOL    HW123726   0.598   1.672   4.882
 7609SOL    HW223727   0.674   1.656   5.026
 7610SOL     OW23728   4.020   5.124   5.178
 7610SOL    HW123729   3.940   5.123   5.118
 7610SOL    HW223730   4.062   5.034   5.180
 7611SOL     OW23731   4.922   3.440   0.649
 7611SOL    HW123732   4.880   3.524   0.614
 7611SOL    HW223733   5.016   3.459   0.676
 7612SOL     OW23734   3.231   1.605   3.295
 7612SOL    HW123735   3.244   1.686   3.238
 7612SOL    HW223736   3.315   1.584   3.345
 7613SOL     OW23737   0.565   1.182   2.081
 7613SOL    HW123738   0.586   1.205   1.986
 7613SOL    HW223739   0.613   1.245   2.142
 7614SOL     OW23740   4.552   3.907   0.621
 7614SOL    HW123741   4.551   3.811   0.594
 7614SOL    HW223742   4.481   3.924   0.689
 7615SOL     OW23743   5.798   3.722   5.030
 7615SOL    HW123744   5.730   3.740   5.102
 7615SOL    HW223745   5.751   3.695   4.946
 7616SOL     OW23746   6.580   0.208   3.183
 7616SOL    HW123747   6.657   0.232   3.241
 7616SOL    HW223748   6.594   0.245   3.091
 7617SOL     OW23749   5.206   5.060   3.833
 7617SOL    HW123750   5.191   4.985   3.897
 7617SOL    HW223751   5.254   5.134   3.878
 7618SOL     OW23752   2.278   2.292   0.168
 7618SOL    HW123753   2.308   2.385   0.193
 7618SOL    HW223754   2.242   2.247   0.250
 7619SOL     OW23755   0.947   1.994   4.383
 7619SOL    HW123756   0.944   2.056   4.305
 7619SOL    HW223757   0.929   1.900   4.352
 7620SOL     OW23758   4.094   4.207   1.488
 7620SOL    HW123759   4.041   4.267   1.428
 7620SOL    HW223760   4.067   4.112   1.472
 7621SOL     OW23761   6.325   4.221   0.347
 7621SOL    HW123762   6.424   4.218   0.359
 7621SOL    HW223763   6.298   4.312   0.315
 7622SOL     OW23764   3.098   3.704   1.452
 7622SOL    HW123765   3.089   3.604   1.451
 7622SOL    HW223766   3.050   3.741   1.531
 7623SOL     OW23767   4.561   4.677   0.592
 7623SOL    HW123768   4.657   4.695   0.612
 7623SOL    HW223769   4.547   4.679   0.493
 7624SOL     OW23770   0.557   3.017   2.270
 7624SOL    HW123771   0.502   3.073   2.332
 7624SOL    HW223772   0.626   3.074   2.226
 7625SOL     OW23773   5.488   0.724   1.071
 7625SOL    HW123774   5.406   0.717   1.013
 7625SOL    HW223775   5.567   0.744   1.014
 7626SOL     OW23776   4.569   1.309   5.226
 7626SOL    HW123777   4.560   1.408   5.229
 7626SOL    HW223778   4.659   1.283   5.260
 7627SOL     OW23779   3.914   2.729   0.034
 7627SOL    HW123780   3.968   2.646   0.046
 7627SOL    HW223781   3.827   2.719   0.081
 7628SOL     OW23782   3.458   2.493   0.338
 7628SOL    HW123783   3.411   2.524   0.255
 7628SOL    HW223784   3.393   2.489   0.414
 7629SOL     OW23785   6.213   3.174   3.803
 7629SOL    HW123786   6.147   3.249   3.790
 7629SOL    HW223787   6.222   3.122   3.718
 7630SOL     OW23788   1.326   6.690   5.294
 7630SOL    HW123789   1.376   6.625   5.350
 7630SOL    HW223790   1.389   6.737   5.232
 7631SOL     OW23791   1.384   0.320   5.769
 7631SOL    HW123792   1.456   0.360   5.827
 7631SOL    HW223793   1.326   0.261   5.825
 7632SOL     OW23794   5.175   5.899   0.534
 7632SOL    HW123795   5.214   5.807   0.544
 7632SOL    HW223796   5.080   5.892   0.506
 7633SOL     OW23797   6.403   1.277   1.330
 7633SOL    HW123798   6.458   1.339   1.273
 7633SOL    HW223799   6.362   1.329   1.405
 7634SOL     OW23800   6.862   2.121   0.320
 7634SOL    HW123801   6.763   2.134   0.317
 7634SOL    HW223802   6.907   2.210   0.319
 7635SOL     OW23803   2.415   3.900   5.527
 7635SOL    HW123804   2.325   3.913   5.567
 7635SOL    HW223805   2.475   3.853   5.592
 7636SOL     OW23806   0.288   4.072   4.223
 7636SOL    HW123807   0.233   4.152   4.245
 7636SOL    HW223808   0.345   4.092   4.143
 7637SOL     OW23809   0.533   6.501   4.422
 7637SOL    HW123810   0.436   6.506   4.399
 7637SOL    HW223811   0.549   6.542   4.511
 7638SOL     OW23812   0.476   6.324   1.650
 7638SOL    HW123813   0.439   6.250   1.594
 7638SOL    HW223814   0.575   6.313   1.657
 7639SOL     OW23815   1.768   0.683   6.972
 7639SOL    HW123816   1.816   0.666   0.029
 7639SOL    HW223817   1.832   0.680   6.896
 7640SOL     OW23818   2.975   0.684   0.458
 7640SOL    HW123819   3.032   0.763   0.440
 7640SOL    HW223820   3.010   0.605   0.407
 7641SOL     OW23821   0.349   4.344   3.597
 7641SOL    HW123822   0.353   4.254   3.641
 7641SOL    HW223823   0.342   4.333   3.498
 7642SOL     OW23824   5.829   1.022   3.060
 7642SOL    HW123825   5.784   0.989   3.143
 7642SOL    HW223826   5.905   1.082   3.085
 7643SOL     OW23827   5.404   3.857   3.001
 7643SOL    HW123828   5.427   3.878   3.096
 7643SOL    HW223829   5.483   3.817   2.956
 7644SOL     OW23830   5.453   3.548   0.879
 7644SOL    HW123831   5.487   3.462   0.918
 7644SOL    HW223832   5.359   3.537   0.850
 7645SOL     OW23833   3.492   4.887   6.123
 7645SOL    HW123834   3.436   4.821   6.173
 7645SOL    HW223835   3.588   4.877   6.149
 7646SOL     OW23836   6.972   2.110   1.390
 7646SOL    HW123837   6.998   2.023   1.432
 7646SOL    HW223838   6.921   2.165   1.456
 7647SOL     OW23839   6.671   2.648   5.262
 7647SOL    HW123840   6.660   2.625   5.165
 7647SOL    HW223841   6.625   2.580   5.318
 7648SOL     OW23842   2.628   1.498   1.707
 7648SOL    HW123843   2.717   1.535   1.732
 7648SOL    HW223844   2.640   1.406   1.669
 7649SOL     OW23845   4.786   1.217   5.391
 7649SOL    HW123846   4.856   1.145   5.392
 7649SOL    HW223847   4.771   1.249   5.484
 7650SOL     OW23848   3.856   2.013   0.553
 7650SOL    HW123849   3.921   2.041   0.483
 7650SOL    HW223850   3.781   2.080   0.557
 7651SOL     OW23851   3.130   4.903   5.745
 7651SOL    HW123852   3.160   4.898   5.840
 7651SOL    HW223853   3.048   4.846   5.733
 7652SOL     OW23854   0.456   1.093   4.176
 7652SOL    HW123855   0.506   1.164   4.127
 7652SOL    HW223856   0.460   1.008   4.124
 7653SOL     OW23857   0.842   0.956   6.381
 7653SOL    HW123858   0.865   0.950   6.478
 7653SOL    HW223859   0.925   0.950   6.326
 7654SOL     OW23860   5.429   2.104   6.609
 7654SOL    HW123861   5.457   2.016   6.648
 7654SOL    HW223862   5.427   2.097   6.509
 7655SOL     OW23863   2.980   1.920   2.890
 7655SOL    HW123864   2.888   1.952   2.911
 7655SOL    HW223865   2.977   1.825   2.862
 7656SOL     OW23866   6.909   3.301   6.192
 7656SOL    HW123867   6.911   3.267   6.098
 7656SOL    HW223868   6.960   3.238   6.251
 7657SOL     OW23869   1.085   4.237   4.349
 7657SOL    HW123870   1.036   4.164   4.397
 7657SOL    HW223871   1.110   4.308   4.415
 7658SOL     OW23872   2.149   1.120   1.125
 7658SOL    HW123873   2.214   1.192   1.151
 7658SOL    HW223874   2.141   1.118   1.025
 7659SOL     OW23875   4.815   3.963   5.579
 7659SOL    HW123876   4.799   3.989   5.484
 7659SOL    HW223877   4.737   3.992   5.635
 7660SOL     OW23878   0.268   5.298   4.616
 7660SOL    HW123879   0.316   5.357   4.551
 7660SOL    HW223880   0.170   5.303   4.599
 7661SOL     OW23881   4.685   2.321   5.427
 7661SOL    HW123882   4.756   2.285   5.367
 7661SOL    HW223883   4.644   2.402   5.385
 7662SOL     OW23884   6.995   0.709   1.123
 7662SOL    HW123885   7.024   0.653   1.200
 7662SOL    HW223886   0.007   0.673   1.039
 7663SOL     OW23887   6.832   5.730   5.572
 7663SOL    HW123888   6.870   5.820   5.592
 7663SOL    HW223889   6.767   5.738   5.496
 7664SOL     OW23890   4.017   2.055   2.390
 7664SOL    HW123891   3.936   2.110   2.408
 7664SOL    HW223892   4.093   2.087   2.447
 7665SOL     OW23893   4.525   0.581   5.152
 7665SOL    HW123894   4.497   0.667   5.196
 7665SOL    HW223895   4.548   0.599   5.057
 7666SOL     OW23896   5.345   4.131   3.889
 7666SOL    HW123897   5.429   4.152   3.941
 7666SOL    HW223898   5.316   4.211   3.838
 7667SOL     OW23899   4.165   5.860   1.472
 7667SOL    HW123900   4.203   5.773   1.443
 7667SOL    HW223901   4.107   5.846   1.552
 7668SOL     OW23902   2.250   5.876   0.335
 7668SOL    HW123903   2.304   5.929   0.400
 7668SOL    HW223904   2.223   5.789   0.376
 7669SOL     OW23905   2.297   0.579   5.454
 7669SOL    HW123906   2.298   0.590   5.354
 7669SOL    HW223907   2.256   0.660   5.496
 7670SOL     OW23908   0.799   6.708   0.261
 7670SOL    HW123909   0.830   6.625   0.307
 7670SOL    HW223910   0.699   6.713   0.264
 7671SOL     OW23911   3.960   6.818   1.348
 7671SOL    HW123912   3.887   6.770   1.396
 7671SOL    HW223913   4.045   6.767   1.358
 7672SOL     OW23914   4.625   5.024   2.756
 7672SOL    HW123915   4.555   4.954   2.744
 7672SOL    HW223916   4.634   5.045   2.854
 7673SOL     OW23917   1.658   6.178   4.772
 7673SOL    HW123918   1.568   6.222   4.764
 7673SOL    HW223919   1.692   6.188   4.866
 7674SOL     OW23920   4.256   6.288   4.373
 7674SOL    HW123921   4.317   6.307   4.296
 7674SOL    HW223922   4.161   6.286   4.341
 7675SOL     OW23923   4.761   6.503   3.563
 7675SOL    HW123924   4.781   6.493   3.661
 7675SOL    HW223925   4.663   6.493   3.548
 7676SOL     OW23926   3.328   3.026   5.566
 7676SOL    HW123927   3.396   3.045   5.496
 7676SOL    HW223928   3.266   3.104   5.574
 7677SOL     OW23929   5.576   4.641   0.615
 7677SOL    HW123930   5.621   4.627   0.704
 7677SOL    HW223931   5.483   4.674   0.629
 7678SOL     OW23932   1.876   0.937   4.994
 7678SOL    HW123933   1.905   1.008   5.058
 7678SOL    HW223934   1.901   0.847   5.030
 7679SOL     OW23935   2.819   5.586   5.362
 7679SOL    HW123936   2.852   5.492   5.353
 7679SOL    HW223937   2.725   5.586   5.397
 7680SOL     OW23938   2.318   6.945   5.280
 7680SOL    HW123939   2.254   7.013   5.245
 7680SOL    HW223940   2.320   6.866   5.219
 7681SOL     OW23941   2.901   3.493   6.466
 7681SOL    HW123942   2.940   3.404   6.489
 7681SOL    HW223943   2.801   3.487   6.469
 7682SOL     OW23944   2.509   1.392   2.470
 7682SOL    HW123945   2.501   1.491   2.454
 7682SOL    HW223946   2.480   1.343   2.387
 7683SOL     OW23947   0.658   6.828   4.073
 7683SOL    HW123948   0.571   6.786   4.099
 7683SOL    HW223949   0.703   6.769   4.005
 7684SOL     OW23950   4.137   2.771   1.419
 7684SOL    HW123951   4.043   2.800   1.402
 7684SOL    HW223952   4.165   2.801   1.511
 7685SOL     OW23953   2.676   0.370   0.046
 7685SOL    HW123954   2.683   0.282   0.093
 7685SOL    HW223955   2.682   0.444   0.113
 7686SOL     OW23956   6.063   0.061   4.600
 7686SOL    HW123957   5.994   7.021   4.582
 7686SOL    HW223958   6.125   0.029   4.671
 7687SOL     OW23959   6.048   4.634   5.269
 7687SOL    HW123960   5.959   4.677   5.257
 7687SOL    HW223961   6.062   4.565   5.197
 7688SOL     OW23962   0.065   4.480   6.274
 7688SOL    HW123963   0.037   4.521   6.188
 7688SOL    HW223964   0.116   4.396   6.256
 7689SOL     OW23965   4.643   0.324   1.569
 7689SOL    HW123966   4.682   0.410   1.602
 7689SOL    HW223967   4.545   0.337   1.552
 7690SOL     OW23968   5.944   5.387   1.192
 7690SOL    HW123969   5.876   5.451   1.227
 7690SOL    HW223970   5.999   5.432   1.122
 7691SOL     OW23971   4.530   4.467   3.176
 7691SOL    HW123972   4.434   4.469   3.202
 7691SOL    HW223973   4.542   4.417   3.090
 7692SOL     OW23974   2.363   0.018   2.717
 7692SOL    HW123975   2.369   0.074   2.635
 7692SOL    HW223976   2.452   0.014   2.762
 7693SOL     OW23977   1.983   1.564   0.966
 7693SOL    HW123978   2.083   1.564   0.961
 7693SOL    HW223979   1.947   1.632   0.903
 7694SOL     OW23980   5.589   1.615   5.249
 7694SOL    HW123981   5.561   1.662   5.166
 7694SOL    HW223982   5.605   1.682   5.322
 7695SOL     OW23983   4.634   0.383   3.683
 7695SOL    HW123984   4.579   0.332   3.616
 7695SOL    HW223985   4.723   0.405   3.642
 7696SOL     OW23986   1.152   2.834   6.196
 7696SOL    HW123987   1.070   2.816   6.141
 7696SOL    HW223988   1.153   2.773   6.275
 7697SOL     OW23989   4.771   7.003   3.087
 7697SOL    HW123990   4.802   0.008   2.999
 7697SOL    HW223991   4.672   6.987   3.083
 7698SOL     OW23992   6.544   2.363   0.514
 7698SOL    HW123993   6.523   2.395   0.607
 7698SOL    HW223994   6.467   2.311   0.479
 7699SOL     OW23995   4.482   5.873   6.309
 7699SOL    HW123996   4.494   5.943   6.379
 7699SOL    HW223997   4.417   5.905   6.241
 7700SOL     OW23998   5.385   6.170   2.826
 7700SOL    HW123999   5.480   6.185   2.852
 7700SOL    HW224000   5.349   6.091   2.875
 7701SOL     OW24001   1.096   2.327   6.361
 7701SOL    HW124002   0.998   2.315   6.377
 7701SOL    HW224003   1.145   2.247   6.396
 7702SOL     OW24004   4.413   0.191   4.485
 7702SOL    HW124005   4.474   0.146   4.551
 7702SOL    HW224006   4.318   0.181   4.516
 7703SOL     OW24007   6.280   6.846   5.068
 7703SOL    HW124008   6.253   6.750   5.069
 7703SOL    HW224009   6.265   6.886   5.158
 7704SOL     OW24010   0.155   1.516   4.970
 7704SOL    HW124011   0.110   1.549   5.053
 7704SOL    HW224012   0.198   1.594   4.923
 7705SOL     OW24013   0.821   5.005   6.916
 7705SOL    HW124014   0.758   5.063   6.865
 7705SOL    HW224015   0.821   5.031   7.013
 7706SOL     OW24016   3.601   2.841   2.388
 7706SOL    HW124017   3.632   2.748   2.407
 7706SOL    HW224018   3.509   2.854   2.427
 7707SOL     OW24019   6.350   4.111   6.384
 7707SOL    HW124020   6.329   4.020   6.420
 7707SOL    HW224021   6.368   4.104   6.286
 7708SOL     OW24022   2.683   0.203   4.391
 7708SOL    HW124023   2.765   0.252   4.420
 7708SOL    HW224024   2.671   0.215   4.292
 7709SOL     OW24025   7.002   4.830   1.338
 7709SOL    HW124026   7.017   4.929   1.332
 7709SOL    HW224027   0.058   4.785   1.363
 7710SOL     OW24028   0.010   3.230   0.949
 7710SOL    HW124029   7.020   3.268   1.040
 7710SOL    HW224030   0.107   3.237   0.928
 7711SOL     OW24031   0.335   4.494   5.010
 7711SOL    HW124032   0.429   4.470   4.988
 7711SOL    HW224033   0.272   4.444   4.950
 7712SOL     OW24034   0.169   4.972   5.522
 7712SOL    HW124035   0.135   4.978   5.616
 7712SOL    HW224036   0.233   5.047   5.505
 7713SOL     OW24037   1.849   4.689   0.072
 7713SOL    HW124038   1.785   4.630   0.024
 7713SOL    HW224039   1.872   4.649   0.161
 7714SOL     OW24040   6.102   0.993   5.610
 7714SOL    HW124041   6.051   1.067   5.564
 7714SOL    HW224042   6.082   0.996   5.708
 7715SOL     OW24043   3.335   3.231   5.856
 7715SOL    HW124044   3.298   3.138   5.851
 7715SOL    HW224045   3.315   3.270   5.946
 7716SOL     OW24046   1.239   6.029   5.956
 7716SOL    HW124047   1.269   5.975   6.035
 7716SOL    HW224048   1.262   5.979   5.872
 7717SOL     OW24049   0.507   1.627   6.780
 7717SOL    HW124050   0.511   1.533   6.747
 7717SOL    HW224051   0.489   1.689   6.704
 7718SOL     OW24052   1.075   3.762   2.893
 7718SOL    HW124053   1.001   3.758   2.827
 7718SOL    HW224054   1.047   3.817   2.972
 7719SOL     OW24055   2.162   4.696   4.836
 7719SOL    HW124056   2.169   4.650   4.925
 7719SOL    HW224057   2.126   4.632   4.768
 7720SOL     OW24058   4.640   1.352   6.876
 7720SOL    HW124059   4.629   1.345   6.777
 7720SOL    HW224060   4.618   1.265   6.918
 7721SOL     OW24061   0.708   0.943   2.728
 7721SOL    HW124062   0.680   0.847   2.738
 7721SOL    HW224063   0.627   1.001   2.727
 7722SOL     OW24064   1.305   6.112   3.780
 7722SOL    HW124065   1.349   6.117   3.870
 7722SOL    HW224066   1.213   6.150   3.787
 7723SOL     OW24067   4.883   4.038   0.524
 7723SOL    HW124068   4.849   4.109   0.586
 7723SOL    HW224069   4.811   3.972   0.505
 7724SOL     OW24070   1.914   3.990   1.460
 7724SOL    HW124071   1.967   4.074   1.449
 7724SOL    HW224072   1.903   3.971   1.558
 7725SOL     OW24073   5.202   3.027   3.590
 7725SOL    HW124074   5.234   2.935   3.612
 7725SOL    HW224075   5.111   3.021   3.549
 7726SOL     OW24076   0.977   3.098   6.164
 7726SOL    HW124077   1.048   3.087   6.234
 7726SOL    HW224078   0.922   3.179   6.185
 7727SOL     OW24079   4.528   0.937   2.210
 7727SOL    HW124080   4.580   0.884   2.277
 7727SOL    HW224081   4.591   0.982   2.147
 7728SOL     OW24082   2.002   3.458   4.616
 7728SOL    HW124083   1.976   3.531   4.680
 7728SOL    HW224084   2.025   3.376   4.667
 7729SOL     OW24085   7.023   2.227   3.827
 7729SOL    HW124086   0.015   2.249   3.732
 7729SOL    HW224087   0.072   2.254   3.885
 7730SOL     OW24088   6.282   4.430   5.069
 7730SOL    HW124089   6.342   4.466   4.997
 7730SOL    HW224090   6.187   4.448   5.044
 7731SOL     OW24091   6.676   6.480   6.808
 7731SOL    HW124092   6.624   6.395   6.820
 7731SOL    HW224093   6.697   6.491   6.711
 7732SOL     OW24094   4.227   0.176   6.712
 7732SOL    HW124095   4.152   0.232   6.746
 7732SOL    HW224096   4.313   0.226   6.724
 7733SOL     OW24097   6.141   5.686   1.871
 7733SOL    HW124098   6.213   5.620   1.851
 7733SOL    HW224099   6.158   5.770   1.820
 7734SOL     OW24100   3.232   3.704   4.877
 7734SOL    HW124101   3.154   3.729   4.819
 7734SOL    HW224102   3.317   3.731   4.832
 7735SOL     OW24103   6.654   5.976   0.440
 7735SOL    HW124104   6.669   5.944   0.533
 7735SOL    HW224105   6.662   5.900   0.376
 7736SOL     OW24106   2.073   2.759   0.286
 7736SOL    HW124107   2.103   2.788   0.377
 7736SOL    HW224108   2.152   2.751   0.226
 7737SOL     OW24109   4.010   5.403   0.832
 7737SOL    HW124110   4.086   5.345   0.861
 7737SOL    HW224111   3.924   5.354   0.846
 7738SOL     OW24112   1.932   0.316   5.525
 7738SOL    HW124113   2.014   0.300   5.580
 7738SOL    HW224114   1.902   0.229   5.485
 7739SOL     OW24115   1.551   2.033   0.627
 7739SOL    HW124116   1.644   1.997   0.627
 7739SOL    HW224117   1.489   1.967   0.585
 7740SOL     OW24118   1.654   0.825   4.871
 7740SOL    HW124119   1.746   0.832   4.910
 7740SOL    HW224120   1.606   0.912   4.884
 7741SOL     OW24121   1.519   4.699   6.303
 7741SOL    HW124122   1.572   4.644   6.237
 7741SOL    HW224123   1.559   4.688   6.394
 7742SOL     OW24124   4.242   1.877   4.135
 7742SOL    HW124125   4.160   1.900   4.186
 7742SOL    HW224126   4.323   1.908   4.185
 7743SOL     OW24127   4.962   2.045   5.529
 7743SOL    HW124128   4.967   2.089   5.618
 7743SOL    HW224129   4.914   1.958   5.537
 7744SOL     OW24130   0.593   6.155   4.930
 7744SOL    HW124131   0.561   6.099   4.854
 7744SOL    HW224132   0.525   6.226   4.950
 7745SOL     OW24133   2.413   6.978   0.993
 7745SOL    HW124134   2.464   6.998   1.076
 7745SOL    HW224135   2.324   6.938   1.017
 7746SOL     OW24136   1.165   5.798   1.048
 7746SOL    HW124137   1.075   5.753   1.045
 7746SOL    HW224138   1.160   5.886   1.002
 7747SOL     OW24139   0.863   6.034   6.882
 7747SOL    HW124140   0.787   5.973   6.857
 7747SOL    HW224141   0.925   5.987   6.944
 7748SOL     OW24142   4.704   2.203   5.711
 7748SOL    HW124143   4.708   2.203   5.611
 7748SOL    HW224144   4.641   2.273   5.742
 7749SOL     OW24145   3.709   4.144   4.368
 7749SOL    HW124146   3.694   4.144   4.466
 7749SOL    HW224147   3.744   4.055   4.339
 7750SOL     OW24148   5.742   4.385   5.215
 7750SOL    HW124149   5.814   4.409   5.280
 7750SOL    HW224150   5.742   4.450   5.139
 7751SOL     OW24151   6.829   1.180   5.200
 7751SOL    HW124152   6.752   1.205   5.142
 7751SOL    HW224153   6.854   1.085   5.184
 7752SOL     OW24154   6.609   5.780   5.381
 7752SOL    HW124155   6.560   5.742   5.459
 7752SOL    HW224156   6.548   5.839   5.329
 7753SOL     OW24157   2.375   1.320   4.697
 7753SOL    HW124158   2.283   1.307   4.734
 7753SOL    HW224159   2.388   1.417   4.676
 7754SOL     OW24160   5.975   0.370   1.951
 7754SOL    HW124161   5.941   0.292   1.899
 7754SOL    HW224162   6.031   0.338   2.027
 7755SOL     OW24163   1.221   5.831   5.748
 7755SOL    HW124164   1.136   5.876   5.721
 7755SOL    HW224165   1.231   5.747   5.696
 7756SOL     OW24166   3.952   5.683   2.454
 7756SOL    HW124167   3.926   5.586   2.453
 7756SOL    HW224168   3.929   5.725   2.367
 7757SOL     OW24169   4.735   6.605   5.742
 7757SOL    HW124170   4.752   6.628   5.838
 7757SOL    HW224171   4.704   6.510   5.735
 7758SOL     OW24172   2.300   2.338   5.253
 7758SOL    HW124173   2.312   2.323   5.155
 7758SOL    HW224174   2.332   2.430   5.277
 7759SOL     OW24175   1.806   0.736   5.380
 7759SOL    HW124176   1.728   0.791   5.348
 7759SOL    HW224177   1.867   0.793   5.434
 7760SOL     OW24178   5.056   3.018   2.485
 7760SOL    HW124179   5.118   2.989   2.412
 7760SOL    HW224180   4.969   3.048   2.445
 7761SOL     OW24181   3.537   0.144   6.409
 7761SOL    HW124182   3.519   0.227   6.461
 7761SOL    HW224183   3.464   0.129   6.343
 7762SOL     OW24184   3.472   1.633   0.706
 7762SOL    HW124185   3.513   1.569   0.771
 7762SOL    HW224186   3.418   1.702   0.755
 7763SOL     OW24187   1.790   1.907   0.623
 7763SOL    HW124188   1.819   1.884   0.716
 7763SOL    HW224189   1.767   1.823   0.574
 7764SOL     OW24190   3.395   2.901   2.570
 7764SOL    HW124191   3.325   2.868   2.633
 7764SOL    HW224192   3.361   2.981   2.521
 7765SOL     OW24193   6.631   2.502   2.503
 7765SOL    HW124194   6.539   2.541   2.516
 7765SOL    HW224195   6.681   2.560   2.438
 7766SOL     OW24196   0.048   2.652   6.662
 7766SOL    HW124197   0.072   2.606   6.577
 7766SOL    HW224198   0.112   2.623   6.734
 7767SOL     OW24199   4.944   5.186   4.634
 7767SOL    HW124200   5.032   5.183   4.681
 7767SOL    HW224201   4.907   5.278   4.639
 7768SOL     OW24202   3.323   4.976   2.376
 7768SOL    HW124203   3.235   4.928   2.373
 7768SOL    HW224204   3.360   4.982   2.284
 7769SOL     OW24205   5.709   2.116   1.733
 7769SOL    HW124206   5.631   2.180   1.733
 7769SOL    HW224207   5.728   2.089   1.828
 7770SOL     OW24208   3.613   5.523   1.084
 7770SOL    HW124209   3.706   5.497   1.107
 7770SOL    HW224210   3.570   5.568   1.162
 7771SOL     OW24211   2.263   1.777   5.504
 7771SOL    HW124212   2.299   1.813   5.591
 7771SOL    HW224213   2.163   1.776   5.508
 7772SOL     OW24214   5.443   1.436   4.636
 7772SOL    HW124215   5.370   1.483   4.587
 7772SOL    HW224216   5.411   1.411   4.727
 7773SOL     OW24217   4.235   4.291   5.805
 7773SOL    HW124218   4.164   4.347   5.849
 7773SOL    HW224219   4.192   4.214   5.758
 7774SOL     OW24220   4.769   1.592   6.292
 7774SOL    HW124221   4.674   1.588   6.321
 7774SOL    HW224222   4.825   1.632   6.364
 7775SOL     OW24223   2.813   6.740   2.333
 7775SOL    HW124224   2.791   6.671   2.402
 7775SOL    HW224225   2.911   6.760   2.335
 7776SOL     OW24226   3.691   3.750   6.866
 7776SOL    HW124227   3.661   3.844   6.879
 7776SOL    HW224228   3.621   3.699   6.815
 7777SOL     OW24229   2.163   1.417   6.878
 7777SOL    HW124230   2.106   1.497   6.863
 7777SOL    HW224231   2.123   1.361   6.950
 7778SOL     OW24232   5.736   0.782   0.278
 7778SOL    HW124233   5.667   0.726   0.323
 7778SOL    HW224234   5.719   0.879   0.296
 7779SOL     OW24235   3.704   3.403   0.021
 7779SOL    HW124236   3.711   3.361   0.111
 7779SOL    HW224237   3.630   3.360   6.998
 7780SOL     OW24238   1.886   6.671   4.563
 7780SOL    HW124239   1.946   6.641   4.637
 7780SOL    HW224240   1.796   6.694   4.599
 7781SOL     OW24241   1.356   4.640   4.767
 7781SOL    HW124242   1.364   4.681   4.858
 7781SOL    HW224243   1.313   4.550   4.775
 7782SOL     OW24244   3.245   4.647   6.456
 7782SOL    HW124245   3.272   4.551   6.462
 7782SOL    HW224246   3.193   4.672   6.538
 7783SOL     OW24247   3.171   5.231   6.224
 7783SOL    HW124248   3.178   5.192   6.316
 7783SOL    HW224249   3.259   5.221   6.177
 7784SOL     OW24250   0.457   2.714   0.233
 7784SOL    HW124251   0.359   2.727   0.245
 7784SOL    HW224252   0.506   2.793   0.269
 7785SOL     OW24253   2.584   5.778   4.164
 7785SOL    HW124254   2.641   5.696   4.161
 7785SOL    HW224255   2.616   5.843   4.095
 7786SOL     OW24256   3.145   4.205   5.217
 7786SOL    HW124257   3.118   4.120   5.172
 7786SOL    HW224258   3.086   4.279   5.184
 7787SOL     OW24259   2.710   2.547   5.310
 7787SOL    HW124260   2.696   2.638   5.272
 7787SOL    HW224261   2.807   2.531   5.326
 7788SOL     OW24262   1.107   1.572   0.149
 7788SOL    HW124263   1.177   1.632   0.110
 7788SOL    HW224264   1.106   1.486   0.098
 7789SOL     OW24265   2.099   0.695   1.299
 7789SOL    HW124266   2.164   0.770   1.289
 7789SOL    HW224267   2.069   0.688   1.395
 7790SOL     OW24268   5.576   3.207   2.577
 7790SOL    HW124269   5.501   3.141   2.568
 7790SOL    HW224270   5.603   3.239   2.487
 7791SOL     OW24271   1.778   4.759   5.211
 7791SOL    HW124272   1.873   4.730   5.212
 7791SOL    HW224273   1.758   4.809   5.295
 7792SOL     OW24274   2.356   5.598   6.191
 7792SOL    HW124275   2.409   5.522   6.229
 7792SOL    HW224276   2.418   5.664   6.148
 7793SOL     OW24277   1.058   0.955   6.239
 7793SOL    HW124278   1.152   0.924   6.254
 7793SOL    HW224279   1.056   1.021   6.164
 7794SOL     OW24280   5.374   5.865   3.839
 7794SOL    HW124281   5.282   5.897   3.864
 7794SOL    HW224282   5.442   5.914   3.892
 7795SOL     OW24283   2.508   4.373   5.245
 7795SOL    HW124284   2.450   4.325   5.311
 7795SOL    HW224285   2.603   4.345   5.258
 7796SOL     OW24286   4.049   3.798   3.497
 7796SOL    HW124287   4.129   3.846   3.534
 7796SOL    HW224288   4.001   3.752   3.572
 7797SOL     OW24289   0.470   0.179   2.912
 7797SOL    HW124290   0.504   0.152   2.822
 7797SOL    HW224291   0.493   0.276   2.928
 7798SOL     OW24292   3.751   5.423   0.287
 7798SOL    HW124293   3.679   5.356   0.305
 7798SOL    HW224294   3.721   5.513   0.317
 7799SOL     OW24295   0.046   5.337   1.692
 7799SOL    HW124296   0.058   5.434   1.673
 7799SOL    HW224297   7.014   5.325   1.770
 7800SOL     OW24298   0.748   5.832   2.257
 7800SOL    HW124299   0.697   5.854   2.174
 7800SOL    HW224300   0.689   5.848   2.337
 7801SOL     OW24301   3.383   2.418   0.050
 7801SOL    HW124302   3.442   2.342   0.076
 7801SOL    HW224303   3.402   2.444   6.985
 7802SOL     OW24304   5.746   2.023   1.983
 7802SOL    HW124305   5.699   1.941   2.015
 7802SOL    HW224306   5.775   2.078   2.062
 7803SOL     OW24307   4.202   4.268   5.329
 7803SOL    HW124308   4.223   4.311   5.417
 7803SOL    HW224309   4.243   4.322   5.255
 7804SOL     OW24310   4.732   1.841   5.837
 7804SOL    HW124311   4.634   1.827   5.851
 7804SOL    HW224312   4.763   1.919   5.892
 7805SOL     OW24313   5.102   3.537   2.068
 7805SOL    HW124314   5.064   3.629   2.059
 7805SOL    HW224315   5.028   3.470   2.066
 7806SOL     OW24316   5.461   2.679   6.096
 7806SOL    HW124317   5.388   2.746   6.105
 7806SOL    HW224318   5.536   2.720   6.044
 7807SOL     OW24319   0.449   4.348   6.561
 7807SOL    HW124320   0.471   4.391   6.473
 7807SOL    HW224321   0.524   4.361   6.625
 7808SOL     OW24322   0.113   1.651   5.214
 7808SOL    HW124323   0.183   1.602   5.266
 7808SOL    HW224324   0.149   1.739   5.185
 7809SOL     OW24325   2.534   5.349   4.722
 7809SOL    HW124326   2.452   5.383   4.770
 7809SOL    HW224327   2.609   5.415   4.734
 7810SOL     OW24328   2.672   0.834   6.705
 7810SOL    HW124329   2.622   0.897   6.646
 7810SOL    HW224330   2.721   0.886   6.775
 7811SOL     OW24331   6.550   4.768   3.959
 7811SOL    HW124332   6.572   4.671   3.946
 7811SOL    HW224333   6.483   4.796   3.891
 7812SOL     OW24334   1.506   1.987   3.651
 7812SOL    HW124335   1.470   1.944   3.568
 7812SOL    HW224336   1.459   2.074   3.666
 7813SOL     OW24337   6.587   3.200   0.251
 7813SOL    HW124338   6.575   3.241   0.161
 7813SOL    HW224339   6.663   3.244   0.298
 7814SOL     OW24340   0.652   3.350   2.973
 7814SOL    HW124341   0.690   3.357   3.065
 7814SOL    HW224342   0.594   3.269   2.967
 7815SOL     OW24343   6.582   1.732   5.857
 7815SOL    HW124344   6.588   1.748   5.956
 7815SOL    HW224345   6.544   1.641   5.840
 7816SOL     OW24346   1.418   3.948   4.894
 7816SOL    HW124347   1.517   3.956   4.906
 7816SOL    HW224348   1.374   3.957   4.983
 7817SOL     OW24349   5.544   3.898   4.632
 7817SOL    HW124350   5.474   3.903   4.561
 7817SOL    HW224351   5.529   3.971   4.699
 7818SOL     OW24352   5.271   6.159   2.002
 7818SOL    HW124353   5.180   6.164   2.044
 7818SOL    HW224354   5.341   6.162   2.073
 7819SOL     OW24355   6.648   1.624   1.616
 7819SOL    HW124356   6.571   1.663   1.567
 7819SOL    HW224357   6.728   1.622   1.556
 7820SOL     OW24358   1.615   0.477   6.848
 7820SOL    HW124359   1.680   0.537   6.894
 7820SOL    HW224360   1.532   0.469   6.903
 7821SOL     OW24361   2.991   5.349   2.094
 7821SOL    HW124362   2.986   5.437   2.046
 7821SOL    HW224363   2.960   5.276   2.032
 7822SOL     OW24364   1.600   5.912   5.111
 7822SOL    HW124365   1.507   5.886   5.085
 7822SOL    HW224366   1.613   5.895   5.209
 7823SOL     OW24367   1.628   4.622   5.036
 7823SOL    HW124368   1.684   4.675   5.099
 7823SOL    HW224369   1.534   4.658   5.036
 7824SOL     OW24370   0.301   2.698   5.879
 7824SOL    HW124371   0.329   2.791   5.857
 7824SOL    HW224372   0.246   2.661   5.804
 7825SOL     OW24373   3.044   1.431   6.656
 7825SOL    HW124374   3.035   1.465   6.563
 7825SOL    HW224375   3.121   1.368   6.661
 7826SOL     OW24376   0.355   3.239   6.576
 7826SOL    HW124377   0.385   3.144   6.563
 7826SOL    HW224378   0.321   3.251   6.669
 7827SOL     OW24379   6.746   6.581   4.539
 7827SOL    HW124380   6.682   6.510   4.568
 7827SOL    HW224381   6.825   6.583   4.601
 7828SOL     OW24382   0.691   4.740   6.951
 7828SOL    HW124383   0.633   4.720   6.873
 7828SOL    HW224384   0.741   4.825   6.935
 7829SOL     OW24385   4.205   3.068   0.850
 7829SOL    HW124386   4.112   3.104   0.855
 7829SOL    HW224387   4.269   3.140   0.878
 7830SOL     OW24388   2.649   5.038   4.167
 7830SOL    HW124389   2.587   5.099   4.118
 7830SOL    HW224390   2.619   4.943   4.156
 7831SOL     OW24391   1.782   1.253   0.380
 7831SOL    HW124392   1.852   1.266   0.310
 7831SOL    HW224393   1.807   1.176   0.439
 7832SOL     OW24394   6.400   0.737   4.486
 7832SOL    HW124395   6.300   0.737   4.489
 7832SOL    HW224396   6.435   0.658   4.536
 7833SOL     OW24397   1.986   0.836   4.271
 7833SOL    HW124398   1.948   0.848   4.179
 7833SOL    HW224399   1.959   0.748   4.308
 7834SOL     OW24400   6.205   3.035   4.908
 7834SOL    HW124401   6.143   3.065   4.836
 7834SOL    HW224402   6.194   2.937   4.924
 7835SOL     OW24403   4.194   2.333   5.351
 7835SOL    HW124404   4.222   2.364   5.261
 7835SOL    HW224405   4.242   2.248   5.374
 7836SOL     OW24406   3.601   3.671   4.756
 7836SOL    HW124407   3.684   3.706   4.712
 7836SOL    HW224408   3.608   3.685   4.855
 7837SOL     OW24409   6.770   5.642   6.520
 7837SOL    HW124410   6.806   5.671   6.609
 7837SOL    HW224411   6.677   5.678   6.509
 7838SOL     OW24412   4.842   5.210   1.272
 7838SOL    HW124413   4.837   5.126   1.326
 7838SOL    HW224414   4.900   5.277   1.320
 7839SOL     OW24415   5.653   3.193   4.322
 7839SOL    HW124416   5.698   3.171   4.235
 7839SOL    HW224417   5.688   3.132   4.393
 7840SOL     OW24418   1.981   3.027   3.974
 7840SOL    HW124419   2.051   3.087   3.936
 7840SOL    HW224420   1.993   3.019   4.073
 7841SOL     OW24421   4.816   2.040   5.976
 7841SOL    HW124422   4.765   2.125   5.964
 7841SOL    HW224423   4.911   2.062   6.000
 7842SOL     OW24424   1.658   0.689   2.210
 7842SOL    HW124425   1.727   0.699   2.282
 7842SOL    HW224426   1.631   0.779   2.177
 7843SOL     OW24427   0.337   6.531   3.212
 7843SOL    HW124428   0.351   6.607   3.149
 7843SOL    HW224429   0.240   6.508   3.216
 7844SOL     OW24430   3.257   1.253   2.676
 7844SOL    HW124431   3.307   1.260   2.762
 7844SOL    HW224432   3.318   1.274   2.600
 7845SOL     OW24433   6.669   3.207   1.360
 7845SOL    HW124434   6.667   3.194   1.261
 7845SOL    HW224435   6.743   3.152   1.399
 7846SOL     OW24436   0.968   2.030   0.202
 7846SOL    HW124437   0.928   2.114   0.240
 7846SOL    HW224438   0.905   1.991   0.135
 7847SOL     OW24439   5.609   3.415   5.135
 7847SOL    HW124440   5.633   3.425   5.038
 7847SOL    HW224441   5.691   3.398   5.189
 7848SOL     OW24442   3.535   4.199   0.906
 7848SOL    HW124443   3.619   4.249   0.928
 7848SOL    HW224444   3.458   4.262   0.900
 7849SOL     OW24445   4.581   4.263   6.957
 7849SOL    HW124446   4.660   4.203   6.970
 7849SOL    HW224447   4.565   4.276   6.859
 7850SOL     OW24448   0.076   1.146   3.764
 7850SOL    HW124449   0.128   1.063   3.786
 7850SOL    HW224450   0.076   1.207   3.843
 7851SOL     OW24451   0.625   4.091   1.957
 7851SOL    HW124452   0.609   4.189   1.969
 7851SOL    HW224453   0.668   4.054   2.040
 7852SOL     OW24454   1.190   2.585   6.367
 7852SOL    HW124455   1.178   2.486   6.353
 7852SOL    HW224456   1.109   2.621   6.414
 7853SOL     OW24457   3.964   2.976   1.653
 7853SOL    HW124458   3.916   2.967   1.741
 7853SOL    HW224459   4.059   2.946   1.664
 7854SOL     OW24460   4.821   2.500   6.752
 7854SOL    HW124461   4.771   2.422   6.713
 7854SOL    HW224462   4.761   2.580   6.756
 7855SOL     OW24463   5.160   0.100   4.749
 7855SOL    HW124464   5.069   0.126   4.717
 7855SOL    HW224465   5.223   0.177   4.740
 7856SOL     OW24466   2.202   6.391   4.921
 7856SOL    HW124467   2.120   6.384   4.863
 7856SOL    HW224468   2.283   6.372   4.866
 7857SOL     OW24469   6.063   4.431   1.157
 7857SOL    HW124470   5.975   4.383   1.165
 7857SOL    HW224471   6.138   4.368   1.177
 7858SOL     OW24472   0.461   4.528   5.631
 7858SOL    HW124473   0.447   4.611   5.577
 7858SOL    HW224474   0.552   4.490   5.611
 7859SOL     OW24475   5.525   2.517   0.191
 7859SOL    HW124476   5.444   2.459   0.199
 7859SOL    HW224477   5.542   2.562   0.279
 7860SOL     OW24478   2.446   1.066   4.586
 7860SOL    HW124479   2.413   1.153   4.623
 7860SOL    HW224480   2.406   1.052   4.495
 7861SOL     OW24481   2.797   6.292   1.075
 7861SOL    HW124482   2.727   6.298   1.147
 7861SOL    HW224483   2.777   6.215   1.015
 7862SOL     OW24484   2.717   5.924   0.310
 7862SOL    HW124485   2.738   5.988   0.236
 7862SOL    HW224486   2.763   5.837   0.295
 7863SOL     OW24487   6.718   4.399   3.308
 7863SOL    HW124488   6.725   4.326   3.240
 7863SOL    HW224489   6.629   4.395   3.353
 7864SOL     OW24490   1.941   6.262   5.448
 7864SOL    HW124491   1.982   6.346   5.412
 7864SOL    HW224492   1.986   6.237   5.534
 7865SOL     OW24493   5.689   5.029   3.203
 7865SOL    HW124494   5.622   5.103   3.215
 7865SOL    HW224495   5.646   4.954   3.153
 7866SOL     OW24496   0.868   0.056   5.805
 7866SOL    HW124497   0.859   6.996   5.760
 7866SOL    HW224498   0.959   0.093   5.790
 7867SOL     OW24499   5.823   6.009   3.708
 7867SOL    HW124500   5.904   6.029   3.652
 7867SOL    HW224501   5.760   5.951   3.656
 7868SOL     OW24502   3.254   6.361   1.628
 7868SOL    HW124503   3.271   6.310   1.543
 7868SOL    HW224504   3.162   6.339   1.662
 7869SOL     OW24505   5.903   5.070   5.520
 7869SOL    HW124506   5.893   5.039   5.614
 7869SOL    HW224507   5.987   5.032   5.481
 7870SOL     OW24508   5.715   6.173   4.654
 7870SOL    HW124509   5.740   6.101   4.589
 7870SOL    HW224510   5.776   6.251   4.642
 7871SOL     OW24511   5.653   1.231   1.696
 7871SOL    HW124512   5.692   1.322   1.684
 7871SOL    HW224513   5.635   1.215   1.793
 7872SOL     OW24514   1.751   5.590   2.718
 7872SOL    HW124515   1.781   5.510   2.770
 7872SOL    HW224516   1.827   5.653   2.705
 7873SOL     OW24517   6.000   1.471   6.851
 7873SOL    HW124518   5.907   1.494   6.822
 7873SOL    HW224519   6.004   1.463   6.950
 7874SOL     OW24520   5.499   2.469   0.829
 7874SOL    HW124521   5.590   2.511   0.828
 7874SOL    HW224522   5.477   2.440   0.922
 7875SOL     OW24523   5.473   4.589   6.621
 7875SOL    HW124524   5.567   4.575   6.654
 7875SOL    HW224525   5.470   4.575   6.522
 7876SOL     OW24526   1.054   7.020   2.824
 7876SOL    HW124527   1.078   0.012   2.919
 7876SOL    HW224528   0.956   7.000   2.818
 7877SOL     OW24529   6.847   2.075   2.871
 7877SOL    HW124530   6.907   2.141   2.827
 7877SOL    HW224531   6.779   2.043   2.806
 7878SOL     OW24532   3.933   4.906   2.800
 7878SOL    HW124533   3.900   4.913   2.707
 7878SOL    HW224534   3.864   4.940   2.864
 7879SOL     OW24535   3.017   4.798   3.056
 7879SOL    HW124536   3.087   4.823   2.989
 7879SOL    HW224537   2.928   4.791   3.011
 7880SOL     OW24538   1.636   4.003   2.052
 7880SOL    HW124539   1.705   4.006   1.980
 7880SOL    HW224540   1.680   3.978   2.139
 7881SOL     OW24541   5.231   4.375   4.334
 7881SOL    HW124542   5.209   4.280   4.312
 7881SOL    HW224543   5.201   4.395   4.427
 7882SOL     OW24544   1.413   3.642   0.685
 7882SOL    HW124545   1.365   3.686   0.761
 7882SOL    HW224546   1.384   3.683   0.598
 7883SOL     OW24547   0.983   0.615   5.275
 7883SOL    HW124548   1.039   0.652   5.349
 7883SOL    HW224549   0.949   0.689   5.218
 7884SOL     OW24550   0.837   2.770   4.413
 7884SOL    HW124551   0.796   2.829   4.343
 7884SOL    HW224552   0.773   2.699   4.439
 7885SOL     OW24553   6.509   5.703   6.591
 7885SOL    HW124554   6.471   5.789   6.557
 7885SOL    HW224555   6.434   5.644   6.622
 7886SOL     OW24556   4.520   4.992   0.108
 7886SOL    HW124557   4.549   4.962   0.017
 7886SOL    HW224558   4.434   4.946   0.132
 7887SOL     OW24559   4.831   2.197   6.820
 7887SOL    HW124560   4.747   2.187   6.873
 7887SOL    HW224561   4.811   2.185   6.723
 7888SOL     OW24562   5.280   0.849   4.829
 7888SOL    HW124563   5.298   0.886   4.738
 7888SOL    HW224564   5.258   0.924   4.892
 7889SOL     OW24565   1.208   6.257   2.414
 7889SOL    HW124566   1.121   6.297   2.385
 7889SOL    HW224567   1.227   6.284   2.509
 7890SOL     OW24568   1.984   3.130   2.743
 7890SOL    HW124569   2.014   3.043   2.783
 7890SOL    HW224570   1.901   3.115   2.690
 7891SOL     OW24571   1.515   4.577   3.002
 7891SOL    HW124572   1.605   4.557   3.042
 7891SOL    HW224573   1.466   4.641   3.060
 7892SOL     OW24574   1.836   2.390   5.581
 7892SOL    HW124575   1.832   2.406   5.680
 7892SOL    HW224576   1.923   2.422   5.545
 7893SOL     OW24577   5.998   6.196   1.596
 7893SOL    HW124578   6.076   6.249   1.628
 7893SOL    HW224579   5.946   6.162   1.675
 7894SOL     OW24580   2.875   0.118   1.985
 7894SOL    HW124581   2.805   0.071   1.931
 7894SOL    HW224582   2.861   0.217   1.978
 7895SOL     OW24583   6.940   2.009   3.454
 7895SOL    HW124584   6.910   2.104   3.458
 7895SOL    HW224585   6.999   1.989   3.532
 7896SOL     OW24586   4.675   1.987   5.279
 7896SOL    HW124587   4.746   2.058   5.280
 7896SOL    HW224588   4.667   1.945   5.369
 7897SOL     OW24589   2.952   3.318   6.190
 7897SOL    HW124590   2.960   3.411   6.225
 7897SOL    HW224591   2.918   3.320   6.097
 7898SOL     OW24592   4.303   2.280   3.570
 7898SOL    HW124593   4.210   2.308   3.592
 7898SOL    HW224594   4.317   2.283   3.471
 7899SOL     OW24595   5.127   1.141   2.673
 7899SOL    HW124596   5.172   1.064   2.719
 7899SOL    HW224597   5.054   1.107   2.614
 7900SOL     OW24598   1.482   5.765   0.889
 7900SOL    HW124599   1.456   5.775   0.984
 7900SOL    HW224600   1.574   5.802   0.875
 7901SOL     OW24601   6.295   5.908   0.406
 7901SOL    HW124602   6.255   5.891   0.316
 7901SOL    HW224603   6.323   6.004   0.412
 7902SOL     OW24604   4.904   3.798   6.925
 7902SOL    HW124605   4.944   3.888   6.911
 7902SOL    HW224606   4.923   3.767   7.018
 7903SOL     OW24607   0.336   2.090   6.728
 7903SOL    HW124608   0.364   2.129   6.816
 7903SOL    HW224609   0.336   2.161   6.658
 7904SOL     OW24610   6.122   0.673   2.934
 7904SOL    HW124611   6.048   0.705   2.993
 7904SOL    HW224612   6.086   0.655   2.842
 7905SOL     OW24613   3.479   1.404   0.861
 7905SOL    HW124614   3.491   1.452   0.948
 7905SOL    HW224615   3.502   1.308   0.873
 7906SOL     OW24616   6.213   5.732   6.817
 7906SOL    HW124617   6.248   5.644   6.785
 7906SOL    HW224618   6.167   5.720   6.905
 7907SOL     OW24619   6.788   3.133   1.991
 7907SOL    HW124620   6.737   3.054   1.957
 7907SOL    HW224621   6.861   3.102   2.053
 7908SOL     OW24622   6.369   1.853   3.631
 7908SOL    HW124623   6.286   1.898   3.662
 7908SOL    HW224624   6.439   1.858   3.703
 7909SOL     OW24625   4.710   4.578   5.165
 7909SOL    HW124626   4.781   4.525   5.211
 7909SOL    HW224627   4.747   4.666   5.137
 7910SOL     OW24628   5.565   3.376   5.997
 7910SOL    HW124629   5.521   3.426   5.922
 7910SOL    HW224630   5.507   3.382   6.079
 7911SOL     OW24631   5.863   4.844   0.012
 7911SOL    HW124632   5.882   4.781   0.086
 7911SOL    HW224633   5.890   4.803   6.954
 7912SOL     OW24634   6.571   5.038   5.982
 7912SOL    HW124635   6.512   4.971   5.936
 7912SOL    HW224636   6.638   4.990   6.039
 7913SOL     OW24637   0.449   5.664   6.701
 7913SOL    HW124638   0.450   5.602   6.623
 7913SOL    HW224639   0.478   5.616   6.783
 7914SOL     OW24640   7.020   3.504   2.613
 7914SOL    HW124641   0.006   3.486   2.516
 7914SOL    HW224642   0.067   3.557   2.649
 7915SOL     OW24643   4.277   2.011   2.612
 7915SOL    HW124644   4.324   1.969   2.690
 7915SOL    HW224645   4.285   2.110   2.618
 7916SOL     OW24646   4.914   3.476   5.494
 7916SOL    HW124647   4.934   3.574   5.502
 7916SOL    HW224648   5.000   3.426   5.492
 7917SOL     OW24649   2.956   3.764   4.213
 7917SOL    HW124650   2.931   3.669   4.191
 7917SOL    HW224651   2.963   3.774   4.312
 7918SOL     OW24652   6.402   1.924   2.715
 7918SOL    HW124653   6.415   1.913   2.616
 7918SOL    HW224654   6.390   1.834   2.757
 7919SOL     OW24655   5.772   5.111   1.756
 7919SOL    HW124656   5.695   5.130   1.817
 7919SOL    HW224657   5.747   5.132   1.662
 7920SOL     OW24658   0.943   5.638   1.759
 7920SOL    HW124659   0.965   5.703   1.832
 7920SOL    HW224660   0.935   5.687   1.672
 7921SOL     OW24661   3.555   6.994   2.007
 7921SOL    HW124662   3.578   6.927   2.078
 7921SOL    HW224663   3.594   6.965   1.920
 7922SOL     OW24664   0.521   5.074   6.886
 7922SOL    HW124665   0.469   5.020   6.819
 7922SOL    HW224666   0.490   5.051   6.978
 7923SOL     OW24667   1.204   1.602   2.981
 7923SOL    HW124668   1.161   1.517   3.009
 7923SOL    HW224669   1.174   1.626   2.888
 7924SOL     OW24670   2.123   0.501   4.186
 7924SOL    HW124671   2.048   0.523   4.248
 7924SOL    HW224672   2.200   0.562   4.204
 7925SOL     OW24673   0.058   0.377   6.710
 7925SOL    HW124674   0.131   0.381   6.641
 7925SOL    HW224675   0.055   0.285   6.749
 7926SOL     OW24676   3.036   0.261   1.660
 7926SOL    HW124677   2.969   0.312   1.606
 7926SOL    HW224678   3.075   0.187   1.604
 7927SOL     OW24679   4.616   4.527   4.660
 7927SOL    HW124680   4.698   4.534   4.717
 7927SOL    HW224681   4.572   4.439   4.676
 7928SOL     OW24682   1.543   5.300   1.335
 7928SOL    HW124683   1.632   5.279   1.295
 7928SOL    HW224684   1.556   5.356   1.417
 7929SOL     OW24685   3.788   4.082   3.936
 7929SOL    HW124686   3.776   4.094   3.838
 7929SOL    HW224687   3.785   4.172   3.981
 7930SOL     OW24688   5.441   6.051   4.433
 7930SOL    HW124689   5.455   6.150   4.422
 7930SOL    HW224690   5.525   6.003   4.412
 7931SOL     OW24691   1.671   2.935   0.774
 7931SOL    HW124692   1.583   2.973   0.802
 7931SOL    HW224693   1.731   2.928   0.854
 7932SOL     OW24694   3.332   6.958   1.050
 7932SOL    HW124695   3.259   6.896   1.020
 7932SOL    HW224696   3.336   6.958   1.150
 7933SOL     OW24697   1.433   0.408   0.209
 7933SOL    HW124698   1.410   0.344   0.282
 7933SOL    HW224699   1.473   0.491   0.248
 7934SOL     OW24700   3.085   3.548   5.716
 7934SOL    HW124701   3.109   3.556   5.813
 7934SOL    HW224702   3.164   3.571   5.660
 7935SOL     OW24703   4.409   6.269   1.491
 7935SOL    HW124704   4.359   6.338   1.543
 7935SOL    HW224705   4.400   6.288   1.393
 7936SOL     OW24706   4.483   5.781   3.050
 7936SOL    HW124707   4.458   5.826   2.964
 7936SOL    HW224708   4.491   5.683   3.036
 7937SOL     OW24709   6.273   6.269   5.915
 7937SOL    HW124710   6.216   6.333   5.863
 7937SOL    HW224711   6.236   6.259   6.008
 7938SOL     OW24712   5.752   4.529   4.535
 7938SOL    HW124713   5.838   4.488   4.506
 7938SOL    HW224714   5.757   4.629   4.524
 7939SOL     OW24715   0.835   0.491   4.656
 7939SOL    HW124716   0.769   0.563   4.635
 7939SOL    HW224717   0.898   0.479   4.579
 7940SOL     OW24718   1.736   5.843   0.825
 7940SOL    HW124719   1.751   5.928   0.775
 7940SOL    HW224720   1.803   5.775   0.795
 7941SOL     OW24721   0.161   0.281   0.263
 7941SOL    HW124722   0.226   0.330   0.321
 7941SOL    HW224723   0.198   0.272   0.171
 7942SOL     OW24724   1.148   0.711   0.960
 7942SOL    HW124725   1.169   0.802   0.925
 7942SOL    HW224726   1.204   0.692   1.041
 7943SOL     OW24727   5.515   2.234   1.101
 7943SOL    HW124728   5.615   2.237   1.109
 7943SOL    HW224729   5.477   2.324   1.121
 7944SOL     OW24730   0.620   4.343   2.065
 7944SOL    HW124731   0.713   4.336   2.099
 7944SOL    HW224732   0.595   4.440   2.057
 7945SOL     OW24733   5.386   6.555   1.542
 7945SOL    HW124734   5.439   6.502   1.476
 7945SOL    HW224735   5.345   6.494   1.610
 7946SOL     OW24736   1.593   1.876   5.588
 7946SOL    HW124737   1.565   1.784   5.561
 7946SOL    HW224738   1.580   1.939   5.512
 7947SOL     OW24739   3.768   3.927   6.433
 7947SOL    HW124740   3.709   3.852   6.403
 7947SOL    HW224741   3.713   4.001   6.471
 7948SOL     OW24742   0.697   5.724   0.141
 7948SOL    HW124743   0.738   5.694   0.055
 7948SOL    HW224744   0.619   5.666   0.163
 7949SOL     OW24745   6.232   4.341   4.173
 7949SOL    HW124746   6.231   4.438   4.199
 7949SOL    HW224747   6.267   4.332   4.080
 7950SOL     OW24748   3.101   5.195   4.491
 7950SOL    HW124749   3.133   5.170   4.583
 7950SOL    HW224750   3.010   5.235   4.497
 7951SOL     OW24751   2.694   3.115   1.260
 7951SOL    HW124752   2.601   3.112   1.298
 7951SOL    HW224753   2.752   3.174   1.316
 7952SOL     OW24754   5.083   3.986   0.321
 7952SOL    HW124755   5.004   4.012   0.376
 7952SOL    HW224756   5.146   3.932   0.378
 7953SOL     OW24757   2.204   2.937   2.577
 7953SOL    HW124758   2.120   2.883   2.577
 7953SOL    HW224759   2.243   2.937   2.669
 7954SOL     OW24760   5.118   5.558   5.159
 7954SOL    HW124761   5.088   5.475   5.111
 7954SOL    HW224762   5.112   5.636   5.098
 7955SOL     OW24763   0.982   6.338   5.714
 7955SOL    HW124764   0.929   6.420   5.691
 7955SOL    HW224765   1.074   6.365   5.741
 7956SOL     OW24766   5.854   7.010   3.464
 7956SOL    HW124767   5.891   0.073   3.480
 7956SOL    HW224768   5.777   6.994   3.526
 7957SOL     OW24769   0.839   2.968   0.919
 7957SOL    HW124770   0.869   2.875   0.899
 7957SOL    HW224771   0.756   2.965   0.974
 7958SOL     OW24772   2.164   5.581   2.709
 7958SOL    HW124773   2.172   5.513   2.636
 7958SOL    HW224774   2.224   5.556   2.784
 7959SOL     OW24775   5.218   5.006   0.990
 7959SOL    HW124776   5.231   5.105   0.978
 7959SOL    HW224777   5.295   4.968   1.040
 7960SOL     OW24778   2.424   2.253   0.894
 7960SOL    HW124779   2.339   2.207   0.868
 7960SOL    HW224780   2.500   2.188   0.889
 7961SOL     OW24781   1.931   5.378   6.593
 7961SOL    HW124782   1.950   5.285   6.562
 7961SOL    HW224783   2.002   5.440   6.558
 7962SOL     OW24784   1.479   0.581   2.386
 7962SOL    HW124785   1.541   0.605   2.312
 7962SOL    HW224786   1.498   0.489   2.419
 7963SOL     OW24787   0.664   0.447   4.909
 7963SOL    HW124788   0.710   0.447   4.821
 7963SOL    HW224789   0.697   0.524   4.964
 7964SOL     OW24790   6.361   5.905   3.235
 7964SOL    HW124791   6.410   5.839   3.179
 7964SOL    HW224792   6.422   5.940   3.306
 7965SOL     OW24793   5.686   2.051   0.338
 7965SOL    HW124794   5.739   2.041   0.255
 7965SOL    HW224795   5.596   2.089   0.316
 7966SOL     OW24796   0.217   4.928   3.740
 7966SOL    HW124797   0.223   4.995   3.814
 7966SOL    HW224798   0.249   4.970   3.655
 7967SOL     OW24799   2.763   6.046   2.662
 7967SOL    HW124800   2.842   5.986   2.675
 7967SOL    HW224801   2.729   6.076   2.750
 7968SOL     OW24802   1.640   1.074   1.613
 7968SOL    HW124803   1.648   1.026   1.701
 7968SOL    HW224804   1.584   1.156   1.625
 7969SOL     OW24805   3.358   2.102   3.023
 7969SOL    HW124806   3.313   2.082   2.936
 7969SOL    HW224807   3.453   2.126   3.006
 7970SOL     OW24808   0.651   4.763   3.252
 7970SOL    HW124809   0.626   4.681   3.200
 7970SOL    HW224810   0.744   4.752   3.288
 7971SOL     OW24811   2.680   1.211   1.600
 7971SOL    HW124812   2.601   1.187   1.544
 7971SOL    HW224813   2.703   1.135   1.661
 7972SOL     OW24814   0.468   4.811   2.213
 7972SOL    HW124815   0.442   4.760   2.295
 7972SOL    HW224816   0.418   4.898   2.210
 7973SOL     OW24817   4.244   2.248   2.768
 7973SOL    HW124818   4.191   2.169   2.798
 7973SOL    HW224819   4.281   2.296   2.847
 7974SOL     OW24820   5.194   0.378   4.394
 7974SOL    HW124821   5.207   0.461   4.340
 7974SOL    HW224822   5.266   0.373   4.464
 7975SOL     OW24823   2.782   1.292   3.792
 7975SOL    HW124824   2.683   1.278   3.795
 7975SOL    HW224825   2.802   1.386   3.763
 7976SOL     OW24826   0.673   5.344   6.545
 7976SOL    HW124827   0.596   5.307   6.597
 7976SOL    HW224828   0.730   5.269   6.513
 7977SOL     OW24829   5.301   6.120   1.380
 7977SOL    HW124830   5.373   6.121   1.449
 7977SOL    HW224831   5.339   6.094   1.291
 7978SOL     OW24832   4.609   2.705   5.629
 7978SOL    HW124833   4.511   2.715   5.611
 7978SOL    HW224834   4.659   2.771   5.574
 7979SOL     OW24835   3.710   0.067   4.250
 7979SOL    HW124836   3.766   0.008   4.309
 7979SOL    HW224837   3.724   0.040   4.154
 7980SOL     OW24838   2.946   6.248   2.025
 7980SOL    HW124839   2.924   6.329   2.079
 7980SOL    HW224840   3.029   6.265   1.971
 7981SOL     OW24841   1.212   5.440   3.298
 7981SOL    HW124842   1.236   5.344   3.286
 7981SOL    HW224843   1.155   5.470   3.221
 7982SOL     OW24844   6.248   2.703   0.520
 7982SOL    HW124845   6.220   2.749   0.435
 7982SOL    HW224846   6.211   2.753   0.598
 7983SOL     OW24847   5.313   2.545   2.213
 7983SOL    HW124848   5.232   2.560   2.269
 7983SOL    HW224849   5.313   2.450   2.179
 7984SOL     OW24850   0.560   0.941   1.132
 7984SOL    HW124851   0.580   0.940   1.230
 7984SOL    HW224852   0.467   0.977   1.118
 7985SOL     OW24853   0.573   1.240   1.824
 7985SOL    HW124854   0.612   1.267   1.737
 7985SOL    HW224855   0.482   1.201   1.809
 7986SOL     OW24856   3.885   1.672   0.897
 7986SOL    HW124857   3.844   1.625   0.819
 7986SOL    HW224858   3.944   1.746   0.864
 7987SOL     OW24859   0.540   3.151   4.664
 7987SOL    HW124860   0.482   3.230   4.681
 7987SOL    HW224861   0.482   3.072   4.641
 7988SOL     OW24862   2.809   1.552   5.755
 7988SOL    HW124863   2.793   1.594   5.665
 7988SOL    HW224864   2.864   1.469   5.744
 7989SOL     OW24865   2.985   2.955   5.379
 7989SOL    HW124866   2.904   2.923   5.428
 7989SOL    HW224867   3.058   2.887   5.387
 7990SOL     OW24868   1.985   2.397   5.201
 7990SOL    HW124869   2.027   2.308   5.181
 7990SOL    HW224870   1.986   2.413   5.299
 7991SOL     OW24871   0.775   3.128   5.578
 7991SOL    HW124872   0.855   3.117   5.519
 7991SOL    HW224873   0.717   3.047   5.571
 7992SOL     OW24874   2.603   0.697   0.703
 7992SOL    HW124875   2.643   0.700   0.611
 7992SOL    HW224876   2.672   0.668   0.769
 7993SOL     OW24877   1.756   7.027   6.588
 7993SOL    HW124878   1.780   0.046   6.672
 7993SOL    HW224879   1.787   6.932   6.593
 7994SOL     OW24880   5.661   0.872   3.548
 7994SOL    HW124881   5.631   0.788   3.593
 7994SOL    HW224882   5.670   0.945   3.616
 7995SOL     OW24883   3.715   5.012   2.965
 7995SOL    HW124884   3.758   5.092   3.006
 7995SOL    HW224885   3.664   4.961   3.034
 7996SOL     OW24886   3.646   0.450   4.891
 7996SOL    HW124887   3.686   0.442   4.982
 7996SOL    HW224888   3.718   0.444   4.822
 7997SOL     OW24889   5.883   2.544   1.544
 7997SOL    HW124890   5.802   2.486   1.533
 7997SOL    HW224891   5.939   2.538   1.462
 7998SOL     OW24892   6.150   5.050   6.928
 7998SOL    HW124893   6.164   5.139   6.885
 7998SOL    HW224894   6.071   5.054   6.989
 7999SOL     OW24895   1.512   0.561   5.401
 7999SOL    HW124896   1.577   0.638   5.394
 7999SOL    HW224897   1.528   0.498   5.325
 8000SOL     OW24898   6.285   6.682   5.918
 8000SOL    HW124899   6.279   6.714   6.013
 8000SOL    HW224900   6.215   6.613   5.902
 8001SOL     OW24901   2.232   6.999   1.315
 8001SOL    HW124902   2.219   6.984   1.217
 8001SOL    HW224903   2.143   7.010   1.359
 8002SOL     OW24904   5.682   3.022   5.600
 8002SOL    HW124905   5.713   3.056   5.511
 8002SOL    HW224906   5.751   2.959   5.636
 8003SOL     OW24907   3.791   5.256   3.089
 8003SOL    HW124908   3.784   5.261   3.189
 8003SOL    HW224909   3.827   5.343   3.054
 8004SOL     OW24910   1.718   3.928   2.889
 8004SOL    HW124911   1.649   3.995   2.860
 8004SOL    HW224912   1.762   3.889   2.808
 8005SOL     OW24913   3.112   1.154   1.400
 8005SOL    HW124914   3.042   1.218   1.432
 8005SOL    HW224915   3.131   1.170   1.303
 8006SOL     OW24916   3.455   5.879   0.286
 8006SOL    HW124917   3.429   5.961   0.335
 8006SOL    HW224918   3.520   5.902   0.213
 8007SOL     OW24919   0.303   0.981   4.574
 8007SOL    HW124920   0.304   0.939   4.664
 8007SOL    HW224921   0.394   0.973   4.532
 8008SOL     OW24922   6.451   6.310   0.820
 8008SOL    HW124923   6.504   6.323   0.737
 8008SOL    HW224924   6.502   6.345   0.899
 8009SOL     OW24925   6.736   6.623   3.760
 8009SOL    HW124926   6.648   6.659   3.730
 8009SOL    HW224927   6.761   6.545   3.702
 8010SOL     OW24928   2.418   2.759   6.536
 8010SOL    HW124929   2.320   2.779   6.534
 8010SOL    HW224930   2.432   2.660   6.530
 8011SOL     OW24931   2.631   2.357   0.410
 8011SOL    HW124932   2.665   2.301   0.486
 8011SOL    HW224933   2.531   2.349   0.406
 8012SOL     OW24934   2.800   7.006   2.712
 8012SOL    HW124935   2.811   7.027   2.809
 8012SOL    HW224936   2.890   6.993   2.671
 8013SOL     OW24937   5.998   4.457   5.034
 8013SOL    HW124938   5.954   4.379   4.990
 8013SOL    HW224939   6.031   4.520   4.964
 8014SOL     OW24940   2.086   6.742   6.721
 8014SOL    HW124941   2.005   6.779   6.675
 8014SOL    HW224942   2.085   6.769   6.818
 8015SOL     OW24943   1.875   2.578   0.344
 8015SOL    HW124944   1.797   2.632   0.376
 8015SOL    HW224945   1.949   2.639   0.315
 8016SOL     OW24946   3.572   6.315   1.710
 8016SOL    HW124947   3.473   6.312   1.698
 8016SOL    HW224948   3.610   6.393   1.659
 8017SOL     OW24949   5.801   4.362   4.259
 8017SOL    HW124950   5.880   4.353   4.320
 8017SOL    HW224951   5.802   4.452   4.216
 8018SOL     OW24952   5.752   2.238   4.847
 8018SOL    HW124953   5.705   2.325   4.863
 8018SOL    HW224954   5.685   2.164   4.844
 8019SOL     OW24955   2.860   5.695   0.895
 8019SOL    HW124956   2.915   5.779   0.898
 8019SOL    HW224957   2.767   5.717   0.867
 8020SOL     OW24958   5.749   5.656   6.787
 8020SOL    HW124959   5.842   5.691   6.783
 8020SOL    HW224960   5.684   5.731   6.777
 8021SOL     OW24961   0.945   0.567   0.821
 8021SOL    HW124962   0.986   0.627   0.890
 8021SOL    HW224963   1.002   0.486   0.810
 8022SOL     OW24964   4.668   6.213   3.217
 8022SOL    HW124965   4.751   6.230   3.163
 8022SOL    HW224966   4.656   6.115   3.229
 8023SOL     OW24967   6.632   6.957   3.142
 8023SOL    HW124968   6.700   6.981   3.211
 8023SOL    HW224969   6.583   0.010   3.114
 8024SOL     OW24970   4.450   5.340   5.080
 8024SOL    HW124971   4.487   5.247   5.074
 8024SOL    HW224972   4.396   5.359   4.998
 8025SOL     OW24973   3.791   5.476   0.008
 8025SOL    HW124974   3.784   5.427   0.095
 8025SOL    HW224975   3.774   5.573   0.023
 8026SOL     OW24976   0.964   2.959   0.383
 8026SOL    HW124977   1.020   3.018   0.440
 8026SOL    HW224978   0.949   2.872   0.429
 8027SOL     OW24979   5.312   3.054   5.842
 8027SOL    HW124980   5.238   3.064   5.776
 8027SOL    HW224981   5.372   3.134   5.836
 8028SOL     OW24982   5.736   4.532   6.614
 8028SOL    HW124983   5.800   4.495   6.682
 8028SOL    HW224984   5.765   4.624   6.587
 8029SOL     OW24985   2.900   4.295   0.965
 8029SOL    HW124986   2.851   4.352   0.899
 8029SOL    HW224987   2.872   4.200   0.954
 8030SOL     OW24988   6.086   3.959   6.659
 8030SOL    HW124989   6.113   4.047   6.699
 8030SOL    HW224990   5.989   3.943   6.675
 8031SOL     OW24991   3.748   5.675   1.502
 8031SOL    HW124992   3.803   5.677   1.419
 8031SOL    HW224993   3.691   5.593   1.502
 8032SOL     OW24994   5.026   4.057   5.971
 8032SOL    HW124995   5.071   4.133   6.019
 8032SOL    HW224996   4.980   4.092   5.889
 8033SOL     OW24997   5.753   2.800   0.223
 8033SOL    HW124998   5.787   2.731   0.158
 8033SOL    HW224999   5.680   2.759   0.278
 8034SOL     OW25000   6.061   1.054   5.888
 8034SOL    HW125001   5.966   1.061   5.919
 8034SOL    HW225002   6.120   1.107   5.948
 8035SOL     OW25003   5.593   6.516   6.872
 8035SOL    HW125004   5.516   6.481   6.926
 8035SOL    HW225005   5.563   6.597   6.821
 8036SOL     OW25006   1.902   4.188   1.718
 8036SOL    HW125007   1.951   4.260   1.767
 8036SOL    HW225008   1.966   4.114   1.696
 8037SOL     OW25009   1.564   3.292   1.860
 8037SOL    HW125010   1.610   3.380   1.873
 8037SOL    HW225011   1.631   3.223   1.832
 8038SOL     OW25012   6.749   2.097   4.416
 8038SOL    HW125013   6.815   2.063   4.350
 8038SOL    HW225014   6.663   2.047   4.407
 8039SOL     OW25015   2.456   6.795   3.892
 8039SOL    HW125016   2.449   6.786   3.792
 8039SOL    HW225017   2.544   6.836   3.915
 8040SOL     OW25018   0.126   5.766   0.887
 8040SOL    HW125019   0.085   5.850   0.923
 8040SOL    HW225020   0.117   5.693   0.955
 8041SOL     OW25021   4.822   1.794   0.777
 8041SOL    HW125022   4.834   1.890   0.754
 8041SOL    HW225023   4.735   1.782   0.825
 8042SOL     OW25024   3.057   3.449   1.421
 8042SOL    HW125025   3.054   3.441   1.321
 8042SOL    HW225026   2.986   3.392   1.461
 8043SOL     OW25027   2.507   0.034   2.010
 8043SOL    HW125028   2.416   7.023   1.996
 8043SOL    HW225029   2.545   0.001   2.096
 8044SOL     OW25030   3.033   3.698   2.166
 8044SOL    HW125031   3.109   3.635   2.152
 8044SOL    HW225032   2.961   3.652   2.219
 8045SOL     OW25033   6.007   2.772   3.300
 8045SOL    HW125034   5.923   2.813   3.337
 8045SOL    HW225035   6.085   2.802   3.355
 8046SOL     OW25036   6.761   4.935   6.172
 8046SOL    HW125037   6.819   4.883   6.111
 8046SOL    HW225038   6.817   4.983   6.240
 8047SOL     OW25039   3.578   6.087   4.337
 8047SOL    HW125040   3.618   6.166   4.384
 8047SOL    HW225041   3.508   6.119   4.273
 8048SOL     OW25042   6.727   6.991   5.935
 8048SOL    HW125043   6.628   6.976   5.941
 8048SOL    HW225044   6.774   6.903   5.928
 8049SOL     OW25045   1.446   5.544   0.685
 8049SOL    HW125046   1.453   5.602   0.766
 8049SOL    HW225047   1.479   5.595   0.605
 8050SOL     OW25048   1.397   2.832   1.117
 8050SOL    HW125049   1.419   2.739   1.145
 8050SOL    HW225050   1.401   2.839   1.017
 8051SOL     OW25051   4.573   1.495   3.774
 8051SOL    HW125052   4.478   1.525   3.787
 8051SOL    HW225053   4.616   1.481   3.863
 8052SOL     OW25054   2.601   1.659   2.804
 8052SOL    HW125055   2.648   1.591   2.861
 8052SOL    HW225056   2.553   1.612   2.729
 8053SOL     OW25057   3.930   3.438   2.318
 8053SOL    HW125058   3.878   3.510   2.365
 8053SOL    HW225059   3.900   3.348   2.352
 8054SOL     OW25060   3.971   6.315   4.756
 8054SOL    HW125061   4.062   6.315   4.716
 8054SOL    HW225062   3.978   6.325   4.855
 8055SOL     OW25063   1.506   6.902   5.634
 8055SOL    HW125064   1.527   6.998   5.617
 8055SOL    HW225065   1.406   6.890   5.637
 8056SOL     OW25066   4.204   1.908   3.351
 8056SOL    HW125067   4.136   1.880   3.284
 8056SOL    HW225068   4.204   1.845   3.428
 8057SOL     OW25069   3.435   6.771   3.618
 8057SOL    HW125070   3.417   6.772   3.716
 8057SOL    HW225071   3.534   6.772   3.602
 8058SOL     OW25072   2.042   1.152   3.370
 8058SOL    HW125073   2.074   1.060   3.392
 8058SOL    HW225074   1.991   1.189   3.448
 8059SOL     OW25075   3.164   1.624   3.983
 8059SOL    HW125076   3.078   1.637   4.033
 8059SOL    HW225077   3.210   1.542   4.018
 8060SOL     OW25078   0.517   1.536   4.750
 8060SOL    HW125079   0.558   1.445   4.751
 8060SOL    HW225080   0.427   1.533   4.793
 8061SOL     OW25081   0.544   5.526   1.844
 8061SOL    HW125082   0.460   5.518   1.790
 8061SOL    HW225083   0.521   5.551   1.939
 8062SOL     OW25084   1.839   3.868   3.336
 8062SOL    HW125085   1.825   3.794   3.401
 8062SOL    HW225086   1.849   3.954   3.385
 8063SOL     OW25087   3.158   3.214   0.250
 8063SOL    HW125088   3.146   3.279   0.326
 8063SOL    HW225089   3.087   3.144   0.254
 8064SOL     OW25090   6.994   3.539   0.062
 8064SOL    HW125091   7.004   3.519   6.994
 8064SOL    HW225092   0.054   3.533   0.107
 8065SOL     OW25093   4.761   0.225   5.564
 8065SOL    HW125094   4.788   0.240   5.469
 8065SOL    HW225095   4.790   0.134   5.593
 8066SOL     OW25096   1.645   0.596   1.468
 8066SOL    HW125097   1.663   0.682   1.420
 8066SOL    HW225098   1.555   0.561   1.443
 8067SOL     OW25099   5.438   2.493   1.402
 8067SOL    HW125100   5.402   2.584   1.422
 8067SOL    HW225101   5.532   2.486   1.437
 8068SOL     OW25102   1.047   4.340   4.618
 8068SOL    HW125103   0.967   4.286   4.643
 8068SOL    HW225104   1.019   4.435   4.601
 8069SOL     OW25105   1.779   6.365   1.953
 8069SOL    HW125106   1.829   6.375   1.867
 8069SOL    HW225107   1.820   6.424   2.023
 8070SOL     OW25108   3.836   0.637   1.459
 8070SOL    HW125109   3.796   0.562   1.407
 8070SOL    HW225110   3.882   0.700   1.397
 8071SOL     OW25111   4.153   6.608   6.985
 8071SOL    HW125112   4.100   6.528   7.012
 8071SOL    HW225113   4.155   6.614   6.885
 8072SOL     OW25114   5.313   0.795   1.372
 8072SOL    HW125115   5.233   0.783   1.314
 8072SOL    HW225116   5.311   0.887   1.412
 8073SOL     OW25117   4.338   6.410   5.718
 8073SOL    HW125118   4.433   6.387   5.743
 8073SOL    HW225119   4.316   6.501   5.752
 8074SOL     OW25120   3.153   3.847   0.070
 8074SOL    HW125121   3.062   3.878   0.042
 8074SOL    HW225122   3.194   3.916   0.130
 8075SOL     OW25123   6.480   1.860   2.453
 8075SOL    HW125124   6.529   1.773   2.443
 8075SOL    HW225125   6.388   1.850   2.416
 8076SOL     OW25126   6.041   3.184   6.155
 8076SOL    HW125127   5.951   3.157   6.121
 8076SOL    HW225128   6.031   3.235   6.240
 8077SOL     OW25129   1.530   0.616   0.933
 8077SOL    HW125130   1.436   0.608   0.900
 8077SOL    HW225131   1.594   0.584   0.863
 8078SOL     OW25132   6.364   3.458   0.649
 8078SOL    HW125133   6.338   3.454   0.746
 8078SOL    HW225134   6.426   3.381   0.628
 8079SOL     OW25135   6.838   1.572   2.242
 8079SOL    HW125136   6.835   1.667   2.272
 8079SOL    HW225137   6.932   1.537   2.249
 8080SOL     OW25138   3.686   5.040   0.285
 8080SOL    HW125139   3.647   5.075   0.370
 8080SOL    HW225140   3.615   4.995   0.231
 8081SOL     OW25141   5.841   0.701   5.569
 8081SOL    HW125142   5.782   0.764   5.619
 8081SOL    HW225143   5.829   0.608   5.604
 8082SOL     OW25144   6.676   3.228   4.078
 8082SOL    HW125145   6.644   3.264   4.166
 8082SOL    HW225146   6.598   3.191   4.027
 8083SOL     OW25147   4.689   2.666   3.942
 8083SOL    HW125148   4.703   2.759   3.977
 8083SOL    HW225149   4.629   2.670   3.862
 8084SOL     OW25150   6.704   6.924   0.843
 8084SOL    HW125151   6.773   6.908   0.773
 8084SOL    HW225152   6.744   6.979   0.917
 8085SOL     OW25153   5.857   1.612   1.195
 8085SOL    HW125154   5.943   1.563   1.186
 8085SOL    HW225155   5.844   1.638   1.291
 8086SOL     OW25156   3.412   0.024   5.462
 8086SOL    HW125157   3.450   0.082   5.534
 8086SOL    HW225158   3.481   0.011   5.390
 8087SOL     OW25159   3.216   3.076   1.622
 8087SOL    HW125160   3.293   3.139   1.625
 8087SOL    HW225161   3.152   3.099   1.696
 8088SOL     OW25162   3.882   1.027   3.230
 8088SOL    HW125163   3.883   1.097   3.302
 8088SOL    HW225164   3.792   0.985   3.225
 8089SOL     OW25165   5.676   3.096   0.208
 8089SOL    HW125166   5.582   3.107   0.176
 8089SOL    HW225167   5.710   3.005   0.184
 8090SOL     OW25168   4.968   2.493   5.264
 8090SOL    HW125169   4.944   2.447   5.179
 8090SOL    HW225170   4.889   2.542   5.299
 8091SOL     OW25171   3.522   4.863   5.853
 8091SOL    HW125172   3.501   4.875   5.950
 8091SOL    HW225173   3.474   4.932   5.799
 8092SOL     OW25174   1.124   1.817   4.174
 8092SOL    HW125175   1.052   1.833   4.106
 8092SOL    HW225176   1.159   1.725   4.165
 8093SOL     OW25177   5.521   5.808   1.196
 8093SOL    HW125178   5.509   5.795   1.294
 8093SOL    HW225179   5.442   5.859   1.160
 8094SOL     OW25180   0.809   3.329   5.290
 8094SOL    HW125181   0.762   3.249   5.324
 8094SOL    HW225182   0.905   3.327   5.319
 8095SOL     OW25183   5.633   3.834   4.287
 8095SOL    HW125184   5.539   3.855   4.317
 8095SOL    HW225185   5.696   3.897   4.331
 8096SOL     OW25186   3.842   6.113   1.436
 8096SOL    HW125187   3.757   6.121   1.487
 8096SOL    HW225188   3.862   6.016   1.420
 8097SOL     OW25189   5.178   1.386   4.329
 8097SOL    HW125190   5.217   1.416   4.242
 8097SOL    HW225191   5.106   1.319   4.312
 8098SOL     OW25192   3.031   6.679   3.839
 8098SOL    HW125193   2.974   6.743   3.788
 8098SOL    HW225194   3.074   6.726   3.916
 8099SOL     OW25195   5.419   6.592   4.700
 8099SOL    HW125196   5.421   6.494   4.681
 8099SOL    HW225197   5.381   6.641   4.621
 8100SOL     OW25198   0.768   6.556   0.662
 8100SOL    HW125199   0.780   6.540   0.564
 8100SOL    HW225200   0.671   6.559   0.683
 8101SOL     OW25201   1.754   6.101   3.584
 8101SOL    HW125202   1.656   6.120   3.573
 8101SOL    HW225203   1.766   6.033   3.657
 8102SOL     OW25204   0.236   5.708   6.110
 8102SOL    HW125205   0.235   5.738   6.206
 8102SOL    HW225206   0.287   5.775   6.056
 8103SOL     OW25207   2.880   1.614   2.507
 8103SOL    HW125208   2.838   1.701   2.532
 8103SOL    HW225209   2.852   1.589   2.414
 8104SOL     OW25210   2.126   6.612   6.239
 8104SOL    HW125211   2.078   6.686   6.287
 8104SOL    HW225212   2.132   6.633   6.142
 8105SOL     OW25213   1.469   1.969   2.922
 8105SOL    HW125214   1.555   1.995   2.878
 8105SOL    HW225215   1.408   1.928   2.854
 8106SOL     OW25216   0.759   4.022   4.178
 8106SOL    HW125217   0.786   4.118   4.185
 8106SOL    HW225218   0.755   3.995   4.082
 8107SOL     OW25219   1.868   6.278   6.143
 8107SOL    HW125220   1.778   6.313   6.119
 8107SOL    HW225221   1.865   6.178   6.146
 8108SOL     OW25222   1.268   2.762   4.102
 8108SOL    HW125223   1.300   2.668   4.091
 8108SOL    HW225224   1.274   2.788   4.198
 8109SOL     OW25225   1.653   5.143   5.222
 8109SOL    HW125226   1.689   5.152   5.129
 8109SOL    HW225227   1.702   5.070   5.270
 8110SOL     OW25228   1.888   4.762   1.406
 8110SOL    HW125229   1.811   4.717   1.361
 8110SOL    HW225230   1.960   4.778   1.338
 8111SOL     OW25231   2.457   5.656   4.441
 8111SOL    HW125232   2.488   5.563   4.425
 8111SOL    HW225233   2.499   5.718   4.374
 8112SOL     OW25234   3.023   1.005   5.017
 8112SOL    HW125235   3.037   0.906   5.008
 8112SOL    HW225236   3.058   1.036   5.106
 8113SOL     OW25237   3.914   2.895   5.912
 8113SOL    HW125238   3.888   2.848   5.827
 8113SOL    HW225239   3.892   2.836   5.990
 8114SOL     OW25240   2.648   3.669   1.340
 8114SOL    HW125241   2.647   3.570   1.354
 8114SOL    HW225242   2.673   3.689   1.245
 8115SOL     OW25243   3.619   1.736   1.001
 8115SOL    HW125244   3.629   1.822   0.952
 8115SOL    HW225245   3.693   1.674   0.975
 8116SOL     OW25246   6.162   0.746   5.527
 8116SOL    HW125247   6.183   0.840   5.554
 8116SOL    HW225248   6.063   0.734   5.521
 8117SOL     OW25249   2.324   1.868   5.941
 8117SOL    HW125250   2.367   1.897   5.856
 8117SOL    HW225251   2.394   1.856   6.012
 8118SOL     OW25252   1.065   2.932   4.483
 8118SOL    HW125253   1.047   2.939   4.581
 8118SOL    HW225254   0.993   2.876   4.440
 8119SOL     OW25255   1.007   6.148   2.821
 8119SOL    HW125256   1.058   6.143   2.906
 8119SOL    HW225257   1.003   6.243   2.790
 8120SOL     OW25258   4.476   3.825   1.531
 8120SOL    HW125259   4.393   3.806   1.478
 8120SOL    HW225260   4.474   3.919   1.564
 8121SOL     OW25261   6.893   7.005   2.721
 8121SOL    HW125262   6.818   7.004   2.655
 8121SOL    HW225263   6.947   6.922   2.711
 8122SOL     OW25264   0.057   6.772   1.662
 8122SOL    HW125265   6.998   6.788   1.617
 8122SOL    HW225266   0.075   6.846   1.726
 8123SOL     OW25267   0.694   5.919   0.325
 8123SOL    HW125268   0.612   5.971   0.302
 8123SOL    HW225269   0.696   5.835   0.271
 8124SOL     OW25270   0.759   6.196   2.750
 8124SOL    HW125271   0.709   6.215   2.835
 8124SOL    HW225272   0.857   6.199   2.768
 8125SOL     OW25273   5.453   5.411   2.761
 8125SOL    HW125274   5.408   5.379   2.845
 8125SOL    HW225275   5.541   5.451   2.784
 8126SOL     OW25276   5.619   4.905   1.971
 8126SOL    HW125277   5.674   4.828   2.004
 8126SOL    HW225278   5.606   4.971   2.045
 8127SOL     OW25279   3.318   4.338   0.780
 8127SOL    HW125280   3.224   4.373   0.771
 8127SOL    HW225281   3.332   4.266   0.712
 8128SOL     OW25282   3.786   2.600   5.333
 8128SOL    HW125283   3.874   2.627   5.293
 8128SOL    HW225284   3.717   2.668   5.308
 8129SOL     OW25285   4.772   7.020   6.764
 8129SOL    HW125286   4.776   0.066   6.830
 8129SOL    HW225287   4.681   7.014   6.724
 8130SOL     OW25288   1.542   6.596   0.521
 8130SOL    HW125289   1.473   6.643   0.465
 8130SOL    HW225290   1.504   6.577   0.611
 8131SOL     OW25291   1.719   1.680   0.495
 8131SOL    HW125292   1.756   1.690   0.403
 8131SOL    HW225293   1.723   1.584   0.523
 8132SOL     OW25294   6.639   5.161   3.341
 8132SOL    HW125295   6.729   5.169   3.383
 8132SOL    HW225296   6.630   5.228   3.267
 8133SOL     OW25297   0.887   5.619   2.171
 8133SOL    HW125298   0.915   5.641   2.077
 8133SOL    HW225299   0.838   5.697   2.210
 8134SOL     OW25300   2.234   2.259   2.221
 8134SOL    HW125301   2.204   2.336   2.276
 8134SOL    HW225302   2.162   2.235   2.156
 8135SOL     OW25303   4.472   6.109   1.841
 8135SOL    HW125304   4.427   6.076   1.758
 8135SOL    HW225305   4.404   6.122   1.913
 8136SOL     OW25306   4.030   6.184   1.062
 8136SOL    HW125307   4.035   6.109   0.996
 8136SOL    HW225308   4.074   6.156   1.148
 8137SOL     OW25309   2.589   3.747   5.700
 8137SOL    HW125310   2.533   3.697   5.767
 8137SOL    HW225311   2.680   3.706   5.694
 8138SOL     OW25312   4.670   0.807   3.522
 8138SOL    HW125313   4.586   0.780   3.473
 8138SOL    HW225314   4.707   0.889   3.480
 8139SOL     OW25315   1.781   2.862   3.902
 8139SOL    HW125316   1.847   2.932   3.931
 8139SOL    HW225317   1.828   2.774   3.892
 8140SOL     OW25318   4.378   0.666   0.762
 8140SOL    HW125319   4.423   0.730   0.824
 8140SOL    HW225320   4.322   0.602   0.815
 8141SOL     OW25321   5.532   0.555   5.175
 8141SOL    HW125322   5.622   0.595   5.156
 8141SOL    HW225323   5.468   0.581   5.102
 8142SOL     OW25324   2.324   5.695   1.330
 8142SOL    HW125325   2.328   5.641   1.414
 8142SOL    HW225326   2.318   5.792   1.353
 8143SOL     OW25327   6.319   5.318   0.876
 8143SOL    HW125328   6.319   5.343   0.779
 8143SOL    HW225329   6.240   5.361   0.921
 8144SOL     OW25330   0.125   5.003   0.300
 8144SOL    HW125331   0.048   4.942   0.280
 8144SOL    HW225332   0.092   5.085   0.345
 8145SOL     OW25333   5.462   5.317   6.980
 8145SOL    HW125334   5.534   5.383   6.957
 8145SOL    HW225335   5.457   5.306   0.050
 8146SOL     OW25336   6.230   0.319   3.911
 8146SOL    HW125337   6.247   0.416   3.928
 8146SOL    HW225338   6.317   0.270   3.911
 8147SOL     OW25339   2.217   0.794   6.476
 8147SOL    HW125340   2.148   0.727   6.505
 8147SOL    HW225341   2.203   0.880   6.525
 8148SOL     OW25342   4.611   4.838   0.372
 8148SOL    HW125343   4.571   4.887   0.449
 8148SOL    HW225344   4.656   4.903   0.311
 8149SOL     OW25345   0.609   6.046   5.210
 8149SOL    HW125346   0.696   6.074   5.249
 8149SOL    HW225347   0.618   6.037   5.110
 8150SOL     OW25348   0.305   3.967   1.263
 8150SOL    HW125349   0.312   4.030   1.185
 8150SOL    HW225350   0.291   4.019   1.347
 8151SOL     OW25351   6.710   6.233   2.782
 8151SOL    HW125352   6.781   6.260   2.846
 8151SOL    HW225353   6.710   6.133   2.773
 8152SOL     OW25354   4.660   1.115   3.301
 8152SOL    HW125355   4.654   1.210   3.270
 8152SOL    HW225356   4.672   1.055   3.222
 8153SOL     OW25357   0.313   1.224   2.170
 8153SOL    HW125358   0.407   1.197   2.148
 8153SOL    HW225359   0.279   1.288   2.101
 8154SOL     OW25360   1.786   0.227   3.255
 8154SOL    HW125361   1.733   0.275   3.325
 8154SOL    HW225362   1.878   0.265   3.250
 8155SOL     OW25363   2.105   5.493   3.439
 8155SOL    HW125364   2.008   5.514   3.423
 8155SOL    HW225365   2.118   5.394   3.442
 8156SOL     OW25366   0.291   5.233   1.621
 8156SOL    HW125367   0.199   5.251   1.658
 8156SOL    HW225368   0.347   5.190   1.692
 8157SOL     OW25369   0.406   3.400   4.684
 8157SOL    HW125370   0.317   3.359   4.701
 8157SOL    HW225371   0.398   3.468   4.612
 8158SOL     OW25372   6.077   5.362   6.779
 8158SOL    HW125373   6.141   5.413   6.837
 8158SOL    HW225374   5.994   5.343   6.830
 8159SOL     OW25375   3.418   6.954   5.135
 8159SOL    HW125376   3.492   7.012   5.169
 8159SOL    HW225377   3.337   6.965   5.193
 8160SOL     OW25378   5.041   1.388   2.772
 8160SOL    HW125379   4.959   1.354   2.817
 8160SOL    HW225380   5.092   1.311   2.733
 8161SOL     OW25381   5.541   3.203   1.670
 8161SOL    HW125382   5.617   3.225   1.731
 8161SOL    HW225383   5.536   3.104   1.655
 8162SOL     OW25384   0.380   5.419   5.790
 8162SOL    HW125385   0.303   5.423   5.727
 8162SOL    HW225386   0.348   5.432   5.884
 8163SOL     OW25387   4.485   4.300   5.205
 8163SOL    HW125388   4.490   4.290   5.105
 8163SOL    HW225389   4.554   4.243   5.248
 8164SOL     OW25390   5.239   1.624   1.315
 8164SOL    HW125391   5.145   1.659   1.306
 8164SOL    HW225392   5.269   1.635   1.410
 8165SOL     OW25393   0.075   1.210   0.798
 8165SOL    HW125394   0.136   1.243   0.726
 8165SOL    HW225395   0.127   1.200   0.883
 8166SOL     OW25396   1.662   1.469   5.379
 8166SOL    HW125397   1.673   1.387   5.435
 8166SOL    HW225398   1.599   1.533   5.425
 8167SOL     OW25399   1.489   3.084   4.080
 8167SOL    HW125400   1.444   3.120   4.162
 8167SOL    HW225401   1.511   2.987   4.095
 8168SOL     OW25402   2.262   1.032   2.311
 8168SOL    HW125403   2.333   1.072   2.253
 8168SOL    HW225404   2.172   1.048   2.269
 8169SOL     OW25405   4.988   2.803   0.261
 8169SOL    HW125406   5.043   2.751   0.195
 8169SOL    HW225407   4.897   2.762   0.268
 8170SOL     OW25408   6.613   5.201   2.441
 8170SOL    HW125409   6.711   5.183   2.434
 8170SOL    HW225410   6.562   5.121   2.410
 8171SOL     OW25411   2.193   0.929   0.764
 8171SOL    HW125412   2.239   0.843   0.741
 8171SOL    HW225413   2.108   0.910   0.814
 8172SOL     OW25414   0.821   2.521   0.659
 8172SOL    HW125415   0.852   2.596   0.718
 8172SOL    HW225416   0.793   2.443   0.715
 8173SOL     OW25417   5.794   0.946   1.287
 8173SOL    HW125418   5.778   1.044   1.296
 8173SOL    HW225419   5.707   0.897   1.295
 8174SOL     OW25420   2.801   5.021   3.206
 8174SOL    HW125421   2.851   5.107   3.195
 8174SOL    HW225422   2.862   4.944   3.183
 8175SOL     OW25423   0.441   1.336   5.250
 8175SOL    HW125424   0.367   1.386   5.294
 8175SOL    HW225425   0.517   1.326   5.313
 8176SOL     OW25426   2.529   4.380   0.416
 8176SOL    HW125427   2.479   4.322   0.351
 8176SOL    HW225428   2.526   4.338   0.506
 8177SOL     OW25429   3.282   0.973   3.538
 8177SOL    HW125430   3.186   0.999   3.545
 8177SOL    HW225431   3.316   0.945   3.627
 8178SOL     OW25432   2.455   6.631   1.532
 8178SOL    HW125433   2.437   6.683   1.448
 8178SOL    HW225434   2.411   6.677   1.609
 8179SOL     OW25435   5.581   1.172   3.280
 8179SOL    HW125436   5.664   1.203   3.327
 8179SOL    HW225437   5.572   1.073   3.290
 8180SOL     OW25438   5.292   6.618   0.043
 8180SOL    HW125439   5.223   6.673   7.027
 8180SOL    HW225440   5.379   6.668   0.045
 8181SOL     OW25441   0.625   0.494   0.501
 8181SOL    HW125442   0.642   0.507   0.598
 8181SOL    HW225443   0.701   0.444   0.460
 8182SOL     OW25444   2.953   3.562   4.497
 8182SOL    HW125445   3.000   3.487   4.543
 8182SOL    HW225446   2.893   3.524   4.425
 8183SOL     OW25447   0.137   0.010   5.051
 8183SOL    HW125448   0.158   6.941   5.057
 8183SOL    HW225449   0.062   0.032   5.114
 8184SOL     OW25450   0.475   6.175   6.650
 8184SOL    HW125451   0.427   6.193   6.736
 8184SOL    HW225452   0.499   6.077   6.646
 8185SOL     OW25453   0.497   6.122   6.287
 8185SOL    HW125454   0.511   6.188   6.361
 8185SOL    HW225455   0.417   6.148   6.234
 8186SOL     OW25456   1.619   5.646   6.842
 8186SOL    HW125457   1.535   5.698   6.828
 8186SOL    HW225458   1.645   5.651   6.939
 8187SOL     OW25459   0.753   0.608   5.858
 8187SOL    HW125460   0.680   0.669   5.826
 8187SOL    HW225461   0.799   0.649   5.936
 8188SOL     OW25462   2.126   3.110   3.536
 8188SOL    HW125463   2.038   3.156   3.533
 8188SOL    HW225464   2.171   3.117   3.446
 8189SOL     OW25465   5.490   5.641   3.741
 8189SOL    HW125466   5.458   5.557   3.786
 8189SOL    HW225467   5.441   5.719   3.778
 8190SOL     OW25468   6.770   3.976   3.183
 8190SOL    HW125469   6.867   3.986   3.163
 8190SOL    HW225470   6.759   3.931   3.272
 8191SOL     OW25471   3.626   5.836   0.611
 8191SOL    HW125472   3.538   5.873   0.582
 8191SOL    HW225473   3.617   5.798   0.703
 8192SOL     OW25474   0.357   4.961   3.524
 8192SOL    HW125475   0.389   4.879   3.476
 8192SOL    HW225476   0.432   5.001   3.577
 8193SOL     OW25477   0.429   4.426   4.501
 8193SOL    HW125478   0.361   4.481   4.454
 8193SOL    HW225479   0.472   4.362   4.437
 8194SOL     OW25480   4.623   6.578   1.574
 8194SOL    HW125481   4.548   6.642   1.587
 8194SOL    HW225482   4.613   6.533   1.485
 8195SOL     OW25483   6.029   6.387   2.963
 8195SOL    HW125484   5.989   6.447   2.895
 8195SOL    HW225485   6.002   6.292   2.945
 8196SOL     OW25486   4.742   0.829   1.018
 8196SOL    HW125487   4.778   0.849   1.109
 8196SOL    HW225488   4.761   0.734   0.995
 8197SOL     OW25489   3.654   1.587   2.456
 8197SOL    HW125490   3.629   1.563   2.550
 8197SOL    HW225491   3.751   1.610   2.452
 8198SOL     OW25492   1.466   0.238   2.258
 8198SOL    HW125493   1.530   0.182   2.206
 8198SOL    HW225494   1.409   0.292   2.195
 8199SOL     OW25495   5.445   2.909   6.603
 8199SOL    HW125496   5.455   2.918   6.504
 8199SOL    HW225497   5.355   2.872   6.625
 8200SOL     OW25498   4.436   3.201   0.527
 8200SOL    HW125499   4.489   3.259   0.465
 8200SOL    HW225500   4.342   3.236   0.533
 8201SOL     OW25501   6.282   6.694   5.513
 8201SOL    HW125502   6.326   6.616   5.558
 8201SOL    HW225503   6.262   6.670   5.418
 8202SOL     OW25504   0.623   0.042   2.058
 8202SOL    HW125505   0.605   6.981   2.096
 8202SOL    HW225506   0.721   0.051   2.039
 8203SOL     OW25507   1.194   3.480   1.747
 8203SOL    HW125508   1.271   3.485   1.683
 8203SOL    HW225509   1.139   3.399   1.726
 8204SOL     OW25510   2.969   2.678   1.276
 8204SOL    HW125511   2.936   2.612   1.209
 8204SOL    HW225512   2.899   2.748   1.290
 8205SOL     OW25513   1.242   3.799   0.499
 8205SOL    HW125514   1.280   3.885   0.534
 8205SOL    HW225515   1.164   3.772   0.555
 8206SOL     OW25516   3.872   0.445   0.602
 8206SOL    HW125517   3.818   0.440   0.519
 8206SOL    HW225518   3.820   0.492   0.673
 8207SOL     OW25519   4.132   3.447   4.761
 8207SOL    HW125520   4.164   3.432   4.667
 8207SOL    HW225521   4.122   3.545   4.777
 8208SOL     OW25522   2.582   0.437   0.571
 8208SOL    HW125523   2.637   0.354   0.564
 8208SOL    HW225524   2.613   0.491   0.650
 8209SOL     OW25525   5.996   1.085   5.180
 8209SOL    HW125526   5.967   1.128   5.265
 8209SOL    HW225527   6.027   1.155   5.116
 8210SOL     OW25528   1.639   2.778   6.682
 8210SOL    HW125529   1.615   2.684   6.707
 8210SOL    HW225530   1.668   2.828   6.763
 8211SOL     OW25531   3.286   4.503   1.236
 8211SOL    HW125532   3.268   4.408   1.261
 8211SOL    HW225533   3.343   4.546   1.306
 8212SOL     OW25534   1.596   3.018   3.580
 8212SOL    HW125535   1.677   3.062   3.618
 8212SOL    HW225536   1.554   2.961   3.650
 8213SOL     OW25537   0.026   5.143   1.268
 8213SOL    HW125538   0.117   5.110   1.242
 8213SOL    HW225539   7.023   5.208   1.199
 8214SOL     OW25540   5.535   4.332   3.298
 8214SOL    HW125541   5.492   4.411   3.254
 8214SOL    HW225542   5.634   4.337   3.288
 8215SOL     OW25543   3.622   5.799   4.062
 8215SOL    HW125544   3.524   5.816   4.050
 8215SOL    HW225545   3.635   5.731   4.134
 8216SOL     OW25546   5.400   4.180   3.496
 8216SOL    HW125547   5.308   4.216   3.479
 8216SOL    HW225548   5.462   4.211   3.424
 8217SOL     OW25549   2.274   6.095   0.150
 8217SOL    HW125550   2.273   6.014   0.210
 8217SOL    HW225551   2.253   6.067   0.057
 8218SOL     OW25552   0.160   1.512   0.148
 8218SOL    HW125553   0.207   1.432   0.184
 8218SOL    HW225554   0.135   1.573   0.223
 8219SOL     OW25555   6.542   2.304   6.767
 8219SOL    HW125556   6.601   2.367   6.716
 8219SOL    HW225557   6.482   2.255   6.704
 8220SOL     OW25558   3.516   3.617   2.509
 8220SOL    HW125559   3.494   3.519   2.503
 8220SOL    HW225560   3.433   3.669   2.526
 8221SOL     OW25561   5.251   5.627   3.497
 8221SOL    HW125562   5.171   5.627   3.437
 8221SOL    HW225563   5.225   5.594   3.587
 8222SOL     OW25564   5.530   1.607   1.523
 8222SOL    HW125565   5.482   1.550   1.589
 8222SOL    HW225566   5.581   1.550   1.458
 8223SOL     OW25567   0.321   4.665   6.012
 8223SOL    HW125568   0.412   4.707   6.009
 8223SOL    HW225569   0.251   4.737   6.012
 8224SOL     OW25570   0.949   2.669   3.764
 8224SOL    HW125571   1.013   2.597   3.737
 8224SOL    HW225572   0.995   2.731   3.828
 8225SOL     OW25573   4.744   1.256   0.146
 8225SOL    HW125574   4.820   1.210   0.192
 8225SOL    HW225575   4.686   1.188   0.101
 8226SOL     OW25576   5.207   0.271   0.951
 8226SOL    HW125577   5.225   0.367   0.970
 8226SOL    HW225578   5.136   0.264   0.881
 8227SOL     OW25579   6.580   3.387   3.554
 8227SOL    HW125580   6.605   3.294   3.527
 8227SOL    HW225581   6.534   3.433   3.479
 8228SOL     OW25582   6.252   2.673   5.613
 8228SOL    HW125583   6.206   2.655   5.700
 8228SOL    HW225584   6.212   2.616   5.542
 8229SOL     OW25585   3.896   4.986   0.127
 8229SOL    HW125586   3.982   5.037   0.129
 8229SOL    HW225587   3.845   5.003   0.210
 8230SOL     OW25588   5.663   0.586   4.404
 8230SOL    HW125589   5.614   0.529   4.338
 8230SOL    HW225590   5.748   0.619   4.363
 8231SOL     OW25591   5.046   6.210   1.102
 8231SOL    HW125592   5.050   6.191   1.004
 8231SOL    HW225593   5.015   6.129   1.151
 8232SOL     OW25594   3.425   2.555   6.075
 8232SOL    HW125595   3.489   2.556   5.997
 8232SOL    HW225596   3.435   2.640   6.127
 8233SOL     OW25597   0.462   4.998   0.113
 8233SOL    HW125598   0.519   4.989   0.195
 8233SOL    HW225599   0.368   4.969   0.135
 8234SOL     OW25600   3.076   2.635   6.342
 8234SOL    HW125601   2.990   2.587   6.355
 8234SOL    HW225602   3.073   2.688   6.257
 8235SOL     OW25603   3.885   3.779   1.205
 8235SOL    HW125604   3.844   3.796   1.116
 8235SOL    HW225605   3.935   3.692   1.203
 8236SOL     OW25606   6.083   3.049   0.428
 8236SOL    HW125607   6.135   2.999   0.359
 8236SOL    HW225608   5.999   2.999   0.451
 8237SOL     OW25609   4.231   6.361   5.466
 8237SOL    HW125610   4.178   6.445   5.457
 8237SOL    HW225611   4.262   6.351   5.561
 8238SOL     OW25612   1.958   1.939   6.569
 8238SOL    HW125613   1.977   1.994   6.651
 8238SOL    HW225614   1.992   1.846   6.584
 8239SOL     OW25615   0.517   1.668   5.964
 8239SOL    HW125616   0.558   1.757   5.944
 8239SOL    HW225617   0.496   1.662   6.062
 8240SOL     OW25618   3.800   3.933   3.421
 8240SOL    HW125619   3.733   3.862   3.404
 8240SOL    HW225620   3.891   3.892   3.430
 8241SOL     OW25621   3.862   6.710   0.227
 8241SOL    HW125622   3.851   6.736   0.131
 8241SOL    HW225623   3.917   6.778   0.274
 8242SOL     OW25624   1.154   4.431   5.785
 8242SOL    HW125625   1.090   4.466   5.716
 8242SOL    HW225626   1.102   4.394   5.862
 8243SOL     OW25627   0.867   3.614   5.298
 8243SOL    HW125628   0.937   3.592   5.231
 8243SOL    HW225629   0.817   3.531   5.323
 8244SOL     OW25630   0.418   6.772   4.221
 8244SOL    HW125631   0.388   6.682   4.252
 8244SOL    HW225632   0.348   6.812   4.162
 8245SOL     OW25633   3.576   2.335   1.020
 8245SOL    HW125634   3.582   2.260   1.087
 8245SOL    HW225635   3.482   2.340   0.985
 8246SOL     OW25636   5.396   3.604   5.762
 8246SOL    HW125637   5.381   3.671   5.688
 8246SOL    HW225638   5.308   3.565   5.788
 8247SOL     OW25639   0.969   0.269   1.407
 8247SOL    HW125640   1.053   0.323   1.413
 8247SOL    HW225641   0.891   0.330   1.390
 8248SOL     OW25642   5.623   4.632   3.348
 8248SOL    HW125643   5.668   4.719   3.369
 8248SOL    HW225644   5.535   4.628   3.396
 8249SOL     OW25645   2.451   4.770   3.728
 8249SOL    HW125646   2.485   4.682   3.697
 8249SOL    HW225647   2.367   4.793   3.679
 8250SOL     OW25648   3.858   3.933   2.481
 8250SOL    HW125649   3.915   3.964   2.558
 8250SOL    HW225650   3.762   3.938   2.506
 8251SOL     OW25651   6.005   1.998   4.581
 8251SOL    HW125652   5.918   1.977   4.537
 8251SOL    HW225653   6.079   1.989   4.514
 8252SOL     OW25654   1.804   2.767   5.257
 8252SOL    HW125655   1.811   2.856   5.213
 8252SOL    HW225656   1.878   2.708   5.225
 8253SOL     OW25657   3.466   2.979   5.069
 8253SOL    HW125658   3.484   3.031   4.986
 8253SOL    HW225659   3.367   2.972   5.084
 8254SOL     OW25660   3.619   5.615   3.670
 8254SOL    HW125661   3.619   5.549   3.745
 8254SOL    HW225662   3.525   5.636   3.645
 8255SOL     OW25663   4.561   5.708   4.104
 8255SOL    HW125664   4.548   5.767   4.024
 8255SOL    HW225665   4.573   5.765   4.185
 8256SOL     OW25666   6.886   1.658   4.371
 8256SOL    HW125667   6.874   1.583   4.307
 8256SOL    HW225668   6.942   1.628   4.448
 8257SOL     OW25669   6.297   5.035   3.420
 8257SOL    HW125670   6.327   5.042   3.325
 8257SOL    HW225671   6.210   5.083   3.431
 8258SOL     OW25672   3.980   1.497   6.988
 8258SOL    HW125673   4.017   1.514   0.050
 8258SOL    HW225674   3.958   1.400   6.978
 8259SOL     OW25675   3.807   2.131   2.690
 8259SOL    HW125676   3.791   2.041   2.649
 8259SOL    HW225677   3.760   2.201   2.636
 8260SOL     OW25678   2.569   6.400   0.672
 8260SOL    HW125679   2.469   6.394   0.669
 8260SOL    HW225680   2.609   6.319   0.629
 8261SOL     OW25681   5.425   1.148   1.923
 8261SOL    HW125682   5.464   1.220   1.980
 8261SOL    HW225683   5.325   1.148   1.934
 8262SOL     OW25684   0.834   2.589   1.626
 8262SOL    HW125685   0.795   2.672   1.587
 8262SOL    HW225686   0.895   2.613   1.701
 8263SOL     OW25687   6.592   1.508   1.232
 8263SOL    HW125688   6.688   1.491   1.255
 8263SOL    HW225689   6.564   1.596   1.268
 8264SOL     OW25690   1.996   5.096   2.792
 8264SOL    HW125691   2.070   5.161   2.809
 8264SOL    HW225692   1.941   5.085   2.875
 8265SOL     OW25693   2.200   0.645   2.029
 8265SOL    HW125694   2.106   0.677   2.016
 8265SOL    HW225695   2.229   0.663   2.123
 8266SOL     OW25696   3.507   6.641   2.585
 8266SOL    HW125697   3.468   6.694   2.510
 8266SOL    HW225698   3.530   6.703   2.661
 8267SOL     OW25699   1.461   3.319   0.879
 8267SOL    HW125700   1.516   3.397   0.910
 8267SOL    HW225701   1.365   3.335   0.901
 8268SOL     OW25702   2.426   6.496   5.670
 8268SOL    HW125703   2.391   6.557   5.599
 8268SOL    HW225704   2.448   6.549   5.751
 8269SOL     OW25705   5.685   1.707   1.004
 8269SOL    HW125706   5.746   1.680   1.079
 8269SOL    HW225707   5.592   1.717   1.040
 8270SOL     OW25708   3.530   6.331   3.823
 8270SOL    HW125709   3.627   6.343   3.844
 8270SOL    HW225710   3.509   6.234   3.817
 8271SOL     OW25711   0.103   1.430   3.013
 8271SOL    HW125712   0.111   1.402   3.109
 8271SOL    HW225713   0.006   1.438   2.989
 8272SOL     OW25714   3.287   0.947   2.820
 8272SOL    HW125715   3.233   0.985   2.744
 8272SOL    HW225716   3.249   0.859   2.847
 8273SOL     OW25717   2.220   6.279   0.948
 8273SOL    HW125718   2.219   6.189   0.990
 8273SOL    HW225719   2.315   6.307   0.932
 8274SOL     OW25720   4.952   5.341   3.399
 8274SOL    HW125721   4.955   5.320   3.497
 8274SOL    HW225722   4.860   5.370   3.374
 8275SOL     OW25723   4.969   1.710   5.838
 8275SOL    HW125724   4.882   1.756   5.819
 8275SOL    HW225725   5.040   1.779   5.851
 8276SOL     OW25726   1.250   1.805   3.895
 8276SOL    HW125727   1.332   1.750   3.879
 8276SOL    HW225728   1.171   1.759   3.853
 8277SOL     OW25729   0.097   0.051   0.026
 8277SOL    HW125730   0.007   0.081   0.059
 8277SOL    HW225731   0.137   7.016   0.092
 8278SOL     OW25732   2.156   2.500   0.487
 8278SOL    HW125733   2.192   2.485   0.579
 8278SOL    HW225734   2.057   2.486   0.487
 8279SOL     OW25735   0.296   6.481   4.311
 8279SOL    HW125736   0.326   6.416   4.241
 8279SOL    HW225737   0.197   6.490   4.309
 8280SOL     OW25738   3.302   2.935   5.843
 8280SOL    HW125739   3.347   2.930   5.754
 8280SOL    HW225740   3.241   2.857   5.854
 8281SOL     OW25741   6.775   6.065   1.698
 8281SOL    HW125742   6.872   6.048   1.677
 8281SOL    HW225743   6.768   6.135   1.769
 8282SOL     OW25744   5.470   2.199   5.432
 8282SOL    HW125745   5.484   2.196   5.333
 8282SOL    HW225746   5.377   2.166   5.453
 8283SOL     OW25747   2.126   4.002   5.633
 8283SOL    HW125748   2.076   4.085   5.656
 8283SOL    HW225749   2.077   3.952   5.562
 8284SOL     OW25750   6.762   4.615   2.311
 8284SOL    HW125751   6.813   4.531   2.330
 8284SOL    HW225752   6.739   4.619   2.214
 8285SOL     OW25753   3.610   3.430   5.379
 8285SOL    HW125754   3.655   3.345   5.351
 8285SOL    HW225755   3.582   3.422   5.475
 8286SOL     OW25756   6.392   2.294   6.199
 8286SOL    HW125757   6.425   2.326   6.109
 8286SOL    HW225758   6.390   2.371   6.263
 8287SOL     OW25759   1.634   5.563   5.112
 8287SOL    HW125760   1.726   5.590   5.141
 8287SOL    HW225761   1.624   5.579   5.014
 8288SOL     OW25762   2.439   2.656   3.185
 8288SOL    HW125763   2.420   2.666   3.087
 8288SOL    HW225764   2.399   2.732   3.235
 8289SOL     OW25765   0.516   6.802   0.254
 8289SOL    HW125766   0.547   6.840   0.341
 8289SOL    HW225767   0.479   6.875   0.197
 8290SOL     OW25768   6.243   1.921   0.595
 8290SOL    HW125769   6.323   1.980   0.585
 8290SOL    HW225770   6.178   1.963   0.658
 8291SOL     OW25771   4.347   0.335   6.212
 8291SOL    HW125772   4.276   0.394   6.173
 8291SOL    HW225773   4.313   0.293   6.296
 8292SOL     OW25774   3.165   6.509   6.769
 8292SOL    HW125775   3.144   6.412   6.758
 8292SOL    HW225776   3.258   6.527   6.736
 8293SOL     OW25777   5.253   5.949   6.210
 8293SOL    HW125778   5.245   5.858   6.169
 8293SOL    HW225779   5.274   6.016   6.138
 8294SOL     OW25780   5.614   2.737   6.714
 8294SOL    HW125781   5.576   2.800   6.646
 8294SOL    HW225782   5.545   2.669   6.739
 8295SOL     OW25783   5.008   4.021   1.120
 8295SOL    HW125784   4.951   4.086   1.069
 8295SOL    HW225785   5.086   3.993   1.062
 8296SOL     OW25786   1.947   5.503   6.889
 8296SOL    HW125787   2.036   5.548   6.900
 8296SOL    HW225788   1.882   5.540   6.955
 8297SOL     OW25789   6.752   2.405   2.809
 8297SOL    HW125790   6.792   2.363   2.728
 8297SOL    HW225791   6.747   2.504   2.796
 8298SOL     OW25792   5.198   1.062   1.473
 8298SOL    HW125793   5.208   1.063   1.572
 8298SOL    HW225794   5.103   1.086   1.449
 8299SOL     OW25795   6.287   2.049   2.179
 8299SOL    HW125796   6.242   2.096   2.103
 8299SOL    HW225797   6.287   2.109   2.259
 8300SOL     OW25798   0.749   4.620   4.038
 8300SOL    HW125799   0.727   4.688   3.968
 8300SOL    HW225800   0.771   4.667   4.124
 8301SOL     OW25801   3.733   2.993   0.247
 8301SOL    HW125802   3.766   3.077   0.291
 8301SOL    HW225803   3.710   3.012   0.152
 8302SOL     OW25804   5.801   5.989   6.793
 8302SOL    HW125805   5.729   6.007   6.726
 8302SOL    HW225806   5.866   6.065   6.794
 8303SOL     OW25807   0.235   6.647   4.788
 8303SOL    HW125808   0.272   6.732   4.751
 8303SOL    HW225809   0.190   6.596   4.715
 8304SOL     OW25810   0.665   3.691   6.655
 8304SOL    HW125811   0.760   3.676   6.627
 8304SOL    HW225812   0.628   3.770   6.607
 8305SOL     OW25813   3.585   5.328   3.739
 8305SOL    HW125814   3.640   5.305   3.820
 8305SOL    HW225815   3.643   5.325   3.658
 8306SOL     OW25816   0.590   2.668   3.990
 8306SOL    HW125817   0.494   2.661   4.018
 8306SOL    HW225818   0.606   2.757   3.946
 8307SOL     OW25819   4.360   5.840   0.903
 8307SOL    HW125820   4.430   5.836   0.975
 8307SOL    HW225821   4.316   5.750   0.894
 8308SOL     OW25822   3.897   6.757   2.238
 8308SOL    HW125823   3.810   6.724   2.201
 8308SOL    HW225824   3.885   6.780   2.335
 8309SOL     OW25825   5.439   5.873   2.026
 8309SOL    HW125826   5.487   5.793   1.991
 8309SOL    HW225827   5.407   5.929   1.950
 8310SOL     OW25828   0.045   4.784   0.892
 8310SOL    HW125829   0.035   4.745   0.800
 8310SOL    HW225830   0.007   4.719   0.959
 8311SOL     OW25831   6.620   0.897   7.003
 8311SOL    HW125832   6.673   0.813   7.017
 8311SOL    HW225833   6.565   0.916   0.055
 8312SOL     OW25834   5.237   6.812   1.403
 8312SOL    HW125835   5.184   6.736   1.366
 8312SOL    HW225836   5.330   6.780   1.424
 8313SOL     OW25837   3.266   1.614   2.377
 8313SOL    HW125838   3.271   1.654   2.286
 8313SOL    HW225839   3.317   1.528   2.378
 8314SOL     OW25840   6.201   0.212   1.958
 8314SOL    HW125841   6.191   0.260   2.045
 8314SOL    HW225842   6.213   0.278   1.885
 8315SOL     OW25843   4.916   3.428   0.141
 8315SOL    HW125844   4.906   3.525   0.121
 8315SOL    HW225845   4.986   3.415   0.211
 8316SOL     OW25846   1.241   4.288   0.478
 8316SOL    HW125847   1.326   4.290   0.531
 8316SOL    HW225848   1.224   4.379   0.440
 8317SOL     OW25849   2.285   4.515   2.304
 8317SOL    HW125850   2.359   4.508   2.370
 8317SOL    HW225851   2.289   4.437   2.241
 8318SOL     OW25852   4.490   1.468   4.703
 8318SOL    HW125853   4.500   1.402   4.778
 8318SOL    HW225854   4.510   1.423   4.616
 8319SOL     OW25855   3.338   1.176   5.216
 8319SOL    HW125856   3.340   1.185   5.316
 8319SOL    HW225857   3.309   1.084   5.191
 8320SOL     OW25858   2.974   4.409   1.186
 8320SOL    HW125859   2.943   4.363   1.102
 8320SOL    HW225860   3.057   4.461   1.166
 8321SOL     OW25861   0.864   0.272   0.906
 8321SOL    HW125862   0.818   0.350   0.950
 8321SOL    HW225863   0.848   0.189   0.959
 8322SOL     OW25864   0.047   0.122   6.808
 8322SOL    HW125865   0.054   0.081   6.898
 8322SOL    HW225866   0.107   0.073   6.744
 8323SOL     OW25867   0.708   1.418   2.833
 8323SOL    HW125868   0.715   1.359   2.752
 8323SOL    HW225869   0.732   1.365   2.914
 8324SOL     OW25870   6.128   0.428   2.451
 8324SOL    HW125871   6.124   0.528   2.448
 8324SOL    HW225872   6.211   0.400   2.500
 8325SOL     OW25873   3.121   3.257   4.274
 8325SOL    HW125874   3.103   3.255   4.372
 8325SOL    HW225875   3.216   3.230   4.257
 8326SOL     OW25876   4.081   2.836   5.592
 8326SOL    HW125877   3.983   2.825   5.610
 8326SOL    HW225878   4.096   2.922   5.544
 8327SOL     OW25879   5.861   2.081   6.139
 8327SOL    HW125880   5.787   2.022   6.107
 8327SOL    HW225881   5.823   2.156   6.193
 8328SOL     OW25882   2.457   2.206   6.141
 8328SOL    HW125883   2.357   2.213   6.136
 8328SOL    HW225884   2.484   2.197   6.237
 8329SOL     OW25885   6.651   2.975   5.538
 8329SOL    HW125886   6.591   2.900   5.567
 8329SOL    HW225887   6.619   3.061   5.579
 8330SOL     OW25888   1.944   6.458   0.718
 8330SOL    HW125889   1.969   6.468   0.622
 8330SOL    HW225890   1.892   6.538   0.747
 8331SOL     OW25891   2.722   6.714   1.238
 8331SOL    HW125892   2.622   6.720   1.233
 8331SOL    HW225893   2.749   6.684   1.329
 8332SOL     OW25894   4.712   5.270   2.449
 8332SOL    HW125895   4.698   5.305   2.356
 8332SOL    HW225896   4.741   5.345   2.509
 8333SOL     OW25897   0.395   5.702   0.110
 8333SOL    HW125898   0.351   5.755   0.182
 8333SOL    HW225899   0.336   5.698   0.029
 8334SOL     OW25900   6.599   1.783   3.783
 8334SOL    HW125901   6.674   1.722   3.755
 8334SOL    HW225902   6.636   1.859   3.836
 8335SOL     OW25903   6.105   5.966   5.809
 8335SOL    HW125904   6.024   5.988   5.863
 8335SOL    HW225905   6.165   5.905   5.861
 8336SOL     OW25906   0.939   1.579   1.292
 8336SOL    HW125907   0.848   1.559   1.258
 8336SOL    HW225908   0.988   1.636   1.225
 8337SOL     OW25909   0.729   6.514   2.745
 8337SOL    HW125910   0.648   6.566   2.773
 8337SOL    HW225911   0.709   6.463   2.661
 8338SOL     OW25912   1.405   4.870   1.509
 8338SOL    HW125913   1.413   4.771   1.512
 8338SOL    HW225914   1.328   4.899   1.566
 8339SOL     OW25915   5.276   1.852   2.386
 8339SOL    HW125916   5.313   1.786   2.452
 8339SOL    HW225917   5.352   1.893   2.335
 8340SOL     OW25918   5.083   3.914   0.684
 8340SOL    HW125919   5.001   3.926   0.628
 8340SOL    HW225920   5.164   3.909   0.624
 8341SOL     OW25921   2.556   5.878   1.465
 8341SOL    HW125922   2.471   5.930   1.468
 8341SOL    HW225923   2.572   5.845   1.372
 8342SOL     OW25924   4.212   0.976   0.766
 8342SOL    HW125925   4.223   0.916   0.687
 8342SOL    HW225926   4.187   1.068   0.735
 8343SOL     OW25927   1.402   5.346   6.187
 8343SOL    HW125928   1.446   5.370   6.101
 8343SOL    HW225929   1.472   5.335   6.258
 8344SOL     OW25930   4.239   6.652   5.838
 8344SOL    HW125931   4.155   6.637   5.891
 8344SOL    HW225932   4.286   6.733   5.873
 8345SOL     OW25933   5.864   1.136   2.821
 8345SOL    HW125934   5.841   1.086   2.905
 8345SOL    HW225935   5.812   1.222   2.818
 8346SOL     OW25936   2.920   5.380   1.698
 8346SOL    HW125937   2.876   5.294   1.724
 8346SOL    HW225938   2.956   5.426   1.779
 8347SOL     OW25939   3.644   0.014   5.274
 8347SOL    HW125940   3.716   0.081   5.296
 8347SOL    HW225941   3.684   6.967   5.223
 8348SOL     OW25942   0.790   0.877   0.946
 8348SOL    HW125943   0.737   0.834   0.873
 8348SOL    HW225944   0.729   0.905   1.020
 8349SOL     OW25945   5.743   3.800   1.073
 8349SOL    HW125946   5.782   3.885   1.037
 8349SOL    HW225947   5.745   3.802   1.173
 8350SOL     OW25948   6.496   0.962   5.492
 8350SOL    HW125949   6.502   0.935   5.395
 8350SOL    HW225950   6.587   0.961   5.532
 8351SOL     OW25951   3.343   6.339   4.052
 8351SOL    HW125952   3.397   6.379   3.978
 8351SOL    HW225953   3.371   6.244   4.067
 8352SOL     OW25954   6.824   6.572   2.514
 8352SOL    HW125955   6.796   6.619   2.598
 8352SOL    HW225956   6.777   6.485   2.507
 8353SOL     OW25957   6.770   3.444   2.684
 8353SOL    HW125958   6.869   3.449   2.675
 8353SOL    HW225959   6.729   3.530   2.652
 8354SOL     OW25960   2.828   1.137   6.835
 8354SOL    HW125961   2.878   1.110   6.752
 8354SOL    HW225962   2.843   1.234   6.853
 8355SOL     OW25963   3.824   0.206   6.907
 8355SOL    HW125964   3.742   0.263   6.908
 8355SOL    HW225965   3.891   0.245   6.845
 8356SOL     OW25966   1.980   5.964   0.211
 8356SOL    HW125967   1.964   6.061   0.229
 8356SOL    HW225968   2.057   5.932   0.266
 8357SOL     OW25969   4.251   6.005   5.172
 8357SOL    HW125970   4.298   5.968   5.252
 8357SOL    HW225971   4.156   6.026   5.195
 8358SOL     OW25972   1.903   2.829   5.505
 8358SOL    HW125973   1.921   2.739   5.544
 8358SOL    HW225974   1.875   2.819   5.409
 8359SOL     OW25975   4.373   5.592   4.510
 8359SOL    HW125976   4.344   5.512   4.457
 8359SOL    HW225977   4.355   5.675   4.457
 8360SOL     OW25978   5.273   6.807   3.041
 8360SOL    HW125979   5.225   6.800   2.954
 8360SOL    HW225980   5.341   6.734   3.048
 8361SOL     OW25981   1.745   0.672   2.639
 8361SOL    HW125982   1.780   0.739   2.704
 8361SOL    HW225983   1.765   0.579   2.673
 8362SOL     OW25984   2.807   2.248   0.211
 8362SOL    HW125985   2.733   2.262   0.277
 8362SOL    HW225986   2.770   2.243   0.119
 8363SOL     OW25987   0.231   2.913   0.186
 8363SOL    HW125988   0.221   2.960   0.099
 8363SOL    HW225989   0.154   2.850   0.199
 8364SOL     OW25990   6.728   3.739   3.356
 8364SOL    HW125991   6.727   3.706   3.450
 8364SOL    HW225992   6.639   3.721   3.314
 8365SOL     OW25993   1.544   3.150   6.370
 8365SOL    HW125994   1.614   3.218   6.393
 8365SOL    HW225995   1.577   3.059   6.397
 8366SOL     OW25996   3.701   6.342   2.578
 8366SOL    HW125997   3.773   6.401   2.614
 8366SOL    HW225998   3.612   6.373   2.612
 8367SOL     OW25999   5.566   6.169   4.085
 8367SOL    HW126000   5.589   6.254   4.038
 8367SOL    HW226001   5.474   6.174   4.122
 8368SOL     OW26002   2.405   5.269   5.910
 8368SOL    HW126003   2.458   5.226   5.983
 8368SOL    HW226004   2.311   5.233   5.911
 8369SOL     OW26005   2.131   1.370   0.500
 8369SOL    HW126006   2.164   1.330   0.414
 8369SOL    HW226007   2.039   1.338   0.519
 8370SOL     OW26008   1.439   1.613   6.494
 8370SOL    HW126009   1.415   1.705   6.461
 8370SOL    HW226010   1.436   1.612   6.594
 8371SOL     OW26011   1.451   3.030   0.895
 8371SOL    HW126012   1.463   3.127   0.916
 8371SOL    HW226013   1.365   3.016   0.847
 8372SOL     OW26014   6.728   0.741   3.102
 8372SOL    HW126015   6.772   0.703   3.184
 8372SOL    HW226016   6.638   0.776   3.126
 8373SOL     OW26017   1.462   5.865   5.579
 8373SOL    HW126018   1.415   5.780   5.556
 8373SOL    HW226019   1.408   5.917   5.644
 8374SOL     OW26020   6.518   0.452   0.032
 8374SOL    HW126021   6.533   0.370   0.087
 8374SOL    HW226022   6.444   0.506   0.072
 8375SOL     OW26023   3.106   0.055   6.077
 8375SOL    HW126024   3.195   0.048   6.122
 8375SOL    HW226025   3.119   0.068   5.979
 8376SOL     OW26026   2.745   1.094   4.255
 8376SOL    HW126027   2.825   1.038   4.231
 8376SOL    HW226028   2.775   1.175   4.305
 8377SOL     OW26029   5.822   4.672   1.481
 8377SOL    HW126030   5.835   4.573   1.474
 8377SOL    HW226031   5.853   4.704   1.570
 8378SOL     OW26032   4.919   3.344   2.974
 8378SOL    HW126033   4.965   3.433   2.980
 8378SOL    HW226034   4.903   3.309   3.067
 8379SOL     OW26035   6.495   2.927   2.238
 8379SOL    HW126036   6.511   3.019   2.203
 8379SOL    HW226037   6.481   2.864   2.162
 8380SOL     OW26038   4.205   1.653   2.925
 8380SOL    HW126039   4.180   1.559   2.899
 8380SOL    HW226040   4.157   1.717   2.864
 8381SOL     OW26041   1.702   5.493   5.466
 8381SOL    HW126042   1.699   5.471   5.368
 8381SOL    HW226043   1.630   5.443   5.513
 8382SOL     OW26044   1.174   3.004   2.172
 8382SOL    HW126045   1.082   3.009   2.211
 8382SOL    HW226046   1.233   2.951   2.233
 8383SOL     OW26047   2.761   2.483   5.730
 8383SOL    HW126048   2.727   2.402   5.777
 8383SOL    HW226049   2.856   2.500   5.757
 8384SOL     OW26050   0.265   6.842   2.188
 8384SOL    HW126051   0.204   6.901   2.135
 8384SOL    HW226052   0.213   6.798   2.261
 8385SOL     OW26053   5.045   2.696   1.929
 8385SOL    HW126054   4.967   2.731   1.980
 8385SOL    HW226055   5.128   2.746   1.955
 8386SOL     OW26056   1.058   4.235   2.731
 8386SOL    HW126057   1.001   4.162   2.694
 8386SOL    HW226058   1.092   4.208   2.821
 8387SOL     OW26059   0.582   2.973   1.021
 8387SOL    HW126060   0.487   2.964   0.990
 8387SOL    HW226061   0.585   2.969   1.120
 8388SOL     OW26062   2.557   0.731   2.148
 8388SOL    HW126063   2.573   0.829   2.135
 8388SOL    HW226064   2.489   0.718   2.220
 8389SOL     OW26065   5.389   2.807   1.812
 8389SOL    HW126066   5.477   2.801   1.765
 8389SOL    HW226067   5.315   2.784   1.748
 8390SOL     OW26068   5.354   1.858   5.506
 8390SOL    HW126069   5.424   1.856   5.434
 8390SOL    HW226070   5.318   1.765   5.519
 8391SOL     OW26071   6.440   0.965   1.093
 8391SOL    HW126072   6.416   0.888   1.035
 8391SOL    HW226073   6.389   1.046   1.064
 8392SOL     OW26074   5.684   3.067   4.868
 8392SOL    HW126075   5.624   3.144   4.891
 8392SOL    HW226076   5.778   3.090   4.892
 8393SOL     OW26077   5.344   0.247   1.403
 8393SOL    HW126078   5.341   0.210   1.310
 8393SOL    HW226079   5.392   0.334   1.403
 8394SOL     OW26080   5.944   3.394   1.683
 8394SOL    HW126081   5.906   3.480   1.647
 8394SOL    HW226082   6.041   3.389   1.662
 8395SOL     OW26083   2.344   0.861   5.034
 8395SOL    HW126084   2.313   0.880   4.941
 8395SOL    HW226085   2.316   0.769   5.061
 8396SOL     OW26086   4.330   5.761   4.976
 8396SOL    HW126087   4.295   5.854   4.988
 8396SOL    HW226088   4.359   5.724   5.064
 8397SOL     OW26089   6.499   1.353   3.339
 8397SOL    HW126090   6.493   1.445   3.300
 8397SOL    HW226091   6.594   1.330   3.357
 8398SOL     OW26092   4.986   2.166   5.767
 8398SOL    HW126093   4.893   2.139   5.792
 8398SOL    HW226094   4.993   2.266   5.768
 8399SOL     OW26095   0.258   5.314   0.829
 8399SOL    HW126096   0.348   5.284   0.862
 8399SOL    HW226097   0.211   5.363   0.903
 8400SOL     OW26098   1.257   2.310   4.663
 8400SOL    HW126099   1.282   2.382   4.598
 8400SOL    HW226100   1.247   2.223   4.615
 8401SOL     OW26101   2.799   0.359   5.596
 8401SOL    HW126102   2.770   0.438   5.542
 8401SOL    HW226103   2.720   0.301   5.616
 8402SOL     OW26104   3.888   0.634   6.012
 8402SOL    HW126105   3.888   0.725   5.971
 8402SOL    HW226106   3.804   0.586   5.988
 8403SOL     OW26107   5.987   5.543   4.575
 8403SOL    HW126108   6.036   5.508   4.495
 8403SOL    HW226109   5.967   5.467   4.637
 8404SOL     OW26110   2.077   1.815   6.846
 8404SOL    HW126111   2.042   1.812   6.939
 8404SOL    HW226112   2.060   1.905   6.806
 8405SOL     OW26113   4.167   1.327   5.022
 8405SOL    HW126114   4.151   1.280   4.936
 8405SOL    HW226115   4.219   1.411   5.005
 8406SOL     OW26116   4.641   0.994   5.877
 8406SOL    HW126117   4.608   1.017   5.785
 8406SOL    HW226118   4.569   1.012   5.944
 8407SOL     OW26119   3.471   7.024   4.402
 8407SOL    HW126120   3.474   6.925   4.413
 8407SOL    HW226121   3.547   0.024   4.343
 8408SOL     OW26122   4.466   0.882   1.554
 8408SOL    HW126123   4.518   0.900   1.471
 8408SOL    HW226124   4.489   0.950   1.624
 8409SOL     OW26125   4.735   2.515   2.030
 8409SOL    HW126126   4.761   2.611   2.024
 8409SOL    HW226127   4.709   2.481   1.940
 8410SOL     OW26128   6.697   1.364   1.847
 8410SOL    HW126129   6.600   1.341   1.841
 8410SOL    HW226130   6.713   1.451   1.802
 8411SOL     OW26131   1.548   5.659   0.442
 8411SOL    HW126132   1.452   5.648   0.415
 8411SOL    HW226133   1.590   5.734   0.390
 8412SOL     OW26134   3.259   2.354   5.996
 8412SOL    HW126135   3.333   2.287   5.989
 8412SOL    HW226136   3.293   2.436   6.044
 8413SOL     OW26137   4.484   5.434   5.354
 8413SOL    HW126138   4.581   5.426   5.379
 8413SOL    HW226139   4.468   5.387   5.267
 8414SOL     OW26140   1.004   1.079   2.333
 8414SOL    HW126141   0.971   1.173   2.328
 8414SOL    HW226142   1.083   1.076   2.394
 8415SOL     OW26143   2.359   0.577   5.198
 8415SOL    HW126144   2.286   0.562   5.131
 8415SOL    HW226145   2.448   0.567   5.153
 8416SOL     OW26146   6.684   1.556   5.586
 8416SOL    HW126147   6.623   1.631   5.559
 8416SOL    HW226148   6.779   1.582   5.568
 8417SOL     OW26149   1.670   4.191   5.390
 8417SOL    HW126150   1.583   4.240   5.392
 8417SOL    HW226151   1.702   4.183   5.296
 8418SOL     OW26152   1.030   6.500   2.511
 8418SOL    HW126153   1.008   6.448   2.428
 8418SOL    HW226154   1.026   6.440   2.590
 8419SOL     OW26155   5.055   1.237   3.690
 8419SOL    HW126156   5.061   1.200   3.783
 8419SOL    HW226157   4.993   1.316   3.690
 8420SOL     OW26158   2.675   0.077   2.432
 8420SOL    HW126159   2.641   0.043   2.345
 8420SOL    HW226160   2.695   7.028   2.492
 8421SOL     OW26161   4.696   6.192   5.976
 8421SOL    HW126162   4.605   6.215   6.009
 8421SOL    HW226163   4.764   6.225   6.041
 8422SOL     OW26164   4.390   2.405   2.961
 8422SOL    HW126165   4.371   2.492   3.007
 8422SOL    HW226166   4.464   2.417   2.896
 8423SOL     OW26167   5.946   4.734   6.766
 8423SOL    HW126168   6.045   4.723   6.765
 8423SOL    HW226169   5.912   4.743   6.673
 8424SOL     OW26170   2.126   0.262   4.086
 8424SOL    HW126171   2.035   0.223   4.103
 8424SOL    HW226172   2.126   0.358   4.114
 8425SOL     OW26173   4.022   3.096   2.784
 8425SOL    HW126174   3.994   3.013   2.833
 8425SOL    HW226175   4.020   3.174   2.847
 8426SOL     OW26176   3.299   2.996   2.309
 8426SOL    HW126177   3.302   2.910   2.258
 8426SOL    HW226178   3.205   3.015   2.337
 8427SOL     OW26179   3.525   3.814   3.460
 8427SOL    HW126180   3.485   3.753   3.392
 8427SOL    HW226181   3.536   3.764   3.546
 8428SOL     OW26182   0.113   0.027   0.848
 8428SOL    HW126183   0.051   0.044   0.771
 8428SOL    HW226184   0.078   0.072   0.930
 8429SOL     OW26185   1.673   5.528   6.493
 8429SOL    HW126186   1.629   5.602   6.441
 8429SOL    HW226187   1.616   5.446   6.489
 8430SOL     OW26188   3.973   6.645   4.883
 8430SOL    HW126189   3.901   6.602   4.937
 8430SOL    HW226190   4.060   6.639   4.932
 8431SOL     OW26191   3.170   3.926   5.509
 8431SOL    HW126192   3.192   4.023   5.521
 8431SOL    HW226193   3.185   3.900   5.414
 8432SOL     OW26194   6.340   5.454   6.373
 8432SOL    HW126195   6.265   5.414   6.320
 8432SOL    HW226196   6.383   5.527   6.319
 8433SOL     OW26197   4.988   2.652   0.966
 8433SOL    HW126198   4.927   2.684   0.894
 8433SOL    HW226199   4.955   2.564   1.001
 8434SOL     OW26200   2.499   5.653   5.384
 8434SOL    HW126201   2.435   5.698   5.321
 8434SOL    HW226202   2.461   5.565   5.412
 8435SOL     OW26203   4.605   1.043   2.820
 8435SOL    HW126204   4.534   1.110   2.842
 8435SOL    HW226205   4.582   0.955   2.862
 8436SOL     OW26206   2.188   6.300   2.618
 8436SOL    HW126207   2.236   6.224   2.662
 8436SOL    HW226208   2.112   6.329   2.676
 8437SOL     OW26209   2.150   3.726   2.719
 8437SOL    HW126210   2.085   3.710   2.794
 8437SOL    HW226211   2.175   3.639   2.677
 8438SOL     OW26212   1.466   4.129   2.405
 8438SOL    HW126213   1.495   4.224   2.403
 8438SOL    HW226214   1.396   4.117   2.475
 8439SOL     OW26215   5.995   5.723   3.974
 8439SOL    HW126216   6.046   5.647   4.013
 8439SOL    HW226217   5.900   5.695   3.960
 8440SOL     OW26218   1.539   1.255   2.899
 8440SOL    HW126219   1.521   1.317   2.975
 8440SOL    HW226220   1.553   1.308   2.815
 8441SOL     OW26221   5.886   1.064   4.830
 8441SOL    HW126222   5.894   1.156   4.792
 8441SOL    HW226223   5.977   1.024   4.842
 8442SOL     OW26224   3.632   1.352   5.446
 8442SOL    HW126225   3.634   1.348   5.546
 8442SOL    HW226226   3.545   1.392   5.416
 8443SOL     OW26227   1.263   3.944   2.747
 8443SOL    HW126228   1.323   4.002   2.804
 8443SOL    HW226229   1.188   3.910   2.802
 8444SOL     OW26230   4.813   5.369   4.085
 8444SOL    HW126231   4.741   5.371   4.155
 8444SOL    HW226232   4.780   5.417   4.003
 8445SOL     OW26233   4.543   6.343   6.522
 8445SOL    HW126234   4.497   6.393   6.448
 8445SOL    HW226235   4.620   6.396   6.556
 8446SOL     OW26236   6.769   5.991   4.593
 8446SOL    HW126237   6.851   6.044   4.572
 8446SOL    HW226238   6.775   5.901   4.550
 8447SOL     OW26239   3.550   1.969   3.222
 8447SOL    HW126240   3.648   1.976   3.204
 8447SOL    HW226241   3.512   2.060   3.238
 8448SOL     OW26242   4.587   6.581   2.921
 8448SOL    HW126243   4.671   6.635   2.920
 8448SOL    HW226244   4.569   6.548   3.013
 8449SOL     OW26245   2.001   2.501   3.289
 8449SOL    HW126246   2.035   2.458   3.205
 8449SOL    HW226247   1.956   2.432   3.346
 8450SOL     OW26248   7.019   0.918   0.092
 8450SOL    HW126249   6.986   1.012   0.097
 8450SOL    HW226250   6.962   0.866   0.028
 8451SOL     OW26251   4.345   2.065   1.242
 8451SOL    HW126252   4.333   2.042   1.146
 8451SOL    HW226253   4.412   2.139   1.250
 8452SOL     OW26254   5.367   1.918   5.057
 8452SOL    HW126255   5.273   1.899   5.087
 8452SOL    HW226256   5.396   2.006   5.093
 8453SOL     OW26257   0.513   6.012   0.710
 8453SOL    HW126258   0.455   6.015   0.791
 8453SOL    HW226259   0.567   6.096   0.704
 8454SOL     OW26260   0.296   4.233   0.041
 8454SOL    HW126261   0.244   4.243   6.986
 8454SOL    HW226262   0.362   4.158   0.031
 8455SOL     OW26263   0.391   0.670   2.912
 8455SOL    HW126264   0.441   0.752   2.939
 8455SOL    HW226265   0.330   0.692   2.835
 8456SOL     OW26266   6.125   1.102   3.565
 8456SOL    HW126267   6.121   1.119   3.664
 8456SOL    HW226268   6.075   1.018   3.544
 8457SOL     OW26269   6.430   6.485   5.243
 8457SOL    HW126270   6.439   6.427   5.324
 8457SOL    HW226271   6.521   6.509   5.209
 8458SOL     OW26272   0.441   6.738   6.745
 8458SOL    HW126273   0.492   6.743   6.659
 8458SOL    HW226274   0.351   6.697   6.728
 8459SOL     OW26275   1.849   5.948   3.798
 8459SOL    HW126276   1.932   5.924   3.747
 8459SOL    HW226277   1.869   6.022   3.862
 8460SOL     OW26278   3.451   4.033   4.727
 8460SOL    HW126279   3.398   4.049   4.810
 8460SOL    HW226280   3.420   3.948   4.683
 8461SOL     OW26281   6.248   4.580   3.247
 8461SOL    HW126282   6.179   4.535   3.190
 8461SOL    HW226283   6.222   4.675   3.262
 8462SOL     OW26284   2.202   2.750   1.796
 8462SOL    HW126285   2.240   2.842   1.799
 8462SOL    HW226286   2.263   2.686   1.842
 8463SOL     OW26287   5.502   1.166   2.276
 8463SOL    HW126288   5.420   1.209   2.314
 8463SOL    HW226289   5.489   1.067   2.272
 8464SOL     OW26290   6.284   2.526   5.018
 8464SOL    HW126291   6.291   2.569   5.108
 8464SOL    HW226292   6.374   2.494   4.988
 8465SOL     OW26293   1.494   2.703   0.262
 8465SOL    HW126294   1.427   2.690   0.335
 8465SOL    HW226295   1.497   2.800   0.237
 8466SOL     OW26296   0.893   6.042   3.381
 8466SOL    HW126297   0.847   6.056   3.469
 8466SOL    HW226298   0.928   6.130   3.348
 8467SOL     OW26299   2.879   5.405   0.202
 8467SOL    HW126300   2.803   5.402   0.267
 8467SOL    HW226301   2.845   5.381   0.111
 8468SOL     OW26302   4.401   2.132   0.059
 8468SOL    HW126303   4.319   2.137   0.117
 8468SOL    HW226304   4.420   2.036   0.039
 8469SOL     OW26305   3.519   2.836   0.065
 8469SOL    HW126306   3.549   2.749   0.025
 8469SOL    HW226307   3.428   2.825   0.105
 8470SOL     OW26308   2.151   2.328   6.015
 8470SOL    HW126309   2.110   2.348   6.104
 8470SOL    HW226310   2.236   2.379   6.005
 8471SOL     OW26311   3.491   0.642   3.748
 8471SOL    HW126312   3.566   0.601   3.800
 8471SOL    HW226313   3.522   0.661   3.655
 8472SOL     OW26314   1.818   6.128   4.296
 8472SOL    HW126315   1.864   6.184   4.364
 8472SOL    HW226316   1.719   6.134   4.308
 8473SOL     OW26317   6.294   5.452   0.621
 8473SOL    HW126318   6.197   5.438   0.640
 8473SOL    HW226319   6.314   5.423   0.528
 8474SOL     OW26320   3.597   4.109   1.439
 8474SOL    HW126321   3.626   4.116   1.534
 8474SOL    HW226322   3.583   4.013   1.415
 8475SOL     OW26323   5.374   1.178   2.931
 8475SOL    HW126324   5.386   1.170   3.030
 8475SOL    HW226325   5.355   1.088   2.892
 8476SOL     OW26326   4.616   0.311   2.358
 8476SOL    HW126327   4.615   0.380   2.430
 8476SOL    HW226328   4.701   0.258   2.363
 8477SOL     OW26329   3.277   1.354   1.155
 8477SOL    HW126330   3.340   1.277   1.164
 8477SOL    HW226331   3.326   1.440   1.169
 8478SOL     OW26332   1.181   0.054   5.593
 8478SOL    HW126333   1.121   0.105   5.531
 8478SOL    HW226334   1.168   0.089   5.686
 8479SOL     OW26335   5.750   0.666   1.527
 8479SOL    HW126336   5.698   0.727   1.468
 8479SOL    HW226337   5.730   0.571   1.504
 8480SOL     OW26338   2.152   1.438   1.661
 8480SOL    HW126339   2.128   1.500   1.736
 8480SOL    HW226340   2.146   1.486   1.574
 8481SOL     OW26341   3.758   0.356   4.433
 8481SOL    HW126342   3.687   0.352   4.363
 8481SOL    HW226343   3.806   0.443   4.428
 8482SOL     OW26344   0.856   6.965   2.425
 8482SOL    HW126345   0.858   6.887   2.488
 8482SOL    HW226346   0.777   7.022   2.445
 8483SOL     OW26347   4.234   5.626   1.262
 8483SOL    HW126348   4.161   5.562   1.237
 8483SOL    HW226349   4.247   5.693   1.189
 8484SOL     OW26350   0.966   4.704   4.770
 8484SOL    HW126351   0.988   4.624   4.826
 8484SOL    HW226352   0.920   4.772   4.827
 8485SOL     OW26353   2.667   3.187   6.577
 8485SOL    HW126354   2.576   3.228   6.578
 8485SOL    HW226355   2.700   3.181   6.483
 8486SOL     OW26356   4.464   0.912   2.555
 8486SOL    HW126357   4.441   0.992   2.499
 8486SOL    HW226358   4.417   0.918   2.643
 8487SOL     OW26359   4.312   0.048   1.041
 8487SOL    HW126360   4.401   0.091   1.030
 8487SOL    HW226361   4.287   0.001   0.956
 8488SOL     OW26362   4.896   2.782   4.343
 8488SOL    HW126363   4.918   2.879   4.350
 8488SOL    HW226364   4.963   2.736   4.285
 8489SOL     OW26365   4.127   5.166   2.176
 8489SOL    HW126366   4.146   5.233   2.247
 8489SOL    HW226367   4.072   5.208   2.104
 8490SOL     OW26368   3.936   5.402   2.742
 8490SOL    HW126369   3.840   5.402   2.768
 8490SOL    HW226370   3.991   5.438   2.818
 8491SOL     OW26371   2.236   0.565   2.480
 8491SOL    HW126372   2.284   0.612   2.554
 8491SOL    HW226373   2.139   0.555   2.503
 8492SOL     OW26374   5.885   3.076   5.137
 8492SOL    HW126375   5.815   3.119   5.194
 8492SOL    HW226376   5.848   2.991   5.099
 8493SOL     OW26377   3.706   2.386   0.646
 8493SOL    HW126378   3.728   2.451   0.573
 8493SOL    HW226379   3.787   2.369   0.701
 8494SOL     OW26380   3.876   6.005   6.589
 8494SOL    HW126381   3.911   5.980   6.499
 8494SOL    HW226382   3.944   6.060   6.638
 8495SOL     OW26383   6.973   2.729   1.030
 8495SOL    HW126384   7.025   2.688   1.105
 8495SOL    HW226385   6.896   2.669   1.006
 8496SOL     OW26386   7.009   3.119   3.221
 8496SOL    HW126387   6.998   3.020   3.217
 8496SOL    HW226388   6.920   3.162   3.235
 8497SOL     OW26389   6.187   6.106   3.242
 8497SOL    HW126390   6.256   6.035   3.241
 8497SOL    HW226391   6.102   6.069   3.280
 8498SOL     OW26392   0.312   0.758   0.867
 8498SOL    HW126393   0.215   0.743   0.886
 8498SOL    HW226394   0.322   0.806   0.780
 8499SOL     OW26395   3.333   4.227   6.742
 8499SOL    HW126396   3.359   4.316   6.779
 8499SOL    HW226397   3.312   4.164   6.817
 8500SOL     OW26398   2.842   0.649   6.026
 8500SOL    HW126399   2.756   0.682   5.988
 8500SOL    HW226400   2.824   0.571   6.087
 8501SOL     OW26401   1.927   4.004   6.583
 8501SOL    HW126402   2.022   4.026   6.606
 8501SOL    HW226403   1.918   3.993   6.484
 8502SOL     OW26404   6.440   0.613   2.445
 8502SOL    HW126405   6.434   0.541   2.515
 8502SOL    HW226406   6.526   0.662   2.454
 8503SOL     OW26407   2.745   5.578   3.188
 8503SOL    HW126408   2.771   5.512   3.259
 8503SOL    HW226409   2.722   5.529   3.105
 8504SOL     OW26410   1.429   5.625   3.900
 8504SOL    HW126411   1.388   5.539   3.871
 8504SOL    HW226412   1.507   5.646   3.840
 8505SOL     OW26413   4.912   3.417   3.454
 8505SOL    HW126414   4.987   3.450   3.397
 8505SOL    HW226415   4.868   3.494   3.500
 8506SOL     OW26416   1.257   6.446   0.412
 8506SOL    HW126417   1.298   6.534   0.390
 8506SOL    HW226418   1.161   6.459   0.438
 8507SOL     OW26419   1.331   1.027   5.124
 8507SOL    HW126420   1.342   0.930   5.144
 8507SOL    HW226421   1.384   1.051   5.043
 8508SOL     OW26422   0.936   2.044   6.323
 8508SOL    HW126423   0.861   2.106   6.344
 8508SOL    HW226424   0.921   1.956   6.369
 8509SOL     OW26425   6.417   1.828   4.779
 8509SOL    HW126426   6.329   1.867   4.752
 8509SOL    HW226427   6.402   1.754   4.845
 8510SOL     OW26428   5.855   6.717   2.357
 8510SOL    HW126429   5.788   6.673   2.299
 8510SOL    HW226430   5.924   6.650   2.385
 8511SOL     OW26431   6.322   4.524   1.657
 8511SOL    HW126432   6.334   4.619   1.686
 8511SOL    HW226433   6.241   4.517   1.598
 8512SOL     OW26434   4.580   2.276   6.939
 8512SOL    HW126435   4.573   2.376   6.936
 8512SOL    HW226436   4.494   2.238   6.971
 8513SOL     OW26437   6.649   4.080   0.991
 8513SOL    HW126438   6.645   4.173   0.953
 8513SOL    HW226439   6.738   4.067   1.034
 8514SOL     OW26440   2.568   2.155   5.668
 8514SOL    HW126441   2.555   2.229   5.603
 8514SOL    HW226442   2.561   2.191   5.761
 8515SOL     OW26443   1.274   0.630   1.202
 8515SOL    HW126444   1.231   0.541   1.217
 8515SOL    HW226445   1.371   0.624   1.227
 8516SOL     OW26446   5.534   2.314   3.278
 8516SOL    HW126447   5.588   2.250   3.333
 8516SOL    HW226448   5.594   2.383   3.239
 8517SOL     OW26449   1.756   2.125   5.151
 8517SOL    HW126450   1.855   2.129   5.142
 8517SOL    HW226451   1.719   2.218   5.161
 8518SOL     OW26452   5.199   4.624   0.077
 8518SOL    HW126453   5.186   4.589   7.013
 8518SOL    HW226454   5.180   4.722   0.079
 8519SOL     OW26455   1.274   3.805   0.890
 8519SOL    HW126456   1.322   3.760   0.964
 8519SOL    HW226457   1.182   3.830   0.920
 8520SOL     OW26458   4.250   3.500   5.185
 8520SOL    HW126459   4.215   3.469   5.097
 8520SOL    HW226460   4.174   3.520   5.246
 8521SOL     OW26461   2.066   6.016   5.877
 8521SOL    HW126462   1.986   5.956   5.875
 8521SOL    HW226463   2.060   6.078   5.955
 8522SOL     OW26464   1.019   6.287   0.260
 8522SOL    HW126465   1.046   6.191   0.269
 8522SOL    HW226466   1.031   6.317   0.166
 8523SOL     OW26467   2.674   0.814   0.088
 8523SOL    HW126468   2.662   0.888   0.021
 8523SOL    HW226469   2.661   0.726   0.043
 8524SOL     OW26470   1.895   5.625   5.166
 8524SOL    HW126471   1.984   5.581   5.162
 8524SOL    HW226472   1.900   5.706   5.225
 8525SOL     OW26473   0.058   4.439   1.506
 8525SOL    HW126474   6.993   4.411   1.488
 8525SOL    HW226475   0.059   4.509   1.577
 8526SOL     OW26476   1.986   6.196   0.504
 8526SOL    HW126477   2.046   6.264   0.546
 8526SOL    HW226478   1.995   6.199   0.405
 8527SOL     OW26479   3.215   0.653   5.696
 8527SOL    HW126480   3.142   0.637   5.630
 8527SOL    HW226481   3.227   0.752   5.709
 8528SOL     OW26482   4.844   2.416   0.211
 8528SOL    HW126483   4.795   2.329   0.216
 8528SOL    HW226484   4.922   2.407   0.149
 8529SOL     OW26485   1.418   6.401   6.516
 8529SOL    HW126486   1.410   6.490   6.562
 8529SOL    HW226487   1.371   6.332   6.570
 8530SOL     OW26488   3.219   4.003   4.325
 8530SOL    HW126489   3.245   4.011   4.229
 8530SOL    HW226490   3.288   3.950   4.374
 8531SOL     OW26491   0.035   5.685   3.341
 8531SOL    HW126492   0.030   5.689   3.441
 8531SOL    HW226493   0.046   5.590   3.312
 8532SOL     OW26494   2.733   5.816   4.628
 8532SOL    HW126495   2.712   5.733   4.577
 8532SOL    HW226496   2.652   5.845   4.679
 8533SOL     OW26497   1.936   5.811   5.352
 8533SOL    HW126498   1.881   5.809   5.436
 8533SOL    HW226499   2.033   5.813   5.377
 8534SOL     OW26500   3.608   2.054   3.877
 8534SOL    HW126501   3.612   2.044   3.976
 8534SOL    HW226502   3.679   1.998   3.834
 8535SOL     OW26503   6.066   0.870   3.162
 8535SOL    HW126504   5.990   0.930   3.137
 8535SOL    HW226505   6.153   0.913   3.136
 8536SOL     OW26506   0.066   1.047   4.414
 8536SOL    HW126507   0.136   1.034   4.485
 8536SOL    HW226508   7.019   0.986   4.431
 8537SOL     OW26509   7.005   0.993   3.129
 8537SOL    HW126510   0.028   1.044   3.060
 8537SOL    HW226511   6.977   1.056   3.202
 8538SOL     OW26512   1.220   2.506   6.913
 8538SOL    HW126513   1.203   2.437   6.843
 8538SOL    HW226514   1.149   2.576   6.909
 8539SOL     OW26515   6.373   2.597   2.506
 8539SOL    HW126516   6.388   2.577   2.409
 8539SOL    HW226517   6.275   2.599   2.525
 8540SOL     OW26518   4.313   6.930   0.338
 8540SOL    HW126519   4.343   6.935   0.243
 8540SOL    HW226520   4.294   7.022   0.373
 8541SOL     OW26521   1.986   2.674   3.844
 8541SOL    HW126522   2.065   2.734   3.834
 8541SOL    HW226523   1.986   2.632   3.934
 8542SOL     OW26524   4.226   4.200   6.667
 8542SOL    HW126525   4.126   4.207   6.675
 8542SOL    HW226526   4.268   4.275   6.717
 8543SOL     OW26527   2.087   2.632   6.863
 8543SOL    HW126528   1.990   2.627   6.886
 8543SOL    HW226529   2.099   2.692   6.783
 8544SOL     OW26530   6.529   2.648   3.931
 8544SOL    HW126531   6.469   2.635   3.852
 8544SOL    HW226532   6.495   2.593   4.008
 8545SOL     OW26533   5.512   6.751   4.391
 8545SOL    HW126534   5.592   6.735   4.450
 8545SOL    HW226535   5.476   6.842   4.410
 8546SOL     OW26536   4.485   1.809   4.919
 8546SOL    HW126537   4.418   1.861   4.866
 8546SOL    HW226538   4.530   1.742   4.859
 8547SOL     OW26539   1.225   3.865   3.643
 8547SOL    HW126540   1.138   3.820   3.624
 8547SOL    HW226541   1.291   3.845   3.570
 8548SOL     OW26542   5.935   1.365   5.764
 8548SOL    HW126543   5.970   1.416   5.685
 8548SOL    HW226544   6.012   1.326   5.816
 8549SOL     OW26545   5.955   3.450   4.888
 8549SOL    HW126546   5.955   3.404   4.976
 8549SOL    HW226547   6.016   3.529   4.891
 8550SOL     OW26548   0.897   4.296   6.439
 8550SOL    HW126549   0.935   4.264   6.526
 8550SOL    HW226550   0.825   4.234   6.409
 8551SOL     OW26551   3.602   4.396   0.231
 8551SOL    HW126552   3.606   4.495   0.224
 8551SOL    HW226553   3.596   4.369   0.327
 8552SOL     OW26554   2.597   6.497   4.000
 8552SOL    HW126555   2.571   6.466   3.908
 8552SOL    HW226556   2.526   6.558   4.035
 8553SOL     OW26557   5.812   6.962   0.123
 8553SOL    HW126558   5.817   6.892   0.193
 8553SOL    HW226559   5.764   0.014   0.160
 8554SOL     OW26560   6.295   3.468   6.806
 8554SOL    HW126561   6.251   3.544   6.758
 8554SOL    HW226562   6.385   3.452   6.766
 8555SOL     OW26563   1.601   0.112   4.098
 8555SOL    HW126564   1.542   0.033   4.087
 8555SOL    HW226565   1.551   0.195   4.072
 8556SOL     OW26566   6.492   0.647   3.451
 8556SOL    HW126567   6.571   0.707   3.465
 8556SOL    HW226568   6.438   0.682   3.375
 8557SOL     OW26569   0.442   0.432   1.440
 8557SOL    HW126570   0.371   0.392   1.498
 8557SOL    HW226571   0.487   0.360   1.387
 8558SOL     OW26572   1.261   4.970   1.949
 8558SOL    HW126573   1.352   4.941   1.919
 8558SOL    HW226574   1.267   5.012   2.039
 8559SOL     OW26575   1.250   0.227   0.401
 8559SOL    HW126576   1.165   0.198   0.359
 8559SOL    HW226577   1.310   0.147   0.413
 8560SOL     OW26578   6.108   1.778   6.977
 8560SOL    HW126579   6.116   1.721   6.895
 8560SOL    HW226580   6.186   1.840   6.982
 8561SOL     OW26581   4.469   6.522   3.764
 8561SOL    HW126582   4.386   6.575   3.784
 8561SOL    HW226583   4.479   6.513   3.665
 8562SOL     OW26584   3.352   6.777   4.379
 8562SOL    HW126585   3.278   6.715   4.407
 8562SOL    HW226586   3.419   6.726   4.325
 8563SOL     OW26587   2.453   3.043   6.348
 8563SOL    HW126588   2.490   2.951   6.337
 8563SOL    HW226589   2.528   3.108   6.363
 8564SOL     OW26590   1.351   0.332   3.797
 8564SOL    HW126591   1.357   0.234   3.778
 8564SOL    HW226592   1.427   0.379   3.753
 8565SOL     OW26593   3.401   6.761   2.114
 8565SOL    HW126594   3.310   6.750   2.074
 8565SOL    HW226595   3.396   6.749   2.213
 8566SOL     OW26596   2.043   2.843   3.545
 8566SOL    HW126597   1.980   2.824   3.620
 8566SOL    HW226598   2.080   2.935   3.555
 8567SOL     OW26599   4.962   0.478   1.379
 8567SOL    HW126600   4.913   0.405   1.332
 8567SOL    HW226601   4.924   0.489   1.471
 8568SOL     OW26602   5.307   1.325   0.230
 8568SOL    HW126603   5.359   1.261   0.288
 8568SOL    HW226604   5.291   1.410   0.280
 8569SOL     OW26605   4.254   1.492   4.446
 8569SOL    HW126606   4.206   1.504   4.533
 8569SOL    HW226607   4.310   1.573   4.428
 8570SOL     OW26608   0.234   3.905   6.994
 8570SOL    HW126609   0.176   3.857   6.929
 8570SOL    HW226610   0.193   3.994   7.015
 8571SOL     OW26611   6.479   3.928   5.392
 8571SOL    HW126612   6.576   3.953   5.401
 8571SOL    HW226613   6.439   3.976   5.314
 8572SOL     OW26614   2.782   4.871   5.151
 8572SOL    HW126615   2.829   4.792   5.112
 8572SOL    HW226616   2.764   4.938   5.079
 8573SOL     OW26617   3.566   6.122   5.411
 8573SOL    HW126618   3.663   6.104   5.392
 8573SOL    HW226619   3.534   6.062   5.484
 8574SOL     OW26620   0.666   3.815   5.230
 8574SOL    HW126621   0.609   3.859   5.299
 8574SOL    HW226622   0.715   3.738   5.271
 8575SOL     OW26623   3.255   3.320   7.001
 8575SOL    HW126624   3.181   3.375   6.962
 8575SOL    HW226625   3.225   3.280   0.059
 8576SOL     OW26626   1.788   0.127   1.328
 8576SOL    HW126627   1.700   0.097   1.292
 8576SOL    HW226628   1.813   0.214   1.286
 8577SOL     OW26629   6.679   6.011   3.281
 8577SOL    HW126630   6.745   5.949   3.323
 8577SOL    HW226631   6.625   6.056   3.353
 8578SOL     OW26632   4.270   6.993   3.702
 8578SOL    HW126633   4.215   0.046   3.683
 8578SOL    HW226634   4.214   6.912   3.684
 8579SOL     OW26635   1.216   5.188   3.234
 8579SOL    HW126636   1.167   5.113   3.280
 8579SOL    HW226637   1.172   5.208   3.147
 8580SOL     OW26638   2.749   4.604   6.663
 8580SOL    HW126639   2.808   4.526   6.641
 8580SOL    HW226640   2.794   4.689   6.634
 8581SOL     OW26641   3.038   2.258   1.424
 8581SOL    HW126642   3.126   2.299   1.400
 8581SOL    HW226643   3.009   2.293   1.513
 8582SOL     OW26644   4.266   3.768   1.340
 8582SOL    HW126645   4.222   3.696   1.392
 8582SOL    HW226646   4.226   3.773   1.249
 8583SOL     OW26647   6.354   6.984   6.452
 8583SOL    HW126648   6.374   6.927   6.532
 8583SOL    HW226649   6.255   6.997   6.445
 8584SOL     OW26650   6.450   5.406   0.418
 8584SOL    HW126651   6.435   5.503   0.398
 8584SOL    HW226652   6.522   5.371   0.358
 8585SOL     OW26653   0.114   1.688   0.668
 8585SOL    HW126654   0.120   1.788   0.669
 8585SOL    HW226655   0.021   1.660   0.645
 8586SOL     OW26656   4.091   5.673   3.812
 8586SOL    HW126657   4.161   5.667   3.742
 8586SOL    HW226658   4.006   5.707   3.772
 8587SOL     OW26659   0.080   1.873   1.457
 8587SOL    HW126660   0.037   1.783   1.448
 8587SOL    HW226661   0.179   1.861   1.463
 8588SOL     OW26662   5.111   2.432   0.015
 8588SOL    HW126663   5.097   2.429   6.945
 8588SOL    HW226664   5.089   2.523   0.049
 8589SOL     OW26665   2.984   2.169   4.634
 8589SOL    HW126666   3.068   2.127   4.668
 8589SOL    HW226667   2.940   2.220   4.708
 8590SOL     OW26668   6.247   4.666   5.464
 8590SOL    HW126669   6.178   4.648   5.394
 8590SOL    HW226670   6.298   4.748   5.440
 8591SOL     OW26671   0.885   3.409   6.698
 8591SOL    HW126672   0.789   3.428   6.676
 8591SOL    HW226673   0.941   3.423   6.617
 8592SOL     OW26674   6.128   5.300   0.092
 8592SOL    HW126675   6.075   5.218   0.068
 8592SOL    HW226676   6.166   5.289   0.184
 8593SOL     OW26677   1.282   0.458   2.888
 8593SOL    HW126678   1.214   0.444   2.817
 8593SOL    HW226679   1.365   0.407   2.865
 8594SOL     OW26680   4.074   3.693   4.206
 8594SOL    HW126681   4.117   3.635   4.137
 8594SOL    HW226682   4.040   3.776   4.162
 8595SOL     OW26683   1.814   1.935   1.886
 8595SOL    HW126684   1.889   1.979   1.838
 8595SOL    HW226685   1.841   1.841   1.911
 8596SOL     OW26686   6.231   5.390   2.416
 8596SOL    HW126687   6.188   5.378   2.327
 8596SOL    HW226688   6.331   5.386   2.406
 8597SOL     OW26689   1.679   1.190   1.370
 8597SOL    HW126690   1.748   1.257   1.398
 8597SOL    HW226691   1.641   1.145   1.451
 8598SOL     OW26692   5.053   4.860   0.767
 8598SOL    HW126693   5.011   4.909   0.843
 8598SOL    HW226694   5.132   4.809   0.800
 8599SOL     OW26695   1.882   3.074   2.343
 8599SOL    HW126696   1.825   3.109   2.417
 8599SOL    HW226697   1.956   3.139   2.324
 8600SOL     OW26698   6.504   3.903   6.590
 8600SOL    HW126699   6.532   3.990   6.549
 8600SOL    HW226700   6.499   3.833   6.519
 8601SOL     OW26701   0.229   0.105   4.211
 8601SOL    HW126702   0.233   0.033   4.142
 8601SOL    HW226703   0.273   0.188   4.176
 8602SOL     OW26704   3.030   6.037   2.176
 8602SOL    HW126705   2.952   6.066   2.230
 8602SOL    HW226706   3.035   6.091   2.092
 8603SOL     OW26707   3.786   3.404   0.985
 8603SOL    HW126708   3.801   3.456   0.901
 8603SOL    HW226709   3.688   3.403   1.006
 8604SOL     OW26710   5.043   2.846   2.769
 8604SOL    HW126711   5.077   2.771   2.826
 8604SOL    HW226712   4.945   2.858   2.786
 8605SOL     OW26713   2.168   6.737   1.732
 8605SOL    HW126714   2.156   6.836   1.728
 8605SOL    HW226715   2.186   6.709   1.827
 8606SOL     OW26716   4.153   4.620   5.545
 8606SOL    HW126717   4.094   4.584   5.472
 8606SOL    HW226718   4.227   4.555   5.562
 8607SOL     OW26719   4.368   5.800   1.859
 8607SOL    HW126720   4.413   5.851   1.786
 8607SOL    HW226721   4.275   5.835   1.871
 8608SOL     OW26722   4.998   6.133   2.067
 8608SOL    HW126723   4.969   6.038   2.079
 8608SOL    HW226724   4.969   6.165   1.977
 8609SOL     OW26725   3.834   0.726   5.034
 8609SOL    HW126726   3.830   0.726   5.134
 8609SOL    HW226727   3.894   0.799   5.003
 8610SOL     OW26728   0.356   6.612   3.956
 8610SOL    HW126729   0.258   6.629   3.962
 8610SOL    HW226730   0.377   6.524   4.000
 8611SOL     OW26731   2.012   2.089   3.517
 8611SOL    HW126732   2.020   1.993   3.547
 8611SOL    HW226733   2.085   2.109   3.451
 8612SOL     OW26734   4.275   3.002   5.423
 8612SOL    HW126735   4.298   2.913   5.384
 8612SOL    HW226736   4.220   3.054   5.358
 8613SOL     OW26737   1.218   1.318   0.601
 8613SOL    HW126738   1.232   1.395   0.538
 8613SOL    HW226739   1.307   1.280   0.626
 8614SOL     OW26740   0.671   1.968   3.251
 8614SOL    HW126741   0.609   1.901   3.292
 8614SOL    HW226742   0.721   1.925   3.176
 8615SOL     OW26743   4.412   2.685   5.331
 8615SOL    HW126744   4.376   2.689   5.425
 8615SOL    HW226745   4.344   2.644   5.271
 8616SOL     OW26746   1.324   4.083   0.286
 8616SOL    HW126747   1.415   4.121   0.270
 8616SOL    HW226748   1.279   4.135   0.358
 8617SOL     OW26749   5.890   3.221   1.139
 8617SOL    HW126750   5.852   3.290   1.199
 8617SOL    HW226751   5.949   3.264   1.070
 8618SOL     OW26752   4.910   0.453   3.725
 8618SOL    HW126753   4.898   0.549   3.752
 8618SOL    HW226754   4.923   0.398   3.808
 8619SOL     OW26755   4.490   5.845   6.945
 8619SOL    HW126756   4.496   5.767   7.007
 8619SOL    HW226757   4.480   5.929   6.999
 8620SOL     OW26758   6.519   6.694   3.183
 8620SOL    HW126759   6.453   6.687   3.258
 8620SOL    HW226760   6.553   6.788   3.177
 8621SOL     OW26761   5.845   0.716   3.060
 8621SOL    HW126762   5.852   0.646   3.131
 8621SOL    HW226763   5.824   0.804   3.102
 8622SOL     OW26764   4.920   4.921   0.271
 8622SOL    HW126765   4.853   4.991   0.247
 8622SOL    HW226766   4.940   4.927   0.369
 8623SOL     OW26767   6.430   3.630   2.646
 8623SOL    HW126768   6.361   3.611   2.577
 8623SOL    HW226769   6.521   3.629   2.604
 8624SOL     OW26770   0.626   4.503   3.153
 8624SOL    HW126771   0.680   4.447   3.216
 8624SOL    HW226772   0.651   4.480   3.059
 8625SOL     OW26773   3.727   0.761   4.613
 8625SOL    HW126774   3.739   0.858   4.632
 8625SOL    HW226775   3.632   0.744   4.586
 8626SOL     OW26776   2.911   3.642   3.112
 8626SOL    HW126777   2.955   3.729   3.137
 8626SOL    HW226778   2.951   3.608   3.027
 8627SOL     OW26779   1.881   0.074   6.848
 8627SOL    HW126780   1.792   0.053   6.889
 8627SOL    HW226781   1.887   0.172   6.830
 8628SOL     OW26782   4.950   1.010   7.012
 8628SOL    HW126783   4.967   1.063   0.066
 8628SOL    HW226784   4.929   0.915   0.007
 8629SOL     OW26785   1.290   4.500   4.375
 8629SOL    HW126786   1.352   4.576   4.393
 8629SOL    HW226787   1.201   4.535   4.346
 8630SOL     OW26788   5.666   4.641   3.884
 8630SOL    HW126789   5.728   4.625   3.961
 8630SOL    HW226790   5.709   4.609   3.800
 8631SOL     OW26791   3.748   6.039   5.008
 8631SOL    HW126792   3.671   5.976   5.005
 8631SOL    HW226793   3.725   6.122   4.957
 8632SOL     OW26794   4.318   0.616   3.474
 8632SOL    HW126795   4.239   0.605   3.414
 8632SOL    HW226796   4.400   0.584   3.428
 8633SOL     OW26797   6.416   1.104   3.776
 8633SOL    HW126798   6.324   1.118   3.812
 8633SOL    HW226799   6.418   1.123   3.678
 8634SOL     OW26800   6.615   5.409   1.857
 8634SOL    HW126801   6.568   5.438   1.941
 8634SOL    HW226802   6.548   5.385   1.787
 8635SOL     OW26803   5.901   4.227   4.944
 8635SOL    HW126804   5.886   4.227   4.845
 8635SOL    HW226805   5.893   4.133   4.979
 8636SOL     OW26806   5.836   5.580   0.820
 8636SOL    HW126807   5.793   5.599   0.909
 8636SOL    HW226808   5.850   5.666   0.771
 8637SOL     OW26809   2.401   0.754   1.446
 8637SOL    HW126810   2.410   0.814   1.526
 8637SOL    HW226811   2.375   0.808   1.367
 8638SOL     OW26812   3.567   4.708   0.463
 8638SOL    HW126813   3.609   4.771   0.528
 8638SOL    HW226814   3.532   4.628   0.512
 8639SOL     OW26815   6.926   3.069   2.446
 8639SOL    HW126816   6.926   3.053   2.544
 8639SOL    HW226817   6.855   3.014   2.403
 8640SOL     OW26818   5.174   5.663   0.903
 8640SOL    HW126819   5.157   5.753   0.864
 8640SOL    HW226820   5.150   5.593   0.835
 8641SOL     OW26821   5.788   4.847   3.426
 8641SOL    HW126822   5.744   4.918   3.373
 8641SOL    HW226823   5.756   4.852   3.521
 8642SOL     OW26824   4.506   1.565   1.265
 8642SOL    HW126825   4.485   1.569   1.167
 8642SOL    HW226826   4.421   1.557   1.316
 8643SOL     OW26827   4.828   0.794   5.926
 8643SOL    HW126828   4.914   0.836   5.957
 8643SOL    HW226829   4.767   0.866   5.892
 8644SOL     OW26830   6.293   3.346   5.176
 8644SOL    HW126831   6.310   3.249   5.159
 8644SOL    HW226832   6.328   3.400   5.099
 8645SOL     OW26833   6.103   4.723   1.750
 8645SOL    HW126834   6.007   4.696   1.748
 8645SOL    HW226835   6.131   4.751   1.658
 8646SOL     OW26836   5.002   0.829   0.470
 8646SOL    HW126837   4.921   0.853   0.524
 8646SOL    HW226838   4.992   0.737   0.433
 8647SOL     OW26839   4.431   4.981   0.563
 8647SOL    HW126840   4.416   4.966   0.661
 8647SOL    HW226841   4.346   4.965   0.513
 8648SOL     OW26842   5.426   1.815   4.096
 8648SOL    HW126843   5.451   1.772   4.183
 8648SOL    HW226844   5.342   1.868   4.108
 8649SOL     OW26845   6.815   4.274   5.264
 8649SOL    HW126846   6.760   4.342   5.215
 8649SOL    HW226847   6.905   4.266   5.220
 8650SOL     OW26848   2.031   4.884   2.559
 8650SOL    HW126849   1.945   4.932   2.539
 8650SOL    HW226850   2.010   4.791   2.591
 8651SOL     OW26851   3.213   1.394   0.776
 8651SOL    HW126852   3.168   1.474   0.814
 8651SOL    HW226853   3.313   1.405   0.782
 8652SOL     OW26854   1.322   3.513   4.008
 8652SOL    HW126855   1.241   3.569   3.990
 8652SOL    HW226856   1.345   3.461   3.926
 8653SOL     OW26857   6.973   3.319   6.825
 8653SOL    HW126858   6.896   3.303   6.886
 8653SOL    HW226859   6.943   3.316   6.730
 8654SOL     OW26860   0.752   6.884   3.252
 8654SOL    HW126861   0.784   6.964   3.202
 8654SOL    HW226862   0.793   6.884   3.343
 8655SOL     OW26863   6.207   5.976   4.203
 8655SOL    HW126864   6.149   6.021   4.270
 8655SOL    HW226865   6.206   6.028   4.117
 8656SOL     OW26866   5.953   2.011   1.220
 8656SOL    HW126867   5.975   1.952   1.143
 8656SOL    HW226868   5.986   1.967   1.305
 8657SOL     OW26869   3.342   4.027   6.917
 8657SOL    HW126870   3.295   3.940   6.902
 8657SOL    HW226871   3.441   4.010   6.921
 8658SOL     OW26872   6.586   5.064   0.171
 8658SOL    HW126873   6.636   5.095   0.252
 8658SOL    HW226874   6.643   5.076   0.090
 8659SOL     OW26875   5.582   0.602   4.652
 8659SOL    HW126876   5.486   0.572   4.653
 8659SOL    HW226877   5.620   0.587   4.561
 8660SOL     OW26878   5.824   4.257   1.140
 8660SOL    HW126879   5.839   4.191   1.067
 8660SOL    HW226880   5.838   4.213   1.229
 8661SOL     OW26881   6.635   4.040   1.630
 8661SOL    HW126882   6.567   3.991   1.684
 8661SOL    HW226883   6.626   4.013   1.534
 8662SOL     OW26884   0.271   6.841   0.776
 8662SOL    HW126885   0.193   6.896   0.805
 8662SOL    HW226886   0.280   6.847   0.676
 8663SOL     OW26887   2.582   5.483   0.241
 8663SOL    HW126888   2.536   5.568   0.216
 8663SOL    HW226889   2.611   5.435   0.159
 8664SOL     OW26890   4.478   5.817   0.341
 8664SOL    HW126891   4.570   5.782   0.323
 8664SOL    HW226892   4.463   5.822   0.440
 8665SOL     OW26893   5.478   5.228   5.370
 8665SOL    HW126894   5.509   5.138   5.338
 8665SOL    HW226895   5.390   5.250   5.326
 8666SOL     OW26896   5.411   2.798   4.467
 8666SOL    HW126897   5.319   2.825   4.496
 8666SOL    HW226898   5.412   2.787   4.368
 8667SOL     OW26899   4.589   1.537   4.055
 8667SOL    HW126900   4.494   1.559   4.080
 8667SOL    HW226901   4.646   1.618   4.066
 8668SOL     OW26902   3.959   1.956   4.215
 8668SOL    HW126903   3.973   1.925   4.309
 8668SOL    HW226904   3.862   1.951   4.192
 8669SOL     OW26905   4.058   0.364   5.524
 8669SOL    HW126906   4.133   0.430   5.530
 8669SOL    HW226907   3.973   0.406   5.556
 8670SOL     OW26908   3.820   5.452   4.174
 8670SOL    HW126909   3.738   5.452   4.230
 8670SOL    HW226910   3.900   5.467   4.232
 8671SOL     OW26911   5.823   6.650   3.448
 8671SOL    HW126912   5.825   6.686   3.542
 8671SOL    HW226913   5.744   6.687   3.400
 8672SOL     OW26914   3.629   4.965   4.769
 8672SOL    HW126915   3.541   4.920   4.752
 8672SOL    HW226916   3.659   5.011   4.686
 8673SOL     OW26917   5.794   2.031   0.599
 8673SOL    HW126918   5.776   2.092   0.676
 8673SOL    HW226919   5.731   2.052   0.524
 8674SOL     OW26920   0.394   6.999   3.053
 8674SOL    HW126921   0.424   0.046   2.995
 8674SOL    HW226922   0.411   7.022   3.148
 8675SOL     OW26923   1.996   1.282   2.675
 8675SOL    HW126924   1.914   1.296   2.732
 8675SOL    HW226925   1.968   1.256   2.583
 8676SOL     OW26926   4.704   0.434   2.851
 8676SOL    HW126927   4.687   0.441   2.753
 8676SOL    HW226928   4.622   0.397   2.896
 8677SOL     OW26929   2.854   4.273   5.808
 8677SOL    HW126930   2.936   4.216   5.813
 8677SOL    HW226931   2.855   4.325   5.723
 8678SOL     OW26932   0.943   6.664   6.191
 8678SOL    HW126933   0.915   6.756   6.218
 8678SOL    HW226934   0.938   6.603   6.270
 8679SOL     OW26935   6.900   2.483   4.843
 8679SOL    HW126936   6.929   2.406   4.786
 8679SOL    HW226937   6.980   2.528   4.883
 8680SOL     OW26938   1.426   3.331   0.287
 8680SOL    HW126939   1.482   3.265   0.337
 8680SOL    HW226940   1.484   3.406   0.253
 8681SOL     OW26941   3.333   4.173   0.545
 8681SOL    HW126942   3.418   4.125   0.528
 8681SOL    HW226943   3.255   4.116   0.519
 8682SOL     OW26944   2.146   6.054   3.155
 8682SOL    HW126945   2.094   6.121   3.101
 8682SOL    HW226946   2.104   6.045   3.245
 8683SOL     OW26947   6.807   3.300   0.008
 8683SOL    HW126948   6.840   3.386   0.048
 8683SOL    HW226949   6.711   3.311   7.012
 8684SOL     OW26950   6.374   3.096   4.286
 8684SOL    HW126951   6.335   3.008   4.259
 8684SOL    HW226952   6.434   3.082   4.364
 8685SOL     OW26953   1.528   2.404   5.906
 8685SOL    HW126954   1.472   2.450   5.974
 8685SOL    HW226955   1.469   2.351   5.844
 8686SOL     OW26956   6.534   2.409   3.480
 8686SOL    HW126957   6.557   2.482   3.544
 8686SOL    HW226958   6.483   2.337   3.527
 8687SOL     OW26959   3.457   0.114   3.378
 8687SOL    HW126960   3.484   0.098   3.283
 8687SOL    HW226961   3.436   0.211   3.390
 8688SOL     OW26962   2.436   0.504   1.720
 8688SOL    HW126963   2.426   0.514   1.819
 8688SOL    HW226964   2.346   0.498   1.677
 8689SOL     OW26965   4.437   5.760   0.651
 8689SOL    HW126966   4.385   5.774   0.736
 8689SOL    HW226967   4.461   5.664   0.642
 8690SOL     OW26968   0.369   1.307   2.981
 8690SOL    HW126969   0.355   1.391   2.929
 8690SOL    HW226970   0.311   1.234   2.945
 8691SOL     OW26971   5.291   2.366   0.192
 8691SOL    HW126972   5.264   2.413   0.276
 8691SOL    HW226973   5.229   2.392   0.118
 8692SOL     OW26974   2.294   1.732   4.265
 8692SOL    HW126975   2.340   1.673   4.199
 8692SOL    HW226976   2.207   1.764   4.225
 8693SOL     OW26977   5.455   2.361   0.577
 8693SOL    HW126978   5.438   2.264   0.594
 8693SOL    HW226979   5.451   2.411   0.663
 8694SOL     OW26980   4.992   0.081   5.940
 8694SOL    HW126981   5.061   0.153   5.951
 8694SOL    HW226982   4.951   0.088   5.849
 8695SOL     OW26983   4.703   4.306   5.531
 8695SOL    HW126984   4.661   4.241   5.595
 8695SOL    HW226985   4.793   4.273   5.504
 8696SOL     OW26986   2.461   5.627   1.802
 8696SOL    HW126987   2.532   5.629   1.872
 8696SOL    HW226988   2.497   5.580   1.721
 8697SOL     OW26989   6.103   4.144   0.952
 8697SOL    HW126990   6.150   4.097   0.878
 8697SOL    HW226991   6.170   4.180   1.017
 8698SOL     OW26992   5.578   5.805   4.358
 8698SOL    HW126993   5.527   5.747   4.294
 8698SOL    HW226994   5.620   5.747   4.429
 8699SOL     OW26995   1.241   1.687   5.180
 8699SOL    HW126996   1.146   1.674   5.151
 8699SOL    HW226997   1.243   1.712   5.277
 8700SOL     OW26998   2.964   1.309   5.763
 8700SOL    HW126999   3.041   1.357   5.806
 8700SOL    HW227000   2.988   1.212   5.751
 8701SOL     OW27001   0.532   1.905   5.150
 8701SOL    HW127002   0.552   1.988   5.098
 8701SOL    HW227003   0.518   1.829   5.087
 8702SOL     OW27004   5.271   6.130   0.271
 8702SOL    HW127005   5.253   6.069   0.348
 8702SOL    HW227006   5.347   6.190   0.294
 8703SOL     OW27007   2.468   5.891   0.793
 8703SOL    HW127008   2.508   5.799   0.785
 8703SOL    HW227009   2.461   5.916   0.889
 8704SOL     OW27010   6.943   4.502   1.949
 8704SOL    HW127011   6.903   4.429   2.005
 8704SOL    HW227012   7.001   4.559   2.007
 8705SOL     OW27013   5.239   0.582   5.949
 8705SOL    HW127014   5.325   0.633   5.944
 8705SOL    HW227015   5.164   0.646   5.966
 8706SOL     OW27016   5.364   1.812   0.421
 8706SOL    HW127017   5.373   1.789   0.324
 8706SOL    HW227018   5.449   1.788   0.468
 8707SOL     OW27019   5.222   2.553   5.961
 8707SOL    HW127020   5.184   2.511   5.878
 8707SOL    HW227021   5.319   2.531   5.968
 8708SOL     OW27022   3.959   1.337   1.536
 8708SOL    HW127023   3.916   1.394   1.466
 8708SOL    HW227024   3.939   1.375   1.626
 8709SOL     OW27025   6.922   4.061   1.030
 8709SOL    HW127026   6.984   4.002   0.980
 8709SOL    HW227027   6.968   4.096   1.112
 8710SOL     OW27028   1.931   3.293   3.544
 8710SOL    HW127029   1.982   3.378   3.532
 8710SOL    HW227030   1.840   3.303   3.504
 8711SOL     OW27031   6.800   0.992   3.682
 8711SOL    HW127032   6.729   0.939   3.728
 8711SOL    HW227033   6.794   1.088   3.709
 8712SOL     OW27034   3.146   1.860   5.185
 8712SOL    HW127035   3.156   1.777   5.131
 8712SOL    HW227036   3.083   1.923   5.139
 8713SOL     OW27037   0.166   4.584   3.605
 8713SOL    HW127038   0.134   4.493   3.581
 8713SOL    HW227039   0.261   4.579   3.636
 8714SOL     OW27040   1.631   1.206   5.460
 8714SOL    HW127041   1.654   1.191   5.557
 8714SOL    HW227042   1.532   1.209   5.450
 8715SOL     OW27043   5.995   1.843   1.454
 8715SOL    HW127044   5.940   1.909   1.504
 8715SOL    HW227045   5.943   1.759   1.440
 8716SOL     OW27046   0.902   1.785   0.778
 8716SOL    HW127047   0.882   1.740   0.865
 8716SOL    HW227048   0.987   1.749   0.740
 8717SOL     OW27049   3.859   3.518   1.400
 8717SOL    HW127050   3.879   3.498   1.304
 8717SOL    HW227051   3.933   3.572   1.440
 8718SOL     OW27052   6.079   3.114   5.481
 8718SOL    HW127053   6.016   3.036   5.477
 8718SOL    HW227054   6.027   3.198   5.471
 8719SOL     OW27055   0.105   0.158   6.000
 8719SOL    HW127056   0.018   0.176   5.955
 8719SOL    HW227057   0.101   0.070   6.047
 8720SOL     OW27058   5.225   4.060   5.309
 8720SOL    HW127059   5.255   4.149   5.274
 8720SOL    HW227060   5.269   4.043   5.398
 8721SOL     OW27061   6.953   2.449   4.328
 8721SOL    HW127062   6.900   2.439   4.412
 8721SOL    HW227063   6.917   2.526   4.275
 8722SOL     OW27064   3.992   2.673   0.669
 8722SOL    HW127065   3.910   2.664   0.612
 8722SOL    HW227066   3.997   2.595   0.731
 8723SOL     OW27067   6.594   5.183   1.447
 8723SOL    HW127068   6.688   5.161   1.422
 8723SOL    HW227069   6.547   5.101   1.478
 8724SOL     OW27070   5.496   0.698   5.959
 8724SOL    HW127071   5.532   0.739   6.043
 8724SOL    HW227072   5.515   0.760   5.882
 8725SOL     OW27073   2.849   5.756   0.565
 8725SOL    HW127074   2.777   5.724   0.626
 8725SOL    HW227075   2.847   5.705   0.479
 8726SOL     OW27076   6.406   0.301   1.304
 8726SOL    HW127077   6.314   0.263   1.290
 8726SOL    HW227078   6.440   0.337   1.217
 8727SOL     OW27079   6.474   6.035   1.253
 8727SOL    HW127080   6.550   6.040   1.317
 8727SOL    HW227081   6.415   6.115   1.266
 8728SOL     OW27082   2.751   7.017   5.436
 8728SOL    HW127083   2.693   0.039   5.373
 8728SOL    HW227084   2.841   7.002   5.395
 8729SOL     OW27085   5.235   5.943   4.287
 8729SOL    HW127086   5.147   5.960   4.332
 8729SOL    HW227087   5.306   6.000   4.330
 8730SOL     OW27088   0.191   5.625   1.939
 8730SOL    HW127089   0.217   5.722   1.932
 8730SOL    HW227090   0.093   5.618   1.959
 8731SOL     OW27091   1.370   1.458   2.486
 8731SOL    HW127092   1.295   1.504   2.534
 8731SOL    HW227093   1.333   1.408   2.407
 8732SOL     OW27094   5.474   3.694   1.546
 8732SOL    HW127095   5.441   3.686   1.452
 8732SOL    HW227096   5.439   3.617   1.600
 8733SOL     OW27097   1.136   6.557   1.587
 8733SOL    HW127098   1.039   6.535   1.581
 8733SOL    HW227099   1.190   6.476   1.567
 8734SOL     OW27100   6.718   5.692   1.275
 8734SOL    HW127101   6.799   5.746   1.297
 8734SOL    HW227102   6.673   5.664   1.360
 8735SOL     OW27103   0.068   2.014   6.712
 8735SOL    HW127104   0.164   2.038   6.725
 8735SOL    HW227105   0.057   1.915   6.717
 8736SOL     OW27106   0.451   4.760   6.496
 8736SOL    HW127107   0.447   4.736   6.399
 8736SOL    HW227108   0.521   4.705   6.541
 8737SOL     OW27109   4.080   5.746   6.154
 8737SOL    HW127110   4.041   5.667   6.201
 8737SOL    HW227111   4.109   5.719   6.062
 8738SOL     OW27112   1.110   3.703   4.349
 8738SOL    HW127113   1.197   3.707   4.400
 8738SOL    HW227114   1.034   3.692   4.413
 8739SOL     OW27115   0.173   2.983   5.208
 8739SOL    HW127116   0.078   2.962   5.185
 8739SOL    HW227117   0.181   3.079   5.233
 8740SOL     OW27118   1.961   6.395   1.002
 8740SOL    HW127119   2.057   6.369   0.989
 8740SOL    HW227120   1.926   6.435   0.917
 8741SOL     OW27121   1.451   3.404   2.744
 8741SOL    HW127122   1.404   3.456   2.815
 8741SOL    HW227123   1.515   3.340   2.786
 8742SOL     OW27124   4.348   0.089   1.645
 8742SOL    HW127125   4.354   0.120   1.740
 8742SOL    HW227126   4.285   0.011   1.639
 8743SOL     OW27127   2.464   5.031   2.492
 8743SOL    HW127128   2.374   5.056   2.527
 8743SOL    HW227129   2.534   5.084   2.539
 8744SOL     OW27130   4.035   2.013   6.114
 8744SOL    HW127131   4.000   2.032   6.206
 8744SOL    HW227132   4.125   2.057   6.103
 8745SOL     OW27133   6.788   2.193   6.148
 8745SOL    HW127134   6.861   2.262   6.144
 8745SOL    HW227135   6.828   2.102   6.157
 8746SOL     OW27136   5.419   4.808   5.760
 8746SOL    HW127137   5.494   4.742   5.749
 8746SOL    HW227138   5.375   4.824   5.672
 8747SOL     OW27139   1.945   2.289   4.100
 8747SOL    HW127140   2.044   2.278   4.090
 8747SOL    HW227141   1.926   2.361   4.168
 8748SOL     OW27142   1.470   6.896   6.824
 8748SOL    HW127143   1.408   6.923   6.750
 8748SOL    HW227144   1.533   6.972   6.842
 8749SOL     OW27145   3.722   0.449   3.362
 8749SOL    HW127146   3.815   0.419   3.341
 8749SOL    HW227147   3.679   0.383   3.423
 8750SOL     OW27148   2.115   1.554   5.050
 8750SOL    HW127149   2.054   1.479   5.022
 8750SOL    HW227150   2.063   1.620   5.103
 8751SOL     OW27151   1.243   6.930   3.016
 8751SOL    HW127152   1.291   6.921   2.929
 8751SOL    HW227153   1.266   7.017   3.059
 8752SOL     OW27154   1.759   2.424   6.029
 8752SOL    HW127155   1.752   2.399   6.125
 8752SOL    HW227156   1.669   2.416   5.986
 8753SOL     OW27157   5.313   1.625   4.445
 8753SOL    HW127158   5.284   1.715   4.410
 8753SOL    HW227159   5.268   1.553   4.392
 8754SOL     OW27160   1.468   1.627   5.473
 8754SOL    HW127161   1.402   1.685   5.426
 8754SOL    HW227162   1.419   1.563   5.533
 8755SOL     OW27163   1.901   1.216   0.760
 8755SOL    HW127164   1.853   1.298   0.729
 8755SOL    HW227165   1.904   1.149   0.685
 8756SOL     OW27166   2.153   3.300   4.197
 8756SOL    HW127167   2.185   3.235   4.266
 8756SOL    HW227168   2.161   3.393   4.232
 8757SOL     OW27169   4.862   6.271   5.163
 8757SOL    HW127170   4.951   6.231   5.141
 8757SOL    HW227171   4.795   6.197   5.175
 8758SOL     OW27172   6.339   6.421   1.076
 8758SOL    HW127173   6.277   6.445   1.151
 8758SOL    HW227174   6.287   6.422   0.990
 8759SOL     OW27175   4.990   0.668   5.598
 8759SOL    HW127176   5.088   0.652   5.608
 8759SOL    HW227177   4.945   0.581   5.577
 8760SOL     OW27178   1.633   2.169   3.866
 8760SOL    HW127179   1.568   2.177   3.790
 8760SOL    HW227180   1.694   2.248   3.866
 8761SOL     OW27181   4.583   6.931   7.021
 8761SOL    HW127182   4.516   6.859   0.007
 8761SOL    HW227183   4.544   7.019   0.019
 8762SOL     OW27184   0.649   4.300   0.808
 8762SOL    HW127185   0.695   4.249   0.735
 8762SOL    HW227186   0.717   4.338   0.870
 8763SOL     OW27187   0.208   6.576   6.417
 8763SOL    HW127188   0.148   6.552   6.341
 8763SOL    HW227189   0.256   6.495   6.449
 8764SOL     OW27190   4.092   1.732   4.855
 8764SOL    HW127191   4.112   1.774   4.943
 8764SOL    HW227192   3.994   1.741   4.835
 8765SOL     OW27193   6.341   0.262   4.283
 8765SOL    HW127194   6.360   0.358   4.302
 8765SOL    HW227195   6.418   0.223   4.231
 8766SOL     OW27196   2.270   4.810   2.373
 8766SOL    HW127197   2.210   4.812   2.453
 8766SOL    HW227198   2.286   4.715   2.346
 8767SOL     OW27199   4.259   1.375   3.846
 8767SOL    HW127200   4.337   1.327   3.807
 8767SOL    HW227201   4.283   1.472   3.860
 8768SOL     OW27202   1.409   3.431   6.814
 8768SOL    HW127203   1.472   3.494   6.768
 8768SOL    HW227204   1.348   3.390   6.746
 8769SOL     OW27205   1.516   0.153   5.599
 8769SOL    HW127206   1.500   0.179   5.503
 8769SOL    HW227207   1.471   0.220   5.659
 8770SOL     OW27208   5.122   2.865   1.687
 8770SOL    HW127209   5.124   2.953   1.640
 8770SOL    HW227210   5.065   2.873   1.769
 8771SOL     OW27211   0.871   1.554   6.547
 8771SOL    HW127212   0.888   1.461   6.516
 8771SOL    HW227213   0.931   1.575   6.624
 8772SOL     OW27214   5.190   1.159   6.825
 8772SOL    HW127215   5.152   1.151   6.733
 8772SOL    HW227216   5.127   1.118   6.891
 8773SOL     OW27217   2.375   2.371   2.983
 8773SOL    HW127218   2.408   2.376   2.888
 8773SOL    HW227219   2.443   2.323   3.038
 8774SOL     OW27220   1.268   0.957   0.826
 8774SOL    HW127221   1.295   1.035   0.771
 8774SOL    HW227222   1.279   0.978   0.923
 8775SOL     OW27223   6.752   0.138   3.670
 8775SOL    HW127224   6.791   0.186   3.591
 8775SOL    HW227225   6.762   0.040   3.657
 8776SOL     OW27226   3.241   3.208   4.827
 8776SOL    HW127227   3.273   3.151   4.752
 8776SOL    HW227228   3.318   3.228   4.889
 8777SOL     OW27229   6.491   6.417   1.551
 8777SOL    HW127230   6.550   6.471   1.491
 8777SOL    HW227231   6.442   6.478   1.613
 8778SOL     OW27232   0.294   2.158   3.539
 8778SOL    HW127233   0.256   2.070   3.567
 8778SOL    HW227234   0.381   2.143   3.491
 8779SOL     OW27235   1.172   4.783   0.714
 8779SOL    HW127236   1.113   4.753   0.639
 8779SOL    HW227237   1.124   4.853   0.768
 8780SOL     OW27238   1.281   5.866   4.776
 8780SOL    HW127239   1.199   5.852   4.721
 8780SOL    HW227240   1.362   5.843   4.722
 8781SOL     OW27241   0.465   1.730   2.342
 8781SOL    HW127242   0.440   1.812   2.393
 8781SOL    HW227243   0.472   1.752   2.244
 8782SOL     OW27244   4.070   1.398   2.883
 8782SOL    HW127245   4.026   1.383   2.971
 8782SOL    HW227246   4.102   1.310   2.846
 8783SOL     OW27247   5.680   3.396   4.892
 8783SOL    HW127248   5.777   3.402   4.870
 8783SOL    HW227249   5.629   3.365   4.811
 8784SOL     OW27250   5.489   4.717   5.250
 8784SOL    HW127251   5.474   4.660   5.330
 8784SOL    HW227252   5.405   4.767   5.228
 8785SOL     OW27253   6.295   4.530   6.052
 8785SOL    HW127254   6.337   4.450   6.009
 8785SOL    HW227255   6.363   4.601   6.063
 8786SOL     OW27256   1.810   6.812   6.969
 8786SOL    HW127257   1.752   6.771   6.899
 8786SOL    HW227258   1.822   6.747   0.016
 8787SOL     OW27259   1.077   3.589   1.029
 8787SOL    HW127260   1.012   3.643   0.975
 8787SOL    HW227261   1.087   3.629   1.120
 8788SOL     OW27262   0.991   1.599   5.093
 8788SOL    HW127263   0.940   1.532   5.038
 8788SOL    HW227264   0.966   1.691   5.064
 8789SOL     OW27265   0.320   6.856   6.391
 8789SOL    HW127266   0.283   6.763   6.400
 8789SOL    HW227267   0.258   6.911   6.335
 8790SOL     OW27268   5.565   1.550   7.002
 8790SOL    HW127269   5.621   1.620   6.956
 8790SOL    HW227270   5.468   1.568   6.985
 8791SOL     OW27271   5.159   6.879   5.439
 8791SOL    HW127272   5.088   6.931   5.391
 8791SOL    HW227273   5.143   6.781   5.425
 8792SOL     OW27274   5.232   0.005   3.186
 8792SOL    HW127275   5.147   6.999   3.225
 8792SOL    HW227276   5.263   6.973   3.113
 8793SOL     OW27277   0.913   5.819   4.326
 8793SOL    HW127278   0.834   5.788   4.273
 8793SOL    HW227279   0.962   5.740   4.362
 8794SOL     OW27280   2.132   6.495   2.422
 8794SOL    HW127281   2.199   6.453   2.483
 8794SOL    HW227282   2.073   6.556   2.475
 8795SOL     OW27283   2.075   6.212   5.666
 8795SOL    HW127284   2.031   6.138   5.717
 8795SOL    HW227285   2.122   6.273   5.730
 8796SOL     OW27286   5.407   2.420   5.023
 8796SOL    HW127287   5.349   2.479   5.079
 8796SOL    HW227288   5.359   2.398   4.938
 8797SOL     OW27289   0.556   6.750   6.482
 8797SOL    HW127290   0.627   6.820   6.468
 8797SOL    HW227291   0.470   6.782   6.443
 8798SOL     OW27292   4.725   3.808   5.325
 8798SOL    HW127293   4.815   3.848   5.305
 8798SOL    HW227294   4.717   3.719   5.282
 8799SOL     OW27295   3.143   5.337   2.791
 8799SOL    HW127296   3.070   5.270   2.777
 8799SOL    HW227297   3.197   5.311   2.871
 8800SOL     OW27298   4.552   4.843   6.905
 8800SOL    HW127299   4.547   4.867   6.808
 8800SOL    HW227300   4.494   4.764   6.923
 8801SOL     OW27301   2.611   0.910   4.839
 8801SOL    HW127302   2.638   0.940   4.747
 8801SOL    HW227303   2.512   0.893   4.840
 8802SOL     OW27304   2.719   6.567   2.514
 8802SOL    HW127305   2.657   6.624   2.567
 8802SOL    HW227306   2.794   6.537   2.573
 8803SOL     OW27307   4.033   6.154   0.613
 8803SOL    HW127308   3.945   6.152   0.661
 8803SOL    HW227309   4.047   6.067   0.567
 8804SOL     OW27310   4.740   0.437   1.087
 8804SOL    HW127311   4.794   0.480   1.014
 8804SOL    HW227312   4.700   0.507   1.145
 8805SOL     OW27313   0.520   0.435   3.028
 8805SOL    HW127314   0.489   0.403   3.117
 8805SOL    HW227315   0.457   0.503   2.992
 8806SOL     OW27316   2.027   4.808   6.920
 8806SOL    HW127317   1.981   4.768   7.000
 8806SOL    HW227318   1.970   4.798   6.839
 8807SOL     OW27319   1.342   6.107   6.593
 8807SOL    HW127320   1.389   6.019   6.590
 8807SOL    HW227321   1.312   6.132   6.501
 8808SOL     OW27322   6.098   1.289   0.914
 8808SOL    HW127323   6.101   1.384   0.882
 8808SOL    HW227324   6.017   1.244   0.876
 8809SOL     OW27325   5.848   3.738   1.326
 8809SOL    HW127326   5.838   3.682   1.408
 8809SOL    HW227327   5.935   3.786   1.329
 8810SOL     OW27328   4.341   1.605   4.161
 8810SOL    HW127329   4.277   1.529   4.144
 8810SOL    HW227330   4.301   1.690   4.128
 8811SOL     OW27331   1.125   1.100   2.772
 8811SOL    HW127332   1.145   1.129   2.679
 8811SOL    HW227333   1.179   1.019   2.794
 8812SOL     OW27334   2.245   0.604   1.021
 8812SOL    HW127335   2.207   0.664   0.950
 8812SOL    HW227336   2.314   0.653   1.074
 8813SOL     OW27337   2.013   5.811   1.825
 8813SOL    HW127338   2.005   5.777   1.731
 8813SOL    HW227339   1.959   5.894   1.836
 8814SOL     OW27340   6.098   0.934   6.302
 8814SOL    HW127341   6.188   0.952   6.262
 8814SOL    HW227342   6.047   1.020   6.307
 8815SOL     OW27343   0.563   6.044   2.373
 8815SOL    HW127344   0.511   6.129   2.385
 8815SOL    HW227345   0.623   6.030   2.452
 8816SOL     OW27346   1.128   5.751   1.356
 8816SOL    HW127347   1.127   5.851   1.365
 8816SOL    HW227348   1.121   5.726   1.260
 8817SOL     OW27349   1.820   5.115   5.620
 8817SOL    HW127350   1.886   5.164   5.563
 8817SOL    HW227351   1.766   5.182   5.672
 8818SOL     OW27352   0.481   5.503   3.835
 8818SOL    HW127353   0.501   5.592   3.877
 8818SOL    HW227354   0.401   5.463   3.878
 8819SOL     OW27355   4.942   6.570   4.072
 8819SOL    HW127356   4.990   6.654   4.098
 8819SOL    HW227357   4.889   6.586   3.989
 8820SOL     OW27358   1.191   2.523   3.535
 8820SOL    HW127359   1.190   2.622   3.524
 8820SOL    HW227360   1.191   2.500   3.632
 8821SOL     OW27361   1.980   0.917   6.116
 8821SOL    HW127362   2.063   0.877   6.155
 8821SOL    HW227363   1.997   0.944   6.022
 8822SOL     OW27364   0.065   2.382   2.913
 8822SOL    HW127365   0.008   2.350   2.988
 8822SOL    HW227366   0.150   2.328   2.911
 8823SOL     OW27367   2.075   6.181   1.894
 8823SOL    HW127368   2.039   6.238   1.820
 8823SOL    HW227369   1.999   6.146   1.949
 8824SOL     OW27370   3.718   4.107   0.717
 8824SOL    HW127371   3.643   4.134   0.777
 8824SOL    HW227372   3.691   4.028   0.663
 8825SOL     OW27373   0.897   1.400   1.515
 8825SOL    HW127374   0.914   1.471   1.446
 8825SOL    HW227375   0.952   1.320   1.494
 8826SOL     OW27376   5.034   1.638   6.722
 8826SOL    HW127377   5.105   1.690   6.768
 8826SOL    HW227378   5.036   1.543   6.755
 8827SOL     OW27379   1.218   1.832   3.565
 8827SOL    HW127380   1.182   1.757   3.621
 8827SOL    HW227381   1.148   1.902   3.554
 8828SOL     OW27382   2.640   6.766   2.715
 8828SOL    HW127383   2.560   6.788   2.660
 8828SOL    HW227384   2.716   6.826   2.688
 8829SOL     OW27385   0.385   1.916   0.517
 8829SOL    HW127386   0.323   1.993   0.531
 8829SOL    HW227387   0.449   1.911   0.594
 8830SOL     OW27388   0.557   2.573   1.172
 8830SOL    HW127389   0.475   2.621   1.142
 8830SOL    HW227390   0.623   2.570   1.097
 8831SOL     OW27391   6.386   0.700   2.926
 8831SOL    HW127392   6.287   0.692   2.919
 8831SOL    HW227393   6.412   0.728   3.018
 8832SOL     OW27394   6.305   0.958   2.704
 8832SOL    HW127395   6.209   0.971   2.681
 8832SOL    HW227396   6.319   0.865   2.738
 8833SOL     OW27397   2.136   4.549   3.797
 8833SOL    HW127398   2.087   4.560   3.883
 8833SOL    HW227399   2.222   4.500   3.813
 8834SOL     OW27400   5.666   3.990   4.951
 8834SOL    HW127401   5.670   3.899   4.991
 8834SOL    HW227402   5.731   3.996   4.875
 8835SOL     OW27403   6.958   6.362   6.571
 8835SOL    HW127404   7.029   6.382   6.638
 8835SOL    HW227405   6.880   6.424   6.584
 8836SOL     OW27406   4.935   1.568   0.642
 8836SOL    HW127407   4.911   1.654   0.686
 8836SOL    HW227408   4.857   1.534   0.590
 8837SOL     OW27409   0.161   0.984   1.945
 8837SOL    HW127410   0.128   0.894   1.917
 8837SOL    HW227411   0.138   1.000   2.041
 8838SOL     OW27412   2.358   5.624   4.031
 8838SOL    HW127413   2.438   5.667   4.073
 8838SOL    HW227414   2.282   5.689   4.030
 8839SOL     OW27415   6.349   6.433   3.784
 8839SOL    HW127416   6.412   6.374   3.835
 8839SOL    HW227417   6.282   6.473   3.847
 8840SOL     OW27418   5.172   2.072   2.276
 8840SOL    HW127419   5.214   1.991   2.317
 8840SOL    HW227420   5.104   2.110   2.338
 8841SOL     OW27421   1.701   1.340   4.757
 8841SOL    HW127422   1.740   1.389   4.679
 8841SOL    HW227423   1.617   1.293   4.728
 8842SOL     OW27424   2.321   2.989   1.772
 8842SOL    HW127425   2.261   3.067   1.757
 8842SOL    HW227426   2.404   2.999   1.717
 8843SOL     OW27427   0.209   3.120   4.773
 8843SOL    HW127428   0.199   3.022   4.790
 8843SOL    HW227429   0.256   3.163   4.850
 8844SOL     OW27430   6.827   1.508   6.711
 8844SOL    HW127431   6.761   1.491   6.784
 8844SOL    HW227432   6.869   1.421   6.683
 8845SOL     OW27433   5.605   4.454   7.009
 8845SOL    HW127434   5.533   4.486   6.947
 8845SOL    HW227435   5.625   4.524   0.047
 8846SOL     OW27436   1.804   4.851   3.601
 8846SOL    HW127437   1.752   4.884   3.680
 8846SOL    HW227438   1.823   4.754   3.611
 8847SOL     OW27439   2.737   0.555   2.653
 8847SOL    HW127440   2.724   0.475   2.595
 8847SOL    HW227441   2.685   0.632   2.616
 8848SOL     OW27442   1.525   0.504   3.089
 8848SOL    HW127443   1.539   0.435   3.018
 8848SOL    HW227444   1.482   0.585   3.048
 8849SOL     OW27445   3.064   6.832   0.986
 8849SOL    HW127446   3.093   6.736   0.985
 8849SOL    HW227447   2.973   6.839   1.025
 8850SOL     OW27448   3.691   3.032   7.001
 8850SOL    HW127449   3.634   2.951   6.986
 8850SOL    HW227450   3.637   3.114   6.985
 8851SOL     OW27451   1.256   3.177   3.028
 8851SOL    HW127452   1.256   3.084   3.063
 8851SOL    HW227453   1.163   3.204   3.004
 8852SOL     OW27454   0.860   1.558   5.874
 8852SOL    HW127455   0.817   1.541   5.963
 8852SOL    HW227456   0.953   1.522   5.875
 8853SOL     OW27457   4.765   1.077   0.884
 8853SOL    HW127458   4.744   0.989   0.926
 8853SOL    HW227459   4.847   1.069   0.827
 8854SOL     OW27460   0.539   2.701   4.700
 8854SOL    HW127461   0.578   2.645   4.627
 8854SOL    HW227462   0.613   2.736   4.758
 8855SOL     OW27463   5.720   5.006   1.041
 8855SOL    HW127464   5.787   4.972   1.107
 8855SOL    HW227465   5.756   4.995   0.948
 8856SOL     OW27466   0.191   6.399   5.575
 8856SOL    HW127467   0.108   6.393   5.520
 8856SOL    HW227468   0.248   6.318   5.558
 8857SOL     OW27469   6.382   1.457   6.138
 8857SOL    HW127470   6.448   1.524   6.173
 8857SOL    HW227471   6.301   1.504   6.103
 8858SOL     OW27472   6.301   6.313   4.503
 8858SOL    HW127473   6.230   6.342   4.439
 8858SOL    HW227474   6.261   6.302   4.594
 8859SOL     OW27475   1.312   6.723   3.879
 8859SOL    HW127476   1.325   6.810   3.927
 8859SOL    HW227477   1.215   6.708   3.863
 8860SOL     OW27478   0.517   3.733   2.577
 8860SOL    HW127479   0.503   3.809   2.640
 8860SOL    HW227480   0.535   3.650   2.629
 8861SOL     OW27481   4.545   2.641   0.938
 8861SOL    HW127482   4.632   2.673   0.900
 8861SOL    HW227483   4.484   2.718   0.951
 8862SOL     OW27484   4.889   4.528   4.780
 8862SOL    HW127485   4.948   4.608   4.774
 8862SOL    HW227486   4.927   4.464   4.847
 8863SOL     OW27487   1.930   4.184   3.501
 8863SOL    HW127488   1.915   4.215   3.407
 8863SOL    HW227489   2.024   4.204   3.528
 8864SOL     OW27490   6.218   1.666   5.454
 8864SOL    HW127491   6.302   1.669   5.400
 8864SOL    HW227492   6.195   1.758   5.485
 8865SOL     OW27493   2.809   1.405   0.254
 8865SOL    HW127494   2.883   1.420   0.189
 8865SOL    HW227495   2.817   1.470   0.330
 8866SOL     OW27496   5.741   6.491   1.853
 8866SOL    HW127497   5.817   6.431   1.878
 8866SOL    HW227498   5.695   6.522   1.936
 8867SOL     OW27499   6.325   4.136   2.895
 8867SOL    HW127500   6.424   4.140   2.906
 8867SOL    HW227501   6.302   4.097   2.806
 8868SOL     OW27502   6.869   3.266   3.872
 8868SOL    HW127503   6.786   3.274   3.927
 8868SOL    HW227504   6.900   3.171   3.873
 8869SOL     OW27505   3.679   6.819   3.471
 8869SOL    HW127506   3.772   6.847   3.446
 8869SOL    HW227507   3.615   6.890   3.441
 8870SOL     OW27508   1.321   0.855   3.535
 8870SOL    HW127509   1.379   0.937   3.529
 8870SOL    HW227510   1.316   0.811   3.446
 8871SOL     OW27511   6.904   0.480   3.019
 8871SOL    HW127512   6.836   0.480   2.946
 8871SOL    HW227513   6.980   0.539   2.994
 8872SOL     OW27514   6.372   4.967   4.122
 8872SOL    HW127515   6.403   4.954   4.216
 8872SOL    HW227516   6.430   4.915   4.060
 8873SOL     OW27517   1.886   1.393   3.124
 8873SOL    HW127518   1.979   1.404   3.159
 8873SOL    HW227519   1.889   1.378   3.025
 8874SOL     OW27520   3.340   6.401   0.915
 8874SOL    HW127521   3.378   6.319   0.871
 8874SOL    HW227522   3.367   6.482   0.864
 8875SOL     OW27523   0.071   3.394   4.193
 8875SOL    HW127524   0.090   3.410   4.290
 8875SOL    HW227525   0.081   3.479   4.142
 8876SOL     OW27526   3.878   0.503   6.252
 8876SOL    HW127527   3.801   0.521   6.313
 8876SOL    HW227528   3.872   0.562   6.171
 8877SOL     OW27529   1.421   4.118   1.163
 8877SOL    HW127530   1.446   4.204   1.208
 8877SOL    HW227531   1.504   4.071   1.134
 8878SOL     OW27532   4.776   3.612   1.109
 8878SOL    HW127533   4.763   3.517   1.082
 8878SOL    HW227534   4.839   3.656   1.045
 8879SOL     OW27535   6.496   4.976   2.940
 8879SOL    HW127536   6.507   5.048   2.872
 8879SOL    HW227537   6.585   4.940   2.965
 8880SOL     OW27538   4.010   1.010   3.781
 8880SOL    HW127539   4.014   1.094   3.836
 8880SOL    HW227540   4.100   0.993   3.741
 8881SOL     OW27541   4.458   5.182   4.577
 8881SOL    HW127542   4.551   5.193   4.541
 8881SOL    HW227543   4.419   5.097   4.544
 8882SOL     OW27544   4.492   0.439   0.585
 8882SOL    HW127545   4.404   0.488   0.579
 8882SOL    HW227546   4.490   0.377   0.664
 8883SOL     OW27547   6.512   6.035   4.920
 8883SOL    HW127548   6.579   5.961   4.927
 8883SOL    HW227549   6.559   6.120   4.896
 8884SOL     OW27550   5.158   3.220   5.118
 8884SOL    HW127551   5.082   3.265   5.071
 8884SOL    HW227552   5.129   3.130   5.151
 8885SOL     OW27553   6.021   6.009   0.749
 8885SOL    HW127554   6.089   5.936   0.756
 8885SOL    HW227555   6.065   6.092   0.716
 8886SOL     OW27556   4.516   6.317   6.234
 8886SOL    HW127557   4.602   6.289   6.277
 8886SOL    HW227558   4.451   6.241   6.237
 8887SOL     OW27559   4.695   0.753   2.044
 8887SOL    HW127560   4.777   0.714   2.002
 8887SOL    HW227561   4.665   0.694   2.120
 8888SOL     OW27562   2.505   2.065   2.782
 8888SOL    HW127563   2.563   2.005   2.836
 8888SOL    HW227564   2.561   2.132   2.733
 8889SOL     OW27565   1.001   5.936   6.549
 8889SOL    HW127566   1.018   6.029   6.582
 8889SOL    HW227567   1.061   5.872   6.597
 8890SOL     OW27568   0.534   6.429   0.332
 8890SOL    HW127569   0.467   6.496   0.364
 8890SOL    HW227570   0.536   6.429   0.232
 8891SOL     OW27571   6.412   3.808   6.832
 8891SOL    HW127572   6.427   3.863   6.750
 8891SOL    HW227573   6.323   3.762   6.826
 8892SOL     OW27574   3.300   5.325   4.343
 8892SOL    HW127575   3.288   5.423   4.333
 8892SOL    HW227576   3.226   5.287   4.399
 8893SOL     OW27577   1.094   5.125   4.791
 8893SOL    HW127578   1.055   5.175   4.869
 8893SOL    HW227579   1.021   5.077   4.743
 8894SOL     OW27580   5.067   2.000   0.700
 8894SOL    HW127581   5.129   2.021   0.624
 8894SOL    HW227582   5.115   1.941   0.765
 8895SOL     OW27583   0.113   3.753   0.477
 8895SOL    HW127584   0.051   3.804   0.538
 8895SOL    HW227585   0.087   3.771   0.382
 8896SOL     OW27586   0.181   2.404   4.589
 8896SOL    HW127587   0.251   2.437   4.653
 8896SOL    HW227588   0.104   2.468   4.588
 8897SOL     OW27589   1.615   4.219   4.301
 8897SOL    HW127590   1.620   4.160   4.221
 8897SOL    HW227591   1.695   4.280   4.303
 8898SOL     OW27592   4.532   4.584   2.795
 8898SOL    HW127593   4.455   4.592   2.732
 8898SOL    HW227594   4.617   4.580   2.742
 8899SOL     OW27595   1.217   3.359   4.554
 8899SOL    HW127596   1.239   3.262   4.543
 8899SOL    HW227597   1.214   3.382   4.651
 8900SOL     OW27598   4.781   2.394   3.569
 8900SOL    HW127599   4.706   2.459   3.579
 8900SOL    HW227600   4.754   2.322   3.505
 8901SOL     OW27601   1.719   3.656   4.576
 8901SOL    HW127602   1.723   3.571   4.523
 8901SOL    HW227603   1.802   3.664   4.631
 8902SOL     OW27604   0.362   4.486   0.446
 8902SOL    HW127605   0.405   4.515   0.532
 8902SOL    HW227606   0.288   4.422   0.466
 8903SOL     OW27607   1.203   6.420   5.519
 8903SOL    HW127608   1.170   6.464   5.435
 8903SOL    HW227609   1.153   6.334   5.532
 8904SOL     OW27610   0.417   0.835   3.243
 8904SOL    HW127611   0.332   0.832   3.296
 8904SOL    HW227612   0.470   0.752   3.262
 8905SOL     OW27613   1.210   3.650   2.569
 8905SOL    HW127614   1.170   3.558   2.567
 8905SOL    HW227615   1.173   3.704   2.493
 8906SOL     OW27616   6.209   0.293   0.144
 8906SOL    HW127617   6.152   0.211   0.148
 8906SOL    HW227618   6.305   0.267   0.141
 8907SOL     OW27619   2.820   3.392   5.114
 8907SOL    HW127620   2.739   3.401   5.173
 8907SOL    HW227621   2.878   3.318   5.147
 8908SOL     OW27622   1.513   5.259   6.986
 8908SOL    HW127623   1.611   5.243   7.002
 8908SOL    HW227624   1.480   5.197   6.915
 8909SOL     OW27625   2.198   6.585   0.858
 8909SOL    HW127626   2.178   6.519   0.785
 8909SOL    HW227627   2.283   6.558   0.904
 8910SOL     OW27628   2.182   0.504   3.463
 8910SOL    HW127629   2.230   0.446   3.397
 8910SOL    HW227630   2.087   0.474   3.471
 8911SOL     OW27631   4.113   2.273   3.979
 8911SOL    HW127632   4.104   2.276   3.880
 8911SOL    HW227633   4.206   2.247   4.003
 8912SOL     OW27634   3.791   3.846   4.357
 8912SOL    HW127635   3.786   3.836   4.456
 8912SOL    HW227636   3.798   3.756   4.314
 8913SOL     OW27637   5.522   6.765   6.296
 8913SOL    HW127638   5.441   6.771   6.237
 8913SOL    HW227639   5.525   6.844   6.358
 8914SOL     OW27640   4.718   5.207   6.443
 8914SOL    HW127641   4.659   5.236   6.367
 8914SOL    HW227642   4.741   5.110   6.431
 8915SOL     OW27643   1.464   1.217   3.516
 8915SOL    HW127644   1.509   1.268   3.588
 8915SOL    HW227645   1.532   1.175   3.456
 8916SOL     OW27646   4.687   1.390   0.562
 8916SOL    HW127647   4.677   1.297   0.596
 8916SOL    HW227648   4.632   1.402   0.479
 8917SOL     OW27649   5.965   1.797   0.529
 8917SOL    HW127650   5.952   1.756   0.439
 8917SOL    HW227651   5.893   1.863   0.548
 8918SOL     OW27652   0.919   3.406   2.845
 8918SOL    HW127653   0.821   3.392   2.860
 8918SOL    HW227654   0.934   3.496   2.804
 8919SOL     OW27655   6.386   3.586   1.562
 8919SOL    HW127656   6.385   3.560   1.658
 8919SOL    HW227657   6.425   3.513   1.507
 8920SOL     OW27658   6.501   1.542   0.017
 8920SOL    HW127659   6.480   1.598   0.097
 8920SOL    HW227660   6.598   1.517   0.018
 8921SOL     OW27661   2.092   2.552   2.312
 8921SOL    HW127662   2.059   2.551   2.217
 8921SOL    HW227663   2.102   2.647   2.342
 8922SOL     OW27664   3.974   6.518   4.381
 8922SOL    HW127665   3.876   6.527   4.397
 8922SOL    HW227666   4.023   6.537   4.466
 8923SOL     OW27667   1.970   1.853   4.576
 8923SOL    HW127668   1.957   1.935   4.519
 8923SOL    HW227669   1.896   1.848   4.644
 8924SOL     OW27670   5.976   5.337   5.218
 8924SOL    HW127671   5.889   5.371   5.185
 8924SOL    HW227672   6.050   5.394   5.183
 8925SOL     OW27673   1.201   6.508   2.943
 8925SOL    HW127674   1.234   6.414   2.933
 8925SOL    HW227675   1.259   6.558   3.007
 8926SOL     OW27676   5.346   2.109   6.312
 8926SOL    HW127677   5.431   2.152   6.281
 8926SOL    HW227678   5.347   2.012   6.288
 8927SOL     OW27679   1.325   1.192   5.607
 8927SOL    HW127680   1.327   1.209   5.508
 8927SOL    HW227681   1.314   1.094   5.624
 8928SOL     OW27682   1.386   6.253   5.148
 8928SOL    HW127683   1.466   6.312   5.140
 8928SOL    HW227684   1.303   6.309   5.152
 8929SOL     OW27685   6.996   2.589   4.576
 8929SOL    HW127686   6.976   2.687   4.571
 8929SOL    HW227687   6.940   2.548   4.648
 8930SOL     OW27688   2.401   4.351   3.572
 8930SOL    HW127689   2.412   4.392   3.482
 8930SOL    HW227690   2.325   4.286   3.570
 8931SOL     OW27691   3.731   2.546   1.007
 8931SOL    HW127692   3.825   2.522   1.030
 8931SOL    HW227693   3.675   2.463   1.001
 8932SOL     OW27694   0.325   3.584   3.392
 8932SOL    HW127695   0.295   3.503   3.442
 8932SOL    HW227696   0.421   3.603   3.413
 8933SOL     OW27697   3.478   2.040   5.394
 8933SOL    HW127698   3.548   2.109   5.375
 8933SOL    HW227699   3.404   2.048   5.328
 8934SOL     OW27700   3.777   5.931   3.343
 8934SOL    HW127701   3.731   5.907   3.257
 8934SOL    HW227702   3.714   5.981   3.402
 8935SOL     OW27703   0.127   4.448   1.240
 8935SOL    HW127704   0.155   4.537   1.202
 8935SOL    HW227705   0.124   4.455   1.340
 8936SOL     OW27706   2.221   2.148   0.754
 8936SOL    HW127707   2.232   2.054   0.722
 8936SOL    HW227708   2.146   2.191   0.704
 8937SOL     OW27709   0.506   5.434   5.547
 8937SOL    HW127710   0.479   5.442   5.643
 8937SOL    HW227711   0.493   5.522   5.501
 8938SOL     OW27712   5.432   5.458   1.164
 8938SOL    HW127713   5.474   5.383   1.216
 8938SOL    HW227714   5.503   5.520   1.132
 8939SOL     OW27715   5.010   2.503   4.712
 8939SOL    HW127716   4.943   2.468   4.647
 8939SOL    HW227717   5.031   2.598   4.689
 8940SOL     OW27718   5.672   0.760   2.777
 8940SOL    HW127719   5.675   0.676   2.723
 8940SOL    HW227720   5.720   0.746   2.864
 8941SOL     OW27721   5.103   2.119   6.001
 8941SOL    HW127722   5.047   2.132   5.919
 8941SOL    HW227723   5.200   2.130   5.977
 8942SOL     OW27724   0.666   2.509   5.920
 8942SOL    HW127725   0.665   2.466   5.830
 8942SOL    HW227726   0.679   2.608   5.909
 8943SOL     OW27727   5.295   4.073   1.012
 8943SOL    HW127728   5.339   4.071   0.922
 8943SOL    HW227729   5.226   4.144   1.014
 8944SOL     OW27730   4.239   5.615   0.844
 8944SOL    HW127731   4.250   5.525   0.886
 8944SOL    HW227732   4.212   5.605   0.749
 8945SOL     OW27733   2.329   1.221   4.111
 8945SOL    HW127734   2.386   1.277   4.051
 8945SOL    HW227735   2.237   1.214   4.073
 8946SOL     OW27736   3.655   1.818   4.617
 8946SOL    HW127737   3.702   1.833   4.530
 8946SOL    HW227738   3.591   1.892   4.633
 8947SOL     OW27739   4.348   4.032   5.343
 8947SOL    HW127740   4.312   3.944   5.312
 8947SOL    HW227741   4.281   4.104   5.328
 8948SOL     OW27742   6.291   5.455   2.968
 8948SOL    HW127743   6.346   5.427   3.047
 8948SOL    HW227744   6.239   5.537   2.992
 8949SOL     OW27745   2.045   6.227   0.243
 8949SOL    HW127746   2.133   6.194   0.209
 8949SOL    HW227747   2.023   6.314   0.200
 8950SOL     OW27748   4.772   2.600   4.575
 8950SOL    HW127749   4.681   2.580   4.540
 8950SOL    HW227750   4.826   2.644   4.503
 8951SOL     OW27751   1.596   2.402   5.433
 8951SOL    HW127752   1.543   2.468   5.485
 8951SOL    HW227753   1.683   2.385   5.481
 8952SOL     OW27754   6.578   0.703   2.741
 8952SOL    HW127755   6.656   0.744   2.789
 8952SOL    HW227756   6.503   0.688   2.806
 8953SOL     OW27757   1.246   3.876   0.143
 8953SOL    HW127758   1.301   3.865   0.060
 8953SOL    HW227759   1.285   3.948   0.200
 8954SOL     OW27760   1.828   6.013   6.127
 8954SOL    HW127761   1.891   5.936   6.128
 8954SOL    HW227762   1.738   5.982   6.096
 8955SOL     OW27763   6.437   3.945   3.420
 8955SOL    HW127764   6.454   3.906   3.511
 8955SOL    HW227765   6.450   3.875   3.351
 8956SOL     OW27766   1.243   0.778   5.792
 8956SOL    HW127767   1.287   0.722   5.862
 8956SOL    HW227768   1.161   0.821   5.829
 8957SOL     OW27769   3.144   4.989   1.907
 8957SOL    HW127770   3.082   4.927   1.858
 8957SOL    HW227771   3.237   4.954   1.901
 8958SOL     OW27772   2.028   6.938   4.629
 8958SOL    HW127773   2.034   6.839   4.617
 8958SOL    HW227774   2.062   6.984   4.547
 8959SOL     OW27775   1.945   4.557   0.591
 8959SOL    HW127776   1.877   4.598   0.653
 8959SOL    HW227777   2.025   4.527   0.644
 8960SOL     OW27778   3.883   5.748   1.264
 8960SOL    HW127779   3.885   5.797   1.177
 8960SOL    HW227780   3.967   5.694   1.274
 8961SOL     OW27781   0.801   2.086   3.677
 8961SOL    HW127782   0.719   2.037   3.708
 8961SOL    HW227783   0.832   2.047   3.591
 8962SOL     OW27784   5.658   0.310   3.391
 8962SOL    HW127785   5.638   0.216   3.361
 8962SOL    HW227786   5.746   0.312   3.438
 8963SOL     OW27787   6.096   0.802   4.167
 8963SOL    HW127788   6.069   0.873   4.231
 8963SOL    HW227789   6.020   0.738   4.154
 8964SOL     OW27790   5.614   5.180   2.850
 8964SOL    HW127791   5.618   5.230   2.764
 8964SOL    HW227792   5.689   5.210   2.909
 8965SOL     OW27793   1.578   5.190   1.696
 8965SOL    HW127794   1.566   5.097   1.661
 8965SOL    HW227795   1.506   5.248   1.660
 8966SOL     OW27796   2.437   2.850   5.567
 8966SOL    HW127797   2.373   2.910   5.616
 8966SOL    HW227798   2.518   2.834   5.624
 8967SOL     OW27799   4.161   0.505   0.192
 8967SOL    HW127800   4.122   0.413   0.182
 8967SOL    HW227801   4.111   0.568   0.133
 8968SOL     OW27802   4.800   5.614   1.774
 8968SOL    HW127803   4.739   5.575   1.705
 8968SOL    HW227804   4.862   5.544   1.808
 8969SOL     OW27805   6.574   0.750   4.073
 8969SOL    HW127806   6.639   0.695   4.125
 8969SOL    HW227807   6.507   0.789   4.136
 8970SOL     OW27808   3.666   2.183   1.568
 8970SOL    HW127809   3.632   2.146   1.654
 8970SOL    HW227810   3.660   2.283   1.570
 8971SOL     OW27811   4.226   5.702   2.476
 8971SOL    HW127812   4.127   5.688   2.475
 8971SOL    HW227813   4.246   5.799   2.483
 8972SOL     OW27814   5.861   0.513   5.114
 8972SOL    HW127815   5.824   0.586   5.172
 8972SOL    HW227816   5.820   0.519   5.023
 8973SOL     OW27817   1.748   5.556   0.043
 8973SOL    HW127818   1.768   5.609   0.125
 8973SOL    HW227819   1.695   5.474   0.068
 8974SOL     OW27820   0.801   3.137   4.625
 8974SOL    HW127821   0.836   3.135   4.531
 8974SOL    HW227822   0.704   3.116   4.625
 8975SOL     OW27823   2.862   6.953   0.262
 8975SOL    HW127824   2.789   6.890   0.288
 8975SOL    HW227825   2.936   6.903   0.216
 8976SOL     OW27826   0.700   5.697   4.159
 8976SOL    HW127827   0.729   5.602   4.157
 8976SOL    HW227828   0.648   5.718   4.077
 8977SOL     OW27829   5.996   1.670   6.347
 8977SOL    HW127830   6.039   1.627   6.426
 8977SOL    HW227831   5.901   1.691   6.369
 8978SOL     OW27832   5.943   6.640   0.591
 8978SOL    HW127833   5.922   6.725   0.641
 8978SOL    HW227834   5.919   6.562   0.648
 8979SOL     OW27835   1.955   4.194   4.858
 8979SOL    HW127836   1.999   4.172   4.945
 8979SOL    HW227837   2.010   4.160   4.782
 8980SOL     OW27838   3.873   2.976   4.525
 8980SOL    HW127839   3.939   3.038   4.483
 8980SOL    HW227840   3.879   2.985   4.625
 8981SOL     OW27841   3.658   1.833   5.083
 8981SOL    HW127842   3.583   1.767   5.087
 8981SOL    HW227843   3.651   1.897   5.159
 8982SOL     OW27844   2.774   4.435   0.789
 8982SOL    HW127845   2.677   4.450   0.810
 8982SOL    HW227846   2.783   4.405   0.695
 8983SOL     OW27847   4.438   5.280   0.171
 8983SOL    HW127848   4.463   5.192   0.129
 8983SOL    HW227849   4.344   5.275   0.204
 8984SOL     OW27850   1.654   5.659   3.220
 8984SOL    HW127851   1.683   5.703   3.135
 8984SOL    HW227852   1.563   5.691   3.245
 8985SOL     OW27853   3.838   3.230   6.439
 8985SOL    HW127854   3.920   3.180   6.412
 8985SOL    HW227855   3.758   3.173   6.426
 8986SOL     OW27856   3.822   5.835   2.683
 8986SOL    HW127857   3.723   5.847   2.685
 8986SOL    HW227858   3.845   5.759   2.621
 8987SOL     OW27859   5.496   6.248   2.243
 8987SOL    HW127860   5.426   6.224   2.311
 8987SOL    HW227861   5.474   6.336   2.201
 8988SOL     OW27862   0.694   5.331   4.607
 8988SOL    HW127863   0.790   5.332   4.634
 8988SOL    HW227864   0.672   5.245   4.562
 8989SOL     OW27865   3.601   3.054   6.463
 8989SOL    HW127866   3.631   2.959   6.472
 8989SOL    HW227867   3.501   3.058   6.466
 8990SOL     OW27868   0.222   5.697   3.593
 8990SOL    HW127869   0.277   5.629   3.545
 8990SOL    HW227870   0.268   5.785   3.590
 8991SOL     OW27871   1.248   2.166   5.004
 8991SOL    HW127872   1.290   2.233   5.066
 8991SOL    HW227873   1.306   2.154   4.924
 8992SOL     OW27874   6.280   1.765   6.632
 8992SOL    HW127875   6.333   1.785   6.550
 8992SOL    HW227876   6.208   1.699   6.610
 8993SOL     OW27877   4.637   2.491   6.365
 8993SOL    HW127878   4.553   2.543   6.379
 8993SOL    HW227879   4.716   2.548   6.388
 8994SOL     OW27880   1.709   5.201   4.193
 8994SOL    HW127881   1.774   5.130   4.165
 8994SOL    HW227882   1.712   5.276   4.126
 8995SOL     OW27883   6.999   1.665   1.200
 8995SOL    HW127884   0.067   1.656   1.225
 8995SOL    HW227885   6.989   1.741   1.135
 8996SOL     OW27886   5.013   4.963   6.199
 8996SOL    HW127887   5.108   4.931   6.199
 8996SOL    HW227888   4.955   4.896   6.154
 8997SOL     OW27889   5.074   1.418   4.616
 8997SOL    HW127890   5.020   1.337   4.638
 8997SOL    HW227891   5.109   1.410   4.522
 8998SOL     OW27892   6.682   3.711   4.436
 8998SOL    HW127893   6.722   3.739   4.348
 8998SOL    HW227894   6.659   3.792   4.490
 8999SOL     OW27895   4.469   6.854   5.687
 8999SOL    HW127896   4.452   6.857   5.786
 8999SOL    HW227897   4.568   6.846   5.671
 9000SOL     OW27898   2.099   3.704   1.826
 9000SOL    HW127899   2.010   3.718   1.867
 9000SOL    HW227900   2.163   3.668   1.895
 9001SOL     OW27901   0.557   5.175   2.372
 9001SOL    HW127902   0.590   5.262   2.409
 9001SOL    HW227903   0.459   5.167   2.390
 9002SOL     OW27904   1.151   4.410   6.851
 9002SOL    HW127905   1.067   4.460   6.874
 9002SOL    HW227906   1.199   4.385   6.935
 9003SOL     OW27907   5.592   0.798   1.350
 9003SOL    HW127908   5.598   0.775   1.252
 9003SOL    HW227909   5.498   0.790   1.381
 9004SOL     OW27910   3.981   4.629   0.430
 9004SOL    HW127911   3.938   4.636   0.340
 9004SOL    HW227912   3.990   4.532   0.455
 9005SOL     OW27913   5.645   1.369   5.772
 9005SOL    HW127914   5.741   1.372   5.744
 9005SOL    HW227915   5.631   1.430   5.850
 9006SOL     OW27916   3.438   6.329   0.517
 9006SOL    HW127917   3.525   6.373   0.540
 9006SOL    HW227918   3.398   6.289   0.599
 9007SOL     OW27919   2.695   1.180   3.194
 9007SOL    HW127920   2.604   1.150   3.167
 9007SOL    HW227921   2.688   1.257   3.258
 9008SOL     OW27922   0.081   5.852   2.656
 9008SOL    HW127923   7.028   5.820   2.609
 9008SOL    HW227924   0.109   5.940   2.618
 9009SOL     OW27925   4.097   5.579   0.620
 9009SOL    HW127926   4.044   5.497   0.643
 9009SOL    HW227927   4.082   5.603   0.525
 9010SOL     OW27928   1.814   6.661   4.294
 9010SOL    HW127929   1.715   6.660   4.298
 9010SOL    HW227930   1.851   6.651   4.387
 9011SOL     OW27931   3.980   1.193   2.576
 9011SOL    HW127932   3.985   1.263   2.505
 9011SOL    HW227933   3.891   1.196   2.620
 9012SOL     OW27934   1.907   5.961   6.981
 9012SOL    HW127935   1.817   6.005   6.990
 9012SOL    HW227936   1.940   5.933   0.042
 9013SOL     OW27937   1.555   6.542   4.293
 9013SOL    HW127938   1.569   6.472   4.223
 9013SOL    HW227939   1.466   6.585   4.280
 9014SOL     OW27940   5.413   2.605   3.002
 9014SOL    HW127941   5.513   2.609   3.007
 9014SOL    HW227942   5.379   2.545   3.075
 9015SOL     OW27943   5.438   2.120   0.259
 9015SOL    HW127944   5.380   2.201   0.259
 9015SOL    HW227945   5.385   2.041   0.230
 9016SOL     OW27946   5.447   5.572   6.105
 9016SOL    HW127947   5.427   5.486   6.057
 9016SOL    HW227948   5.362   5.622   6.119
 9017SOL     OW27949   3.314   0.599   4.892
 9017SOL    HW127950   3.413   0.599   4.903
 9017SOL    HW227951   3.291   0.609   4.795
 9018SOL     OW27952   4.135   3.703   6.214
 9018SOL    HW127953   4.228   3.724   6.183
 9018SOL    HW227954   4.126   3.604   6.225
 9019SOL     OW27955   0.211   3.227   3.345
 9019SOL    HW127956   0.117   3.199   3.325
 9019SOL    HW227957   0.219   3.252   3.441
 9020SOL     OW27958   5.835   6.038   1.762
 9020SOL    HW127959   5.885   6.039   1.849
 9020SOL    HW227960   5.753   6.094   1.770
 9021SOL     OW27961   0.023   0.959   4.080
 9021SOL    HW127962   0.092   1.006   4.135
 9021SOL    HW227963   0.066   0.923   3.997
 9022SOL     OW27964   4.326   2.540   6.043
 9022SOL    HW127965   4.370   2.602   5.978
 9022SOL    HW227966   4.377   2.454   6.048
 9023SOL     OW27967   5.066   3.712   0.855
 9023SOL    HW127968   5.113   3.631   0.821
 9023SOL    HW227969   5.072   3.785   0.787
 9024SOL     OW27970   1.810   5.135   6.398
 9024SOL    HW127971   1.863   5.068   6.345
 9024SOL    HW227972   1.739   5.088   6.451
 9025SOL     OW27973   0.590   5.489   0.903
 9025SOL    HW127974   0.521   5.521   0.839
 9025SOL    HW227975   0.573   5.393   0.924
 9026SOL     OW27976   4.126   1.595   0.155
 9026SOL    HW127977   4.190   1.670   0.139
 9026SOL    HW227978   4.076   1.612   0.240
 9027SOL     OW27979   6.955   3.882   3.548
 9027SOL    HW127980   6.984   3.824   3.471
 9027SOL    HW227981   6.855   3.883   3.553
 9028SOL     OW27982   3.475   4.206   5.638
 9028SOL    HW127983   3.523   4.247   5.560
 9028SOL    HW227984   3.379   4.233   5.636
 9029SOL     OW27985   4.213   6.781   5.014
 9029SOL    HW127986   4.214   6.876   5.045
 9029SOL    HW227987   4.241   6.778   4.918
 9030SOL     OW27988   2.615   1.814   3.676
 9030SOL    HW127989   2.587   1.836   3.583
 9030SOL    HW227990   2.660   1.724   3.677
 9031SOL     OW27991   4.519   0.506   4.464
 9031SOL    HW127992   4.438   0.531   4.411
 9031SOL    HW227993   4.537   0.409   4.454
 9032SOL     OW27994   4.673   3.790   1.748
 9032SOL    HW127995   4.598   3.808   1.685
 9032SOL    HW227996   4.708   3.697   1.732
 9033SOL     OW27997   1.457   5.989   3.378
 9033SOL    HW127998   1.494   5.898   3.395
 9033SOL    HW227999   1.469   6.046   3.459
 9034SOL     OW28000   3.533   6.311   4.574
 9034SOL    HW128001   3.479   6.268   4.503
 9034SOL    HW228002   3.473   6.347   4.646
 9035SOL     OW28003   1.160   5.179   0.549
 9035SOL    HW128004   1.186   5.270   0.583
 9035SOL    HW228005   1.108   5.131   0.619
 9036SOL     OW28006   1.321   3.567   6.263
 9036SOL    HW128007   1.291   3.477   6.231
 9036SOL    HW228008   1.364   3.559   6.353
 9037SOL     OW28009   0.696   2.308   2.775
 9037SOL    HW128010   0.617   2.358   2.739
 9037SOL    HW228011   0.778   2.336   2.725
 9038SOL     OW28012   4.326   3.019   5.683
 9038SOL    HW128013   4.310   3.017   5.585
 9038SOL    HW228014   4.356   3.110   5.711
 9039SOL     OW28015   3.394   5.293   0.239
 9039SOL    HW128016   3.303   5.276   0.274
 9039SOL    HW228017   3.413   5.391   0.241
 9040SOL     OW28018   1.852   1.790   0.870
 9040SOL    HW128019   1.936   1.828   0.908
 9040SOL    HW228020   1.796   1.753   0.944
 9041SOL     OW28021   6.982   2.155   1.111
 9041SOL    HW128022   6.969   2.142   1.210
 9041SOL    HW228023   0.026   2.221   1.095
 9042SOL     OW28024   4.094   5.976   6.307
 9042SOL    HW128025   4.112   5.879   6.291
 9042SOL    HW228026   4.173   6.030   6.279
 9043SOL     OW28027   3.169   1.753   0.172
 9043SOL    HW128028   3.120   1.837   0.148
 9043SOL    HW228029   3.238   1.773   0.242
 9044SOL     OW28030   0.912   0.690   6.300
 9044SOL    HW128031   0.982   0.739   6.248
 9044SOL    HW228032   0.839   0.754   6.327
 9045SOL     OW28033   3.861   0.738   3.193
 9045SOL    HW128034   3.938   0.794   3.161
 9045SOL    HW228035   3.788   0.798   3.224
 9046SOL     OW28036   3.115   4.044   2.975
 9046SOL    HW128037   3.068   4.129   2.951
 9046SOL    HW228038   3.090   3.973   2.910
 9047SOL     OW28039   0.915   4.138   6.176
 9047SOL    HW128040   0.840   4.167   6.117
 9047SOL    HW228041   1.000   4.180   6.144
 9048SOL     OW28042   6.340   1.889   5.910
 9048SOL    HW128043   6.431   1.847   5.909
 9048SOL    HW228044   6.314   1.909   6.005
 9049SOL     OW28045   3.163   6.725   6.312
 9049SOL    HW128046   3.237   6.739   6.246
 9049SOL    HW228047   3.151   6.628   6.329
 9050SOL     OW28048   0.587   4.610   1.077
 9050SOL    HW128049   0.669   4.555   1.090
 9050SOL    HW228050   0.598   4.697   1.124
 9051SOL     OW28051   2.320   1.771   0.942
 9051SOL    HW128052   2.419   1.782   0.952
 9051SOL    HW228053   2.293   1.802   0.850
 9052SOL     OW28054   1.523   3.010   4.989
 9052SOL    HW128055   1.560   3.085   5.043
 9052SOL    HW228056   1.536   2.924   5.037
 9053SOL     OW28057   1.717   1.403   0.645
 9053SOL    HW128058   1.691   1.307   0.628
 9053SOL    HW228059   1.634   1.456   0.662
 9054SOL     OW28060   2.364   5.653   3.637
 9054SOL    HW128061   2.309   5.591   3.693
 9054SOL    HW228062   2.305   5.698   3.569
 9055SOL     OW28063   0.344   3.998   4.697
 9055SOL    HW128064   0.291   3.919   4.665
 9055SOL    HW228065   0.361   3.990   4.795
 9056SOL     OW28066   6.680   1.977   2.639
 9056SOL    HW128067   6.699   2.073   2.620
 9056SOL    HW228068   6.623   1.940   2.566
 9057SOL     OW28069   4.676   2.087   4.153
 9057SOL    HW128070   4.710   2.063   4.063
 9057SOL    HW228071   4.743   2.145   4.200
 9058SOL     OW28072   1.778   0.720   6.083
 9058SOL    HW128073   1.844   0.794   6.093
 9058SOL    HW228074   1.714   0.742   6.008
 9059SOL     OW28075   1.380   2.071   2.603
 9059SOL    HW128076   1.321   2.009   2.654
 9059SOL    HW228077   1.326   2.151   2.574
 9060SOL     OW28078   5.710   2.607   4.717
 9060SOL    HW128079   5.754   2.543   4.654
 9060SOL    HW228080   5.701   2.565   4.808
 9061SOL     OW28081   4.545   5.709   2.689
 9061SOL    HW128082   4.561   5.764   2.607
 9061SOL    HW228083   4.454   5.667   2.684
 9062SOL     OW28084   1.872   5.590   0.782
 9062SOL    HW128085   1.962   5.609   0.821
 9062SOL    HW228086   1.881   5.570   0.685
 9063SOL     OW28087   3.314   1.740   2.140
 9063SOL    HW128088   3.302   1.834   2.111
 9063SOL    HW228089   3.280   1.678   2.070
 9064SOL     OW28090   6.137   3.117   0.088
 9064SOL    HW128091   6.051   3.139   0.133
 9064SOL    HW228092   6.123   3.040   0.025
 9065SOL     OW28093   2.419   0.957   0.169
 9065SOL    HW128094   2.425   0.917   0.261
 9065SOL    HW228095   2.509   0.991   0.141
 9066SOL     OW28096   4.827   6.821   0.081
 9066SOL    HW128097   4.831   6.862   0.172
 9066SOL    HW228098   4.749   6.858   0.031
 9067SOL     OW28099   2.040   6.447   3.505
 9067SOL    HW128100   2.054   6.350   3.526
 9067SOL    HW228101   2.013   6.457   3.410
 9068SOL     OW28102   1.974   5.916   6.702
 9068SOL    HW128103   2.071   5.899   6.718
 9068SOL    HW228104   1.925   5.918   6.789
 9069SOL     OW28105   1.591   2.236   6.581
 9069SOL    HW128106   1.527   2.300   6.539
 9069SOL    HW228107   1.568   2.224   6.677
 9070SOL     OW28108   1.496   4.369   3.743
 9070SOL    HW128109   1.565   4.426   3.787
 9070SOL    HW228110   1.435   4.427   3.689
 9071SOL     OW28111   5.863   6.802   6.792
 9071SOL    HW128112   5.816   6.872   6.847
 9071SOL    HW228113   5.817   6.793   6.704
 9072SOL     OW28114   5.757   4.815   6.554
 9072SOL    HW128115   5.797   4.902   6.582
 9072SOL    HW228116   5.762   4.806   6.454
 9073SOL     OW28117   1.928   0.698   1.956
 9073SOL    HW128118   1.871   0.637   2.010
 9073SOL    HW228119   1.886   0.712   1.866
 9074SOL     OW28120   1.308   6.704   3.121
 9074SOL    HW128121   1.296   6.796   3.083
 9074SOL    HW228122   1.256   6.696   3.206
 9075SOL     OW28123   0.177   0.868   2.570
 9075SOL    HW128124   0.235   0.949   2.577
 9075SOL    HW228125   0.081   0.895   2.579
 9076SOL     OW28126   6.300   1.168   5.545
 9076SOL    HW128127   6.226   1.101   5.540
 9076SOL    HW228128   6.383   1.129   5.504
 9077SOL     OW28129   6.089   6.069   1.936
 9077SOL    HW128130   6.069   6.012   2.015
 9077SOL    HW228131   6.135   6.015   1.866
 9078SOL     OW28132   3.528   2.869   4.729
 9078SOL    HW128133   3.557   2.865   4.633
 9078SOL    HW228134   3.596   2.823   4.786
 9079SOL     OW28135   3.327   0.550   5.919
 9079SOL    HW128136   3.314   0.451   5.925
 9079SOL    HW228137   3.282   0.584   5.836
 9080SOL     OW28138   5.028   2.292   0.490
 9080SOL    HW128139   5.108   2.350   0.475
 9080SOL    HW228140   4.987   2.270   0.401
 9081SOL     OW28141   5.564   6.842   2.148
 9081SOL    HW128142   5.586   6.916   2.085
 9081SOL    HW228143   5.574   6.874   2.242
 9082SOL     OW28144   3.326   1.553   3.638
 9082SOL    HW128145   3.264   1.557   3.716
 9082SOL    HW228146   3.366   1.643   3.622
 9083SOL     OW28147   4.270   4.974   4.446
 9083SOL    HW128148   4.174   4.982   4.472
 9083SOL    HW228149   4.280   4.900   4.379
 9084SOL     OW28150   3.475   3.598   2.927
 9084SOL    HW128151   3.558   3.543   2.938
 9084SOL    HW228152   3.483   3.682   2.981
 9085SOL     OW28153   1.127   2.146   0.487
 9085SOL    HW128154   1.052   2.147   0.421
 9085SOL    HW228155   1.133   2.056   0.529
 9086SOL     OW28156   0.069   3.899   0.899
 9086SOL    HW128157   0.094   3.815   0.946
 9086SOL    HW228158   0.125   3.974   0.933
 9087SOL     OW28159   4.748   4.050   1.495
 9087SOL    HW128160   4.721   4.100   1.412
 9087SOL    HW228161   4.735   4.109   1.574
 9088SOL     OW28162   4.947   6.870   0.399
 9088SOL    HW128163   4.958   6.824   0.487
 9088SOL    HW228164   4.957   6.804   0.325
 9089SOL     OW28165   4.587   0.439   5.631
 9089SOL    HW128166   4.622   0.504   5.698
 9089SOL    HW228167   4.660   0.379   5.600
 9090SOL     OW28168   6.424   1.301   4.242
 9090SOL    HW128169   6.472   1.216   4.264
 9090SOL    HW228170   6.482   1.358   4.183
 9091SOL     OW28171   2.846   3.032   6.739
 9091SOL    HW128172   2.848   3.064   6.833
 9091SOL    HW228173   2.801   3.101   6.681
 9092SOL     OW28174   0.352   2.912   6.684
 9092SOL    HW128175   0.344   2.865   6.771
 9092SOL    HW228176   0.262   2.943   6.654
 9093SOL     OW28177   1.669   6.071   5.761
 9093SOL    HW128178   1.643   6.088   5.856
 9093SOL    HW228179   1.718   5.984   5.754
 9094SOL     OW28180   0.624   3.735   2.153
 9094SOL    HW128181   0.646   3.665   2.086
 9094SOL    HW228182   0.546   3.789   2.121
 9095SOL     OW28183   6.444   5.957   5.201
 9095SOL    HW128184   6.453   5.970   5.103
 9095SOL    HW228185   6.435   6.046   5.246
 9096SOL     OW28186   6.615   6.077   3.025
 9096SOL    HW128187   6.572   6.011   2.964
 9096SOL    HW228188   6.616   6.041   3.119
 9097SOL     OW28189   1.596   1.881   5.875
 9097SOL    HW128190   1.684   1.927   5.888
 9097SOL    HW228191   1.592   1.842   5.783
 9098SOL     OW28192   1.692   3.787   4.147
 9098SOL    HW128193   1.602   3.758   4.181
 9098SOL    HW228194   1.755   3.710   4.150
 9099SOL     OW28195   3.102   2.460   6.691
 9099SOL    HW128196   3.120   2.524   6.766
 9099SOL    HW228197   3.004   2.449   6.679
 9100SOL     OW28198   1.087   4.583   3.433
 9100SOL    HW128199   1.062   4.514   3.501
 9100SOL    HW228200   1.162   4.549   3.377
 9101SOL     OW28201   0.935   2.398   1.450
 9101SOL    HW128202   0.900   2.446   1.531
 9101SOL    HW228203   0.863   2.338   1.414
 9102SOL     OW28204   4.249   6.726   3.224
 9102SOL    HW128205   4.255   6.631   3.196
 9102SOL    HW228206   4.327   6.748   3.283
 9103SOL     OW28207   6.375   1.067   0.709
 9103SOL    HW128208   6.403   0.972   0.726
 9103SOL    HW228209   6.397   1.123   0.788
 9104SOL     OW28210   5.808   2.111   6.607
 9104SOL    HW128211   5.837   2.171   6.533
 9104SOL    HW228212   5.748   2.161   6.669
 9105SOL     OW28213   1.642   0.826   5.874
 9105SOL    HW128214   1.714   0.810   5.806
 9105SOL    HW228215   1.556   0.848   5.827
 9106SOL     OW28216   1.563   4.178   0.427
 9106SOL    HW128217   1.605   4.220   0.347
 9106SOL    HW228218   1.555   4.246   0.500
 9107SOL     OW28219   2.542   1.349   0.447
 9107SOL    HW128220   2.492   1.405   0.382
 9107SOL    HW228221   2.630   1.392   0.467
 9108SOL     OW28222   5.765   5.602   6.456
 9108SOL    HW128223   5.737   5.540   6.384
 9108SOL    HW228224   5.698   5.601   6.530
 9109SOL     OW28225   5.110   3.655   2.508
 9109SOL    HW128226   5.067   3.695   2.589
 9109SOL    HW228227   5.040   3.610   2.453
 9110SOL     OW28228   1.557   6.182   4.340
 9110SOL    HW128229   1.518   6.111   4.397
 9110SOL    HW228230   1.491   6.211   4.271
 9111SOL     OW28231   4.674   2.271   6.211
 9111SOL    HW128232   4.653   2.356   6.259
 9111SOL    HW228233   4.713   2.291   6.122
 9112SOL     OW28234   1.249   5.498   1.791
 9112SOL    HW128235   1.299   5.434   1.848
 9112SOL    HW228236   1.151   5.480   1.798
 9113SOL     OW28237   5.628   1.199   4.006
 9113SOL    HW128238   5.618   1.137   4.083
 9113SOL    HW228239   5.541   1.204   3.956
 9114SOL     OW28240   1.574   6.168   5.517
 9114SOL    HW128241   1.587   6.108   5.596
 9114SOL    HW228242   1.497   6.135   5.463
 9115SOL     OW28243   5.281   4.572   4.136
 9115SOL    HW128244   5.210   4.642   4.133
 9115SOL    HW228245   5.253   4.498   4.198
 9116SOL     OW28246   1.549   0.028   3.497
 9116SOL    HW128247   1.606   0.104   3.529
 9116SOL    HW228248   1.593   7.014   3.418
 9117SOL     OW28249   3.032   6.295   0.075
 9117SOL    HW128250   3.025   6.325   7.009
 9117SOL    HW228251   3.004   6.370   0.135
 9118SOL     OW28252   6.258   4.244   2.281
 9118SOL    HW128253   6.266   4.286   2.191
 9118SOL    HW228254   6.269   4.314   2.352
 9119SOL     OW28255   3.383   0.188   0.183
 9119SOL    HW128256   3.475   0.169   0.220
 9119SOL    HW228257   3.336   0.102   0.166
 9120SOL     OW28258   5.831   4.041   4.744
 9120SOL    HW128259   5.927   4.013   4.753
 9120SOL    HW228260   5.797   4.018   4.653
 9121SOL     OW28261   2.987   0.752   4.926
 9121SOL    HW128262   3.058   0.767   4.857
 9121SOL    HW228263   2.901   0.727   4.880
 9122SOL     OW28264   1.609   3.563   1.909
 9122SOL    HW128265   1.587   3.660   1.903
 9122SOL    HW228266   1.681   3.549   1.977
 9123SOL     OW28267   0.138   6.854   4.147
 9123SOL    HW128268   0.125   6.869   4.245
 9123SOL    HW228269   0.107   6.761   4.124
 9124SOL     OW28270   2.633   5.658   0.723
 9124SOL    HW128271   2.582   5.646   0.637
 9124SOL    HW228272   2.637   5.570   0.772
 9125SOL     OW28273   5.200   6.359   1.280
 9125SOL    HW128274   5.124   6.321   1.226
 9125SOL    HW228275   5.260   6.284   1.309
 9126SOL     OW28276   4.025   4.520   0.741
 9126SOL    HW128277   3.939   4.563   0.769
 9126SOL    HW228278   4.011   4.421   0.734
 9127SOL     OW28279   6.647   4.560   4.543
 9127SOL    HW128280   6.674   4.656   4.534
 9127SOL    HW228281   6.582   4.537   4.470
 9128SOL     OW28282   5.761   4.587   6.125
 9128SOL    HW128283   5.849   4.575   6.079
 9128SOL    HW228284   5.691   4.534   6.077
 9129SOL     OW28285   0.873   3.429   0.809
 9129SOL    HW128286   0.866   3.336   0.772
 9129SOL    HW228287   0.949   3.433   0.874
 9130SOL     OW28288   2.900   3.829   4.932
 9130SOL    HW128289   2.962   3.848   4.856
 9130SOL    HW228290   2.872   3.733   4.929
 9131SOL     OW28291   4.762   2.653   0.256
 9131SOL    HW128292   4.674   2.654   0.207
 9131SOL    HW228293   4.802   2.562   0.251
 9132SOL     OW28294   0.321   4.051   3.667
 9132SOL    HW128295   0.339   3.990   3.744
 9132SOL    HW228296   0.228   4.034   3.633
 9133SOL     OW28297   5.603   0.527   0.796
 9133SOL    HW128298   5.660   0.504   0.875
 9133SOL    HW228299   5.659   0.575   0.728
 9134SOL     OW28300   4.654   4.858   0.918
 9134SOL    HW128301   4.706   4.788   0.966
 9134SOL    HW228302   4.716   4.928   0.884
 9135SOL     OW28303   6.231   6.567   2.422
 9135SOL    HW128304   6.304   6.627   2.389
 9135SOL    HW228305   6.195   6.514   2.346
 9136SOL     OW28306   6.637   4.240   7.000
 9136SOL    HW128307   6.580   4.159   7.014
 9136SOL    HW228308   6.582   4.315   6.963
 9137SOL     OW28309   5.187   6.137   5.685
 9137SOL    HW128310   5.174   6.042   5.656
 9137SOL    HW228311   5.135   6.154   5.768
 9138SOL     OW28312   2.584   3.470   0.159
 9138SOL    HW128313   2.621   3.446   0.249
 9138SOL    HW228314   2.541   3.560   0.164
 9139SOL     OW28315   6.558   0.063   0.465
 9139SOL    HW128316   6.575   0.095   0.558
 9139SOL    HW228317   6.473   0.010   0.463
 9140SOL     OW28318   1.837   3.637   3.501
 9140SOL    HW128319   1.805   3.676   3.587
 9140SOL    HW228320   1.781   3.557   3.478
 9141SOL     OW28321   0.032   5.194   4.785
 9141SOL    HW128322   0.120   5.215   4.827
 9141SOL    HW228323   6.990   5.193   4.856
 9142SOL     OW28324   1.282   4.392   4.785
 9142SOL    HW128325   1.212   4.356   4.723
 9142SOL    HW228326   1.362   4.332   4.783
 9143SOL     OW28327   6.827   4.279   2.091
 9143SOL    HW128328   6.786   4.241   2.008
 9143SOL    HW228329   6.755   4.305   2.155
 9144SOL     OW28330   2.937   4.735   5.451
 9144SOL    HW128331   2.945   4.824   5.405
 9144SOL    HW228332   2.932   4.662   5.382
 9145SOL     OW28333   1.564   6.000   6.024
 9145SOL    HW128334   1.498   5.937   6.065
 9145SOL    HW228335   1.558   6.088   6.070
 9146SOL     OW28336   5.629   3.073   3.202
 9146SOL    HW128337   5.583   3.137   3.141
 9146SOL    HW228338   5.655   3.119   3.287
 9147SOL     OW28339   4.077   0.227   5.259
 9147SOL    HW128340   4.093   0.290   5.336
 9147SOL    HW228341   4.040   0.278   5.182
 9148SOL     OW28342   5.591   5.713   1.475
 9148SOL    HW128343   5.562   5.724   1.570
 9148SOL    HW228344   5.688   5.737   1.467
 9149SOL     OW28345   0.032   4.189   1.247
 9149SOL    HW128346   7.027   4.177   1.340
 9149SOL    HW228347   0.071   4.281   1.237
 9150SOL     OW28348   2.463   3.230   0.287
 9150SOL    HW128349   2.457   3.274   0.198
 9150SOL    HW228350   2.410   3.283   0.354
 9151SOL     OW28351   1.656   3.276   3.984
 9151SOL    HW128352   1.595   3.200   4.004
 9151SOL    HW228353   1.724   3.248   3.916
 9152SOL     OW28354   1.504   4.069   2.765
 9152SOL    HW128355   1.572   4.054   2.693
 9152SOL    HW228356   1.532   4.146   2.822
 9153SOL     OW28357   0.808   3.293   6.294
 9153SOL    HW128358   0.791   3.303   6.392
 9153SOL    HW228359   0.861   3.372   6.261
 9154SOL     OW28360   5.887   5.216   2.989
 9154SOL    HW128361   5.968   5.176   2.946
 9154SOL    HW228362   5.891   5.202   3.088
 9155SOL     OW28363   1.351   6.284   2.650
 9155SOL    HW128364   1.424   6.216   2.652
 9155SOL    HW228365   1.381   6.368   2.695
 9156SOL     OW28366   6.715   3.951   6.146
 9156SOL    HW128367   6.654   3.993   6.079
 9156SOL    HW228368   6.732   4.016   6.220
 9157SOL     OW28369   2.181   4.532   5.940
 9157SOL    HW128370   2.196   4.442   5.900
 9157SOL    HW228371   2.225   4.601   5.883
 9158SOL     OW28372   6.609   3.857   4.683
 9158SOL    HW128373   6.682   3.918   4.654
 9158SOL    HW228374   6.606   3.853   4.783
 9159SOL     OW28375   2.295   1.505   4.037
 9159SOL    HW128376   2.202   1.474   4.056
 9159SOL    HW228377   2.296   1.558   3.952
 9160SOL     OW28378   0.990   3.931   1.051
 9160SOL    HW128379   1.046   3.970   1.125
 9160SOL    HW228380   0.966   4.003   0.986
 9161SOL     OW28381   6.619   4.318   2.301
 9161SOL    HW128382   6.547   4.261   2.261
 9161SOL    HW228383   6.590   4.349   2.391
 9162SOL     OW28384   4.321   2.355   2.014
 9162SOL    HW128385   4.243   2.395   2.061
 9162SOL    HW228386   4.297   2.265   1.978
 9163SOL     OW28387   2.347   2.290   3.599
 9163SOL    HW128388   2.283   2.366   3.589
 9163SOL    HW228389   2.439   2.326   3.615
 9164SOL     OW28390   2.435   6.351   6.516
 9164SOL    HW128391   2.385   6.399   6.588
 9164SOL    HW228392   2.399   6.379   6.427
 9165SOL     OW28393   5.973   1.808   5.782
 9165SOL    HW128394   6.013   1.806   5.690
 9165SOL    HW228395   5.961   1.903   5.810
 9166SOL     OW28396   5.051   6.477   1.650
 9166SOL    HW128397   5.080   6.523   1.567
 9166SOL    HW228398   4.969   6.521   1.686
 9167SOL     OW28399   1.887   1.416   4.545
 9167SOL    HW128400   1.907   1.498   4.491
 9167SOL    HW228401   1.942   1.340   4.512
 9168SOL     OW28402   6.248   6.100   4.928
 9168SOL    HW128403   6.253   6.170   5.000
 9168SOL    HW228404   6.336   6.055   4.918
 9169SOL     OW28405   6.924   6.356   1.733
 9169SOL    HW128406   6.971   6.428   1.784
 9169SOL    HW228407   6.848   6.321   1.787
 9170SOL     OW28408   1.025   0.941   5.846
 9170SOL    HW128409   1.071   1.012   5.899
 9170SOL    HW228410   0.958   0.984   5.785
 9171SOL     OW28411   4.026   5.364   6.521
 9171SOL    HW128412   3.939   5.384   6.567
 9171SOL    HW228413   4.080   5.448   6.513
 9172SOL     OW28414   4.679   1.995   5.000
 9172SOL    HW128415   4.671   1.983   5.099
 9172SOL    HW228416   4.625   1.925   4.954
 9173SOL     OW28417   5.566   3.819   5.160
 9173SOL    HW128418   5.503   3.890   5.129
 9173SOL    HW228419   5.517   3.755   5.220
 9174SOL     OW28420   0.020   5.097   1.542
 9174SOL    HW128421   0.016   5.095   1.442
 9174SOL    HW228422   0.054   5.186   1.572
 9175SOL     OW28423   2.486   6.907   0.516
 9175SOL    HW128424   2.512   6.912   0.613
 9175SOL    HW228425   2.387   6.911   0.508
 9176SOL     OW28426   1.345   1.846   2.377
 9176SOL    HW128427   1.424   1.829   2.436
 9176SOL    HW228428   1.344   1.942   2.349
 9177SOL     OW28429   0.342   5.539   3.397
 9177SOL    HW128430   0.417   5.523   3.333
 9177SOL    HW228431   0.255   5.520   3.352
 9178SOL     OW28432   1.318   4.514   1.707
 9178SOL    HW128433   1.362   4.507   1.796
 9178SOL    HW228434   1.375   4.571   1.647
 9179SOL     OW28435   3.324   5.623   4.282
 9179SOL    HW128436   3.310   5.679   4.363
 9179SOL    HW228437   3.277   5.664   4.204
 9180SOL     OW28438   0.396   1.319   5.636
 9180SOL    HW128439   0.401   1.227   5.675
 9180SOL    HW228440   0.464   1.377   5.680
 9181SOL     OW28441   2.440   2.600   3.473
 9181SOL    HW128442   2.451   2.610   3.374
 9181SOL    HW228443   2.352   2.558   3.494
 9182SOL     OW28444   0.701   1.651   2.507
 9182SOL    HW128445   0.693   1.569   2.565
 9182SOL    HW228446   0.612   1.670   2.465
 9183SOL     OW28447   1.878   1.489   6.328
 9183SOL    HW128448   1.789   1.527   6.354
 9183SOL    HW228449   1.901   1.519   6.235
 9184SOL     OW28450   3.972   3.216   0.942
 9184SOL    HW128451   3.956   3.152   1.017
 9184SOL    HW228452   3.893   3.276   0.932
 9185SOL     OW28453   1.510   0.777   6.171
 9185SOL    HW128454   1.583   0.845   6.178
 9185SOL    HW228455   1.546   0.687   6.197
 9186SOL     OW28456   4.681   0.796   6.179
 9186SOL    HW128457   4.707   0.799   6.082
 9186SOL    HW228458   4.749   0.846   6.233
 9187SOL     OW28459   5.861   2.480   1.018
 9187SOL    HW128460   5.889   2.562   1.067
 9187SOL    HW228461   5.850   2.501   0.921
 9188SOL     OW28462   1.669   0.369   1.639
 9188SOL    HW128463   1.697   0.444   1.578
 9188SOL    HW228464   1.645   0.406   1.728
 9189SOL     OW28465   4.120   1.258   6.070
 9189SOL    HW128466   4.071   1.212   6.143
 9189SOL    HW228467   4.070   1.247   5.984
 9190SOL     OW28468   4.885   1.445   5.225
 9190SOL    HW128469   4.963   1.494   5.265
 9190SOL    HW228470   4.859   1.370   5.286
 9191SOL     OW28471   5.771   0.184   1.408
 9191SOL    HW128472   5.853   0.130   1.427
 9191SOL    HW228473   5.690   0.124   1.413
 9192SOL     OW28474   4.934   3.444   4.003
 9192SOL    HW128475   4.997   3.412   4.074
 9192SOL    HW228476   4.840   3.428   4.033
 9193SOL     OW28477   3.730   2.958   3.401
 9193SOL    HW128478   3.700   2.936   3.309
 9193SOL    HW228479   3.796   3.033   3.398
 9194SOL     OW28480   4.279   5.555   2.732
 9194SOL    HW128481   4.259   5.458   2.721
 9194SOL    HW228482   4.262   5.603   2.645
 9195SOL     OW28483   0.496   2.742   2.710
 9195SOL    HW128484   0.453   2.652   2.700
 9195SOL    HW228485   0.426   2.813   2.700
 9196SOL     OW28486   5.031   6.824   4.086
 9196SOL    HW128487   4.964   6.834   4.013
 9196SOL    HW228488   5.031   6.906   4.144
 9197SOL     OW28489   4.104   2.260   5.848
 9197SOL    HW128490   4.176   2.298   5.791
 9197SOL    HW228491   4.138   2.246   5.941
 9198SOL     OW28492   5.991   2.035   5.287
 9198SOL    HW128493   6.016   2.078   5.200
 9198SOL    HW228494   5.975   2.106   5.356
 9199SOL     OW28495   2.146   2.712   6.565
 9199SOL    HW128496   2.085   2.635   6.583
 9199SOL    HW228497   2.098   2.780   6.509
 9200SOL     OW28498   5.768   6.140   0.875
 9200SOL    HW128499   5.866   6.120   0.875
 9200SOL    HW228500   5.717   6.057   0.898
 9201SOL     OW28501   1.047   3.960   2.312
 9201SOL    HW128502   0.950   3.980   2.322
 9201SOL    HW228503   1.098   4.046   2.309
 9202SOL     OW28504   2.863   5.753   3.969
 9202SOL    HW128505   2.853   5.681   4.037
 9202SOL    HW228506   2.781   5.756   3.911
 9203SOL     OW28507   4.562   0.690   6.480
 9203SOL    HW128508   4.590   0.598   6.508
 9203SOL    HW228509   4.530   0.687   6.385
 9204SOL     OW28510   5.202   4.784   2.521
 9204SOL    HW128511   5.114   4.773   2.567
 9204SOL    HW228512   5.272   4.807   2.589
 9205SOL     OW28513   4.882   3.031   1.793
 9205SOL    HW128514   4.956   3.041   1.859
 9205SOL    HW228515   4.796   3.016   1.841
 9206SOL     OW28516   0.567   5.956   3.433
 9206SOL    HW128517   0.620   6.040   3.426
 9206SOL    HW228518   0.578   5.903   3.348
 9207SOL     OW28519   4.208   6.321   6.508
 9207SOL    HW128520   4.225   6.266   6.426
 9207SOL    HW228521   4.250   6.411   6.497
 9208SOL     OW28522   4.704   4.219   1.727
 9208SOL    HW128523   4.782   4.168   1.764
 9208SOL    HW228524   4.629   4.216   1.793
 9209SOL     OW28525   3.893   0.168   2.567
 9209SOL    HW128526   3.901   0.264   2.542
 9209SOL    HW228527   3.960   0.115   2.514
 9210SOL     OW28528   1.410   6.516   0.753
 9210SOL    HW128529   1.322   6.555   0.783
 9210SOL    HW228530   1.395   6.423   0.719
 9211SOL     OW28531   4.809   1.294   5.994
 9211SOL    HW128532   4.852   1.266   5.908
 9211SOL    HW228533   4.789   1.392   5.992
 9212SOL     OW28534   5.731   3.977   5.466
 9212SOL    HW128535   5.741   4.025   5.378
 9212SOL    HW228536   5.657   4.019   5.518
 9213SOL     OW28537   6.585   6.732   2.122
 9213SOL    HW128538   6.582   6.826   2.155
 9213SOL    HW228539   6.671   6.689   2.150
 9214SOL     OW28540   2.078   2.436   5.462
 9214SOL    HW128541   2.121   2.448   5.551
 9214SOL    HW228542   2.148   2.414   5.394
 9215SOL     OW28543   0.256   2.866   2.927
 9215SOL    HW128544   0.208   2.802   2.988
 9215SOL    HW228545   0.352   2.872   2.955
 9216SOL     OW28546   2.373   5.846   3.821
 9216SOL    HW128547   2.460   5.872   3.862
 9216SOL    HW228548   2.389   5.785   3.744
 9217SOL     OW28549   3.688   1.599   6.705
 9217SOL    HW128550   3.740   1.635   6.783
 9217SOL    HW228551   3.744   1.605   6.623
 9218SOL     OW28552   5.440   5.624   6.526
 9218SOL    HW128553   5.351   5.598   6.564
 9218SOL    HW228554   5.430   5.651   6.430
 9219SOL     OW28555   2.946   2.240   5.579
 9219SOL    HW128556   2.946   2.221   5.481
 9219SOL    HW228557   2.886   2.174   5.625
 9220SOL     OW28558   0.400   6.371   3.658
 9220SOL    HW128559   0.402   6.449   3.595
 9220SOL    HW228560   0.492   6.354   3.693
 9221SOL     OW28561   2.413   1.291   0.948
 9221SOL    HW128562   2.347   1.250   0.885
 9221SOL    HW228563   2.445   1.379   0.911
 9222SOL     OW28564   1.506   3.381   4.344
 9222SOL    HW128565   1.467   3.459   4.393
 9222SOL    HW228566   1.603   3.372   4.367
 9223SOL     OW28567   6.988   3.217   4.827
 9223SOL    HW128568   6.939   3.245   4.744
 9223SOL    HW228569   0.046   3.176   4.801
 9224SOL     OW28570   2.412   4.953   3.088
 9224SOL    HW128571   2.410   4.863   3.043
 9224SOL    HW228572   2.413   4.940   3.187
 9225SOL     OW28573   5.878   5.717   6.084
 9225SOL    HW128574   5.862   5.761   6.172
 9225SOL    HW228575   5.795   5.669   6.055
 9226SOL     OW28576   1.113   0.653   0.246
 9226SOL    HW128577   1.191   0.698   0.203
 9226SOL    HW228578   1.146   0.585   0.311
 9227SOL     OW28579   2.927   4.010   0.280
 9227SOL    HW128580   2.905   3.971   0.370
 9227SOL    HW228581   2.919   3.939   0.210
 9228SOL     OW28582   3.777   3.342   5.067
 9228SOL    HW128583   3.728   3.335   4.980
 9228SOL    HW228584   3.825   3.429   5.073
 9229SOL     OW28585   6.746   5.148   0.390
 9229SOL    HW128586   6.838   5.174   0.361
 9229SOL    HW228587   6.726   5.186   0.480
 9230SOL     OW28588   4.502   1.298   4.926
 9230SOL    HW128589   4.442   1.358   4.979
 9230SOL    HW228590   4.597   1.326   4.939
 9231SOL     OW28591   6.753   6.293   2.222
 9231SOL    HW128592   6.771   6.293   2.321
 9231SOL    HW228593   6.692   6.369   2.199
 9232SOL     OW28594   0.908   5.214   2.657
 9232SOL    HW128595   0.963   5.291   2.622
 9232SOL    HW228596   0.843   5.185   2.587
 9233SOL     OW28597   1.229   6.461   5.815
 9233SOL    HW128598   1.261   6.408   5.894
 9233SOL    HW228599   1.255   6.414   5.731
 9234SOL     OW28600   2.621   3.494   6.397
 9234SOL    HW128601   2.542   3.434   6.408
 9234SOL    HW228602   2.630   3.518   6.300
 9235SOL     OW28603   1.875   2.293   3.403
 9235SOL    HW128604   1.799   2.264   3.345
 9235SOL    HW228605   1.917   2.212   3.446
 9236SOL     OW28606   1.376   3.274   6.170
 9236SOL    HW128607   1.304   3.234   6.227
 9236SOL    HW228608   1.465   3.258   6.212
 9237SOL     OW28609   6.404   5.658   2.647
 9237SOL    HW128610   6.310   5.639   2.621
 9237SOL    HW228611   6.450   5.706   2.573
 9238SOL     OW28612   1.863   3.070   4.548
 9238SOL    HW128613   1.779   3.075   4.494
 9238SOL    HW228614   1.841   3.038   4.640
 9239SOL     OW28615   0.959   4.607   6.866
 9239SOL    HW128616   1.015   4.673   6.915
 9239SOL    HW228617   0.863   4.618   6.892
 9240SOL     OW28618   4.215   1.565   3.352
 9240SOL    HW128619   4.191   1.476   3.390
 9240SOL    HW228620   4.217   1.633   3.425
 9241SOL     OW28621   5.471   0.037   0.341
 9241SOL    HW128622   5.492   6.968   0.335
 9241SOL    HW228623   5.372   0.050   0.335
 9242SOL     OW28624   1.559   2.229   0.977
 9242SOL    HW128625   1.580   2.218   1.074
 9242SOL    HW228626   1.461   2.246   0.966
 9243SOL     OW28627   1.771   0.303   0.147
 9243SOL    HW128628   1.763   0.205   0.128
 9243SOL    HW228629   1.840   0.343   0.087
 9244SOL     OW28630   3.468   6.344   6.064
 9244SOL    HW128631   3.406   6.401   6.010
 9244SOL    HW228632   3.450   6.247   6.044
 9245SOL     OW28633   1.542   5.154   2.814
 9245SOL    HW128634   1.569   5.160   2.718
 9245SOL    HW228635   1.506   5.062   2.833
 9246SOL     OW28636   4.964   0.083   6.587
 9246SOL    HW128637   4.908   0.043   6.660
 9246SOL    HW228638   4.905   0.110   6.511
 9247SOL     OW28639   4.087   5.503   2.940
 9247SOL    HW128640   4.155   5.542   2.878
 9247SOL    HW228641   4.133   5.442   3.005
 9248SOL     OW28642   2.201   0.859   6.884
 9248SOL    HW128643   2.242   0.935   6.834
 9248SOL    HW228644   2.273   0.799   6.919
 9249SOL     OW28645   2.185   6.551   0.204
 9249SOL    HW128646   2.259   6.505   0.155
 9249SOL    HW228647   2.212   6.645   0.225
 9250SOL     OW28648   0.104   2.802   3.473
 9250SOL    HW128649   0.060   2.840   3.554
 9250SOL    HW228650   0.055   2.832   3.391
 9251SOL     OW28651   3.090   1.598   0.882
 9251SOL    HW128652   3.138   1.676   0.924
 9251SOL    HW228653   2.991   1.610   0.894
 9252SOL     OW28654   5.696   1.225   5.240
 9252SOL    HW128655   5.697   1.282   5.322
 9252SOL    HW228656   5.635   1.146   5.256
 9253SOL     OW28657   1.363   5.585   5.071
 9253SOL    HW128658   1.388   5.576   4.974
 9253SOL    HW228659   1.443   5.572   5.128
 9254SOL     OW28660   0.283   5.149   2.432
 9254SOL    HW128661   0.293   5.076   2.500
 9254SOL    HW228662   0.213   5.123   2.366
 9255SOL     OW28663   6.558   4.314   0.516
 9255SOL    HW128664   6.649   4.347   0.542
 9255SOL    HW228665   6.567   4.225   0.471
 9256SOL     OW28666   3.140   6.580   0.574
 9256SOL    HW128667   3.130   6.508   0.643
 9256SOL    HW228668   3.180   6.541   0.491
 9257SOL     OW28669   5.778   5.760   4.575
 9257SOL    HW128670   5.738   5.754   4.666
 9257SOL    HW228671   5.835   5.679   4.559
 9258SOL     OW28672   3.630   5.701   0.862
 9258SOL    HW128673   3.630   5.675   0.959
 9258SOL    HW228674   3.716   5.672   0.820
 9259SOL     OW28675   0.914   1.967   6.844
 9259SOL    HW128676   0.857   1.954   6.763
 9259SOL    HW228677   0.856   1.974   6.925
 9260SOL     OW28678   5.151   3.779   4.663
 9260SOL    HW128679   5.153   3.874   4.632
 9260SOL    HW228680   5.062   3.759   4.703
 9261SOL     OW28681   2.380   1.630   1.172
 9261SOL    HW128682   2.339   1.654   1.084
 9261SOL    HW228683   2.425   1.710   1.210
 9262SOL     OW28684   6.823   6.310   6.075
 9262SOL    HW128685   6.793   6.247   6.004
 9262SOL    HW228686   6.744   6.338   6.130
 9263SOL     OW28687   1.950   4.777   3.357
 9263SOL    HW128688   2.010   4.705   3.392
 9263SOL    HW228689   1.882   4.800   3.426
 9264SOL     OW28690   5.475   4.466   6.372
 9264SOL    HW128691   5.552   4.402   6.365
 9264SOL    HW228692   5.389   4.416   6.367
 9265SOL     OW28693   6.073   1.360   1.629
 9265SOL    HW128694   6.093   1.336   1.724
 9265SOL    HW228695   6.157   1.389   1.583
 9266SOL     OW28696   1.617   4.544   0.798
 9266SOL    HW128697   1.564   4.621   0.834
 9266SOL    HW228698   1.715   4.563   0.810
 9267SOL     OW28699   6.736   0.820   4.635
 9267SOL    HW128700   6.764   0.829   4.730
 9267SOL    HW228701   6.662   0.884   4.615
 9268SOL     OW28702   0.419   0.056   1.274
 9268SOL    HW128703   0.340   0.069   1.215
 9268SOL    HW228704   0.398   7.019   1.345
 9269SOL     OW28705   3.746   1.129   0.090
 9269SOL    HW128706   3.683   1.141   0.167
 9269SOL    HW228707   3.819   1.066   0.117
 9270SOL     OW28708   2.389   0.501   6.748
 9270SOL    HW128709   2.329   0.544   6.815
 9270SOL    HW228710   2.484   0.514   6.775
 9271SOL     OW28711   1.225   5.872   5.354
 9271SOL    HW128712   1.164   5.849   5.429
 9271SOL    HW228713   1.286   5.794   5.336
 9272SOL     OW28714   6.652   6.608   6.053
 9272SOL    HW128715   6.617   6.515   6.065
 9272SOL    HW228716   6.661   6.627   5.955
 9273SOL     OW28717   5.439   4.140   3.147
 9273SOL    HW128718   5.484   4.202   3.211
 9273SOL    HW228719   5.348   4.118   3.181
 9274SOL     OW28720   0.641   3.122   0.546
 9274SOL    HW128721   0.663   3.171   0.462
 9274SOL    HW228722   0.567   3.058   0.529
 9275SOL     OW28723   5.357   0.780   0.831
 9275SOL    HW128724   5.402   0.777   0.742
 9275SOL    HW228725   5.371   0.870   0.873
 9276SOL     OW28726   2.552   4.966   6.901
 9276SOL    HW128727   2.638   5.001   6.865
 9276SOL    HW228728   2.480   4.979   6.833
 9277SOL     OW28729   4.472   5.091   2.379
 9277SOL    HW128730   4.470   5.191   2.384
 9277SOL    HW228731   4.559   5.058   2.417
 9278SOL     OW28732   0.390   0.014   5.373
 9278SOL    HW128733   0.470   0.048   5.422
 9278SOL    HW228734   0.418   6.971   5.310
 9279SOL     OW28735   3.660   5.507   1.828
 9279SOL    HW128736   3.641   5.448   1.907
 9279SOL    HW228737   3.574   5.548   1.797
 9280SOL     OW28738   1.822   6.011   2.898
 9280SOL    HW128739   1.829   6.083   2.968
 9280SOL    HW228740   1.913   5.985   2.868
 9281SOL     OW28741   1.877   5.897   1.082
 9281SOL    HW128742   1.909   5.991   1.071
 9281SOL    HW228743   1.813   5.874   1.009
 9282SOL     OW28744   3.131   6.773   5.029
 9282SOL    HW128745   3.205   6.783   4.962
 9282SOL    HW228746   3.124   6.856   5.084
 9283SOL     OW28747   4.240   6.752   1.078
 9283SOL    HW128748   4.270   6.813   1.152
 9283SOL    HW228749   4.309   6.680   1.064
 9284SOL     OW28750   4.345   3.900   5.684
 9284SOL    HW128751   4.286   3.820   5.699
 9284SOL    HW228752   4.290   3.983   5.688
 9285SOL     OW28753   0.476   5.910   2.883
 9285SOL    HW128754   0.491   5.814   2.904
 9285SOL    HW228755   0.533   5.936   2.805
 9286SOL     OW28756   4.014   0.149   1.568
 9286SOL    HW128757   3.925   0.122   1.531
 9286SOL    HW228758   4.010   0.147   1.668
 9287SOL     OW28759   4.152   3.922   5.944
 9287SOL    HW128760   4.113   3.830   5.952
 9287SOL    HW228761   4.129   3.959   5.854
 9288SOL     OW28762   3.419   1.903   1.631
 9288SOL    HW128763   3.499   1.934   1.682
 9288SOL    HW228764   3.342   1.964   1.650
 9289SOL     OW28765   4.817   0.048   0.682
 9289SOL    HW128766   4.721   0.060   0.658
 9289SOL    HW228767   4.844   6.982   0.662
 9290SOL     OW28768   5.373   1.224   4.432
 9290SOL    HW128769   5.295   1.281   4.407
 9290SOL    HW228770   5.445   1.281   4.472
 9291SOL     OW28771   0.826   3.766   6.113
 9291SOL    HW128772   0.825   3.857   6.074
 9291SOL    HW228773   0.750   3.712   6.076
 9292SOL     OW28774   0.715   0.646   6.535
 9292SOL    HW128775   0.788   0.582   6.559
 9292SOL    HW228776   0.718   0.725   6.597
 9293SOL     OW28777   4.924   2.307   3.797
 9293SOL    HW128778   4.909   2.377   3.867
 9293SOL    HW228779   4.871   2.328   3.715
 9294SOL     OW28780   4.542   0.204   5.837
 9294SOL    HW128781   4.453   0.170   5.807
 9294SOL    HW228782   4.588   0.251   5.762
 9295SOL     OW28783   6.128   1.234   4.991
 9295SOL    HW128784   6.212   1.203   5.036
 9295SOL    HW228785   6.124   1.197   4.898
 9296SOL     OW28786   2.491   5.072   6.075
 9296SOL    HW128787   2.575   5.020   6.062
 9296SOL    HW228788   2.416   5.009   6.094
 9297SOL     OW28789   6.404   5.776   2.122
 9297SOL    HW128790   6.347   5.698   2.150
 9297SOL    HW228791   6.438   5.823   2.203
 9298SOL     OW28792   1.138   4.173   5.986
 9298SOL    HW128793   1.235   4.158   6.003
 9298SOL    HW228794   1.110   4.124   5.904
 9299SOL     OW28795   1.945   2.439   4.484
 9299SOL    HW128796   1.902   2.377   4.550
 9299SOL    HW228797   2.035   2.465   4.518
 9300SOL     OW28798   2.208   5.699   5.207
 9300SOL    HW128799   2.211   5.733   5.301
 9300SOL    HW228800   2.286   5.735   5.156
 9301SOL     OW28801   6.995   4.346   4.099
 9301SOL    HW128802   0.022   4.356   4.181
 9301SOL    HW228803   6.958   4.435   4.073
 9302SOL     OW28804   2.252   4.094   4.452
 9302SOL    HW128805   2.303   4.170   4.412
 9302SOL    HW228806   2.252   4.102   4.551
 9303SOL     OW28807   2.519   4.628   0.219
 9303SOL    HW128808   2.451   4.562   0.250
 9303SOL    HW228809   2.487   4.673   0.136
 9304SOL     OW28810   5.194   5.512   6.582
 9304SOL    HW128811   5.166   5.465   6.498
 9304SOL    HW228812   5.178   5.452   6.660
 9305SOL     OW28813   1.688   1.930   1.127
 9305SOL    HW128814   1.764   1.906   1.188
 9305SOL    HW228815   1.668   2.027   1.136
 9306SOL     OW28816   7.008   6.338   4.950
 9306SOL    HW128817   6.918   6.373   4.925
 9306SOL    HW228818   0.046   6.365   4.882
 9307SOL     OW28819   1.745   3.822   1.283
 9307SOL    HW128820   1.682   3.879   1.230
 9307SOL    HW228821   1.804   3.880   1.338
 9308SOL     OW28822   2.181   3.216   1.775
 9308SOL    HW128823   2.210   3.299   1.823
 9308SOL    HW228824   2.149   3.239   1.683
 9309SOL     OW28825   5.112   5.304   6.759
 9309SOL    HW128826   5.197   5.252   6.767
 9309SOL    HW228827   5.034   5.242   6.758
 9310SOL     OW28828   6.053   5.560   6.373
 9310SOL    HW128829   6.052   5.653   6.337
 9310SOL    HW228830   5.980   5.550   6.440
 9311SOL     OW28831   5.168   4.285   0.305
 9311SOL    HW128832   5.246   4.345   0.325
 9311SOL    HW228833   5.191   4.191   0.332
 9312SOL     OW28834   0.385   3.196   3.141
 9312SOL    HW128835   0.391   3.096   3.139
 9312SOL    HW228836   0.334   3.225   3.222
 9313SOL     OW28837   0.586   0.586   2.466
 9313SOL    HW128838   0.659   0.652   2.487
 9313SOL    HW228839   0.501   0.635   2.448
 9314SOL     OW28840   5.338   4.593   1.348
 9314SOL    HW128841   5.250   4.640   1.350
 9314SOL    HW228842   5.366   4.580   1.252
 9315SOL     OW28843   5.331   6.256   5.983
 9315SOL    HW128844   5.372   6.233   6.071
 9315SOL    HW228845   5.232   6.248   5.989
 9316SOL     OW28846   4.824   0.508   6.354
 9316SOL    HW128847   4.849   0.423   6.308
 9316SOL    HW228848   4.796   0.576   6.287
 9317SOL     OW28849   3.394   5.859   3.207
 9317SOL    HW128850   3.447   5.863   3.122
 9317SOL    HW228851   3.309   5.910   3.196
 9318SOL     OW28852   3.939   6.972   1.999
 9318SOL    HW128853   3.856   6.927   1.967
 9318SOL    HW228854   3.922   7.015   2.087
 9319SOL     OW28855   4.434   2.391   0.118
 9319SOL    HW128856   4.358   2.431   0.170
 9319SOL    HW228857   4.410   2.298   0.091
 9320SOL     OW28858   6.651   6.595   0.036
 9320SOL    HW128859   6.639   6.511   0.089
 9320SOL    HW228860   6.693   6.573   6.977
 9321SOL     OW28861   0.562   2.964   5.018
 9321SOL    HW128862   0.491   2.978   4.948
 9321SOL    HW228863   0.524   2.909   5.093
 9322SOL     OW28864   5.780   3.141   6.734
 9322SOL    HW128865   5.827   3.189   6.807
 9322SOL    HW228866   5.681   3.145   6.749
 9323SOL     OW28867   0.739   2.126   5.973
 9323SOL    HW128868   0.820   2.101   6.026
 9323SOL    HW228869   0.763   2.196   5.907
 9324SOL     OW28870   0.794   4.129   1.539
 9324SOL    HW128871   0.818   4.048   1.593
 9324SOL    HW228872   0.723   4.104   1.472
 9325SOL     OW28873   0.868   4.134   3.582
 9325SOL    HW128874   0.960   4.152   3.616
 9325SOL    HW228875   0.832   4.051   3.624
 9326SOL     OW28876   4.282   4.116   1.194
 9326SOL    HW128877   4.250   4.031   1.236
 9326SOL    HW228878   4.203   4.166   1.157
 9327SOL     OW28879   2.562   0.981   3.396
 9327SOL    HW128880   2.565   0.921   3.316
 9327SOL    HW228881   2.484   1.043   3.388
 9328SOL     OW28882   2.571   0.600   3.691
 9328SOL    HW128883   2.578   0.551   3.778
 9328SOL    HW228884   2.555   0.535   3.617
 9329SOL     OW28885   0.030   5.621   6.919
 9329SOL    HW128886   0.042   5.645   7.015
 9329SOL    HW228887   7.026   5.527   6.911
 9330SOL     OW28888   6.729   6.147   0.230
 9330SOL    HW128889   6.631   6.152   0.211
 9330SOL    HW228890   6.744   6.100   0.316
 9331SOL     OW28891   1.906   3.581   3.925
 9331SOL    HW128892   1.865   3.664   3.889
 9331SOL    HW228893   1.878   3.569   4.020
 9332SOL     OW28894   5.802   5.871   0.749
 9332SOL    HW128895   5.756   5.864   0.837
 9332SOL    HW228896   5.876   5.939   0.755
 9333SOL     OW28897   3.160   3.796   1.208
 9333SOL    HW128898   3.138   3.755   1.296
 9333SOL    HW228899   3.089   3.862   1.183
 9334SOL     OW28900   5.848   5.947   5.915
 9334SOL    HW128901   5.866   5.917   6.009
 9334SOL    HW228902   5.861   5.871   5.852
 9335SOL     OW28903   0.920   3.307   1.741
 9335SOL    HW128904   0.896   3.284   1.835
 9335SOL    HW228905   0.841   3.293   1.682
 9336SOL     OW28906   5.554   0.843   5.725
 9336SOL    HW128907   5.553   0.813   5.629
 9336SOL    HW228908   5.586   0.937   5.730
 9337SOL     OW28909   2.414   1.259   5.520
 9337SOL    HW128910   2.494   1.258   5.580
 9337SOL    HW228911   2.391   1.354   5.496
 9338SOL     OW28912   5.651   6.712   0.162
 9338SOL    HW128913   5.603   6.756   0.086
 9338SOL    HW228914   5.732   6.664   0.127
 9339SOL     OW28915   0.133   3.869   5.881
 9339SOL    HW128916   0.081   3.817   5.813
 9339SOL    HW228917   0.091   3.856   5.971
 9340SOL     OW28918   3.315   4.964   1.256
 9340SOL    HW128919   3.399   4.918   1.229
 9340SOL    HW228920   3.292   4.939   1.350
 9341SOL     OW28921   4.895   5.094   6.714
 9341SOL    HW128922   4.808   5.086   6.665
 9341SOL    HW228923   4.970   5.085   6.650
 9342SOL     OW28924   3.061   0.390   4.698
 9342SOL    HW128925   3.106   0.309   4.735
 9342SOL    HW228926   3.004   0.432   4.768
 9343SOL     OW28927   4.789   3.862   0.824
 9343SOL    HW128928   4.736   3.837   0.743
 9343SOL    HW228929   4.886   3.847   0.806
 9344SOL     OW28930   5.909   0.236   5.505
 9344SOL    HW128931   5.965   0.185   5.441
 9344SOL    HW228932   5.878   0.321   5.463
 9345SOL     OW28933   0.374   4.901   0.477
 9345SOL    HW128934   0.287   4.910   0.428
 9345SOL    HW228935   0.354   4.880   0.573
 9346SOL     OW28936   5.892   6.293   1.377
 9346SOL    HW128937   5.821   6.235   1.338
 9346SOL    HW228938   5.917   6.257   1.468
 9347SOL     OW28939   3.845   5.859   1.014
 9347SOL    HW128940   3.778   5.822   0.949
 9347SOL    HW228941   3.920   5.901   0.963
 9348SOL     OW28942   2.240   5.541   2.313
 9348SOL    HW128943   2.338   5.522   2.305
 9348SOL    HW228944   2.201   5.558   2.222
 9349SOL     OW28945   0.041   6.137   1.952
 9349SOL    HW128946   0.001   6.226   1.970
 9349SOL    HW228947   0.140   6.147   1.940
 9350SOL     OW28948   6.657   0.636   6.644
 9350SOL    HW128949   6.718   0.560   6.665
 9350SOL    HW228950   6.564   0.613   6.675
 9351SOL     OW28951   3.733   3.251   5.585
 9351SOL    HW128952   3.806   3.288   5.526
 9351SOL    HW228953   3.716   3.156   5.561
 9352SOL     OW28954   3.304   3.049   6.322
 9352SOL    HW128955   3.366   3.011   6.253
 9352SOL    HW228956   3.297   2.986   6.399
 9353SOL     OW28957   0.219   3.665   0.968
 9353SOL    HW128958   0.280   3.631   0.896
 9353SOL    HW228959   0.273   3.705   1.042
 9354SOL     OW28960   4.773   1.784   1.655
 9354SOL    HW128961   4.713   1.766   1.733
 9354SOL    HW228962   4.749   1.723   1.579
 9355SOL     OW28963   6.698   1.121   3.128
 9355SOL    HW128964   6.640   1.040   3.116
 9355SOL    HW228965   6.646   1.202   3.101
 9356SOL     OW28966   4.300   4.596   2.683
 9356SOL    HW128967   4.202   4.587   2.697
 9356SOL    HW228968   4.318   4.659   2.607
 9357SOL     OW28969   3.106   3.144   0.657
 9357SOL    HW128970   3.127   3.127   0.560
 9357SOL    HW228971   3.134   3.064   0.711
 9358SOL     OW28972   5.214   4.562   1.821
 9358SOL    HW128973   5.313   4.570   1.823
 9358SOL    HW228974   5.183   4.541   1.728
 9359SOL     OW28975   5.498   4.686   6.209
 9359SOL    HW128976   5.477   4.613   6.274
 9359SOL    HW228977   5.589   4.723   6.229
 9360SOL     OW28978   1.482   0.136   5.296
 9360SOL    HW128979   1.396   0.179   5.272
 9360SOL    HW228980   1.485   0.043   5.258
 9361SOL     OW28981   2.621   0.794   2.590
 9361SOL    HW128982   2.541   0.853   2.575
 9361SOL    HW228983   2.704   0.849   2.584
 9362SOL     OW28984   2.041   1.662   3.102
 9362SOL    HW128985   1.983   1.744   3.096
 9362SOL    HW228986   2.129   1.680   3.058
 9363SOL     OW28987   2.462   6.727   1.809
 9363SOL    HW128988   2.409   6.783   1.873
 9363SOL    HW228989   2.445   6.630   1.828
 9364SOL     OW28990   5.404   5.335   0.768
 9364SOL    HW128991   5.414   5.240   0.736
 9364SOL    HW228992   5.494   5.377   0.777
 9365SOL     OW28993   1.917   1.158   5.135
 9365SOL    HW128994   1.906   1.239   5.076
 9365SOL    HW228995   1.996   1.172   5.195
 9366SOL     OW28996   2.588   1.794   0.941
 9366SOL    HW128997   2.590   1.702   0.902
 9366SOL    HW228998   2.626   1.793   1.033
 9367SOL     OW28999   6.806   5.811   3.406
 9367SOL    HW129000   6.870   5.822   3.331
 9367SOL    HW229001   6.852   5.769   3.484
 9368SOL     OW29002   3.860   2.899   1.375
 9368SOL    HW129003   3.781   2.841   1.396
 9368SOL    HW229004   3.875   2.964   1.449
 9369SOL     OW29005   0.132   2.078   5.471
 9369SOL    HW129006   0.136   2.096   5.569
 9369SOL    HW229007   0.221   2.044   5.440
 9370SOL     OW29008   6.140   0.072   3.190
 9370SOL    HW129009   6.048   0.033   3.201
 9370SOL    HW229010   6.182   0.082   3.280
 9371SOL     OW29011   1.044   6.623   0.576
 9371SOL    HW129012   1.107   6.632   0.653
 9371SOL    HW229013   0.953   6.599   0.609
 9372SOL     OW29014   6.850   6.158   6.435
 9372SOL    HW129015   6.902   6.214   6.499
 9372SOL    HW229016   6.763   6.130   6.477
 9373SOL     OW29017   4.613   1.847   3.855
 9373SOL    HW129018   4.669   1.769   3.882
 9373SOL    HW229019   4.671   1.927   3.839
 9374SOL     OW29020   5.259   3.861   0.486
 9374SOL    HW129021   5.354   3.878   0.459
 9374SOL    HW229022   5.243   3.763   0.494
 9375SOL     OW29023   0.728   1.462   4.145
 9375SOL    HW129024   0.768   1.374   4.120
 9375SOL    HW229025   0.700   1.459   4.241
 9376SOL     OW29026   2.195   2.985   2.084
 9376SOL    HW129027   2.114   2.936   2.051
 9376SOL    HW229028   2.219   3.057   2.019
 9377SOL     OW29029   5.936   5.673   3.511
 9377SOL    HW129030   5.983   5.624   3.438
 9377SOL    HW229031   5.980   5.762   3.524
 9378SOL     OW29032   3.122   6.106   0.721
 9378SOL    HW129033   3.221   6.097   0.709
 9378SOL    HW229034   3.075   6.054   0.649
 9379SOL     OW29035   5.409   4.526   4.797
 9379SOL    HW129036   5.467   4.456   4.756
 9379SOL    HW229037   5.356   4.572   4.725
 9380SOL     OW29038   5.786   6.390   6.395
 9380SOL    HW129039   5.801   6.291   6.399
 9380SOL    HW229040   5.798   6.421   6.301
 9381SOL     OW29041   2.966   1.037   0.004
 9381SOL    HW129042   2.907   1.070   6.960
 9381SOL    HW229043   2.934   1.072   0.092
 9382SOL     OW29044   4.727   2.189   2.198
 9382SOL    HW129045   4.680   2.272   2.166
 9382SOL    HW229046   4.807   2.171   2.141
 9383SOL     OW29047   5.116   5.860   5.644
 9383SOL    HW129048   5.151   5.835   5.554
 9383SOL    HW229049   5.016   5.850   5.645
 9384SOL     OW29050   5.248   5.769   1.536
 9384SOL    HW129051   5.251   5.747   1.439
 9384SOL    HW229052   5.185   5.706   1.583
 9385SOL     OW29053   3.649   1.353   3.431
 9385SOL    HW129054   3.552   1.331   3.440
 9385SOL    HW229055   3.669   1.378   3.337
 9386SOL     OW29056   3.402   0.262   4.455
 9386SOL    HW129057   3.441   0.288   4.544
 9386SOL    HW229058   3.420   0.165   4.438
 9387SOL     OW29059   4.113   6.876   7.025
 9387SOL    HW129060   4.111   6.776   7.028
 9387SOL    HW229061   4.170   6.906   6.948
 9388SOL     OW29062   0.096   0.286   2.489
 9388SOL    HW129063   0.007   0.324   2.512
 9388SOL    HW229064   0.167   0.332   2.543
 9389SOL     OW29065   2.721   0.684   6.385
 9389SOL    HW129066   2.764   0.612   6.441
 9389SOL    HW229067   2.627   0.698   6.415
 9390SOL     OW29068   3.257   5.909   2.259
 9390SOL    HW129069   3.322   5.980   2.286
 9390SOL    HW229070   3.168   5.950   2.241
 9391SOL     OW29071   0.896   0.854   5.154
 9391SOL    HW129072   0.800   0.877   5.167
 9391SOL    HW229073   0.952   0.918   5.207
 9392SOL     OW29074   1.636   6.479   4.784
 9392SOL    HW129075   1.633   6.579   4.779
 9392SOL    HW229076   1.634   6.441   4.691
 9393SOL     OW29077   3.805   2.225   5.224
 9393SOL    HW129078   3.867   2.174   5.283
 9393SOL    HW229079   3.841   2.226   5.131
 9394SOL     OW29080   4.977   2.226   2.408
 9394SOL    HW129081   4.883   2.212   2.438
 9394SOL    HW229082   5.019   2.299   2.462
 9395SOL     OW29083   1.445   3.248   0.018
 9395SOL    HW129084   1.424   3.298   0.102
 9395SOL    HW229085   1.440   3.310   6.969
 9396SOL     OW29086   6.831   0.433   6.748
 9396SOL    HW129087   6.779   0.361   6.795
 9396SOL    HW229088   6.909   0.393   6.701
 9397SOL     OW29089   3.016   0.343   0.760
 9397SOL    HW129090   2.941   0.356   0.695
 9397SOL    HW229091   3.046   0.247   0.757
 9398SOL     OW29092   2.729   1.749   6.653
 9398SOL    HW129093   2.690   1.681   6.715
 9398SOL    HW229094   2.714   1.841   6.690
 9399SOL     OW29095   0.021   0.945   5.542
 9399SOL    HW129096   0.086   0.952   5.466
 9399SOL    HW229097   6.984   0.873   5.523
 9400SOL     OW29098   5.117   2.659   2.954
 9400SOL    HW129099   5.057   2.672   3.033
 9400SOL    HW229100   5.207   2.696   2.974
 9401SOL     OW29101   3.185   0.036   2.990
 9401SOL    HW129102   3.203   6.984   2.933
 9401SOL    HW229103   3.201   0.118   2.936
 9402SOL     OW29104   2.520   5.308   6.197
 9402SOL    HW129105   2.523   5.220   6.150
 9402SOL    HW229106   2.480   5.296   6.288
 9403SOL     OW29107   5.217   0.958   4.050
 9403SOL    HW129108   5.218   0.887   4.120
 9403SOL    HW229109   5.135   1.014   4.062
 9404SOL     OW29110   0.643   4.214   6.065
 9404SOL    HW129111   0.582   4.285   6.030
 9404SOL    HW229112   0.636   4.132   6.007
 9405SOL     OW29113   6.151   6.940   1.129
 9405SOL    HW129114   6.076   6.880   1.101
 9405SOL    HW229115   6.209   6.891   1.194
 9406SOL     OW29116   0.155   1.124   5.015
 9406SOL    HW129117   0.083   1.062   4.984
 9406SOL    HW229118   0.128   1.168   5.100
 9407SOL     OW29119   3.427   6.288   2.920
 9407SOL    HW129120   3.360   6.215   2.906
 9407SOL    HW229121   3.511   6.249   2.960
 9408SOL     OW29122   4.134   1.759   6.397
 9408SOL    HW129123   4.076   1.706   6.335
 9408SOL    HW229124   4.200   1.813   6.345
 9409SOL     OW29125   5.680   4.163   2.954
 9409SOL    HW129126   5.597   4.160   3.010
 9409SOL    HW229127   5.716   4.257   2.953
 9410SOL     OW29128   4.514   6.405   2.683
 9410SOL    HW129129   4.543   6.467   2.756
 9410SOL    HW229130   4.465   6.457   2.612
 9411SOL     OW29131   4.907   5.443   0.708
 9411SOL    HW129132   5.006   5.444   0.702
 9411SOL    HW229133   4.879   5.392   0.789
 9412SOL     OW29134   6.450   2.562   1.461
 9412SOL    HW129135   6.382   2.558   1.388
 9412SOL    HW229136   6.529   2.506   1.435
 9413SOL     OW29137   3.931   6.069   5.781
 9413SOL    HW129138   3.832   6.059   5.785
 9413SOL    HW229139   3.955   6.166   5.787
 9414SOL     OW29140   2.314   1.859   2.051
 9414SOL    HW129141   2.254   1.935   2.023
 9414SOL    HW229142   2.363   1.824   1.971
 9415SOL     OW29143   2.713   0.567   1.974
 9415SOL    HW129144   2.691   0.477   1.936
 9415SOL    HW229145   2.660   0.581   2.058
 9416SOL     OW29146   0.559   2.737   1.705
 9416SOL    HW129147   0.475   2.788   1.688
 9416SOL    HW229148   0.636   2.786   1.664
 9417SOL     OW29149   2.435   5.997   4.637
 9417SOL    HW129150   2.388   6.058   4.574
 9417SOL    HW229151   2.480   6.050   4.708
 9418SOL     OW29152   3.616   4.907   0.629
 9418SOL    HW129153   3.619   4.869   0.721
 9418SOL    HW229154   3.525   4.945   0.612
 9419SOL     OW29155   3.684   6.745   5.747
 9419SOL    HW129156   3.602   6.795   5.721
 9419SOL    HW229157   3.744   6.805   5.801
 9420SOL     OW29158   0.648   1.357   4.392
 9420SOL    HW129159   0.561   1.319   4.360
 9420SOL    HW229160   0.691   1.292   4.456
 9421SOL     OW29161   1.950   4.628   5.579
 9421SOL    HW129162   2.016   4.573   5.528
 9421SOL    HW229163   1.972   4.725   5.568
 9422SOL     OW29164   4.110   1.297   2.192
 9422SOL    HW129165   4.022   1.333   2.224
 9422SOL    HW229166   4.128   1.210   2.236
 9423SOL     OW29167   4.843   1.150   5.018
 9423SOL    HW129168   4.780   1.097   4.961
 9423SOL    HW229169   4.818   1.246   5.013
 9424SOL     OW29170   3.026   6.544   4.703
 9424SOL    HW129171   3.080   6.614   4.656
 9424SOL    HW229172   3.081   6.501   4.773
 9425SOL     OW29173   1.302   3.312   4.191
 9425SOL    HW129174   1.385   3.335   4.242
 9425SOL    HW229175   1.284   3.383   4.123
 9426SOL     OW29176   3.408   6.593   0.174
 9426SOL    HW129177   3.416   6.670   0.111
 9426SOL    HW229178   3.472   6.521   0.148
 9427SOL     OW29179   3.097   5.262   4.077
 9427SOL    HW129180   3.016   5.202   4.080
 9427SOL    HW229181   3.167   5.226   4.138
 9428SOL     OW29182   5.044   6.386   2.704
 9428SOL    HW129183   4.999   6.353   2.621
 9428SOL    HW229184   4.992   6.356   2.784
 9429SOL     OW29185   0.283   3.892   2.437
 9429SOL    HW129186   0.363   3.905   2.495
 9429SOL    HW229187   0.256   3.980   2.396
 9430SOL     OW29188   5.781   6.668   1.656
 9430SOL    HW129189   5.787   6.609   1.736
 9430SOL    HW229190   5.766   6.613   1.574
 9431SOL     OW29191   6.500   4.517   1.945
 9431SOL    HW129192   6.423   4.578   1.959
 9431SOL    HW229193   6.582   4.571   1.926
 9432SOL     OW29194   6.416   6.922   4.307
 9432SOL    HW129195   6.499   6.957   4.264
 9432SOL    HW229196   6.435   6.833   4.349
 9433SOL     OW29197   2.846   4.799   4.820
 9433SOL    HW129198   2.878   4.758   4.735
 9433SOL    HW229199   2.866   4.737   4.896
 9434SOL     OW29200   5.027   5.091   2.646
 9434SOL    HW129201   5.038   5.001   2.687
 9434SOL    HW229202   5.033   5.084   2.546
 9435SOL     OW29203   1.387   0.517   4.280
 9435SOL    HW129204   1.452   0.457   4.232
 9435SOL    HW229205   1.438   0.580   4.339
 9436SOL     OW29206   2.403   2.508   6.845
 9436SOL    HW129207   2.337   2.583   6.845
 9436SOL    HW229208   2.464   2.517   6.924
 9437SOL     OW29209   1.048   5.105   4.184
 9437SOL    HW129210   1.124   5.039   4.181
 9437SOL    HW229211   0.974   5.068   4.241
 9438SOL     OW29212   1.231   5.934   2.025
 9438SOL    HW129213   1.244   6.027   1.990
 9438SOL    HW229214   1.212   5.938   2.123
 9439SOL     OW29215   0.281   2.482   1.786
 9439SOL    HW129216   0.374   2.446   1.792
 9439SOL    HW229217   0.279   2.575   1.823
 9440SOL     OW29218   5.075   6.350   5.576
 9440SOL    HW129219   5.078   6.425   5.642
 9440SOL    HW229220   5.132   6.274   5.608
 9441SOL     OW29221   1.516   4.566   5.378
 9441SOL    HW129222   1.590   4.613   5.329
 9441SOL    HW229223   1.502   4.610   5.467
 9442SOL     OW29224   0.330   3.793   2.017
 9442SOL    HW129225   0.279   3.861   1.964
 9442SOL    HW229226   0.421   3.782   1.977
 9443SOL     OW29227   1.821   3.798   1.910
 9443SOL    HW129228   1.830   3.812   2.008
 9443SOL    HW229229   1.819   3.886   1.864
 9444SOL     OW29230   0.101   3.545   6.757
 9444SOL    HW129231   0.062   3.473   6.815
 9444SOL    HW229232   0.066   3.535   6.664
 9445SOL     OW29233   5.844   3.410   1.346
 9445SOL    HW129234   5.928   3.462   1.330
 9445SOL    HW229235   5.842   3.380   1.441
 9446SOL     OW29236   6.243   5.753   1.347
 9446SOL    HW129237   6.287   5.764   1.258
 9446SOL    HW229238   6.306   5.708   1.410
 9447SOL     OW29239   5.756   2.737   1.992
 9447SOL    HW129240   5.723   2.785   2.074
 9447SOL    HW229241   5.815   2.661   2.020
 9448SOL     OW29242   6.166   6.601   0.209
 9448SOL    HW129243   6.175   6.699   0.228
 9448SOL    HW229244   6.204   6.549   0.285
 9449SOL     OW29245   6.754   5.462   5.533
 9449SOL    HW129246   6.745   5.558   5.560
 9449SOL    HW229247   6.773   5.406   5.614
 9450SOL     OW29248   3.302   4.931   4.153
 9450SOL    HW129249   3.323   4.932   4.055
 9450SOL    HW229250   3.215   4.978   4.168
 9451SOL     OW29251   4.505   4.613   6.021
 9451SOL    HW129252   4.500   4.521   5.982
 9451SOL    HW229253   4.513   4.605   6.121
 9452SOL     OW29254   2.187   4.421   1.547
 9452SOL    HW129255   2.264   4.480   1.525
 9452SOL    HW229256   2.217   4.349   1.610
 9453SOL     OW29257   3.421   5.068   2.150
 9453SOL    HW129258   3.426   5.074   2.050
 9453SOL    HW229259   3.388   5.155   2.186
 9454SOL     OW29260   2.241   2.849   5.273
 9454SOL    HW129261   2.312   2.900   5.225
 9454SOL    HW229262   2.273   2.826   5.365
 9455SOL     OW29263   3.176   1.760   1.682
 9455SOL    HW129264   3.247   1.814   1.637
 9455SOL    HW229265   3.094   1.817   1.694
 9456SOL     OW29266   1.308   3.212   1.465
 9456SOL    HW129267   1.313   3.309   1.446
 9456SOL    HW229268   1.281   3.198   1.561
 9457SOL     OW29269   0.411   3.478   0.565
 9457SOL    HW129270   0.371   3.502   0.653
 9457SOL    HW229271   0.508   3.504   0.564
 9458SOL     OW29272   0.036   5.699   5.055
 9458SOL    HW129273   6.997   5.691   4.982
 9458SOL    HW229274   7.019   5.724   5.140
 9459SOL     OW29275   5.687   5.695   1.857
 9459SOL    HW129276   5.604   5.692   1.801
 9459SOL    HW229277   5.767   5.706   1.798
 9460SOL     OW29278   1.067   2.196   5.419
 9460SOL    HW129279   1.041   2.284   5.380
 9460SOL    HW229280   1.075   2.128   5.346
 9461SOL     OW29281   1.262   1.150   3.780
 9461SOL    HW129282   1.346   1.104   3.752
 9461SOL    HW229283   1.205   1.166   3.700
 9462SOL     OW29284   0.749   3.209   2.205
 9462SOL    HW129285   0.762   3.300   2.244
 9462SOL    HW229286   0.832   3.155   2.218
 9463SOL     OW29287   5.595   1.727   0.503
 9463SOL    HW129288   5.654   1.733   0.423
 9463SOL    HW229289   5.637   1.668   0.572
 9464SOL     OW29290   5.641   0.729   6.212
 9464SOL    HW129291   5.741   0.735   6.205
 9464SOL    HW229292   5.616   0.657   6.278
 9465SOL     OW29293   6.326   0.585   3.983
 9465SOL    HW129294   6.418   0.617   4.005
 9465SOL    HW229295   6.270   0.663   3.953
 9466SOL     OW29296   2.851   2.477   6.364
 9466SOL    HW129297   2.812   2.513   6.449
 9466SOL    HW229298   2.872   2.380   6.375
 9467SOL     OW29299   1.990   3.396   1.985
 9467SOL    HW129300   2.080   3.430   2.011
 9467SOL    HW229301   1.999   3.305   1.944
 9468SOL     OW29302   6.737   2.854   5.909
 9468SOL    HW129303   6.654   2.908   5.895
 9468SOL    HW229304   6.816   2.906   5.876
 9469SOL     OW29305   6.379   4.913   1.763
 9469SOL    HW129306   6.302   4.952   1.714
 9469SOL    HW229307   6.346   4.861   1.842
 9470SOL     OW29308   5.192   3.493   0.704
 9470SOL    HW129309   5.226   3.507   0.611
 9470SOL    HW229310   5.219   3.402   0.736
 9471SOL     OW29311   0.066   1.745   5.965
 9471SOL    HW129312   0.068   1.780   6.059
 9471SOL    HW229313   7.006   1.763   5.924
 9472SOL     OW29314   6.412   4.232   3.547
 9472SOL    HW129315   6.505   4.203   3.570
 9472SOL    HW229316   6.346   4.173   3.594
 9473SOL     OW29317   3.181   5.328   5.232
 9473SOL    HW129318   3.163   5.243   5.182
 9473SOL    HW229319   3.279   5.350   5.225
 9474SOL     OW29320   4.727   5.429   2.691
 9474SOL    HW129321   4.661   5.362   2.724
 9474SOL    HW229322   4.681   5.495   2.631
 9475SOL     OW29323   2.084   3.391   1.188
 9475SOL    HW129324   2.128   3.320   1.243
 9475SOL    HW229325   2.070   3.473   1.244
 9476SOL     OW29326   3.690   4.069   5.237
 9476SOL    HW129327   3.630   4.147   5.251
 9476SOL    HW229328   3.772   4.098   5.188
 9477SOL     OW29329   1.181   2.638   1.535
 9477SOL    HW129330   1.173   2.540   1.515
 9477SOL    HW229331   1.272   2.670   1.511
 9478SOL     OW29332   5.896   4.647   5.552
 9478SOL    HW129333   5.924   4.693   5.468
 9478SOL    HW229334   5.908   4.548   5.542
 9479SOL     OW29335   6.227   5.988   6.225
 9479SOL    HW129336   6.165   5.942   6.289
 9479SOL    HW229337   6.225   5.941   6.137
 9480SOL     OW29338   5.507   4.894   0.001
 9480SOL    HW129339   5.459   4.924   0.083
 9480SOL    HW229340   5.602   4.876   0.022
 9481SOL     OW29341   0.155   3.766   2.213
 9481SOL    HW129342   0.201   3.809   2.291
 9481SOL    HW229343   0.220   3.754   2.139
 9482SOL     OW29344   4.505   0.076   2.474
 9482SOL    HW129345   4.504   0.174   2.456
 9482SOL    HW229346   4.438   0.053   2.544
 9483SOL     OW29347   1.752   1.824   6.872
 9483SOL    HW129348   1.784   1.896   6.933
 9483SOL    HW229349   1.744   1.860   6.779
 9484SOL     OW29350   6.699   1.853   3.430
 9484SOL    HW129351   6.636   1.928   3.407
 9484SOL    HW229352   6.792   1.888   3.434
 9485SOL     OW29353   1.057   0.267   2.754
 9485SOL    HW129354   1.073   0.247   2.658
 9485SOL    HW229355   1.072   0.184   2.808
 9486SOL     OW29356   3.224   5.752   1.937
 9486SOL    HW129357   3.321   5.738   1.957
 9486SOL    HW229358   3.208   5.847   1.911
 9487SOL     OW29359   3.176   2.956   3.945
 9487SOL    HW129360   3.264   2.989   3.980
 9487SOL    HW229361   3.161   2.862   3.976
 9488SOL     OW29362   1.780   6.704   0.761
 9488SOL    HW129363   1.806   6.753   0.678
 9488SOL    HW229364   1.697   6.745   0.799
 9489SOL     OW29365   3.642   4.774   0.855
 9489SOL    HW129366   3.683   4.693   0.813
 9489SOL    HW229367   3.709   4.819   0.913
 9490SOL     OW29368   5.125   1.347   1.226
 9490SOL    HW129369   5.071   1.291   1.289
 9490SOL    HW229370   5.146   1.435   1.269
 9491SOL     OW29371   5.985   5.239   6.520
 9491SOL    HW129372   5.998   5.282   6.610
 9491SOL    HW229373   5.887   5.221   6.506
 9492SOL     OW29374   3.021   4.002   1.838
 9492SOL    HW129375   3.076   4.073   1.794
 9492SOL    HW229376   3.070   3.967   1.917
 9493SOL     OW29377   4.825   6.564   3.253
 9493SOL    HW129378   4.838   6.544   3.350
 9493SOL    HW229379   4.906   6.610   3.217
 9494SOL     OW29380   3.946   3.348   5.461
 9494SOL    HW129381   4.018   3.347   5.530
 9494SOL    HW229382   3.951   3.434   5.410
 9495SOL     OW29383   6.058   2.437   5.475
 9495SOL    HW129384   6.080   2.340   5.488
 9495SOL    HW229385   5.990   2.465   5.543
 9496SOL     OW29386   5.853   4.390   6.874
 9496SOL    HW129387   5.929   4.399   6.938
 9496SOL    HW229388   5.767   4.412   6.921
 9497SOL     OW29389   5.787   5.840   6.319
 9497SOL    HW129390   5.766   5.748   6.352
 9497SOL    HW229391   5.703   5.883   6.284
 9498SOL     OW29392   3.741   0.782   6.272
 9498SOL    HW129393   3.670   0.796   6.341
 9498SOL    HW229394   3.705   0.721   6.200
 9499SOL     OW29395   3.874   4.372   5.345
 9499SOL    HW129396   3.951   4.436   5.340
 9499SOL    HW229397   3.898   4.288   5.295
 9500SOL     OW29398   5.106   6.201   1.617
 9500SOL    HW129399   5.086   6.297   1.640
 9500SOL    HW229400   5.157   6.198   1.531
 9501SOL     OW29401   3.129   1.654   5.011
 9501SOL    HW129402   3.069   1.575   5.018
 9501SOL    HW229403   3.106   1.707   4.929
 9502SOL     OW29404   5.978   2.920   5.863
 9502SOL    HW129405   6.073   2.948   5.847
 9502SOL    HW229406   5.937   2.892   5.776
 9503SOL     OW29407   1.375   6.872   1.154
 9503SOL    HW129408   1.432   6.795   1.182
 9503SOL    HW229409   1.278   6.848   1.169
 9504SOL     OW29410   0.411   2.722   6.489
 9504SOL    HW129411   0.441   2.789   6.420
 9504SOL    HW229412   0.384   2.770   6.572
 9505SOL     OW29413   5.877   3.004   3.071
 9505SOL    HW129414   5.788   3.044   3.097
 9505SOL    HW229415   5.868   2.905   3.064
 9506SOL     OW29416   6.571   4.077   0.411
 9506SOL    HW129417   6.505   4.022   0.462
 9506SOL    HW229418   6.640   4.016   0.371
 9507SOL     OW29419   0.857   1.975   3.436
 9507SOL    HW129420   0.917   1.897   3.417
 9507SOL    HW229421   0.781   1.976   3.371
 9508SOL     OW29422   6.009   2.074   0.155
 9508SOL    HW129423   5.978   1.989   0.197
 9508SOL    HW229424   5.981   2.152   0.212
 9509SOL     OW29425   2.390   6.191   5.586
 9509SOL    HW129426   2.312   6.164   5.529
 9509SOL    HW229427   2.389   6.137   5.670
 9510SOL     OW29428   6.572   4.846   3.376
 9510SOL    HW129429   6.587   4.945   3.372
 9510SOL    HW229430   6.660   4.799   3.384
 9511SOL     OW29431   0.531   1.437   0.802
 9511SOL    HW129432   0.513   1.346   0.839
 9511SOL    HW229433   0.629   1.455   0.808
 9512SOL     OW29434   0.790   2.317   3.830
 9512SOL    HW129435   0.874   2.350   3.873
 9512SOL    HW229436   0.810   2.236   3.775
 9513SOL     OW29437   2.376   4.390   3.848
 9513SOL    HW129438   2.391   4.368   3.751
 9513SOL    HW229439   2.359   4.306   3.899
 9514SOL     OW29440   2.237   2.762   0.043
 9514SOL    HW129441   2.199   2.852   0.063
 9514SOL    HW229442   2.177   2.712   7.009
 9515SOL     OW29443   2.086   5.570   6.501
 9515SOL    HW129444   2.184   5.581   6.487
 9515SOL    HW229445   2.037   5.647   6.459
 9516SOL     OW29446   5.089   3.317   4.185
 9516SOL    HW129447   5.176   3.348   4.148
 9516SOL    HW229448   5.065   3.371   4.266
 9517SOL     OW29449   0.331   5.483   2.316
 9517SOL    HW129450   0.354   5.469   2.412
 9517SOL    HW229451   0.248   5.538   2.309
 9518SOL     OW29452   0.865   2.518   6.458
 9518SOL    HW129453   0.882   2.492   6.363
 9518SOL    HW229454   0.901   2.610   6.474
 9519SOL     OW29455   3.454   3.634   3.282
 9519SOL    HW129456   3.531   3.600   3.229
 9519SOL    HW229457   3.372   3.580   3.261
 9520SOL     OW29458   6.148   0.180   5.828
 9520SOL    HW129459   6.196   0.092   5.836
 9520SOL    HW229460   6.189   0.246   5.890
 9521SOL     OW29461   3.553   0.302   1.263
 9521SOL    HW129462   3.647   0.335   1.253
 9521SOL    HW229463   3.535   0.232   1.194
 9522SOL     OW29464   3.872   6.475   2.345
 9522SOL    HW129465   3.843   6.502   2.253
 9522SOL    HW229466   3.799   6.496   2.410
 9523SOL     OW29467   2.545   5.341   4.034
 9523SOL    HW129468   2.476   5.270   4.016
 9523SOL    HW229469   2.606   5.348   3.955
 9524SOL     OW29470   2.014   4.547   1.202
 9524SOL    HW129471   2.070   4.620   1.241
 9524SOL    HW229472   1.953   4.511   1.273
 9525SOL     OW29473   1.964   3.053   5.631
 9525SOL    HW129474   2.009   3.113   5.565
 9525SOL    HW229475   1.931   2.971   5.585
 9526SOL     OW29476   4.908   4.587   6.786
 9526SOL    HW129477   4.858   4.668   6.815
 9526SOL    HW229478   5.002   4.613   6.763
 9527SOL     OW29479   4.144   6.958   3.115
 9527SOL    HW129480   4.185   6.890   3.176
 9527SOL    HW229481   4.137   0.016   3.163
 9528SOL     OW29482   5.519   2.183   1.393
 9528SOL    HW129483   5.473   2.101   1.428
 9528SOL    HW229484   5.515   2.184   1.293
 9529SOL     OW29485   6.305   1.455   1.505
 9529SOL    HW129486   6.283   1.533   1.447
 9529SOL    HW229487   6.365   1.485   1.579
 9530SOL     OW29488   0.752   5.443   4.005
 9530SOL    HW129489   0.840   5.450   3.957
 9530SOL    HW229490   0.682   5.492   3.954
 9531SOL     OW29491   3.764   5.182   2.422
 9531SOL    HW129492   3.680   5.201   2.373
 9531SOL    HW229493   3.751   5.104   2.483
 9532SOL     OW29494   6.532   5.151   2.725
 9532SOL    HW129495   6.530   5.125   2.629
 9532SOL    HW229496   6.525   5.251   2.733
 9533SOL     OW29497   2.246   4.236   3.221
 9533SOL    HW129498   2.236   4.203   3.315
 9533SOL    HW229499   2.249   4.158   3.158
 9534SOL     OW29500   5.551   4.315   4.633
 9534SOL    HW129501   5.520   4.243   4.695
 9534SOL    HW229502   5.640   4.349   4.664
 9535SOL     OW29503   0.909   1.080   5.643
 9535SOL    HW129504   0.932   1.176   5.630
 9535SOL    HW229505   0.819   1.062   5.603
 9536SOL     OW29506   4.082   3.793   5.032
 9536SOL    HW129507   4.028   3.866   4.990
 9536SOL    HW229508   4.127   3.828   5.114
 9537SOL     OW29509   1.238   1.393   3.505
 9537SOL    HW129510   1.285   1.481   3.509
 9537SOL    HW229511   1.304   1.319   3.515
 9538SOL     OW29512   4.046   0.903   5.019
 9538SOL    HW129513   4.098   0.916   5.103
 9538SOL    HW229514   4.052   0.985   4.963
 9539SOL     OW29515   3.873   3.106   2.570
 9539SOL    HW129516   3.834   3.196   2.591
 9539SOL    HW229517   3.930   3.076   2.646
 9540SOL     OW29518   4.795   4.562   3.712
 9540SOL    HW129519   4.724   4.530   3.650
 9540SOL    HW229520   4.828   4.485   3.767
 9541SOL     OW29521   1.824   5.834   5.761
 9541SOL    HW129522   1.885   5.780   5.704
 9541SOL    HW229523   1.765   5.772   5.814
 9542SOL     OW29524   6.336   4.329   3.909
 9542SOL    HW129525   6.410   4.264   3.922
 9542SOL    HW229526   6.350   4.379   3.823
 9543SOL     OW29527   2.101   0.448   5.933
 9543SOL    HW129528   2.047   0.527   5.904
 9543SOL    HW229529   2.048   0.392   5.997
 9544SOL     OW29530   5.549   3.438   4.320
 9544SOL    HW129531   5.472   3.431   4.384
 9544SOL    HW229532   5.619   3.371   4.344
 9545SOL     OW29533   1.696   4.569   1.938
 9545SOL    HW129534   1.758   4.598   1.865
 9545SOL    HW229535   1.740   4.500   1.995
 9546SOL     OW29536   2.667   2.267   6.475
 9546SOL    HW129537   2.586   2.216   6.446
 9546SOL    HW229538   2.747   2.230   6.429
 9547SOL     OW29539   3.900   6.167   4.063
 9547SOL    HW129540   3.965   6.155   3.987
 9547SOL    HW229541   3.949   6.161   4.150
 9548SOL     OW29542   1.065   4.739   0.085
 9548SOL    HW129543   1.027   4.811   0.143
 9548SOL    HW229544   1.041   4.649   0.121
 9549SOL     OW29545   4.349   2.897   1.281
 9549SOL    HW129546   4.383   2.945   1.362
 9549SOL    HW229547   4.262   2.853   1.302
 9550SOL     OW29548   5.296   2.747   1.308
 9550SOL    HW129549   5.266   2.725   1.401
 9550SOL    HW229550   5.220   2.788   1.258
 9551SOL     OW29551   6.760   2.402   6.632
 9551SOL    HW129552   6.741   2.372   6.539
 9551SOL    HW229553   6.859   2.408   6.646
 9552SOL     OW29554   3.272   2.270   6.751
 9552SOL    HW129555   3.212   2.346   6.726
 9552SOL    HW229556   3.293   2.216   6.670
 9553SOL     OW29557   5.220   1.782   6.848
 9553SOL    HW129558   5.206   1.873   6.885
 9553SOL    HW229559   5.271   1.726   6.914
 9554SOL     OW29560   1.943   6.419   4.161
 9554SOL    HW129561   2.024   6.361   4.158
 9554SOL    HW229562   1.944   6.472   4.246
 9555SOL     OW29563   7.000   0.514   3.613
 9555SOL    HW129564   0.030   0.435   3.627
 9555SOL    HW229565   6.904   0.488   3.626
 9556SOL     OW29566   2.272   4.633   0.344
 9556SOL    HW129567   2.228   4.545   0.326
 9556SOL    HW229568   2.313   4.633   0.435
 9557SOL     OW29569   5.307   0.413   1.902
 9557SOL    HW129570   5.353   0.445   1.819
 9557SOL    HW229571   5.209   0.409   1.886
 9558SOL     OW29572   5.056   6.365   6.061
 9558SOL    HW129573   5.061   6.296   6.134
 9558SOL    HW229574   4.997   6.440   6.091
 9559SOL     OW29575   1.609   4.374   0.236
 9559SOL    HW129576   1.578   4.469   0.238
 9559SOL    HW229577   1.680   4.364   0.166
 9560SOL     OW29578   3.117   6.683   2.087
 9560SOL    HW129579   3.057   6.712   2.012
 9560SOL    HW229580   3.084   6.597   2.125
 9561SOL     OW29581   0.986   1.213   0.790
 9561SOL    HW129582   1.082   1.233   0.770
 9561SOL    HW229583   0.960   1.127   0.745
 9562SOL     OW29584   2.996   5.402   3.825
 9562SOL    HW129585   3.047   5.352   3.755
 9562SOL    HW229586   3.036   5.383   3.915
 9563SOL     OW29587   0.908   5.822   1.526
 9563SOL    HW129588   0.993   5.819   1.474
 9563SOL    HW229589   0.858   5.906   1.504
 9564SOL     OW29590   1.412   0.001   0.437
 9564SOL    HW129591   1.385   6.968   0.511
 9564SOL    HW229592   1.436   6.977   0.356
 9565SOL     OW29593   3.275   1.765   4.435
 9565SOL    HW129594   3.266   1.815   4.349
 9565SOL    HW229595   3.199   1.700   4.444
 9566SOL     OW29596   2.468   0.054   0.753
 9566SOL    HW129597   2.561   0.086   0.771
 9566SOL    HW229598   2.435   0.004   0.833
 9567SOL     OW29599   6.943   4.665   1.079
 9567SOL    HW129600   6.899   4.579   1.105
 9567SOL    HW229601   6.995   4.700   1.157
 9568SOL     OW29602   4.390   1.563   6.701
 9568SOL    HW129603   4.306   1.554   6.754
 9568SOL    HW229604   4.433   1.651   6.722
 9569SOL     OW29605   5.451   0.910   2.199
 9569SOL    HW129606   5.413   0.870   2.115
 9569SOL    HW229607   5.398   0.877   2.278
 9570SOL     OW29608   7.026   3.352   1.198
 9570SOL    HW129609   6.983   3.435   1.163
 9570SOL    HW229610   6.997   3.337   1.292
 9571SOL     OW29611   2.986   2.326   0.004
 9571SOL    HW129612   3.076   2.282   0.004
 9571SOL    HW229613   2.963   2.353   0.098
 9572SOL     OW29614   2.130   3.964   3.695
 9572SOL    HW129615   2.123   4.001   3.787
 9572SOL    HW229616   2.131   3.864   3.699
 9573SOL     OW29617   6.252   1.232   4.658
 9573SOL    HW129618   6.226   1.181   4.577
 9573SOL    HW229619   6.198   1.317   4.663
 9574SOL     OW29620   3.474   3.010   1.429
 9574SOL    HW129621   3.384   2.982   1.394
 9574SOL    HW229622   3.464   3.096   1.479
 9575SOL     OW29623   6.171   6.368   1.723
 9575SOL    HW129624   6.122   6.367   1.810
 9575SOL    HW229625   6.220   6.455   1.715
 9576SOL     OW29626   0.749   7.025   7.027
 9576SOL    HW129627   0.824   6.998   0.060
 9576SOL    HW229628   0.669   0.020   0.052
 9577SOL     OW29629   6.268   5.130   1.998
 9577SOL    HW129630   6.210   5.164   1.924
 9577SOL    HW229631   6.238   5.038   2.024
 9578SOL     OW29632   1.551   2.531   2.811
 9578SOL    HW129633   1.547   2.504   2.907
 9578SOL    HW229634   1.646   2.526   2.779
 9579SOL     OW29635   5.766   6.418   2.262
 9579SOL    HW129636   5.721   6.480   2.198
 9579SOL    HW229637   5.792   6.334   2.213
 9580SOL     OW29638   4.813   4.732   2.430
 9580SOL    HW129639   4.749   4.809   2.436
 9580SOL    HW229640   4.889   4.757   2.370
 9581SOL     OW29641   5.993   1.424   0.135
 9581SOL    HW129642   6.073   1.364   0.128
 9581SOL    HW229643   6.000   1.479   0.218
 9582SOL     OW29644   4.410   5.833   4.354
 9582SOL    HW129645   4.447   5.925   4.371
 9582SOL    HW229646   4.356   5.835   4.270
 9583SOL     OW29647   3.469   4.595   1.568
 9583SOL    HW129648   3.500   4.581   1.662
 9583SOL    HW229649   3.547   4.591   1.506
 9584SOL     OW29650   2.187   4.682   4.493
 9584SOL    HW129651   2.263   4.716   4.548
 9584SOL    HW229652   2.113   4.749   4.493
 9585SOL     OW29653   4.651   5.530   1.488
 9585SOL    HW129654   4.555   5.553   1.474
 9585SOL    HW229655   4.707   5.582   1.423
 9586SOL     OW29656   4.672   5.119   1.969
 9586SOL    HW129657   4.685   5.159   1.878
 9586SOL    HW229658   4.580   5.140   2.002
 9587SOL     OW29659   2.964   6.245   1.662
 9587SOL    HW129660   2.966   6.149   1.688
 9587SOL    HW229661   2.928   6.254   1.569
 9588SOL     OW29662   6.501   5.590   0.819
 9588SOL    HW129663   6.423   5.622   0.873
 9588SOL    HW229664   6.473   5.512   0.763
 9589SOL     OW29665   1.825   3.797   6.253
 9589SOL    HW129666   1.904   3.756   6.207
 9589SOL    HW229667   1.837   3.896   6.259
 9590SOL     OW29668   5.060   1.397   2.464
 9590SOL    HW129669   5.008   1.449   2.397
 9590SOL    HW229670   5.019   1.409   2.555
 9591SOL     OW29671   3.330   0.121   6.238
 9591SOL    HW129672   3.311   0.219   6.242
 9591SOL    HW229673   3.283   0.074   6.313
 9592SOL     OW29674   2.598   4.880   6.383
 9592SOL    HW129675   2.634   4.900   6.291
 9592SOL    HW229676   2.544   4.796   6.379
 9593SOL     OW29677   1.379   1.710   4.951
 9593SOL    HW129678   1.334   1.719   5.039
 9593SOL    HW229679   1.354   1.788   4.893
 9594SOL     OW29680   0.871   6.069   4.211
 9594SOL    HW129681   0.879   5.981   4.257
 9594SOL    HW229682   0.942   6.077   4.141
 9595SOL     OW29683   0.115   3.235   3.794
 9595SOL    HW129684   0.079   3.141   3.801
 9595SOL    HW229685   0.039   3.299   3.783
 9596SOL     OW29686   0.376   6.454   0.586
 9596SOL    HW129687   0.292   6.422   0.630
 9596SOL    HW229688   0.419   6.378   0.538
 9597SOL     OW29689   0.870   3.693   2.714
 9597SOL    HW129690   0.860   3.634   2.633
 9597SOL    HW229691   0.784   3.694   2.765
 9598SOL     OW29692   1.269   3.573   2.898
 9598SOL    HW129693   1.186   3.628   2.890
 9598SOL    HW229694   1.349   3.634   2.900
 9599SOL     OW29695   3.513   0.132   3.670
 9599SOL    HW129696   3.433   0.085   3.707
 9599SOL    HW229697   3.506   0.138   3.571
 9600SOL     OW29698   3.198   0.367   0.973
 9600SOL    HW129699   3.187   0.393   1.069
 9600SOL    HW229700   3.108   0.357   0.931
 9601SOL     OW29701   6.622   4.556   1.323
 9601SOL    HW129702   6.612   4.492   1.399
 9601SOL    HW229703   6.666   4.510   1.246
 9602SOL     OW29704   4.973   3.964   5.351
 9602SOL    HW129705   5.066   3.974   5.314
 9602SOL    HW229706   4.976   3.906   5.432
 9603SOL     OW29707   5.637   6.312   5.547
 9603SOL    HW129708   5.719   6.288   5.598
 9603SOL    HW229709   5.565   6.338   5.611
 9604SOL     OW29710   5.382   0.240   0.690
 9604SOL    HW129711   5.341   0.212   0.776
 9604SOL    HW229712   5.458   0.179   0.667
 9605SOL     OW29713   6.613   5.975   3.634
 9605SOL    HW129714   6.557   6.035   3.577
 9605SOL    HW229715   6.570   5.885   3.641
 9606SOL     OW29716   1.213   1.286   6.520
 9606SOL    HW129717   1.259   1.333   6.595
 9606SOL    HW229718   1.119   1.318   6.513
 9607SOL     OW29719   3.563   2.733   6.248
 9607SOL    HW129720   3.634   2.721   6.317
 9607SOL    HW229721   3.562   2.828   6.218
 9608SOL     OW29722   6.735   4.346   2.692
 9608SOL    HW129723   6.711   4.323   2.787
 9608SOL    HW229724   6.831   4.324   2.676
 9609SOL     OW29725   4.115   2.500   6.184
 9609SOL    HW129726   4.182   2.527   6.115
 9609SOL    HW229727   4.124   2.561   6.264
 9610SOL     OW29728   1.557   3.635   2.903
 9610SOL    HW129729   1.557   3.665   2.808
 9610SOL    HW229730   1.601   3.703   2.960
 9611SOL     OW29731   1.758   0.256   1.035
 9611SOL    HW129732   1.689   0.247   0.963
 9611SOL    HW229733   1.820   0.332   1.012
 9612SOL     OW29734   0.849   3.170   2.513
 9612SOL    HW129735   0.867   3.113   2.433
 9612SOL    HW229736   0.928   3.168   2.574
 9613SOL     OW29737   6.045   5.978   3.920
 9613SOL    HW129738   5.966   6.012   3.869
 9613SOL    HW229739   6.021   5.892   3.965
 9614SOL     OW29740   4.914   2.007   2.787
 9614SOL    HW129741   4.941   1.963   2.701
 9614SOL    HW229742   4.925   1.942   2.863
 9615SOL     OW29743   2.486   2.382   1.351
 9615SOL    HW129744   2.521   2.475   1.341
 9615SOL    HW229745   2.548   2.328   1.407
 9616SOL     OW29746   3.435   3.136   0.277
 9616SOL    HW129747   3.338   3.138   0.253
 9616SOL    HW229748   3.468   3.042   0.279
 9617SOL     OW29749   2.285   2.692   4.093
 9617SOL    HW129750   2.258   2.596   4.081
 9617SOL    HW229751   2.259   2.744   4.012
 9618SOL     OW29752   3.021   0.802   0.718
 9618SOL    HW129753   2.989   0.728   0.658
 9618SOL    HW229754   2.971   0.885   0.696
 9619SOL     OW29755   2.225   1.058   5.585
 9619SOL    HW129756   2.130   1.087   5.596
 9619SOL    HW229757   2.284   1.139   5.583
 9620SOL     OW29758   5.366   7.010   4.941
 9620SOL    HW129759   5.316   6.983   5.024
 9620SOL    HW229760   5.304   0.028   4.879
 9621SOL     OW29761   1.645   2.665   2.293
 9621SOL    HW129762   1.707   2.679   2.370
 9621SOL    HW229763   1.698   2.647   2.210
 9622SOL     OW29764   6.144   0.911   1.000
 9622SOL    HW129765   6.216   0.850   0.968
 9622SOL    HW229766   6.120   0.976   0.928
 9623SOL     OW29767   3.807   3.479   6.322
 9623SOL    HW129768   3.833   3.390   6.358
 9623SOL    HW229769   3.856   3.496   6.237
 9624SOL     OW29770   6.200   3.225   2.960
 9624SOL    HW129771   6.139   3.234   3.038
 9624SOL    HW229772   6.146   3.212   2.877
 9625SOL     OW29773   6.251   6.275   0.498
 9625SOL    HW129774   6.180   6.227   0.446
 9625SOL    HW229775   6.325   6.211   0.519
 9626SOL     OW29776   3.605   5.978   6.659
 9626SOL    HW129777   3.702   5.984   6.636
 9626SOL    HW229778   3.589   5.897   6.716
 9627SOL     OW29779   1.596   6.057   6.365
 9627SOL    HW129780   1.582   6.127   6.294
 9627SOL    HW229781   1.635   6.099   6.446
 9628SOL     OW29782   4.405   5.984   1.580
 9628SOL    HW129783   4.378   6.070   1.537
 9628SOL    HW229784   4.340   5.913   1.556
 9629SOL     OW29785   2.888   6.589   1.042
 9629SOL    HW129786   2.829   6.639   1.106
 9629SOL    HW229787   2.887   6.491   1.066
 9630SOL     OW29788   6.607   0.277   5.968
 9630SOL    HW129789   6.690   0.281   5.913
 9630SOL    HW229790   6.607   0.193   6.023
 9631SOL     OW29791   6.550   6.724   6.839
 9631SOL    HW129792   6.598   6.642   6.809
 9631SOL    HW229793   6.613   6.783   6.889
 9632SOL     OW29794   1.609   6.599   2.154
 9632SOL    HW129795   1.622   6.548   2.239
 9632SOL    HW229796   1.692   6.592   2.098
 9633SOL     OW29797   6.409   5.228   6.523
 9633SOL    HW129798   6.396   5.158   6.453
 9633SOL    HW229799   6.381   5.317   6.487
 9634SOL     OW29800   0.926   6.783   4.595
 9634SOL    HW129801   0.909   6.882   4.589
 9634SOL    HW229802   0.978   6.763   4.678
 9635SOL     OW29803   2.460   5.111   4.909
 9635SOL    HW129804   2.510   5.169   4.844
 9635SOL    HW229805   2.458   5.017   4.874
 9636SOL     OW29806   4.341   1.534   5.019
 9636SOL    HW129807   4.363   1.619   4.971
 9636SOL    HW229808   4.395   1.530   5.104
 9637SOL     OW29809   1.978   2.105   6.791
 9637SOL    HW129810   1.922   2.080   6.870
 9637SOL    HW229811   2.019   2.195   6.807
 9638SOL     OW29812   6.535   2.923   5.298
 9638SOL    HW129813   6.555   2.970   5.384
 9638SOL    HW229814   6.618   2.882   5.262
 9639SOL     OW29815   4.434   1.307   2.570
 9639SOL    HW129816   4.422   1.242   2.495
 9639SOL    HW229817   4.529   1.339   2.572
 9640SOL     OW29818   2.013   2.097   2.856
 9640SOL    HW129819   2.042   2.033   2.784
 9640SOL    HW229820   1.929   2.144   2.827
 9641SOL     OW29821   6.061   6.148   0.345
 9641SOL    HW129822   6.082   6.136   0.248
 9641SOL    HW229823   5.965   6.172   0.356
 9642SOL     OW29824   2.961   0.903   4.351
 9642SOL    HW129825   3.000   0.989   4.385
 9642SOL    HW229826   2.991   0.888   4.257
 9643SOL     OW29827   4.628   4.812   3.471
 9643SOL    HW129828   4.718   4.852   3.489
 9643SOL    HW229829   4.632   4.759   3.386
 9644SOL     OW29830   1.722   2.248   6.252
 9644SOL    HW129831   1.739   2.153   6.276
 9644SOL    HW229832   1.629   2.273   6.280
 9645SOL     OW29833   2.990   5.210   4.918
 9645SOL    HW129834   3.053   5.170   4.985
 9645SOL    HW229835   3.040   5.276   4.861
 9646SOL     OW29836   3.827   4.921   2.538
 9646SOL    HW129837   3.744   4.865   2.535
 9646SOL    HW229838   3.888   4.894   2.463
 9647SOL     OW29839   6.540   3.285   0.498
 9647SOL    HW129840   6.594   3.365   0.471
 9647SOL    HW229841   6.537   3.220   0.422
 9648SOL     OW29842   4.647   3.154   0.732
 9648SOL    HW129843   4.562   3.166   0.681
 9648SOL    HW229844   4.668   3.237   0.783
 9649SOL     OW29845   2.176   5.665   0.504
 9649SOL    HW129846   2.080   5.638   0.502
 9649SOL    HW229847   2.227   5.606   0.566
 9650SOL     OW29848   6.765   6.713   1.612
 9650SOL    HW129849   6.702   6.725   1.689
 9650SOL    HW229850   6.815   6.627   1.623
 9651SOL     OW29851   0.590   1.133   6.291
 9651SOL    HW129852   0.657   1.074   6.336
 9651SOL    HW229853   0.529   1.078   6.234
 9652SOL     OW29854   0.466   5.648   2.950
 9652SOL    HW129855   0.375   5.653   2.908
 9652SOL    HW229856   0.472   5.565   3.006
 9653SOL     OW29857   5.981   4.777   4.296
 9653SOL    HW129858   6.013   4.807   4.385
 9653SOL    HW229859   5.966   4.857   4.236
 9654SOL     OW29860   2.568   2.948   1.648
 9654SOL    HW129861   2.649   2.912   1.694
 9654SOL    HW229862   2.523   2.874   1.597
 9655SOL     OW29863   6.946   2.027   0.082
 9655SOL    HW129864   6.873   1.967   0.051
 9655SOL    HW229865   6.925   2.060   0.174
 9656SOL     OW29866   3.457   0.625   2.838
 9656SOL    HW129867   3.492   0.611   2.745
 9656SOL    HW229868   3.370   0.674   2.833
 9657SOL     OW29869   6.434   0.554   4.690
 9657SOL    HW129870   6.357   0.492   4.703
 9657SOL    HW229871   6.511   0.525   4.747
 9658SOL     OW29872   6.726   2.345   2.187
 9658SOL    HW129873   6.767   2.410   2.252
 9658SOL    HW229874   6.651   2.297   2.232
 9659SOL     OW29875   0.343   4.582   6.926
 9659SOL    HW129876   0.342   4.552   7.022
 9659SOL    HW229877   0.282   4.523   6.873
 9660SOL     OW29878   0.664   5.183   0.301
 9660SOL    HW129879   0.643   5.092   0.336
 9660SOL    HW229880   0.585   5.242   0.314
 9661SOL     OW29881   4.144   6.635   0.845
 9661SOL    HW129882   4.068   6.583   0.884
 9661SOL    HW229883   4.212   6.654   0.916
 9662SOL     OW29884   6.561   1.057   4.261
 9662SOL    HW129885   6.480   0.999   4.250
 9662SOL    HW229886   6.628   1.032   4.191
 9663SOL     OW29887   2.409   5.505   2.834
 9663SOL    HW129888   2.425   5.478   2.738
 9663SOL    HW229889   2.442   5.433   2.894
 9664SOL     OW29890   3.648   6.116   2.157
 9664SOL    HW129891   3.680   6.131   2.250
 9664SOL    HW229892   3.717   6.148   2.092
 9665SOL     OW29893   5.680   4.174   4.407
 9665SOL    HW129894   5.604   4.213   4.458
 9665SOL    HW229895   5.726   4.245   4.354
 9666SOL     OW29896   5.686   4.828   3.696
 9666SOL    HW129897   5.686   4.756   3.766
 9666SOL    HW229898   5.597   4.874   3.696
 9667SOL     OW29899   4.061   3.804   3.828
 9667SOL    HW129900   3.974   3.795   3.779
 9667SOL    HW229901   4.045   3.847   3.917
 9668SOL     OW29902   0.372   0.785   5.470
 9668SOL    HW129903   0.463   0.760   5.505
 9668SOL    HW229904   0.364   0.755   5.375
 9669SOL     OW29905   1.309   5.849   0.679
 9669SOL    HW129906   1.351   5.832   0.768
 9669SOL    HW229907   1.252   5.931   0.683
 9670SOL     OW29908   5.106   4.895   0.080
 9670SOL    HW129909   5.053   4.905   0.164
 9670SOL    HW229910   5.063   4.949   0.007
 9671SOL     OW29911   7.008   5.931   5.585
 9671SOL    HW129912   0.028   5.894   5.506
 9671SOL    HW229913   0.043   5.983   5.642
 9672SOL     OW29914   0.186   6.257   4.489
 9672SOL    HW129915   0.112   6.252   4.423
 9672SOL    HW229916   0.267   6.211   4.453
 9673SOL     OW29917   2.998   3.944   6.535
 9673SOL    HW129918   3.057   3.917   6.459
 9673SOL    HW229919   3.055   3.980   6.609
 9674SOL     OW29920   3.490   6.030   2.430
 9674SOL    HW129921   3.434   6.105   2.464
 9674SOL    HW229922   3.571   6.066   2.384
 9675SOL     OW29923   6.747   1.844   1.843
 9675SOL    HW129924   6.747   1.759   1.895
 9675SOL    HW229925   6.722   1.825   1.749
 9676SOL     OW29926   0.334   3.561   4.465
 9676SOL    HW129927   0.351   3.656   4.440
 9676SOL    HW229928   0.334   3.504   4.383
 9677SOL     OW29929   1.732   3.214   6.042
 9677SOL    HW129930   1.684   3.127   6.046
 9677SOL    HW229931   1.698   3.275   6.114
 9678SOL     OW29932   3.223   3.073   3.311
 9678SOL    HW129933   3.179   3.086   3.222
 9678SOL    HW229934   3.267   3.158   3.339
 9679SOL     OW29935   0.916   2.972   1.827
 9679SOL    HW129936   0.962   2.884   1.827
 9679SOL    HW229937   0.976   3.042   1.866
 9680SOL     OW29938   5.673   5.811   3.598
 9680SOL    HW129939   5.742   5.759   3.548
 9680SOL    HW229940   5.641   5.757   3.676
 9681SOL     OW29941   2.377   0.674   2.669
 9681SOL    HW129942   2.476   0.683   2.657
 9681SOL    HW229943   2.350   0.712   2.757
 9682SOL     OW29944   6.242   4.416   2.986
 9682SOL    HW129945   6.319   4.479   2.975
 9682SOL    HW229946   6.275   4.322   2.983
 9683SOL     OW29947   4.774   6.106   6.874
 9683SOL    HW129948   4.784   6.035   6.943
 9683SOL    HW229949   4.752   6.065   6.786
 9684SOL     OW29950   1.172   3.400   4.891
 9684SOL    HW129951   1.088   3.354   4.860
 9684SOL    HW229952   1.196   3.367   4.982
 9685SOL     OW29953   1.135   2.740   0.211
 9685SOL    HW129954   1.197   2.817   0.198
 9685SOL    HW229955   1.160   2.691   0.294
 9686SOL     OW29956   6.211   0.706   1.869
 9686SOL    HW129957   6.247   0.788   1.825
 9686SOL    HW229958   6.211   0.719   1.968
 9687SOL     OW29959   3.180   0.549   4.150
 9687SOL    HW129960   3.117   0.531   4.074
 9687SOL    HW229961   3.208   0.463   4.192
 9688SOL     OW29962   0.072   1.153   2.943
 9688SOL    HW129963   0.057   1.251   2.957
 9688SOL    HW229964   0.138   1.139   2.870
 9689SOL     OW29965   2.417   6.255   6.054
 9689SOL    HW129966   2.378   6.219   6.140
 9689SOL    HW229967   2.342   6.279   5.992
 9690SOL     OW29968   6.370   4.492   1.246
 9690SOL    HW129969   6.461   4.498   1.288
 9690SOL    HW229970   6.369   4.544   1.161
 9691SOL     OW29971   1.807   4.581   2.402
 9691SOL    HW129972   1.887   4.612   2.351
 9691SOL    HW229973   1.748   4.660   2.422
 9692SOL     OW29974   2.687   5.562   1.999
 9692SOL    HW129975   2.649   5.629   2.063
 9692SOL    HW229976   2.732   5.609   1.923
 9693SOL     OW29977   6.222   5.924   1.730
 9693SOL    HW129978   6.159   5.904   1.656
 9693SOL    HW229979   6.270   6.009   1.710
 9694SOL     OW29980   1.588   2.529   6.774
 9694SOL    HW129981   1.614   2.457   6.708
 9694SOL    HW229982   1.502   2.504   6.818
 9695SOL     OW29983   6.511   4.398   1.521
 9695SOL    HW129984   6.470   4.308   1.514
 9695SOL    HW229985   6.448   4.460   1.569
 9696SOL     OW29986   4.088   3.644   1.500
 9696SOL    HW129987   4.065   3.721   1.559
 9696SOL    HW229988   4.161   3.590   1.541
 9697SOL     OW29989   0.981   5.736   0.190
 9697SOL    HW129990   0.979   5.666   0.262
 9697SOL    HW229991   0.889   5.746   0.152
 9698SOL     OW29992   5.938   1.979   4.870
 9698SOL    HW129993   5.842   1.958   4.889
 9698SOL    HW229994   5.945   2.025   4.782
 9699SOL     OW29995   1.879   3.434   0.294
 9699SOL    HW129996   1.866   3.365   0.366
 9699SOL    HW229997   1.812   3.507   0.306
 9700SOL     OW29998   3.342   4.063   4.959
 9700SOL    HW129999   3.396   4.018   5.031
 9700SOL    HW230000   3.246   4.065   4.987
 9701SOL     OW30001   4.883   5.048   4.924
 9701SOL    HW130002   4.918   5.053   4.830
 9701SOL    HW230003   4.787   5.020   4.921
 9702SOL     OW30004   4.518   0.940   0.570
 9702SOL    HW130005   4.513   1.030   0.613
 9702SOL    HW230006   4.429   0.895   0.577
 9703SOL     OW30007   2.990   6.235   4.217
 9703SOL    HW130008   2.948   6.249   4.306
 9703SOL    HW230009   2.959   6.147   4.179
 9704SOL     OW30010   3.570   0.139   3.126
 9704SOL    HW130011   3.510   0.219   3.122
 9704SOL    HW230012   3.620   0.131   3.039
 9705SOL     OW30013   3.578   3.971   0.534
 9705SOL    HW130014   3.508   3.949   0.467
 9705SOL    HW230015   3.606   3.888   0.582
 9706SOL     OW30016   5.523   3.259   3.017
 9706SOL    HW130017   5.591   3.328   3.042
 9706SOL    HW230018   5.461   3.296   2.948
 9707SOL     OW30019   2.824   5.477   2.309
 9707SOL    HW130020   2.733   5.477   2.268
 9707SOL    HW230021   2.891   5.447   2.241
 9708SOL     OW30022   2.304   1.512   3.324
 9708SOL    HW130023   2.257   1.460   3.253
 9708SOL    HW230024   2.361   1.583   3.282
 9709SOL     OW30025   1.728   5.747   2.963
 9709SOL    HW130026   1.799   5.817   2.953
 9709SOL    HW230027   1.725   5.690   2.881
 9710SOL     OW30028   0.555   0.647   3.425
 9710SOL    HW130029   0.573   0.660   3.523
 9710SOL    HW230030   0.482   0.581   3.413
 9711SOL     OW30031   0.954   3.814   5.461
 9711SOL    HW130032   0.919   3.738   5.406
 9711SOL    HW230033   1.045   3.791   5.494
 9712SOL     OW30034   5.045   1.815   3.898
 9712SOL    HW130035   5.111   1.741   3.886
 9712SOL    HW230036   4.997   1.831   3.811
 9713SOL     OW30037   0.028   5.110   2.735
 9713SOL    HW130038   6.965   5.135   2.765
 9713SOL    HW230039   0.093   5.179   2.767
 9714SOL     OW30040   2.066   2.100   1.225
 9714SOL    HW130041   2.156   2.143   1.229
 9714SOL    HW230042   1.998   2.160   1.267
 9715SOL     OW30043   5.092   5.740   4.947
 9715SOL    HW130044   5.135   5.819   4.904
 9715SOL    HW230045   4.996   5.736   4.919
 9716SOL     OW30046   4.413   2.189   6.703
 9716SOL    HW130047   4.411   2.232   6.612
 9716SOL    HW230048   4.501   2.145   6.717
 9717SOL     OW30049   5.450   5.425   3.897
 9717SOL    HW130050   5.540   5.389   3.873
 9717SOL    HW230051   5.393   5.351   3.932
 9718SOL     OW30052   4.290   3.450   1.523
 9718SOL    HW130053   4.322   3.393   1.598
 9718SOL    HW230054   4.368   3.501   1.485
 9719SOL     OW30055   0.563   1.738   7.028
 9719SOL    HW130056   0.517   1.703   6.947
 9719SOL    HW230057   0.494   1.772   0.064
 9720SOL     OW30058   6.666   0.457   2.158
 9720SOL    HW130059   6.691   0.434   2.064
 9720SOL    HW230060   6.670   0.556   2.171
 9721SOL     OW30061   6.826   3.867   2.605
 9721SOL    HW130062   6.810   3.961   2.574
 9721SOL    HW230063   6.911   3.864   2.658
 9722SOL     OW30064   1.097   0.280   4.175
 9722SOL    HW130065   1.057   0.244   4.259
 9722SOL    HW230066   1.071   0.221   4.098
 9723SOL     OW30067   0.232   0.894   3.874
 9723SOL    HW130068   0.319   0.916   3.832
 9723SOL    HW230069   0.193   0.813   3.831
 9724SOL     OW30070   3.564   2.477   1.501
 9724SOL    HW130071   3.602   2.541   1.435
 9724SOL    HW230072   3.594   2.501   1.593
 9725SOL     OW30073   4.172   3.338   5.613
 9725SOL    HW130074   4.183   3.266   5.681
 9725SOL    HW230075   4.175   3.427   5.658
 9726SOL     OW30076   4.785   6.504   4.694
 9726SOL    HW130077   4.853   6.537   4.761
 9726SOL    HW230078   4.750   6.582   4.642
 9727SOL     OW30079   1.537   2.635   5.803
 9727SOL    HW130080   1.614   2.688   5.840
 9727SOL    HW230081   1.537   2.544   5.844
 9728SOL     OW30082   2.680   5.803   6.853
 9728SOL    HW130083   2.647   5.897   6.869
 9728SOL    HW230084   2.630   5.740   6.913
 9729SOL     OW30085   2.974   5.124   2.707
 9729SOL    HW130086   2.892   5.096   2.757
 9729SOL    HW230087   2.947   5.175   2.625
 9730SOL     OW30088   6.550   3.039   2.689
 9730SOL    HW130089   6.534   2.946   2.722
 9730SOL    HW230090   6.488   3.058   2.613
 9731SOL     OW30091   3.812   4.830   1.236
 9731SOL    HW130092   3.801   4.852   1.139
 9731SOL    HW230093   3.794   4.732   1.250
 9732SOL     OW30094   6.475   6.510   2.621
 9732SOL    HW130095   6.411   6.516   2.545
 9732SOL    HW230096   6.500   6.602   2.651
 9733SOL     OW30097   5.160   4.275   6.113
 9733SOL    HW130098   5.258   4.272   6.133
 9733SOL    HW230099   5.119   4.355   6.156
 9734SOL     OW30100   5.503   2.418   4.304
 9734SOL    HW130101   5.552   2.485   4.360
 9734SOL    HW230102   5.566   2.380   4.236
 9735SOL     OW30103   1.490   4.599   1.509
 9735SOL    HW130104   1.483   4.515   1.456
 9735SOL    HW230105   1.585   4.613   1.537
 9736SOL     OW30106   3.376   1.065   0.648
 9736SOL    HW130107   3.386   0.968   0.668
 9736SOL    HW230108   3.326   1.110   0.722
 9737SOL     OW30109   4.014   2.158   4.976
 9737SOL    HW130110   4.053   2.250   4.985
 9737SOL    HW230111   3.920   2.165   4.945
 9738SOL     OW30112   1.274   0.869   2.803
 9738SOL    HW130113   1.189   0.818   2.801
 9738SOL    HW230114   1.328   0.847   2.721
 9739SOL     OW30115   5.485   4.513   1.771
 9739SOL    HW130116   5.544   4.592   1.784
 9739SOL    HW230117   5.498   4.476   1.679
 9740SOL     OW30118   6.908   4.659   3.078
 9740SOL    HW130119   7.003   4.640   3.050
 9740SOL    HW230120   6.846   4.604   3.022
 9741SOL     OW30121   4.538   2.399   2.183
 9741SOL    HW130122   4.606   2.443   2.124
 9741SOL    HW230123   4.455   2.381   2.130
 9742SOL     OW30124   5.003   1.113   4.062
 9742SOL    HW130125   4.975   1.173   4.137
 9742SOL    HW230126   4.947   1.133   3.981
 9743SOL     OW30127   1.616   2.948   6.059
 9743SOL    HW130128   1.639   2.884   6.132
 9743SOL    HW230129   1.517   2.945   6.042
 9744SOL     OW30130   1.990   0.967   1.958
 9744SOL    HW130131   1.970   0.869   1.966
 9744SOL    HW230132   1.990   0.993   1.862
 9745SOL     OW30133   0.046   2.499   5.356
 9745SOL    HW130134   0.017   2.557   5.280
 9745SOL    HW230135   6.994   2.459   5.400
 9746SOL     OW30136   6.106   0.919   4.836
 9746SOL    HW130137   6.048   0.876   4.767
 9746SOL    HW230138   6.199   0.883   4.828
 9747SOL     OW30139   0.596   6.970   6.175
 9747SOL    HW130140   0.630   6.972   6.082
 9747SOL    HW230141   0.541   0.024   6.192
 9748SOL     OW30142   0.346   6.079   4.335
 9748SOL    HW130143   0.442   6.106   4.335
 9748SOL    HW230144   0.325   6.031   4.250
 9749SOL     OW30145   0.539   4.431   4.095
 9749SOL    HW130146   0.455   4.476   4.067
 9749SOL    HW230147   0.611   4.500   4.106
 9750SOL     OW30148   4.035   4.899   3.695
 9750SOL    HW130149   3.978   4.975   3.725
 9750SOL    HW230150   4.067   4.917   3.602
 9751SOL     OW30151   1.790   2.676   0.746
 9751SOL    HW130152   1.750   2.761   0.779
 9751SOL    HW230153   1.740   2.599   0.785
 9752SOL     OW30154   4.346   1.225   5.882
 9752SOL    HW130155   4.375   1.273   5.965
 9752SOL    HW230156   4.272   1.276   5.838
 9753SOL     OW30157   0.083   5.336   5.389
 9753SOL    HW130158   0.039   5.402   5.328
 9753SOL    HW230159   0.033   5.250   5.386
 9754SOL     OW30160   1.157   1.401   6.253
 9754SOL    HW130161   1.063   1.437   6.256
 9754SOL    HW230162   1.185   1.373   6.344
 9755SOL     OW30163   4.042   4.862   5.327
 9755SOL    HW130164   3.958   4.917   5.321
 9755SOL    HW230165   4.110   4.912   5.380
 9756SOL     OW30166   5.881   2.569   6.344
 9756SOL    HW130167   5.920   2.577   6.436
 9756SOL    HW230168   5.944   2.607   6.277
 9757SOL     OW30169   6.307   2.601   3.686
 9757SOL    HW130170   6.273   2.527   3.743
 9757SOL    HW230171   6.306   2.573   3.590
 9758SOL     OW30172   2.957   0.333   6.698
 9758SOL    HW130173   2.899   0.287   6.765
 9758SOL    HW230174   2.909   0.412   6.660
 9759SOL     OW30175   3.421   6.176   0.782
 9759SOL    HW130176   3.479   6.112   0.732
 9759SOL    HW230177   3.403   6.139   0.874
 9760SOL     OW30178   6.005   4.627   6.011
 9760SOL    HW130179   6.102   4.619   6.034
 9760SOL    HW230180   5.989   4.716   5.967
 9761SOL     OW30181   5.472   5.686   1.716
 9761SOL    HW130182   5.407   5.721   1.649
 9761SOL    HW230183   5.450   5.592   1.739
 9762SOL     OW30184   2.336   1.710   5.037
 9762SOL    HW130185   2.261   1.644   5.049
 9762SOL    HW230186   2.334   1.746   4.944
 9763SOL     OW30187   2.610   1.754   0.652
 9763SOL    HW130188   2.623   1.779   0.748
 9763SOL    HW230189   2.582   1.834   0.600
 9764SOL     OW30190   1.093   1.991   2.175
 9764SOL    HW130191   1.013   2.050   2.189
 9764SOL    HW230192   1.176   2.041   2.198
 9765SOL     OW30193   0.284   1.733   5.490
 9765SOL    HW130194   0.350   1.723   5.564
 9765SOL    HW230195   0.310   1.811   5.433
 9766SOL     OW30196   2.661   0.337   2.525
 9766SOL    HW130197   2.617   0.398   2.458
 9766SOL    HW230198   2.690   0.253   2.480
 9767SOL     OW30199   5.209   0.323   5.073
 9767SOL    HW130200   5.127   0.269   5.091
 9767SOL    HW230201   5.230   0.380   5.152
 9768SOL     OW30202   4.668   2.445   2.423
 9768SOL    HW130203   4.633   2.408   2.336
 9768SOL    HW230204   4.592   2.454   2.487
 9769SOL     OW30205   0.810   1.886   1.604
 9769SOL    HW130206   0.758   1.965   1.637
 9769SOL    HW230207   0.858   1.910   1.520
 9770SOL     OW30208   5.698   4.920   6.293
 9770SOL    HW130209   5.612   4.971   6.292
 9770SOL    HW230210   5.760   4.957   6.224
 9771SOL     OW30211   3.843   5.857   6.237
 9771SOL    HW130212   3.941   5.850   6.219
 9771SOL    HW230213   3.805   5.765   6.249
 9772SOL     OW30214   6.437   0.526   1.504
 9772SOL    HW130215   6.342   0.534   1.535
 9772SOL    HW230216   6.445   0.449   1.441
 9773SOL     OW30217   6.109   5.804   3.148
 9773SOL    HW130218   6.113   5.843   3.056
 9773SOL    HW230219   6.201   5.800   3.187
 9774SOL     OW30220   0.212   4.961   3.296
 9774SOL    HW130221   0.144   4.888   3.306
 9774SOL    HW230222   0.257   4.977   3.384
 9775SOL     OW30223   2.399   2.715   4.548
 9775SOL    HW130224   2.473   2.660   4.509
 9775SOL    HW230225   2.353   2.764   4.474
 9776SOL     OW30226   0.535   5.557   4.720
 9776SOL    HW130227   0.583   5.470   4.710
 9776SOL    HW230228   0.588   5.630   4.678
 9777SOL     OW30229   5.289   4.841   6.248
 9777SOL    HW130230   5.370   4.784   6.234
 9777SOL    HW230231   5.262   4.838   6.344
 9778SOL     OW30232   4.460   0.620   2.648
 9778SOL    HW130233   4.432   0.712   2.676
 9778SOL    HW230234   4.388   0.578   2.593
 9779SOL     OW30235   2.533   1.819   6.096
 9779SOL    HW130236   2.554   1.752   6.025
 9779SOL    HW230237   2.617   1.843   6.145
 9780SOL     OW30238   3.567   4.655   0.193
 9780SOL    HW130239   3.475   4.688   0.172
 9780SOL    HW230240   3.584   4.664   0.292
 9781SOL     OW30241   1.999   5.008   4.234
 9781SOL    HW130242   2.009   4.993   4.332
 9781SOL    HW230243   2.081   5.054   4.199
 9782SOL     OW30244   6.643   0.700   0.968
 9782SOL    HW130245   6.686   0.627   0.914
 9782SOL    HW230246   6.705   0.729   1.040
 9783SOL     OW30247   4.874   1.284   2.117
 9783SOL    HW130248   4.897   1.352   2.187
 9783SOL    HW230249   4.940   1.289   2.043
 9784SOL     OW30250   4.827   0.907   3.919
 9784SOL    HW130251   4.794   0.874   4.007
 9784SOL    HW230252   4.803   1.004   3.908
 9785SOL     OW30253   0.558   3.002   1.556
 9785SOL    HW130254   0.655   3.023   1.543
 9785SOL    HW230255   0.529   3.032   1.647
 9786SOL     OW30256   2.679   6.538   4.925
 9786SOL    HW130257   2.634   6.517   4.838
 9786SOL    HW230258   2.764   6.587   4.908
 9787SOL     OW30259   5.442   4.215   1.896
 9787SOL    HW130260   5.435   4.300   1.844
 9787SOL    HW230261   5.427   4.137   1.835
 9788SOL     OW30262   0.428   1.050   5.521
 9788SOL    HW130263   0.523   1.079   5.507
 9788SOL    HW230264   0.426   0.952   5.540
 9789SOL     OW30265   2.090   5.682   4.718
 9789SOL    HW130266   2.076   5.779   4.737
 9789SOL    HW230267   2.044   5.627   4.787
 9790SOL     OW30268   6.493   1.948   4.544
 9790SOL    HW130269   6.476   1.879   4.615
 9790SOL    HW230270   6.483   2.039   4.584
 9791SOL     OW30271   0.789   2.654   0.994
 9791SOL    HW130272   0.853   2.686   0.926
 9791SOL    HW230273   0.804   2.703   1.080
 9792SOL     OW30274   4.471   5.442   2.030
 9792SOL    HW130275   4.472   5.482   1.938
 9792SOL    HW230276   4.399   5.484   2.084
 9793SOL     OW30277   4.431   6.201   2.389
 9793SOL    HW130278   4.447   6.191   2.488
 9793SOL    HW230279   4.418   6.297   2.367
 9794SOL     OW30280   3.508   2.819   6.787
 9794SOL    HW130281   3.444   2.895   6.803
 9794SOL    HW230282   3.460   2.732   6.797
 9795SOL     OW30283   1.909   3.602   4.202
 9795SOL    HW130284   1.987   3.628   4.259
 9795SOL    HW230285   1.891   3.504   4.212
 9796SOL     OW30286   3.387   5.165   6.988
 9796SOL    HW130287   3.457   5.188   6.920
 9796SOL    HW230288   3.429   5.166   0.050
 9797SOL     OW30289   5.025   2.986   5.185
 9797SOL    HW130290   5.059   2.947   5.270
 9797SOL    HW230291   4.934   3.025   5.200
 9798SOL     OW30292   1.799   1.829   1.361
 9798SOL    HW130293   1.733   1.766   1.403
 9798SOL    HW230294   1.808   1.910   1.418
 9799SOL     OW30295   3.084   3.959   2.131
 9799SOL    HW130296   3.063   3.862   2.137
 9799SOL    HW230297   3.001   4.013   2.145
 9800SOL     OW30298   4.373   5.053   6.343
 9800SOL    HW130299   4.437   5.112   6.293
 9800SOL    HW230300   4.405   5.043   6.437
 9801SOL     OW30301   4.387   4.662   7.008
 9801SOL    HW130302   4.394   4.677   0.078
 9801SOL    HW230303   4.300   4.699   6.975
 9802SOL     OW30304   6.883   3.578   1.134
 9802SOL    HW130305   6.799   3.534   1.167
 9802SOL    HW230306   6.898   3.663   1.183
 9803SOL     OW30307   6.335   0.929   6.520
 9803SOL    HW130308   6.353   0.948   6.616
 9803SOL    HW230309   6.247   0.882   6.511
 9804SOL     OW30310   5.348   5.454   4.531
 9804SOL    HW130311   5.436   5.445   4.485
 9804SOL    HW230312   5.301   5.536   4.498
 9805SOL     OW30313   2.790   4.593   0.166
 9805SOL    HW130314   2.833   4.678   0.196
 9805SOL    HW230315   2.696   4.589   0.199
 9806SOL     OW30316   6.859   1.458   2.971
 9806SOL    HW130317   6.813   1.537   3.012
 9806SOL    HW230318   6.816   1.437   2.883
 9807SOL     OW30319   3.329   2.755   0.774
 9807SOL    HW130320   3.378   2.670   0.759
 9807SOL    HW230321   3.394   2.828   0.795
 9808SOL     OW30322   1.007   1.295   4.775
 9808SOL    HW130323   0.998   1.389   4.741
 9808SOL    HW230324   1.022   1.233   4.698
 9809SOL     OW30325   1.242   0.996   4.753
 9809SOL    HW130326   1.171   0.976   4.820
 9809SOL    HW230327   1.305   1.065   4.791
 9810SOL     OW30328   3.702   0.942   3.564
 9810SOL    HW130329   3.782   0.988   3.527
 9810SOL    HW230330   3.725   0.849   3.590
 9811SOL     OW30331   1.276   6.848   2.723
 9811SOL    HW130332   1.183   6.881   2.743
 9811SOL    HW230333   1.274   6.796   2.638
 9812SOL     OW30334   5.074   2.840   5.429
 9812SOL    HW130335   4.977   2.815   5.438
 9812SOL    HW230336   5.131   2.759   5.439
 9813SOL     OW30337   6.690   4.764   0.075
 9813SOL    HW130338   6.670   4.681   0.023
 9813SOL    HW230339   6.616   4.830   0.063
 9814SOL     OW30340   0.044   0.194   5.477
 9814SOL    HW130341   0.081   0.285   5.490
 9814SOL    HW230342   0.090   0.130   5.539
 9815SOL     OW30343   6.580   4.051   2.982
 9815SOL    HW130344   6.633   4.015   3.059
 9815SOL    HW230345   6.595   3.993   2.901
 9816SOL     OW30346   0.009   6.821   6.414
 9816SOL    HW130347   6.950   6.816   6.461
 9816SOL    HW230348   0.002   6.775   6.326
 9817SOL     OW30349   3.093   6.870   6.758
 9817SOL    HW130350   3.010   6.863   6.813
 9817SOL    HW230351   3.078   6.829   6.668
 9818SOL     OW30352   1.097   6.688   3.320
 9818SOL    HW130353   0.998   6.681   3.305
 9818SOL    HW230354   1.119   6.656   3.412
 9819SOL     OW30355   0.046   3.472   4.479
 9819SOL    HW130356   0.128   3.529   4.469
 9819SOL    HW230357   6.999   3.528   4.510
 9820SOL     OW30358   4.085   1.804   5.945
 9820SOL    HW130359   4.042   1.886   5.983
 9820SOL    HW230360   4.030   1.770   5.869
 9821SOL     OW30361   3.974   3.202   1.492
 9821SOL    HW130362   3.989   3.122   1.550
 9821SOL    HW230363   3.950   3.280   1.549
 9822SOL     OW30364   3.541   6.572   5.504
 9822SOL    HW130365   3.446   6.575   5.534
 9822SOL    HW230366   3.599   6.620   5.569
 9823SOL     OW30367   2.595   6.643   3.129
 9823SOL    HW130368   2.615   6.584   3.207
 9823SOL    HW230369   2.671   6.639   3.064
 9824SOL     OW30370   0.930   5.897   5.037
 9824SOL    HW130371   0.988   5.815   5.038
 9824SOL    HW230372   0.972   5.968   5.093
 9825SOL     OW30373   5.968   6.686   4.937
 9825SOL    HW130374   5.873   6.660   4.955
 9825SOL    HW230375   5.985   6.777   4.974
 9826SOL     OW30376   2.102   5.464   5.113
 9826SOL    HW130377   2.160   5.384   5.127
 9826SOL    HW230378   2.146   5.544   5.152
 9827SOL     OW30379   1.476   4.865   1.815
 9827SOL    HW130380   1.457   4.919   1.733
 9827SOL    HW230381   1.574   4.847   1.822
 9828SOL     OW30382   4.527   2.592   4.448
 9828SOL    HW130383   4.543   2.569   4.352
 9828SOL    HW230384   4.490   2.684   4.455
 9829SOL     OW30385   4.521   5.565   5.594
 9829SOL    HW130386   4.445   5.531   5.650
 9829SOL    HW230387   4.526   5.513   5.509
 9830SOL     OW30388   5.862   1.779   3.310
 9830SOL    HW130389   5.895   1.830   3.230
 9830SOL    HW230390   5.768   1.750   3.294
 9831SOL     OW30391   0.608   4.199   2.663
 9831SOL    HW130392   0.682   4.207   2.730
 9831SOL    HW230393   0.642   4.154   2.581
 9832SOL     OW30394   4.550   5.461   4.695
 9832SOL    HW130395   4.552   5.362   4.683
 9832SOL    HW230396   4.517   5.505   4.612
 9833SOL     OW30397   3.825   3.802   3.686
 9833SOL    HW130398   3.774   3.726   3.726
 9833SOL    HW230399   3.768   3.883   3.682
 9834SOL     OW30400   2.496   6.675   5.885
 9834SOL    HW130401   2.544   6.604   5.936
 9834SOL    HW230402   2.561   6.748   5.861
 9835SOL     OW30403   3.923   3.915   4.097
 9835SOL    HW130404   3.885   3.981   4.031
 9835SOL    HW230405   3.863   3.909   4.176
 9836SOL     OW30406   0.297   4.067   5.900
 9836SOL    HW130407   0.392   4.039   5.907
 9836SOL    HW230408   0.238   3.987   5.899
 9837SOL     OW30409   5.673   2.056   3.426
 9837SOL    HW130410   5.622   1.971   3.439
 9837SOL    HW230411   5.771   2.039   3.437
 9838SOL     OW30412   1.975   6.985   1.432
 9838SOL    HW130413   1.920   0.024   1.385
 9838SOL    HW230414   1.919   6.937   1.499
 9839SOL     OW30415   4.916   0.071   3.768
 9839SOL    HW130416   4.916   0.082   3.669
 9839SOL    HW230417   4.903   7.004   3.791
 9840SOL     OW30418   6.500   1.693   6.793
 9840SOL    HW130419   6.408   1.714   6.758
 9840SOL    HW230420   6.493   1.633   6.872
 9841SOL     OW30421   7.001   6.617   2.842
 9841SOL    HW130422   0.023   6.685   2.895
 9841SOL    HW230423   6.920   6.659   2.802
 9842SOL     OW30424   3.270   0.716   6.672
 9842SOL    HW130425   3.181   0.725   6.629
 9842SOL    HW230426   3.283   0.622   6.704
 9843SOL     OW30427   0.602   0.250   1.316
 9843SOL    HW130428   0.607   0.307   1.234
 9843SOL    HW230429   0.544   0.171   1.298
 9844SOL     OW30430   4.745   0.233   4.091
 9844SOL    HW130431   4.682   0.210   4.017
 9844SOL    HW230432   4.833   0.261   4.051
 9845SOL     OW30433   1.887   3.465   2.625
 9845SOL    HW130434   1.838   3.436   2.542
 9845SOL    HW230435   1.983   3.480   2.602
 9846SOL     OW30436   6.074   2.449   1.719
 9846SOL    HW130437   6.137   2.526   1.711
 9846SOL    HW230438   5.989   2.470   1.671
 9847SOL     OW30439   3.950   4.218   6.591
 9847SOL    HW130440   3.922   4.205   6.496
 9847SOL    HW230441   3.897   4.158   6.650
 9848SOL     OW30442   3.408   3.885   5.656
 9848SOL    HW130443   3.485   3.915   5.600
 9848SOL    HW230444   3.323   3.897   5.604
 9849SOL     OW30445   0.649   2.576   4.474
 9849SOL    HW130446   0.587   2.572   4.396
 9849SOL    HW230447   0.715   2.501   4.468
 9850SOL     OW30448   1.902   0.234   4.313
 9850SOL    HW130449   1.985   0.205   4.361
 9850SOL    HW230450   1.889   0.178   4.231
 9851SOL     OW30451   3.807   5.285   4.860
 9851SOL    HW130452   3.808   5.330   4.950
 9851SOL    HW230453   3.816   5.186   4.872
 9852SOL     OW30454   2.108   0.014   0.162
 9852SOL    HW130455   2.179   0.027   0.092
 9852SOL    HW230456   2.102   0.096   0.219
 9853SOL     OW30457   6.969   4.416   3.567
 9853SOL    HW130458   6.928   4.506   3.553
 9853SOL    HW230459   6.897   4.346   3.569
 9854SOL     OW30460   0.934   4.509   5.976
 9854SOL    HW130461   0.953   4.495   6.074
 9854SOL    HW230462   0.836   4.504   5.960
 9855SOL     OW30463   1.178   5.063   0.965
 9855SOL    HW130464   1.158   5.156   0.998
 9855SOL    HW230465   1.178   5.000   1.042
 9856SOL     OW30466   5.624   3.953   3.166
 9856SOL    HW130467   5.542   4.010   3.160
 9856SOL    HW230468   5.674   3.976   3.249
 9857SOL     OW30469   4.422   0.169   5.419
 9857SOL    HW130470   4.507   0.119   5.437
 9857SOL    HW230471   4.437   0.234   5.344
 9858SOL     OW30472   6.727   6.267   1.872
 9858SOL    HW130473   6.740   6.270   1.971
 9858SOL    HW230474   6.640   6.311   1.848
 9859SOL     OW30475   6.932   5.200   3.057
 9859SOL    HW130476   6.940   5.185   3.156
 9859SOL    HW230477   6.927   5.113   3.010
 9860SOL     OW30478   1.395   3.131   4.773
 9860SOL    HW130479   1.421   3.225   4.797
 9860SOL    HW230480   1.441   3.067   4.836
 9861SOL     OW30481   3.638   2.088   2.898
 9861SOL    HW130482   3.713   2.132   2.847
 9861SOL    HW230483   3.570   2.054   2.834
 9862SOL     OW30484   1.117   4.334   0.106
 9862SOL    HW130485   1.215   4.319   0.095
 9862SOL    HW230486   1.075   4.251   0.142
 9863SOL     OW30487   4.117   6.066   1.300
 9863SOL    HW130488   4.133   5.972   1.329
 9863SOL    HW230489   4.167   6.128   1.361
 9864SOL     OW30490   2.357   5.450   5.532
 9864SOL    HW130491   2.354   5.351   5.522
 9864SOL    HW230492   2.391   5.474   5.622
 9865SOL     OW30493   0.962   5.392   5.915
 9865SOL    HW130494   0.935   5.296   5.927
 9865SOL    HW230495   1.062   5.399   5.917
 9866SOL     OW30496   7.006   5.079   5.380
 9866SOL    HW130497   0.031   5.000   5.408
 9866SOL    HW230498   6.925   5.087   5.438
 9867SOL     OW30499   3.920   1.710   2.396
 9867SOL    HW130500   4.005   1.731   2.444
 9867SOL    HW230501   3.920   1.754   2.307
 9868SOL     OW30502   2.571   4.507   3.990
 9868SOL    HW130503   2.491   4.474   3.941
 9868SOL    HW230504   2.649   4.512   3.927
 9869SOL     OW30505   6.659   2.760   0.746
 9869SOL    HW130506   6.680   2.823   0.671
 9869SOL    HW230507   6.742   2.710   0.771
 9870SOL     OW30508   2.425   2.063   2.333
 9870SOL    HW130509   2.370   2.085   2.253
 9870SOL    HW230510   2.467   2.146   2.369
 9871SOL     OW30511   5.772   5.386   3.447
 9871SOL    HW130512   5.678   5.414   3.426
 9871SOL    HW230513   5.825   5.465   3.477
 9872SOL     OW30514   0.610   4.802   5.994
 9872SOL    HW130515   0.631   4.896   6.021
 9872SOL    HW230516   0.613   4.794   5.895
 9873SOL     OW30517   1.355   1.206   5.338
 9873SOL    HW130518   1.325   1.293   5.298
 9873SOL    HW230519   1.351   1.134   5.269
 9874SOL     OW30520   0.091   2.625   5.016
 9874SOL    HW130521   0.190   2.608   5.013
 9874SOL    HW230522   0.075   2.714   5.059
 9875SOL     OW30523   6.355   5.839   1.100
 9875SOL    HW130524   6.360   5.921   1.158
 9875SOL    HW230525   6.446   5.802   1.087
 9876SOL     OW30526   0.978   6.294   3.237
 9876SOL    HW130527   0.987   6.301   3.336
 9876SOL    HW230528   0.911   6.362   3.206
 9877SOL     OW30529   0.834   4.962   5.188
 9877SOL    HW130530   0.735   4.946   5.192
 9877SOL    HW230531   0.862   5.019   5.265
 9878SOL     OW30532   3.317   2.899   6.554
 9878SOL    HW130533   3.242   2.917   6.617
 9878SOL    HW230534   3.332   2.800   6.547
 9879SOL     OW30535   6.913   5.131   5.940
 9879SOL    HW130536   6.928   5.075   6.021
 9879SOL    HW230537   6.816   5.158   5.935
 9880SOL     OW30538   2.591   0.871   1.011
 9880SOL    HW130539   2.539   0.902   1.091
 9880SOL    HW230540   2.671   0.820   1.042
 9881SOL     OW30541   6.355   1.573   3.613
 9881SOL    HW130542   6.331   1.663   3.575
 9881SOL    HW230543   6.348   1.576   3.712
 9882SOL     OW30544   3.480   3.110   5.347
 9882SOL    HW130545   3.576   3.122   5.323
 9882SOL    HW230546   3.427   3.087   5.265
 9883SOL     OW30547   2.127   0.044   2.302
 9883SOL    HW130548   2.166   0.135   2.287
 9883SOL    HW230549   2.139   0.018   2.398
 9884SOL     OW30550   2.985   2.603   5.329
 9884SOL    HW130551   3.053   2.557   5.272
 9884SOL    HW230552   3.015   2.602   5.424
 9885SOL     OW30553   5.084   3.068   5.648
 9885SOL    HW130554   4.992   3.106   5.644
 9885SOL    HW230555   5.082   2.973   5.616
 9886SOL     OW30556   3.544   5.833   1.454
 9886SOL    HW130557   3.487   5.848   1.535
 9886SOL    HW230558   3.626   5.782   1.480
 9887SOL     OW30559   3.157   1.920   6.925
 9887SOL    HW130560   3.158   1.942   6.827
 9887SOL    HW230561   3.157   1.821   6.937
 9888SOL     OW30562   6.595   6.781   3.477
 9888SOL    HW130563   6.658   6.842   3.523
 9888SOL    HW230564   6.507   6.827   3.465
 9889SOL     OW30565   6.891   6.161   3.018
 9889SOL    HW130566   6.870   6.258   3.029
 9889SOL    HW230567   6.806   6.108   3.017
 9890SOL     OW30568   0.831   3.481   2.224
 9890SOL    HW130569   0.784   3.502   2.138
 9890SOL    HW230570   0.920   3.527   2.226
 9891SOL     OW30571   5.455   5.407   1.786
 9891SOL    HW130572   5.543   5.360   1.796
 9891SOL    HW230573   5.415   5.423   1.876
 9892SOL     OW30574   1.478   5.312   3.950
 9892SOL    HW130575   1.446   5.226   3.988
 9892SOL    HW230576   1.436   5.327   3.860
 9893SOL     OW30577   5.507   5.070   4.545
 9893SOL    HW130578   5.552   5.035   4.463
 9893SOL    HW230579   5.546   5.026   4.626
 9894SOL     OW30580   4.777   2.829   5.442
 9894SOL    HW130581   4.721   2.838   5.359
 9894SOL    HW230582   4.786   2.919   5.485
 9895SOL     OW30583   5.688   1.906   0.027
 9895SOL    HW130584   5.713   1.846   6.980
 9895SOL    HW230585   5.722   1.999   0.009
 9896SOL     OW30586   4.599   3.111   6.964
 9896SOL    HW130587   4.516   3.164   6.947
 9896SOL    HW230588   4.656   3.160   0.001
 9897SOL     OW30589   6.987   1.868   3.895
 9897SOL    HW130590   6.903   1.923   3.896
 9897SOL    HW230591   7.022   1.860   3.989
 9898SOL     OW30592   1.221   5.068   5.717
 9898SOL    HW130593   1.123   5.049   5.714
 9898SOL    HW230594   1.255   5.054   5.811
 9899SOL     OW30595   4.699   4.995   2.506
 9899SOL    HW130596   4.681   5.007   2.604
 9899SOL    HW230597   4.726   5.082   2.466
 9900SOL     OW30598   0.957   3.758   3.448
 9900SOL    HW130599   0.930   3.675   3.497
 9900SOL    HW230600   1.011   3.732   3.367
 9901SOL     OW30601   2.584   1.693   5.878
 9901SOL    HW130602   2.653   1.628   5.844
 9901SOL    HW230603   2.548   1.745   5.801
 9902SOL     OW30604   4.713   3.549   0.313
 9902SOL    HW130605   4.649   3.625   0.297
 9902SOL    HW230606   4.798   3.566   0.264
 9903SOL     OW30607   3.733   0.691   1.122
 9903SOL    HW130608   3.825   0.729   1.109
 9903SOL    HW230609   3.672   0.763   1.158
 9904SOL     OW30610   0.269   0.072   2.015
 9904SOL    HW130611   0.338   0.011   2.055
 9904SOL    HW230612   0.243   0.141   2.082
 9905SOL     OW30613   1.775   6.105   6.577
 9905SOL    HW130614   1.826   6.089   6.662
 9905SOL    HW230615   1.824   6.171   6.520
 9906SOL     OW30616   3.670   3.740   6.047
 9906SOL    HW130617   3.643   3.650   6.012
 9906SOL    HW230618   3.770   3.749   6.043
 9907SOL     OW30619   1.525   6.475   2.776
 9907SOL    HW130620   1.583   6.502   2.699
 9907SOL    HW230621   1.521   6.550   2.842
 9908SOL     OW30622   0.934   3.274   4.814
 9908SOL    HW130623   0.862   3.285   4.882
 9908SOL    HW230624   0.893   3.243   4.728
 9909SOL     OW30625   3.449   7.013   2.728
 9909SOL    HW130626   3.485   0.037   2.805
 9909SOL    HW230627   3.374   6.955   2.758
 9910SOL     OW30628   1.028   4.643   1.349
 9910SOL    HW130629   1.045   4.657   1.447
 9910SOL    HW230630   1.114   4.639   1.300
 9911SOL     OW30631   3.782   4.933   3.316
 9911SOL    HW130632   3.792   5.006   3.382
 9911SOL    HW230633   3.783   4.845   3.363
 9912SOL     OW30634   4.154   0.218   1.177
 9912SOL    HW130635   4.198   0.143   1.127
 9912SOL    HW230636   4.220   0.291   1.192
 9913SOL     OW30637   4.396   2.353   2.571
 9913SOL    HW130638   4.471   2.358   2.637
 9913SOL    HW230639   4.309   2.349   2.621
 9914SOL     OW30640   1.910   5.622   5.594
 9914SOL    HW130641   1.837   5.575   5.543
 9914SOL    HW230642   1.993   5.623   5.539
 9915SOL     OW30643   5.602   3.617   4.143
 9915SOL    HW130644   5.577   3.543   4.206
 9915SOL    HW230645   5.606   3.703   4.193
 9916SOL     OW30646   2.548   3.306   0.738
 9916SOL    HW130647   2.613   3.250   0.789
 9916SOL    HW230648   2.475   3.248   0.702
 9917SOL     OW30649   2.067   3.375   5.198
 9917SOL    HW130650   1.999   3.428   5.146
 9917SOL    HW230651   2.114   3.312   5.137
 9918SOL     OW30652   2.347   0.868   4.731
 9918SOL    HW130653   2.389   0.925   4.661
 9918SOL    HW230654   2.312   0.784   4.689
 9919SOL     OW30655   0.071   5.445   2.698
 9919SOL    HW130656   0.076   5.411   2.604
 9919SOL    HW230657   0.114   5.379   2.759
 9920SOL     OW30658   4.329   6.460   2.292
 9920SOL    HW130659   4.393   6.532   2.268
 9920SOL    HW230660   4.248   6.500   2.336
 9921SOL     OW30661   4.498   0.081   3.323
 9921SOL    HW130662   4.475   0.124   3.411
 9921SOL    HW230663   4.595   0.096   3.304
 9922SOL     OW30664   4.942   3.326   1.457
 9922SOL    HW130665   4.870   3.330   1.526
 9922SOL    HW230666   4.928   3.246   1.398
 9923SOL     OW30667   6.519   0.705   6.133
 9923SOL    HW130668   6.434   0.667   6.097
 9923SOL    HW230669   6.513   0.711   6.233
 9924SOL     OW30670   4.916   0.957   2.853
 9924SOL    HW130671   4.864   1.023   2.798
 9924SOL    HW230672   4.986   1.006   2.906
 9925SOL     OW30673   2.880   2.291   4.854
 9925SOL    HW130674   2.937   2.368   4.883
 9925SOL    HW230675   2.858   2.234   4.933
 9926SOL     OW30676   1.528   1.128   6.887
 9926SOL    HW130677   1.449   1.072   6.861
 9926SOL    HW230678   1.496   1.219   6.912
 9927SOL     OW30679   0.629   2.041   2.207
 9927SOL    HW130680   0.717   2.069   2.245
 9927SOL    HW230681   0.563   2.028   2.281
 9928SOL     OW30682   6.760   3.255   2.889
 9928SOL    HW130683   6.854   3.273   2.918
 9928SOL    HW230684   6.747   3.287   2.796
 9929SOL     OW30685   1.632   4.115   5.681
 9929SOL    HW130686   1.641   4.118   5.581
 9929SOL    HW230687   1.611   4.206   5.715
 9930SOL     OW30688   0.560   5.494   0.216
 9930SOL    HW130689   0.569   5.422   0.148
 9930SOL    HW230690   0.464   5.520   0.225
 9931SOL     OW30691   2.870   5.256   6.956
 9931SOL    HW130692   2.963   5.258   6.993
 9931SOL    HW230693   2.868   5.201   6.873
 9932SOL     OW30694   1.793   2.186   0.841
 9932SOL    HW130695   1.838   2.139   0.917
 9932SOL    HW230696   1.694   2.177   0.851
 9933SOL     OW30697   0.986   1.353   2.389
 9933SOL    HW130698   0.898   1.389   2.359
 9933SOL    HW230699   1.059   1.391   2.333
 9934SOL     OW30700   4.670   1.655   6.880
 9934SOL    HW130701   4.742   1.707   6.832
 9934SOL    HW230702   4.706   1.566   6.906
 9935SOL     OW30703   2.860   2.216   1.055
 9935SOL    HW130704   2.827   2.183   1.144
 9935SOL    HW230705   2.894   2.139   1.002
 9936SOL     OW30706   5.905   6.085   6.191
 9936SOL    HW130707   5.815   6.044   6.206
 9936SOL    HW230708   5.902   6.141   6.109
 9937SOL     OW30709   1.342   0.218   3.476
 9937SOL    HW130710   1.408   0.148   3.504
 9937SOL    HW230711   1.390   0.302   3.452
 9938SOL     OW30712   6.839   1.248   3.774
 9938SOL    HW130713   6.923   1.198   3.796
 9938SOL    HW230714   6.776   1.243   3.851
 9939SOL     OW30715   2.844   4.026   1.350
 9939SOL    HW130716   2.840   4.111   1.403
 9939SOL    HW230717   2.929   4.025   1.297
 9940SOL     OW30718   0.428   0.918   3.693
 9940SOL    HW130719   0.358   0.888   3.628
 9940SOL    HW230720   0.518   0.888   3.662
 9941SOL     OW30721   5.437   5.043   0.640
 9941SOL    HW130722   5.460   5.083   0.551
 9941SOL    HW230723   5.386   4.958   0.626
 9942SOL     OW30724   5.513   5.506   3.140
 9942SOL    HW130725   5.477   5.418   3.109
 9942SOL    HW230726   5.613   5.505   3.133
 9943SOL     OW30727   1.421   3.804   6.089
 9943SOL    HW130728   1.412   3.722   6.145
 9943SOL    HW230729   1.336   3.821   6.040
 9944SOL     OW30730   1.065   5.620   6.330
 9944SOL    HW130731   1.031   5.538   6.284
 9944SOL    HW230732   1.011   5.638   6.412
 9945SOL     OW30733   6.553   3.529   6.684
 9945SOL    HW130734   6.587   3.519   6.777
 9945SOL    HW230735   6.521   3.623   6.670
 9946SOL     OW30736   4.835   2.300   1.529
 9946SOL    HW130737   4.854   2.213   1.575
 9946SOL    HW230738   4.783   2.359   1.591
 9947SOL     OW30739   0.267   1.894   3.380
 9947SOL    HW130740   0.199   1.939   3.320
 9947SOL    HW230741   0.220   1.834   3.444
 9948SOL     OW30742   5.725   0.145   4.564
 9948SOL    HW130743   5.770   0.062   4.600
 9948SOL    HW230744   5.786   0.191   4.500
 9949SOL     OW30745   6.640   4.509   2.963
 9949SOL    HW130746   6.594   4.541   2.881
 9949SOL    HW230747   6.614   4.567   3.041
 9950SOL     OW30748   5.019   4.104   5.069
 9950SOL    HW130749   4.934   4.052   5.074
 9950SOL    HW230750   5.077   4.079   5.147
 9951SOL     OW30751   0.214   1.971   2.943
 9951SOL    HW130752   0.182   1.877   2.951
 9951SOL    HW230753   0.282   1.977   2.870
 9952SOL     OW30754   1.315   4.729   2.271
 9952SOL    HW130755   1.351   4.727   2.178
 9952SOL    HW230756   1.236   4.790   2.274
 9953SOL     OW30757   6.039   3.814   4.074
 9953SOL    HW130758   5.982   3.779   4.149
 9953SOL    HW230759   5.986   3.814   3.989
 9954SOL     OW30760   3.474   0.718   0.908
 9954SOL    HW130761   3.457   0.619   0.905
 9954SOL    HW230762   3.500   0.744   1.001
 9955SOL     OW30763   5.663   4.710   1.258
 9955SOL    HW130764   5.574   4.666   1.260
 9955SOL    HW230765   5.699   4.717   1.351
 9956SOL     OW30766   2.201   3.110   3.792
 9956SOL    HW130767   2.165   3.198   3.823
 9956SOL    HW230768   2.196   3.105   3.693
 9957SOL     OW30769   5.344   0.500   0.730
 9957SOL    HW130770   5.439   0.510   0.760
 9957SOL    HW230771   5.329   0.407   0.698
 9958SOL     OW30772   5.514   5.550   0.470
 9958SOL    HW130773   5.537   5.563   0.567
 9958SOL    HW230774   5.590   5.582   0.414
 9959SOL     OW30775   4.906   5.455   0.402
 9959SOL    HW130776   4.962   5.384   0.444
 9959SOL    HW230777   4.811   5.425   0.398
 9960SOL     OW30778   6.923   0.357   0.322
 9960SOL    HW130779   7.002   0.315   0.278
 9960SOL    HW230780   6.950   0.443   0.364
 9961SOL     OW30781   3.411   5.501   0.722
 9961SOL    HW130782   3.446   5.588   0.756
 9961SOL    HW230783   3.334   5.472   0.779
 9962SOL     OW30784   3.359   0.393   1.441
 9962SOL    HW130785   3.440   0.357   1.395
 9962SOL    HW230786   3.314   0.460   1.381
 9963SOL     OW30787   1.008   0.481   5.640
 9963SOL    HW130788   1.104   0.461   5.620
 9963SOL    HW230789   0.991   0.579   5.624
 9964SOL     OW30790   4.298   4.797   6.301
 9964SOL    HW130791   4.327   4.893   6.304
 9964SOL    HW230792   4.223   4.787   6.235
 9965SOL     OW30793   3.189   5.148   3.806
 9965SOL    HW130794   3.128   5.167   3.883
 9965SOL    HW230795   3.189   5.050   3.786
 9966SOL     OW30796   3.470   5.258   2.688
 9966SOL    HW130797   3.548   5.321   2.699
 9966SOL    HW230798   3.441   5.258   2.593
 9967SOL     OW30799   6.870   0.023   3.237
 9967SOL    HW130800   6.880   0.108   3.289
 9967SOL    HW230801   6.871   0.044   3.139
 9968SOL     OW30802   4.405   6.711   0.053
 9968SOL    HW130803   4.306   6.717   0.071
 9968SOL    HW230804   4.420   6.676   6.990
 9969SOL     OW30805   0.427   5.763   4.250
 9969SOL    HW130806   0.511   5.753   4.197
 9969SOL    HW230807   0.450   5.786   4.344
 9970SOL     OW30808   6.515   3.623   1.986
 9970SOL    HW130809   6.556   3.714   1.997
 9970SOL    HW230810   6.537   3.567   2.065
 9971SOL     OW30811   0.300   5.169   4.325
 9971SOL    HW130812   0.357   5.248   4.347
 9971SOL    HW230813   0.212   5.200   4.289
 9972SOL     OW30814   3.221   4.047   6.003
 9972SOL    HW130815   3.251   4.079   6.093
 9972SOL    HW230816   3.265   3.960   5.982
 9973SOL     OW30817   2.275   2.286   3.294
 9973SOL    HW130818   2.339   2.352   3.255
 9973SOL    HW230819   2.283   2.287   3.394
 9974SOL     OW30820   1.100   2.236   3.137
 9974SOL    HW130821   1.066   2.243   3.231
 9974SOL    HW230822   1.132   2.325   3.106
 9975SOL     OW30823   2.502   4.570   6.801
 9975SOL    HW130824   2.581   4.592   6.745
 9975SOL    HW230825   2.464   4.482   6.774
 9976SOL     OW30826   4.095   5.046   5.731
 9976SOL    HW130827   4.028   5.034   5.804
 9976SOL    HW230828   4.056   5.104   5.660
 9977SOL     OW30829   4.631   7.008   5.429
 9977SOL    HW130830   4.576   6.955   5.365
 9977SOL    HW230831   4.673   6.947   5.496
 9978SOL     OW30832   1.025   3.284   6.897
 9978SOL    HW130833   0.980   3.328   6.819
 9978SOL    HW230834   1.110   3.332   6.918
 9979SOL     OW30835   3.578   3.628   5.203
 9979SOL    HW130836   3.513   3.586   5.139
 9979SOL    HW230837   3.592   3.567   5.281
 9980SOL     OW30838   1.873   1.345   1.440
 9980SOL    HW130839   1.895   1.384   1.350
 9980SOL    HW230840   1.884   1.416   1.510
 9981SOL     OW30841   6.471   1.676   0.276
 9981SOL    HW130842   6.387   1.719   0.307
 9981SOL    HW230843   6.549   1.733   0.301
 9982SOL     OW30844   1.880   2.053   4.386
 9982SOL    HW130845   1.870   2.056   4.287
 9982SOL    HW230846   1.797   2.014   4.427
 9983SOL     OW30847   1.103   3.428   2.451
 9983SOL    HW130848   1.127   3.509   2.398
 9983SOL    HW230849   1.006   3.430   2.474
 9984SOL     OW30850   0.290   5.133   1.140
 9984SOL    HW130851   0.252   5.103   1.052
 9984SOL    HW230852   0.348   5.061   1.177
 9985SOL     OW30853   4.995   4.420   0.152
 9985SOL    HW130854   5.051   4.504   0.145
 9985SOL    HW230855   5.054   4.344   0.179
 9986SOL     OW30856   5.747   5.154   0.315
 9986SOL    HW130857   5.718   5.075   0.369
 9986SOL    HW230858   5.695   5.157   0.230
 9987SOL     OW30859   6.137   2.481   1.402
 9987SOL    HW130860   6.162   2.457   1.308
 9987SOL    HW230861   6.184   2.419   1.465
 9988SOL     OW30862   5.545   6.748   3.727
 9988SOL    HW130863   5.579   6.840   3.707
 9988SOL    HW230864   5.479   6.752   3.801
 9989SOL     OW30865   0.238   5.819   2.372
 9989SOL    HW130866   0.274   5.790   2.460
 9989SOL    HW230867   0.197   5.741   2.325
 9990SOL     OW30868   0.153   6.744   3.609
 9990SOL    HW130869   0.152   6.822   3.547
 9990SOL    HW230870   0.127   6.773   3.701
 9991SOL     OW30871   1.901   5.082   3.084
 9991SOL    HW130872   1.898   5.162   3.145
 9991SOL    HW230873   1.988   5.035   3.096
 9992SOL     OW30874   2.410   5.046   0.653
 9992SOL    HW130875   2.353   4.968   0.677
 9992SOL    HW230876   2.499   5.014   0.620
 9993SOL     OW30877   3.887   6.898   4.843
 9993SOL    HW130878   3.927   6.812   4.874
 9993SOL    HW230879   3.847   6.947   4.920
 9994SOL     OW30880   5.832   5.252   4.662
 9994SOL    HW130881   5.856   5.226   4.755
 9994SOL    HW230882   5.747   5.305   4.663
 9995SOL     OW30883   3.549   1.279   5.732
 9995SOL    HW130884   3.470   1.258   5.790
 9995SOL    HW230885   3.597   1.195   5.709
 9996SOL     OW30886   2.916   3.607   0.843
 9996SOL    HW130887   2.853   3.601   0.766
 9996SOL    HW230888   2.866   3.596   0.929
 9997SOL     OW30889   6.265   3.081   3.562
 9997SOL    HW130890   6.321   3.027   3.625
 9997SOL    HW230891   6.324   3.134   3.502
 9998SOL     OW30892   5.090   4.464   2.652
 9998SOL    HW130893   5.146   4.494   2.730
 9998SOL    HW230894   5.147   4.462   2.570
 9999SOL     OW30895   1.043   6.719   3.914
 9999SOL    HW130896   1.040   6.812   3.878
 9999SOL    HW230897   0.950   6.685   3.927
10000SOL     OW30898   4.630   2.466   1.169
10000SOL    HW130899   4.718   2.456   1.122
10000SOL    HW230900   4.568   2.519   1.111
10001SOL     OW30901   3.873   6.022   1.791
10001SOL    HW130902   3.928   6.092   1.745
10001SOL    HW230903   3.784   6.015   1.746
10002SOL     OW30904   3.051   1.386   1.824
10002SOL    HW130905   3.004   1.467   1.859
10002SOL    HW230906   3.002   1.352   1.743
10003SOL     OW30907   1.542   1.020   3.764
10003SOL    HW130908   1.548   0.985   3.857
10003SOL    HW230909   1.593   0.959   3.703
10004SOL     OW30910   6.183   4.443   4.619
10004SOL    HW130911   6.146   4.493   4.698
10004SOL    HW230912   6.257   4.383   4.648
10005SOL     OW30913   2.271   5.180   3.216
10005SOL    HW130914   2.287   5.085   3.190
10005SOL    HW230915   2.197   5.185   3.283
10006SOL     OW30916   5.902   0.468   5.400
10006SOL    HW130917   5.957   0.548   5.425
10006SOL    HW230918   5.886   0.467   5.302
10007SOL     OW30919   1.491   5.053   4.296
10007SOL    HW130920   1.526   5.020   4.383
10007SOL    HW230921   1.567   5.080   4.237
10008SOL     OW30922   3.908   1.499   5.725
10008SOL    HW130923   3.829   1.561   5.723
10008SOL    HW230924   3.893   1.423   5.663
10009SOL     OW30925   1.125   3.678   2.302
10009SOL    HW130926   1.096   3.773   2.292
10009SOL    HW230927   1.214   3.666   2.260
10010SOL     OW30928   2.672   3.805   0.240
10010SOL    HW130929   2.590   3.748   0.231
10010SOL    HW230930   2.690   3.822   0.337
10011SOL     OW30931   1.703   3.158   6.933
10011SOL    HW130932   1.770   3.178   7.003
10011SOL    HW230933   1.611   3.168   6.971
10012SOL     OW30934   5.945   2.708   3.046
10012SOL    HW130935   6.007   2.641   3.004
10012SOL    HW230936   5.980   2.733   3.137
10013SOL     OW30937   0.284   6.089   5.272
10013SOL    HW130938   0.216   6.159   5.249
10013SOL    HW230939   0.375   6.132   5.275
10014SOL     OW30940   1.022   0.471   3.317
10014SOL    HW130941   0.947   0.538   3.319
10014SOL    HW230942   1.091   0.501   3.252
10015SOL     OW30943   4.268   5.445   6.032
10015SOL    HW130944   4.190   5.469   6.090
10015SOL    HW230945   4.235   5.392   5.953
10016SOL     OW30946   2.187   0.362   3.694
10016SOL    HW130947   2.264   0.298   3.694
10016SOL    HW230948   2.194   0.423   3.615
10017SOL     OW30949   2.466   2.330   2.494
10017SOL    HW130950   2.425   2.421   2.485
10017SOL    HW230951   2.534   2.331   2.568
10018SOL     OW30952   6.791   3.342   5.739
10018SOL    HW130953   6.770   3.270   5.673
10018SOL    HW230954   6.706   3.381   5.773
10019SOL     OW30955   0.487   2.101   1.961
10019SOL    HW130956   0.467   2.052   2.046
10019SOL    HW230957   0.405   2.149   1.930
10020SOL     OW30958   6.105   0.918   2.253
10020SOL    HW130959   6.081   1.007   2.291
10020SOL    HW230960   6.028   0.856   2.262
10021SOL     OW30961   1.282   3.217   2.453
10021SOL    HW130962   1.263   3.119   2.467
10021SOL    HW230963   1.195   3.267   2.447
10022SOL     OW30964   2.507   5.111   6.531
10022SOL    HW130965   2.559   5.071   6.455
10022SOL    HW230966   2.443   5.180   6.495
10023SOL     OW30967   0.694   0.441   6.150
10023SOL    HW130968   0.782   0.419   6.110
10023SOL    HW230969   0.680   0.387   6.233
10024SOL     OW30970   1.617   4.868   2.662
10024SOL    HW130971   1.607   4.838   2.567
10024SOL    HW230972   1.693   4.932   2.670
10025SOL     OW30973   1.248   4.359   1.430
10025SOL    HW130974   1.156   4.322   1.443
10025SOL    HW230975   1.298   4.357   1.517
10026SOL     OW30976   5.294   1.907   4.372
10026SOL    HW130977   5.243   1.943   4.294
10026SOL    HW230978   5.344   1.982   4.415
10027SOL     OW30979   2.551   1.755   5.187
10027SOL    HW130980   2.480   1.742   5.118
10027SOL    HW230981   2.632   1.700   5.163
10028SOL     OW30982   4.274   0.495   0.937
10028SOL    HW130983   4.326   0.486   1.022
10028SOL    HW230984   4.177   0.480   0.955
10029SOL     OW30985   0.619   4.060   4.617
10029SOL    HW130986   0.525   4.029   4.634
10029SOL    HW230987   0.682   3.985   4.635
10030SOL     OW30988   2.323   6.821   4.832
10030SOL    HW130989   2.409   6.792   4.789
10030SOL    HW230990   2.247   6.771   4.790
10031SOL     OW30991   2.981   4.795   3.352
10031SOL    HW130992   3.015   4.766   3.263
10031SOL    HW230993   2.998   4.892   3.364
10032SOL     OW30994   3.037   6.561   5.194
10032SOL    HW130995   3.130   6.526   5.188
10032SOL    HW230996   3.023   6.631   5.125
10033SOL     OW30997   3.021   1.174   3.846
10033SOL    HW130998   2.932   1.204   3.811
10033SOL    HW230999   3.016   1.163   3.945
10034SOL     OW31000   2.406   0.950   3.960
10034SOL    HW131001   2.381   1.042   3.992
10034SOL    HW231002   2.506   0.943   3.953
10035SOL     OW31003   6.095   2.599   2.565
10035SOL    HW131004   6.049   2.631   2.482
10035SOL    HW231005   6.041   2.527   2.608
10036SOL     OW31006   6.986   0.582   6.934
10036SOL    HW131007   0.052   0.565   6.957
10036SOL    HW231008   6.955   0.514   6.867
10037SOL     OW31009   6.338   6.911   6.989
10037SOL    HW131010   6.381   6.841   0.016
10037SOL    HW231011   6.265   6.870   6.934
10038SOL     OW31012   4.466   6.589   6.322
10038SOL    HW131013   4.467   6.676   6.273
10038SOL    HW231014   4.501   6.517   6.262
10039SOL     OW31015   6.532   5.860   2.393
10039SOL    HW131016   6.485   5.929   2.338
10039SOL    HW231017   6.614   5.899   2.435
10040SOL     OW31018   3.285   6.565   1.124
10040SOL    HW131019   3.367   6.621   1.111
10040SOL    HW231020   3.288   6.486   1.063
10041SOL     OW31021   6.956   5.021   5.090
10041SOL    HW131022   6.871   4.982   5.127
10041SOL    HW231023   7.006   5.066   5.163
10042SOL     OW31024   0.365   0.395   4.911
10042SOL    HW131025   0.359   0.351   5.000
10042SOL    HW231026   0.461   0.410   4.887
10043SOL     OW31027   0.641   0.660   3.724
10043SOL    HW131028   0.549   0.636   3.753
10043SOL    HW231029   0.697   0.681   3.804
10044SOL     OW31030   2.736   1.704   6.377
10044SOL    HW131031   2.778   1.786   6.339
10044SOL    HW231032   2.742   1.707   6.477
10045SOL     OW31033   3.744   6.846   5.100
10045SOL    HW131034   3.677   6.772   5.102
10045SOL    HW231035   3.827   6.817   5.149
10046SOL     OW31036   0.125   2.460   1.390
10046SOL    HW131037   0.129   2.488   1.295
10046SOL    HW231038   0.143   2.539   1.449
10047SOL     OW31039   0.002   2.209   4.256
10047SOL    HW131040   0.085   2.184   4.306
10047SOL    HW231041   6.999   2.298   4.289
10048SOL     OW31042   3.886   1.992   1.484
10048SOL    HW131043   3.816   2.046   1.530
10048SOL    HW231044   3.876   1.896   1.508
10049SOL     OW31045   1.545   6.934   5.164
10049SOL    HW131046   1.565   6.902   5.256
10049SOL    HW231047   1.514   6.857   5.108
10050SOL     OW31048   4.967   2.716   3.777
10050SOL    HW131049   5.035   2.643   3.787
10050SOL    HW231050   4.984   2.767   3.693
10051SOL     OW31051   5.893   2.903   5.374
10051SOL    HW131052   5.821   2.849   5.330
10051SOL    HW231053   5.981   2.881   5.333
10052SOL     OW31054   0.690   3.330   1.550
10052SOL    HW131055   0.591   3.335   1.563
10052SOL    HW231056   0.710   3.268   1.474
10053SOL     OW31057   2.930   5.642   3.709
10053SOL    HW131058   2.915   5.683   3.798
10053SOL    HW231059   2.961   5.548   3.720
10054SOL     OW31060   3.500   5.585   4.678
10054SOL    HW131061   3.586   5.608   4.633
10054SOL    HW231062   3.460   5.668   4.718
10055SOL     OW31063   5.851   2.818   5.639
10055SOL    HW131064   5.833   2.720   5.651
10055SOL    HW231065   5.864   2.838   5.542
10056SOL     OW31066   6.313   4.918   1.321
10056SOL    HW131067   6.400   4.896   1.277
10056SOL    HW231068   6.256   4.971   1.258
10057SOL     OW31069   3.343   2.136   3.935
10057SOL    HW131070   3.438   2.161   3.952
10057SOL    HW231071   3.332   2.037   3.940
10058SOL     OW31072   0.895   5.373   3.718
10058SOL    HW131073   0.916   5.394   3.813
10058SOL    HW231074   0.856   5.282   3.711
10059SOL     OW31075   5.797   0.454   0.976
10059SOL    HW131076   5.786   0.355   0.979
10059SOL    HW231077   5.895   0.477   0.979
10060SOL     OW31078   2.770   2.731   1.665
10060SOL    HW131079   2.864   2.731   1.697
10060SOL    HW231080   2.722   2.651   1.704
10061SOL     OW31081   6.323   1.635   4.521
10061SOL    HW131082   6.376   1.640   4.437
10061SOL    HW231083   6.383   1.610   4.597
10062SOL     OW31084   6.621   6.526   3.009
10062SOL    HW131085   6.587   6.594   3.074
10062SOL    HW231086   6.544   6.476   2.969
10063SOL     OW31087   1.451   3.128   3.386
10063SOL    HW131088   1.498   3.074   3.456
10063SOL    HW231089   1.378   3.074   3.344
10064SOL     OW31090   5.494   6.760   4.026
10064SOL    HW131091   5.500   6.669   4.067
10064SOL    HW231092   5.431   6.817   4.079
10065SOL     OW31093   1.388   6.407   3.480
10065SOL    HW131094   1.312   6.348   3.506
10065SOL    HW231095   1.372   6.444   3.388
10066SOL     OW31096   0.811   6.880   3.518
10066SOL    HW131097   0.749   6.811   3.554
10066SOL    HW231098   0.831   6.948   3.590
10067SOL     OW31099   4.094   4.866   4.071
10067SOL    HW131100   4.146   4.855   3.986
10067SOL    HW231101   4.036   4.947   4.065
10068SOL     OW31102   5.271   3.666   5.312
10068SOL    HW131103   5.193   3.644   5.253
10068SOL    HW231104   5.242   3.733   5.381
10069SOL     OW31105   2.810   1.454   3.281
10069SOL    HW131106   2.868   1.526   3.320
10069SOL    HW231107   2.802   1.468   3.182
10070SOL     OW31108   0.639   6.921   4.734
10070SOL    HW131109   0.588   6.965   4.807
10070SOL    HW231110   0.730   6.962   4.727
10071SOL     OW31111   5.422   5.800   4.937
10071SOL    HW131112   5.356   5.875   4.948
10071SOL    HW231113   5.445   5.789   4.841
10072SOL     OW31114   1.052   6.745   2.935
10072SOL    HW131115   1.094   6.821   2.985
10072SOL    HW231116   1.098   6.660   2.960
10073SOL     OW31117   6.962   4.811   6.022
10073SOL    HW131118   0.023   4.850   6.040
10073SOL    HW231119   6.959   4.716   6.054
10074SOL     OW31120   2.195   0.243   6.558
10074SOL    HW131121   2.266   0.264   6.491
10074SOL    HW231122   2.236   0.205   6.640
10075SOL     OW31123   0.566   2.309   3.990
10075SOL    HW131124   0.650   2.331   3.941
10075SOL    HW231125   0.495   2.377   3.968
10076SOL     OW31126   5.182   6.857   4.679
10076SOL    HW131127   5.184   6.788   4.751
10076SOL    HW231128   5.171   6.948   4.719
10077SOL     OW31129   4.277   1.690   6.148
10077SOL    HW131130   4.258   1.592   6.153
10077SOL    HW231131   4.238   1.728   6.065
10078SOL     OW31132   5.819   0.135   5.921
10078SOL    HW131133   5.904   0.134   5.974
10078SOL    HW231134   5.828   0.071   5.844
10079SOL     OW31135   0.257   3.402   1.079
10079SOL    HW131136   0.203   3.362   1.154
10079SOL    HW231137   0.231   3.497   1.066
10080SOL     OW31138   1.718   2.867   6.985
10080SOL    HW131139   1.755   2.867   0.049
10080SOL    HW231140   1.698   2.961   6.958
10081SOL     OW31141   0.481   0.545   6.567
10081SOL    HW131142   0.405   0.609   6.553
10081SOL    HW231143   0.566   0.588   6.536
10082SOL     OW31144   6.118   1.724   1.712
10082SOL    HW131145   6.104   1.775   1.627
10082SOL    HW231146   6.078   1.775   1.788
10083SOL     OW31147   5.063   0.729   4.162
10083SOL    HW131148   4.968   0.732   4.129
10083SOL    HW231149   5.065   0.752   4.259
10084SOL     OW31150   2.609   1.209   5.739
10084SOL    HW131151   2.627   1.111   5.753
10084SOL    HW231152   2.690   1.261   5.767
10085SOL     OW31153   0.680   5.948   2.656
10085SOL    HW131154   0.681   6.046   2.677
10085SOL    HW231155   0.728   5.898   2.728
10086SOL     OW31156   5.986   4.125   2.219
10086SOL    HW131157   6.068   4.180   2.233
10086SOL    HW231158   5.908   4.186   2.201
10087SOL     OW31159   1.700   0.475   4.028
10087SOL    HW131160   1.706   0.438   4.120
10087SOL    HW231161   1.625   0.540   4.022
10088SOL     OW31162   0.281   7.003   4.473
10088SOL    HW131163   0.295   0.026   4.389
10088SOL    HW231164   0.334   6.918   4.470
10089SOL     OW31165   1.411   2.765   1.767
10089SOL    HW131166   1.504   2.759   1.733
10089SOL    HW231167   1.349   2.717   1.704
10090SOL     OW31168   1.435   4.345   0.890
10090SOL    HW131169   1.500   4.412   0.853
10090SOL    HW231170   1.355   4.392   0.925
10091SOL     OW31171   0.789   2.737   4.821
10091SOL    HW131172   0.820   2.798   4.894
10091SOL    HW231173   0.860   2.730   4.750
10092SOL     OW31174   1.821   3.913   5.238
10092SOL    HW131175   1.811   3.866   5.150
10092SOL    HW231176   1.775   4.002   5.233
10093SOL     OW31177   6.408   5.470   5.954
10093SOL    HW131178   6.384   5.388   6.006
10093SOL    HW231179   6.459   5.444   5.872
10094SOL     OW31180   1.754   1.859   2.286
10094SOL    HW131181   1.823   1.787   2.276
10094SOL    HW231182   1.665   1.825   2.253
10095SOL     OW31183   7.013   0.801   5.871
10095SOL    HW131184   0.067   0.819   5.817
10095SOL    HW231185   6.964   0.723   5.831
10096SOL     OW31186   0.452   5.850   2.542
10096SOL    HW131187   0.539   5.884   2.578
10096SOL    HW231188   0.416   5.916   2.476
10097SOL     OW31189   1.283   0.539   0.786
10097SOL    HW131190   1.247   0.446   0.791
10097SOL    HW231191   1.208   0.605   0.797
10098SOL     OW31192   2.326   5.007   6.692
10098SOL    HW131193   2.326   4.908   6.675
10098SOL    HW231194   2.402   5.049   6.643
10099SOL     OW31195   6.736   4.327   4.921
10099SOL    HW131196   6.678   4.331   4.839
10099SOL    HW231197   6.790   4.410   4.927
10100SOL     OW31198   5.162   0.688   4.653
10100SOL    HW131199   5.199   0.746   4.726
10100SOL    HW231200   5.075   0.649   4.683
10101SOL     OW31201   0.009   4.766   2.356
10101SOL    HW131202   6.953   4.720   2.333
10101SOL    HW231203   0.013   4.783   2.455
10102SOL     OW31204   3.009   1.857   1.897
10102SOL    HW131205   3.099   1.813   1.903
10102SOL    HW231206   2.940   1.799   1.940
10103SOL     OW31207   2.725   1.494   6.212
10103SOL    HW131208   2.709   1.567   6.279
10103SOL    HW231209   2.694   1.407   6.250
10104SOL     OW31210   0.926   5.468   5.234
10104SOL    HW131211   0.981   5.434   5.310
10104SOL    HW231212   0.832   5.435   5.244
10105SOL     OW31213   1.842   0.353   6.811
10105SOL    HW131214   1.753   0.398   6.820
10105SOL    HW231215   1.893   0.395   6.737
10106SOL     OW31216   5.395   6.310   0.428
10106SOL    HW131217   5.426   6.243   0.496
10106SOL    HW231218   5.473   6.365   0.399
10107SOL     OW31219   5.554   1.691   5.955
10107SOL    HW131220   5.541   1.748   5.875
10107SOL    HW231221   5.468   1.645   5.978
10108SOL     OW31222   6.601   6.993   0.217
10108SOL    HW131223   6.568   6.902   0.192
10108SOL    HW231224   6.594   7.005   0.316
10109SOL     OW31225   4.375   5.509   3.874
10109SOL    HW131226   4.475   5.512   3.877
10109SOL    HW231227   4.342   5.435   3.932
10110SOL     OW31228   3.629   0.574   6.039
10110SOL    HW131229   3.565   0.577   5.963
10110SOL    HW231230   3.595   0.510   6.108
10111SOL     OW31231   0.251   2.834   2.632
10111SOL    HW131232   0.231   2.854   2.727
10111SOL    HW231233   0.231   2.914   2.575
10112SOL     OW31234   4.764   4.426   5.861
10112SOL    HW131235   4.786   4.459   5.953
10112SOL    HW231236   4.664   4.425   5.849
10113SOL     OW31237   3.806   6.829   6.953
10113SOL    HW131238   3.718   6.848   6.997
10113SOL    HW231239   3.872   6.900   6.978
10114SOL     OW31240   5.114   1.058   1.114
10114SOL    HW131241   5.207   1.087   1.093
10114SOL    HW231242   5.049   1.126   1.080
10115SOL     OW31243   1.779   2.396   3.885
10115SOL    HW131244   1.735   2.486   3.890
10115SOL    HW231245   1.840   2.384   3.963
10116SOL     OW31246   0.926   1.274   1.162
10116SOL    HW131247   1.005   1.299   1.218
10116SOL    HW231248   0.940   1.183   1.124
10117SOL     OW31249   5.630   0.454   5.924
10117SOL    HW131250   5.589   0.545   5.924
10117SOL    HW231251   5.694   0.447   5.847
10118SOL     OW31252   6.979   5.557   2.065
10118SOL    HW131253   6.898   5.615   2.052
10118SOL    HW231254   6.951   5.461   2.067
10119SOL     OW31255   2.193   0.790   5.594
10119SOL    HW131256   2.133   0.814   5.518
10119SOL    HW231257   2.212   0.872   5.649
10120SOL     OW31258   6.991   3.014   3.834
10120SOL    HW131259   6.970   2.969   3.747
10120SOL    HW231260   7.000   2.945   3.906
10121SOL     OW31261   6.407   4.585   4.837
10121SOL    HW131262   6.473   4.521   4.798
10121SOL    HW231263   6.435   4.679   4.818
10122SOL     OW31264   5.684   3.547   0.337
10122SOL    HW131265   5.589   3.552   0.307
10122SOL    HW231266   5.692   3.475   0.407
10123SOL     OW31267   6.991   6.047   0.586
10123SOL    HW131268   6.964   5.950   0.587
10123SOL    HW231269   6.934   6.098   0.651
10124SOL     OW31270   3.090   4.291   6.998
10124SOL    HW131271   3.176   4.325   0.007
10124SOL    HW231272   3.057   4.356   6.929
10125SOL     OW31273   1.591   0.437   1.887
10125SOL    HW131274   1.667   0.453   1.950
10125SOL    HW231275   1.509   0.411   1.938
10126SOL     OW31276   6.463   5.126   0.762
10126SOL    HW131277   6.411   5.042   0.751
10126SOL    HW231278   6.416   5.186   0.827
10127SOL     OW31279   3.732   5.703   5.183
10127SOL    HW131280   3.638   5.703   5.149
10127SOL    HW231281   3.795   5.687   5.108
10128SOL     OW31282   0.193   2.333   1.006
10128SOL    HW131283   0.285   2.297   0.991
10128SOL    HW231284   0.183   2.421   0.959
10129SOL     OW31285   6.022   2.494   3.609
10129SOL    HW131286   6.020   2.560   3.685
10129SOL    HW231287   6.112   2.494   3.567
10130SOL     OW31288   6.531   5.931   1.696
10130SOL    HW131289   6.461   5.997   1.668
10130SOL    HW231290   6.619   5.977   1.703
10131SOL     OW31291   0.594   0.888   1.754
10131SOL    HW131292   0.581   0.793   1.725
10131SOL    HW231293   0.539   0.949   1.696
10132SOL     OW31294   2.913   6.461   2.680
10132SOL    HW131295   2.849   6.416   2.743
10132SOL    HW231296   3.003   6.468   2.724
10133SOL     OW31297   4.668   5.886   3.639
10133SOL    HW131298   4.707   5.797   3.660
10133SOL    HW231299   4.579   5.874   3.593
10134SOL     OW31300   0.105   1.552   3.600
10134SOL    HW131301   0.165   1.560   3.520
10134SOL    HW231302   0.010   1.550   3.570
10135SOL     OW31303   4.185   4.853   2.868
10135SOL    HW131304   4.100   4.878   2.821
10135SOL    HW231305   4.221   4.768   2.828
10136SOL     OW31306   6.556   0.336   3.812
10136SOL    HW131307   6.551   0.251   3.761
10136SOL    HW231308   6.634   0.390   3.780
10137SOL     OW31309   6.517   5.274   4.133
10137SOL    HW131310   6.436   5.223   4.160
10137SOL    HW231311   6.492   5.368   4.110
10138SOL     OW31312   6.302   1.965   6.820
10138SOL    HW131313   6.272   1.905   6.746
10138SOL    HW231314   6.243   2.046   6.824
10139SOL     OW31315   3.663   2.960   3.134
10139SOL    HW131316   3.578   2.910   3.148
10139SOL    HW231317   3.714   2.919   3.057
10140SOL     OW31318   6.878   5.099   0.056
10140SOL    HW131319   6.860   5.051   6.999
10140SOL    HW231320   6.888   5.032   0.130
10141SOL     OW31321   1.857   1.172   4.308
10141SOL    HW131322   1.956   1.179   4.297
10141SOL    HW231323   1.835   1.159   4.404
10142SOL     OW31324   3.952   5.642   4.811
10142SOL    HW131325   3.968   5.729   4.857
10142SOL    HW231326   4.024   5.625   4.744
10143SOL     OW31327   4.925   0.151   1.486
10143SOL    HW131328   4.883   0.171   1.397
10143SOL    HW231329   4.856   0.112   1.547
10144SOL     OW31330   3.158   5.976   4.347
10144SOL    HW131331   3.185   6.070   4.372
10144SOL    HW231332   3.064   5.960   4.377
10145SOL     OW31333   2.828   5.880   5.829
10145SOL    HW131334   2.916   5.848   5.862
10145SOL    HW231335   2.780   5.806   5.781
10146SOL     OW31336   4.090   5.383   4.098
10146SOL    HW131337   4.112   5.479   4.082
10146SOL    HW231338   3.996   5.375   4.129
10147SOL     OW31339   4.947   4.318   4.202
10147SOL    HW131340   5.009   4.243   4.223
10147SOL    HW231341   4.853   4.291   4.224
10148SOL     OW31342   5.665   5.822   0.527
10148SOL    HW131343   5.732   5.842   0.599
10148SOL    HW231344   5.701   5.749   0.468
10149SOL     OW31345   4.061   2.114   1.320
10149SOL    HW131346   4.159   2.131   1.327
10149SOL    HW231347   4.031   2.061   1.399
10150SOL     OW31348   4.960   4.338   0.465
10150SOL    HW131349   5.003   4.277   0.399
10150SOL    HW231350   4.898   4.286   0.524
10151SOL     OW31351   1.483   6.901   6.232
10151SOL    HW131352   1.481   6.852   6.145
10151SOL    HW231353   1.391   6.904   6.270
10152SOL     OW31354   0.251   5.218   3.768
10152SOL    HW131355   0.335   5.246   3.720
10152SOL    HW231356   0.227   5.287   3.836
10153SOL     OW31357   4.770   6.105   3.940
10153SOL    HW131358   4.816   6.095   3.852
10153SOL    HW231359   4.832   6.148   4.005
10154SOL     OW31360   6.750   5.444   5.883
10154SOL    HW131361   6.850   5.441   5.875
10154SOL    HW231362   6.711   5.363   5.841
10155SOL     OW31363   3.864   0.881   5.899
10155SOL    HW131364   3.866   0.842   5.807
10155SOL    HW231365   3.797   0.955   5.901
10156SOL     OW31366   5.343   0.263   2.248
10156SOL    HW131367   5.297   0.176   2.231
10156SOL    HW231368   5.344   0.281   2.346
10157SOL     OW31369   5.704   1.255   6.461
10157SOL    HW131370   5.741   1.163   6.473
10157SOL    HW231371   5.780   1.319   6.446
10158SOL     OW31372   4.333   3.580   0.076
10158SOL    HW131373   4.401   3.512   0.101
10158SOL    HW231374   4.372   3.645   0.011
10159SOL     OW31375   2.165   2.130   6.381
10159SOL    HW131376   2.109   2.057   6.420
10159SOL    HW231377   2.112   2.180   6.313
10160SOL     OW31378   0.619   5.024   3.617
10160SOL    HW131379   0.621   5.028   3.717
10160SOL    HW231380   0.679   4.951   3.585
10161SOL     OW31381   3.738   5.407   6.488
10161SOL    HW131382   3.779   5.338   6.429
10161SOL    HW231383   3.640   5.388   6.498
10162SOL     OW31384   2.556   2.697   6.121
10162SOL    HW131385   2.554   2.743   6.209
10162SOL    HW231386   2.484   2.627   6.118
10163SOL     OW31387   6.651   4.128   5.859
10163SOL    HW131388   6.721   4.063   5.833
10163SOL    HW231389   6.583   4.135   5.786
10164SOL     OW31390   6.357   3.081   5.147
10164SOL    HW131391   6.436   3.022   5.164
10164SOL    HW231392   6.320   3.060   5.056
10165SOL     OW31393   0.835   2.350   4.473
10165SOL    HW131394   0.911   2.331   4.410
10165SOL    HW231395   0.853   2.307   4.561
10166SOL     OW31396   2.477   1.627   2.127
10166SOL    HW131397   2.443   1.712   2.086
10166SOL    HW231398   2.456   1.550   2.066
10167SOL     OW31399   4.893   0.726   6.575
10167SOL    HW131400   4.825   0.690   6.511
10167SOL    HW231401   4.881   0.825   6.583
10168SOL     OW31402   6.733   4.091   4.352
10168SOL    HW131403   6.775   4.081   4.442
10168SOL    HW231404   6.755   4.011   4.295
10169SOL     OW31405   6.506   4.696   3.114
10169SOL    HW131406   6.446   4.645   3.176
10169SOL    HW231407   6.544   4.774   3.163
10170SOL     OW31408   1.444   4.077   5.181
10170SOL    HW131409   1.476   4.166   5.150
10170SOL    HW231410   1.344   4.073   5.178
10171SOL     OW31411   6.726   4.037   5.433
10171SOL    HW131412   6.750   4.121   5.384
10171SOL    HW231413   6.807   3.979   5.442
10172SOL     OW31414   4.955   0.449   2.767
10172SOL    HW131415   4.880   0.472   2.828
10172SOL    HW231416   5.037   0.428   2.821
10173SOL     OW31417   1.646   1.598   1.433
10173SOL    HW131418   1.571   1.641   1.484
10173SOL    HW231419   1.612   1.564   1.345
10174SOL     OW31420   6.173   4.741   2.682
10174SOL    HW131421   6.099   4.677   2.704
10174SOL    HW231422   6.165   4.822   2.739
10175SOL     OW31423   6.494   2.202   5.390
10175SOL    HW131424   6.422   2.132   5.390
10175SOL    HW231425   6.570   2.172   5.332
10176SOL     OW31426   1.887   3.727   6.685
10176SOL    HW131427   1.829   3.697   6.760
10176SOL    HW231428   1.862   3.821   6.659
10177SOL     OW31429   3.004   6.490   0.263
10177SOL    HW131430   3.085   6.474   0.320
10177SOL    HW231431   2.925   6.511   0.322
10178SOL     OW31432   6.073   2.498   4.437
10178SOL    HW131433   6.132   2.425   4.403
10178SOL    HW231434   5.992   2.458   4.480
10179SOL     OW31435   1.417   2.538   6.107
10179SOL    HW131436   1.325   2.574   6.089
10179SOL    HW231437   1.416   2.484   6.191
10180SOL     OW31438   2.591   5.854   5.534
10180SOL    HW131439   2.553   5.776   5.485
10180SOL    HW231440   2.605   5.930   5.471
10181SOL     OW31441   6.088   3.041   1.202
10181SOL    HW131442   6.002   3.086   1.181
10181SOL    HW231443   6.070   2.950   1.240
10182SOL     OW31444   6.020   0.620   1.429
10182SOL    HW131445   6.037   0.700   1.372
10182SOL    HW231446   5.933   0.630   1.476
10183SOL     OW31447   1.203   1.789   6.613
10183SOL    HW131448   1.173   1.754   6.524
10183SOL    HW231449   1.131   1.774   6.681
10184SOL     OW31450   4.495   1.436   6.075
10184SOL    HW131451   4.561   1.501   6.113
10184SOL    HW231452   4.412   1.436   6.131
10185SOL     OW31453   4.770   0.032   0.971
10185SOL    HW131454   4.851   0.053   1.027
10185SOL    HW231455   4.794   0.039   0.874
10186SOL     OW31456   4.652   2.691   3.145
10186SOL    HW131457   4.637   2.716   3.049
10186SOL    HW231458   4.692   2.769   3.194
10187SOL     OW31459   0.715   2.231   1.858
10187SOL    HW131460   0.648   2.174   1.906
10187SOL    HW231461   0.804   2.185   1.859
10188SOL     OW31462   4.083   6.438   0.607
10188SOL    HW131463   4.058   6.342   0.609
10188SOL    HW231464   4.113   6.467   0.698
10189SOL     OW31465   2.105   6.590   5.126
10189SOL    HW131466   2.139   6.512   5.074
10189SOL    HW231467   2.159   6.671   5.105
10190SOL     OW31468   4.268   2.774   0.072
10190SOL    HW131469   4.223   2.852   0.115
10190SOL    HW231470   4.215   2.746   7.021
10191SOL     OW31471   5.036   4.456   6.516
10191SOL    HW131472   4.936   4.453   6.508
10191SOL    HW231473   5.062   4.532   6.575
10192SOL     OW31474   3.666   0.991   5.093
10192SOL    HW131475   3.700   0.934   5.168
10192SOL    HW231476   3.573   0.964   5.071
10193SOL     OW31477   4.715   4.233   0.605
10193SOL    HW131478   4.681   4.307   0.663
10193SOL    HW231479   4.640   4.195   0.551
10194SOL     OW31480   5.852   4.203   5.594
10194SOL    HW131481   5.757   4.174   5.604
10194SOL    HW231482   5.896   4.148   5.523
10195SOL     OW31483   6.708   4.876   1.479
10195SOL    HW131484   6.674   4.840   1.566
10195SOL    HW231485   6.792   4.829   1.454
10196SOL     OW31486   6.909   1.379   4.904
10196SOL    HW131487   6.862   1.400   4.990
10196SOL    HW231488   7.007   1.365   4.922
10197SOL     OW31489   6.536   0.514   5.589
10197SOL    HW131490   6.569   0.558   5.672
10197SOL    HW231491   6.603   0.446   5.558
10198SOL     OW31492   3.847   0.452   2.604
10198SOL    HW131493   3.776   0.450   2.533
10198SOL    HW231494   3.912   0.525   2.584
10199SOL     OW31495   1.249   2.873   5.524
10199SOL    HW131496   1.322   2.837   5.467
10199SOL    HW231497   1.265   2.851   5.620
10200SOL     OW31498   6.154   3.118   0.956
10200SOL    HW131499   6.094   3.198   0.958
10200SOL    HW231500   6.154   3.074   1.046
10201SOL     OW31501   1.119   4.255   1.033
10201SOL    HW131502   1.144   4.201   1.113
10201SOL    HW231503   1.083   4.194   0.962
10202SOL     OW31504   3.931   1.290   5.535
10202SOL    HW131505   3.938   1.303   5.436
10202SOL    HW231506   3.867   1.216   5.555
10203SOL     OW31507   5.865   2.828   4.999
10203SOL    HW131508   5.955   2.787   4.985
10203SOL    HW231509   5.795   2.770   4.959
10204SOL     OW31510   5.210   7.006   6.267
10204SOL    HW131511   5.110   7.010   6.271
10204SOL    HW231512   5.238   6.925   6.217
10205SOL     OW31513   1.270   0.693   6.813
10205SOL    HW131514   1.299   0.601   6.838
10205SOL    HW231515   1.268   0.702   6.713
10206SOL     OW31516   0.941   0.776   5.614
10206SOL    HW131517   0.906   0.746   5.702
10206SOL    HW231518   0.915   0.871   5.598
10207SOL     OW31519   1.398   1.461   5.692
10207SOL    HW131520   1.382   1.373   5.647
10207SOL    HW231521   1.472   1.452   5.758
10208SOL     OW31522   6.228   4.820   5.162
10208SOL    HW131523   6.171   4.738   5.172
10208SOL    HW231524   6.181   4.886   5.105
10209SOL     OW31525   6.839   6.849   6.612
10209SOL    HW131526   6.869   6.944   6.613
10209SOL    HW231527   6.754   6.842   6.559
10210SOL     OW31528   4.115   5.865   1.890
10210SOL    HW131529   4.081   5.917   1.968
10210SOL    HW231530   4.037   5.834   1.835
10211SOL     OW31531   4.381   6.071   5.678
10211SOL    HW131532   4.447   6.116   5.739
10211SOL    HW231533   4.304   6.036   5.732
10212SOL     OW31534   0.840   0.164   6.059
10212SOL    HW131535   0.841   0.113   5.973
10212SOL    HW231536   0.869   0.258   6.042
10213SOL     OW31537   5.396   1.808   0.161
10213SOL    HW131538   5.322   1.852   0.110
10213SOL    HW231539   5.478   1.802   0.105
10214SOL     OW31540   0.315   2.884   1.443
10214SOL    HW131541   0.406   2.922   1.457
10214SOL    HW231542   0.247   2.958   1.445
10215SOL     OW31543   3.425   3.337   2.550
10215SOL    HW131544   3.445   3.277   2.472
10215SOL    HW231545   3.455   3.293   2.634
10216SOL     OW31546   6.952   0.002   2.154
10216SOL    HW131547   6.975   6.983   2.238
10216SOL    HW231548   6.955   0.101   2.169
10217SOL     OW31549   3.085   1.301   3.380
10217SOL    HW131550   3.057   1.253   3.463
10217SOL    HW231551   3.005   1.343   3.337
10218SOL     OW31552   1.359   2.640   2.671
10218SOL    HW131553   1.431   2.594   2.723
10218SOL    HW231554   1.382   2.736   2.658
10219SOL     OW31555   0.512   1.059   2.573
10219SOL    HW131556   0.443   1.107   2.518
10219SOL    HW231557   0.597   1.052   2.521
10220SOL     OW31558   3.392   2.750   1.808
10220SOL    HW131559   3.324   2.694   1.760
10220SOL    HW231560   3.480   2.702   1.808
10221SOL     OW31561   1.137   6.147   3.062
10221SOL    HW131562   1.079   6.204   3.119
10221SOL    HW231563   1.229   6.142   3.101
10222SOL     OW31564   2.987   3.912   4.459
10222SOL    HW131565   2.916   3.964   4.412
10222SOL    HW231566   3.075   3.927   4.414
10223SOL     OW31567   0.998   5.351   1.731
10223SOL    HW131568   0.962   5.435   1.772
10223SOL    HW231569   1.026   5.288   1.803
10224SOL     OW31570   5.966   3.962   3.143
10224SOL    HW131571   5.982   3.973   3.241
10224SOL    HW231572   5.988   4.048   3.096
10225SOL     OW31573   2.249   3.522   6.107
10225SOL    HW131574   2.294   3.467   6.178
10225SOL    HW231575   2.314   3.539   6.033
10226SOL     OW31576   4.455   2.992   0.162
10226SOL    HW131577   4.393   2.924   0.124
10226SOL    HW231578   4.543   2.988   0.115
10227SOL     OW31579   5.149   3.624   1.121
10227SOL    HW131580   5.077   3.558   1.102
10227SOL    HW231581   5.158   3.687   1.044
10228SOL     OW31582   5.215   0.558   0.962
10228SOL    HW131583   5.198   0.656   0.946
10228SOL    HW231584   5.282   0.524   0.896
10229SOL     OW31585   0.383   3.818   4.311
10229SOL    HW131586   0.416   3.787   4.222
10229SOL    HW231587   0.310   3.885   4.298
10230SOL     OW31588   6.969   6.384   2.020
10230SOL    HW131589   7.017   6.471   2.015
10230SOL    HW231590   6.892   6.392   2.083
10231SOL     OW31591   1.890   5.644   3.360
10231SOL    HW131592   1.801   5.649   3.315
10231SOL    HW231593   1.900   5.721   3.423
10232SOL     OW31594   5.032   5.740   4.143
10232SOL    HW131595   5.037   5.832   4.103
10232SOL    HW231596   5.024   5.747   4.242
10233SOL     OW31597   4.275   4.354   6.222
10233SOL    HW131598   4.213   4.386   6.150
10233SOL    HW231599   4.260   4.256   6.238
10234SOL     OW31600   6.889   0.699   1.581
10234SOL    HW131601   6.940   0.774   1.541
10234SOL    HW231602   6.797   0.696   1.542
10235SOL     OW31603   1.689   1.037   3.311
10235SOL    HW131604   1.773   0.995   3.344
10235SOL    HW231605   1.699   1.136   3.312
10236SOL     OW31606   2.253   0.022   1.719
10236SOL    HW131607   2.309   0.058   1.645
10236SOL    HW231608   2.180   0.086   1.741
10237SOL     OW31609   0.236   3.543   6.335
10237SOL    HW131610   0.274   3.493   6.257
10237SOL    HW231611   0.303   3.548   6.408
10238SOL     OW31612   3.584   5.884   1.180
10238SOL    HW131613   3.591   5.867   1.279
10238SOL    HW231614   3.674   5.907   1.144
10239SOL     OW31615   1.960   2.700   4.399
10239SOL    HW131616   1.877   2.754   4.390
10239SOL    HW231617   1.938   2.610   4.436
10240SOL     OW31618   3.046   6.318   1.024
10240SOL    HW131619   2.948   6.303   1.036
10240SOL    HW231620   3.064   6.351   0.932
10241SOL     OW31621   3.916   2.299   1.785
10241SOL    HW131622   3.937   2.367   1.715
10241SOL    HW231623   3.822   2.311   1.816
10242SOL     OW31624   0.076   2.635   6.961
10242SOL    HW131625   0.109   2.550   7.000
10242SOL    HW231626   7.024   2.666   7.011
10243SOL     OW31627   2.568   5.411   0.907
10243SOL    HW131628   2.499   5.348   0.871
10243SOL    HW231629   2.542   5.439   0.999
10244SOL     OW31630   2.434   4.117   1.341
10244SOL    HW131631   2.381   4.179   1.283
10244SOL    HW231632   2.498   4.171   1.397
10245SOL     OW31633   3.971   4.244   0.730
10245SOL    HW131634   4.052   4.186   0.729
10245SOL    HW231635   3.889   4.187   0.724
10246SOL     OW31636   3.417   3.457   4.539
10246SOL    HW131637   3.371   3.528   4.487
10246SOL    HW231638   3.410   3.370   4.490
10247SOL     OW31639   0.762   2.565   5.037
10247SOL    HW131640   0.749   2.616   4.952
10247SOL    HW231641   0.820   2.618   5.099
10248SOL     OW31642   1.233   6.873   3.624
10248SOL    HW131643   1.288   6.791   3.636
10248SOL    HW231644   1.243   6.907   3.530
10249SOL     OW31645   3.012   4.876   6.369
10249SOL    HW131646   3.013   4.922   6.280
10249SOL    HW231647   2.975   4.784   6.359
10250SOL     OW31648   4.933   2.141   0.274
10250SOL    HW131649   4.843   2.117   0.239
10250SOL    HW231650   4.999   2.071   0.246
10251SOL     OW31651   2.155   0.184   4.406
10251SOL    HW131652   2.162   0.242   4.487
10251SOL    HW231653   2.240   0.191   4.353
10252SOL     OW31654   5.447   4.283   6.160
10252SOL    HW131655   5.542   4.295   6.129
10252SOL    HW231656   5.443   4.204   6.222
10253SOL     OW31657   4.030   6.780   6.699
10253SOL    HW131658   3.941   6.820   6.720
10253SOL    HW231659   4.100   6.852   6.703
10254SOL     OW31660   5.372   0.935   4.537
10254SOL    HW131661   5.345   1.028   4.512
10254SOL    HW231662   5.452   0.938   4.597
10255SOL     OW31663   3.977   5.293   1.967
10255SOL    HW131664   3.916   5.266   2.041
10255SOL    HW231665   3.926   5.295   1.881
10256SOL     OW31666   4.045   0.835   2.902
10256SOL    HW131667   3.959   0.840   2.852
10256SOL    HW231668   4.119   0.872   2.845
10257SOL     OW31669   3.473   5.011   2.825
10257SOL    HW131670   3.456   5.089   2.765
10257SOL    HW231671   3.568   5.013   2.855
10258SOL     OW31672   1.877   1.316   1.805
10258SOL    HW131673   1.903   1.374   1.727
10258SOL    HW231674   1.779   1.326   1.822
10259SOL     OW31675   0.928   3.842   3.827
10259SOL    HW131676   0.961   3.897   3.751
10259SOL    HW231677   0.847   3.885   3.868
10260SOL     OW31678   1.081   1.000   3.521
10260SOL    HW131679   1.147   0.925   3.533
10260SOL    HW231680   1.083   1.031   3.426
10261SOL     OW31681   6.665   3.446   1.202
10261SOL    HW131682   6.600   3.483   1.136
10261SOL    HW231683   6.621   3.374   1.256
10262SOL     OW31684   3.430   1.388   7.006
10262SOL    HW131685   3.507   1.365   6.947
10262SOL    HW231686   3.436   1.484   0.004
10263SOL     OW31687   6.172   0.522   1.639
10263SOL    HW131688   6.199   0.577   1.718
10263SOL    HW231689   6.111   0.575   1.580
10264SOL     OW31690   6.759   5.347   6.788
10264SOL    HW131691   6.706   5.273   6.748
10264SOL    HW231692   6.830   5.376   6.723
10265SOL     OW31693   2.022   1.803   0.369
10265SOL    HW131694   1.991   1.869   0.438
10265SOL    HW231695   2.091   1.743   0.409
10266SOL     OW31696   2.890   3.492   2.336
10266SOL    HW131697   2.821   3.444   2.391
10266SOL    HW231698   2.976   3.442   2.339
10267SOL     OW31699   5.800   0.842   0.745
10267SOL    HW131700   5.885   0.834   0.693
10267SOL    HW231701   5.723   0.818   0.685
10268SOL     OW31702   4.021   0.687   1.028
10268SOL    HW131703   4.009   0.595   0.991
10268SOL    HW231704   4.108   0.724   0.997
10269SOL     OW31705   2.684   1.985   6.771
10269SOL    HW131706   2.663   1.944   6.860
10269SOL    HW231707   2.696   2.083   6.781
10270SOL     OW31708   2.911   6.500   2.183
10270SOL    HW131709   2.845   6.568   2.213
10270SOL    HW231710   2.924   6.432   2.256
10271SOL     OW31711   1.363   1.927   6.768
10271SOL    HW131712   1.294   1.972   6.824
10271SOL    HW231713   1.319   1.875   6.696
10272SOL     OW31714   6.501   0.216   4.793
10272SOL    HW131715   6.580   0.184   4.844
10272SOL    HW231716   6.421   0.223   4.853
10273SOL     OW31717   2.342   4.905   3.349
10273SOL    HW131718   2.245   4.921   3.364
10273SOL    HW231719   2.394   4.935   3.429
10274SOL     OW31720   0.325   4.866   5.254
10274SOL    HW131721   0.322   4.962   5.227
10274SOL    HW231722   0.253   4.815   5.206
10275SOL     OW31723   0.159   0.341   2.893
10275SOL    HW131724   0.082   0.390   2.933
10275SOL    HW231725   0.170   0.252   2.938
10276SOL     OW31726   3.661   5.891   6.030
10276SOL    HW131727   3.647   5.798   5.997
10276SOL    HW231728   3.723   5.890   6.109
10277SOL     OW31729   0.469   6.804   4.524
10277SOL    HW131730   0.484   6.819   4.427
10277SOL    HW231731   0.551   6.830   4.575
10278SOL     OW31732   6.955   0.698   5.466
10278SOL    HW131733   7.026   0.643   5.422
10278SOL    HW231734   6.919   0.648   5.546
10279SOL     OW31735   1.833   5.867   4.306
10279SOL    HW131736   1.807   5.962   4.292
10279SOL    HW231737   1.925   5.863   4.346
10280SOL     OW31738   5.552   3.972   0.471
10280SOL    HW131739   5.600   4.057   0.495
10280SOL    HW231740   5.601   3.894   0.510
10281SOL     OW31741   6.878   2.184   4.049
10281SOL    HW131742   6.930   2.186   3.963
10281SOL    HW231743   6.940   2.204   4.125
10282SOL     OW31744   5.309   3.711   3.289
10282SOL    HW131745   5.292   3.808   3.307
10282SOL    HW231746   5.407   3.693   3.295
10283SOL     OW31747   0.527   3.519   0.839
10283SOL    HW131748   0.551   3.423   0.847
10283SOL    HW231749   0.560   3.556   0.752
10284SOL     OW31750   0.345   2.929   3.748
10284SOL    HW131751   0.321   2.978   3.663
10284SOL    HW231752   0.349   2.995   3.823
10285SOL     OW31753   5.489   6.296   4.724
10285SOL    HW131754   5.450   6.286   4.815
10285SOL    HW231755   5.572   6.240   4.717
10286SOL     OW31756   2.865   1.355   4.413
10286SOL    HW131757   2.856   1.452   4.393
10286SOL    HW231758   2.781   1.322   4.457
10287SOL     OW31759   2.441   5.690   3.258
10287SOL    HW131760   2.529   5.679   3.303
10287SOL    HW231761   2.414   5.604   3.215
10288SOL     OW31762   3.611   0.067   5.695
10288SOL    HW131763   3.701   0.024   5.700
10288SOL    HW231764   3.620   0.159   5.656
10289SOL     OW31765   2.889   5.751   6.399
10289SOL    HW131766   2.827   5.796   6.463
10289SOL    HW231767   2.975   5.730   6.446
10290SOL     OW31768   3.075   3.097   2.418
10290SOL    HW131769   3.097   3.195   2.412
10290SOL    HW231770   2.980   3.087   2.449
10291SOL     OW31771   2.168   1.461   2.528
10291SOL    HW131772   2.247   1.452   2.467
10291SOL    HW231773   2.128   1.371   2.545
10292SOL     OW31774   6.301   6.409   6.724
10292SOL    HW131775   6.281   6.455   6.810
10292SOL    HW231776   6.273   6.467   6.648
10293SOL     OW31777   0.832   4.313   4.213
10293SOL    HW131778   0.920   4.304   4.260
10293SOL    HW231779   0.763   4.349   4.276
10294SOL     OW31780   3.682   1.742   2.028
10294SOL    HW131781   3.651   1.652   1.999
10294SOL    HW231782   3.686   1.803   1.949
10295SOL     OW31783   1.013   2.219   6.885
10295SOL    HW131784   0.972   2.128   6.882
10295SOL    HW231785   1.074   2.231   6.806
10296SOL     OW31786   5.864   1.364   6.061
10296SOL    HW131787   5.863   1.461   6.038
10296SOL    HW231788   5.947   1.322   6.027
10297SOL     OW31789   3.051   1.703   6.732
10297SOL    HW131790   2.955   1.720   6.709
10297SOL    HW231791   3.070   1.605   6.724
10298SOL     OW31792   0.479   2.433   2.627
10298SOL    HW131793   0.383   2.459   2.632
10298SOL    HW231794   0.512   2.444   2.533
10299SOL     OW31795   4.017   5.995   2.650
10299SOL    HW131796   3.934   5.940   2.654
10299SOL    HW231797   4.062   5.994   2.740
10300SOL     OW31798   0.344   3.474   1.480
10300SOL    HW131799   0.413   3.502   1.413
10300SOL    HW231800   0.253   3.492   1.444
10301SOL     OW31801   3.726   1.101   6.298
10301SOL    HW131802   3.657   1.173   6.299
10301SOL    HW231803   3.769   1.097   6.208
10302SOL     OW31804   2.901   5.952   4.435
10302SOL    HW131805   2.879   5.916   4.526
10302SOL    HW231806   2.817   5.985   4.391
10303SOL     OW31807   0.836   6.055   4.824
10303SOL    HW131808   0.738   6.074   4.833
10303SOL    HW231809   0.861   5.981   4.886
10304SOL     OW31810   6.453   6.762   0.158
10304SOL    HW131811   6.389   6.709   0.213
10304SOL    HW231812   6.513   6.699   0.107
10305SOL     OW31813   2.384   4.109   5.886
10305SOL    HW131814   2.374   4.023   5.936
10305SOL    HW231815   2.467   4.105   5.829
10306SOL     OW31816   5.155   0.236   1.597
10306SOL    HW131817   5.226   0.246   1.527
10306SOL    HW231818   5.069   0.210   1.553
10307SOL     OW31819   2.376   0.207   5.046
10307SOL    HW131820   2.326   0.241   5.125
10307SOL    HW231821   2.324   0.134   5.002
10308SOL     OW31822   2.601   4.620   2.785
10308SOL    HW131823   2.565   4.700   2.737
10308SOL    HW231824   2.541   4.542   2.769
10309SOL     OW31825   6.324   1.107   5.152
10309SOL    HW131826   6.255   1.106   5.225
10309SOL    HW231827   6.367   1.017   5.146
10310SOL     OW31828   2.982   2.921   5.822
10310SOL    HW131829   2.912   2.993   5.815
10310SOL    HW231830   3.064   2.950   5.773
10311SOL     OW31831   5.594   6.163   0.046
10311SOL    HW131832   5.619   6.175   0.142
10311SOL    HW231833   5.537   6.240   0.017
10312SOL     OW31834   4.672   0.044   1.943
10312SOL    HW131835   4.608   0.058   2.018
10312SOL    HW231836   4.671   6.977   1.915
10313SOL     OW31837   4.964   6.423   2.982
10313SOL    HW131838   5.056   6.458   2.962
10313SOL    HW231839   4.910   6.494   3.026
10314SOL     OW31840   0.829   0.036   0.991
10314SOL    HW131841   0.786   7.003   1.058
10314SOL    HW231842   0.898   7.014   0.939
10315SOL     OW31843   5.276   6.387   3.696
10315SOL    HW131844   5.216   6.434   3.761
10315SOL    HW231845   5.221   6.332   3.634
10316SOL     OW31846   0.269   2.497   6.753
10316SOL    HW131847   0.356   2.523   6.794
10316SOL    HW231848   0.284   2.420   6.691
10317SOL     OW31849   3.275   5.996   5.875
10317SOL    HW131850   3.208   5.926   5.900
10317SOL    HW231851   3.349   5.996   5.943
10318SOL     OW31852   6.206   6.487   7.005
10318SOL    HW131853   6.125   6.496   6.946
10318SOL    HW231854   6.187   6.528   0.065
10319SOL     OW31855   6.980   4.648   4.377
10319SOL    HW131856   6.995   4.582   4.450
10319SOL    HW231857   6.903   4.619   4.321
10320SOL     OW31858   0.682   0.154   4.017
10320SOL    HW131859   0.756   0.220   4.002
10320SOL    HW231860   0.713   0.081   4.078
10321SOL     OW31861   5.548   2.488   1.907
10321SOL    HW131862   5.450   2.487   1.923
10321SOL    HW231863   5.595   2.456   1.990
10322SOL     OW31864   4.615   4.380   4.927
10322SOL    HW131865   4.669   4.436   4.990
10322SOL    HW231866   4.519   4.407   4.932
10323SOL     OW31867   0.112   4.387   4.863
10323SOL    HW131868   0.134   4.348   4.774
10323SOL    HW231869   0.054   4.467   4.851
10324SOL     OW31870   3.200   3.314   2.296
10324SOL    HW131871   3.247   3.233   2.262
10324SOL    HW231872   3.251   3.396   2.269
10325SOL     OW31873   0.564   6.175   2.969
10325SOL    HW131874   0.528   6.083   2.955
10325SOL    HW231875   0.555   6.201   3.065
10326SOL     OW31876   5.480   3.226   6.426
10326SOL    HW131877   5.539   3.304   6.405
10326SOL    HW231878   5.496   3.153   6.360
10327SOL     OW31879   2.626   3.957   1.205
10327SOL    HW131880   2.551   4.009   1.247
10327SOL    HW231881   2.709   3.967   1.260
10328SOL     OW31882   6.683   2.915   1.866
10328SOL    HW131883   6.756   2.867   1.820
10328SOL    HW231884   6.595   2.890   1.825
10329SOL     OW31885   3.509   1.706   2.918
10329SOL    HW131886   3.511   1.805   2.909
10329SOL    HW231887   3.418   1.672   2.894
10330SOL     OW31888   4.448   0.556   1.425
10330SOL    HW131889   4.396   0.508   1.495
10330SOL    HW231890   4.466   0.650   1.455
10331SOL     OW31891   6.452   5.663   0.355
10331SOL    HW131892   6.449   5.652   0.255
10331SOL    HW231893   6.433   5.758   0.379
10332SOL     OW31894   1.052   1.183   0.427
10332SOL    HW131895   1.122   1.203   0.495
10332SOL    HW231896   1.069   1.093   0.386
10333SOL     OW31897   1.023   5.603   4.445
10333SOL    HW131898   1.112   5.590   4.401
10333SOL    HW231899   1.006   5.527   4.508
10334SOL     OW31900   3.225   0.170   3.989
10334SOL    HW131901   3.212   0.263   3.953
10334SOL    HW231902   3.266   0.175   4.080
10335SOL     OW31903   0.437   3.355   5.766
10335SOL    HW131904   0.388   3.441   5.781
10335SOL    HW231905   0.466   3.318   5.854
10336SOL     OW31906   5.433   0.257   2.903
10336SOL    HW131907   5.470   0.342   2.866
10336SOL    HW231908   5.508   0.195   2.927
10337SOL     OW31909   6.238   5.264   0.342
10337SOL    HW131910   6.326   5.303   0.370
10337SOL    HW231911   6.222   5.180   0.392
10338SOL     OW31912   1.838   6.661   2.002
10338SOL    HW131913   1.859   6.747   1.955
10338SOL    HW231914   1.923   6.612   2.021
10339SOL     OW31915   6.704   2.301   5.896
10339SOL    HW131916   6.726   2.258   5.984
10339SOL    HW231917   6.608   2.329   5.896
10340SOL     OW31918   2.250   3.687   6.334
10340SOL    HW131919   2.234   3.613   6.269
10340SOL    HW231920   2.244   3.775   6.287
10341SOL     OW31921   2.478   2.612   2.717
10341SOL    HW131922   2.452   2.629   2.622
10341SOL    HW231923   2.439   2.684   2.776
10342SOL     OW31924   1.386   0.712   3.763
10342SOL    HW131925   1.305   0.666   3.799
10342SOL    HW231926   1.360   0.773   3.689
10343SOL     OW31927   2.117   5.646   0.867
10343SOL    HW131928   2.116   5.652   0.967
10343SOL    HW231929   2.152   5.732   0.829
10344SOL     OW31930   3.901   4.641   6.423
10344SOL    HW131931   3.843   4.630   6.343
10344SOL    HW231932   3.859   4.708   6.485
10345SOL     OW31933   1.179   3.026   4.981
10345SOL    HW131934   1.219   3.047   4.892
10345SOL    HW231935   1.251   3.018   5.049
10346SOL     OW31936   0.545   6.035   1.706
10346SOL    HW131937   0.613   6.094   1.752
10346SOL    HW231938   0.579   5.941   1.704
10347SOL     OW31939   4.808   1.591   3.655
10347SOL    HW131940   4.853   1.565   3.569
10347SOL    HW231941   4.717   1.551   3.658
10348SOL     OW31942   6.261   4.021   0.776
10348SOL    HW131943   6.232   4.099   0.721
10348SOL    HW231944   6.334   3.972   0.728
10349SOL     OW31945   0.026   6.393   6.284
10349SOL    HW131946   7.019   6.377   6.376
10349SOL    HW231947   0.031   6.306   6.236
10350SOL     OW31948   3.057   6.985   5.473
10350SOL    HW131949   3.034   6.916   5.541
10350SOL    HW231950   3.048   0.047   5.514
10351SOL     OW31951   4.513   5.094   5.943
10351SOL    HW131952   4.504   5.002   5.904
10351SOL    HW231953   4.592   5.140   5.902
10352SOL     OW31954   3.645   2.464   5.903
10352SOL    HW131955   3.732   2.454   5.950
10352SOL    HW231956   3.616   2.376   5.866
10353SOL     OW31957   6.682   2.597   4.970
10353SOL    HW131958   6.678   2.697   4.963
10353SOL    HW231959   6.755   2.563   4.911
10354SOL     OW31960   5.285   1.379   2.252
10354SOL    HW131961   5.262   1.476   2.253
10354SOL    HW231962   5.268   1.339   2.342
10355SOL     OW31963   2.490   5.799   2.415
10355SOL    HW131964   2.551   5.766   2.343
10355SOL    HW231965   2.398   5.810   2.378
10356SOL     OW31966   0.175   3.875   5.338
10356SOL    HW131967   0.170   3.855   5.240
10356SOL    HW231968   0.083   3.873   5.377
10357SOL     OW31969   2.586   1.815   6.997
10357SOL    HW131970   2.557   1.757   0.044
10357SOL    HW231971   2.552   1.777   6.911
10358SOL     OW31972   0.014   1.582   1.830
10358SOL    HW131973   0.092   1.635   1.863
10358SOL    HW231974   6.968   1.587   1.897
10359SOL     OW31975   0.349   1.104   1.758
10359SOL    HW131976   0.347   1.019   1.810
10359SOL    HW231977   0.256   1.133   1.737
10360SOL     OW31978   5.643   6.381   3.407
10360SOL    HW131979   5.632   6.305   3.472
10360SOL    HW231980   5.729   6.428   3.425
10361SOL     OW31981   2.706   5.215   1.620
10361SOL    HW131982   2.657   5.262   1.694
10361SOL    HW231983   2.641   5.160   1.567
10362SOL     OW31984   2.040   4.502   4.689
10362SOL    HW131985   2.053   4.404   4.705
10362SOL    HW231986   1.942   4.524   4.695
10363SOL     OW31987   5.276   0.914   3.574
10363SOL    HW131988   5.358   0.872   3.613
10363SOL    HW231989   5.204   0.917   3.644
10364SOL     OW31990   1.982   4.583   1.616
10364SOL    HW131991   2.009   4.669   1.573
10364SOL    HW231992   2.039   4.509   1.581
10365SOL     OW31993   4.930   5.414   0.125
10365SOL    HW131994   4.916   5.442   0.219
10365SOL    HW231995   4.956   5.317   0.122
10366SOL     OW31996   3.538   6.603   3.114
10366SOL    HW131997   3.548   6.701   3.095
10366SOL    HW231998   3.442   6.577   3.107
10367SOL     OW31999   6.655   2.625   3.599
10367SOL    HW132000   6.683   2.600   3.506
10367SOL    HW232001   6.674   2.722   3.614
10368SOL     OW32002   2.272   0.962   1.629
10368SOL    HW132003   2.192   1.016   1.651
10368SOL    HW232004   2.298   0.906   1.708
10369SOL     OW32005   3.796   2.433   0.131
10369SOL    HW132006   3.774   2.503   0.200
10369SOL    HW232007   3.894   2.433   0.113
10370SOL     OW32008   3.814   0.796   5.633
10370SOL    HW132009   3.758   0.714   5.642
10370SOL    HW232010   3.900   0.773   5.587
10371SOL     OW32011   4.926   6.545   5.212
10371SOL    HW132012   4.894   6.451   5.203
10371SOL    HW232013   4.998   6.549   5.282
10372SOL     OW32014   1.695   0.860   3.614
10372SOL    HW132015   1.656   0.773   3.584
10372SOL    HW232016   1.775   0.882   3.559
10373SOL     OW32017   0.844   5.970   4.580
10373SOL    HW132018   0.844   6.031   4.660
10373SOL    HW232019   0.855   6.024   4.497
10374SOL     OW32020   2.804   2.241   2.934
10374SOL    HW132021   2.777   2.219   3.028
10374SOL    HW232022   2.882   2.304   2.935
10375SOL     OW32023   5.757   2.216   0.786
10375SOL    HW132024   5.687   2.234   0.855
10375SOL    HW232025   5.809   2.299   0.769
10376SOL     OW32026   0.718   0.998   3.837
10376SOL    HW132027   0.771   0.963   3.760
10376SOL    HW232028   0.658   1.072   3.806
10377SOL     OW32029   0.967   7.023   4.434
10377SOL    HW132030   1.064   7.000   4.445
10377SOL    HW232031   0.940   7.007   4.339
10378SOL     OW32032   0.133   7.011   6.587
10378SOL    HW132033   0.114   0.026   6.500
10378SOL    HW232034   0.101   6.916   6.584
10379SOL     OW32035   5.268   1.530   4.106
10379SOL    HW132036   5.309   1.619   4.127
10379SOL    HW232037   5.266   1.518   4.007
10380SOL     OW32038   5.077   0.321   2.214
10380SOL    HW132039   5.069   0.418   2.234
10380SOL    HW232040   5.172   0.300   2.189
10381SOL     OW32041   4.777   4.889   5.424
10381SOL    HW132042   4.798   4.863   5.330
10381SOL    HW232043   4.861   4.891   5.478
10382SOL     OW32044   2.524   5.231   0.344
10382SOL    HW132045   2.549   5.314   0.294
10382SOL    HW232046   2.580   5.224   0.426
10383SOL     OW32047   0.293   2.373   0.467
10383SOL    HW132048   0.281   2.472   0.470
10383SOL    HW232049   0.387   2.352   0.441
10384SOL     OW32050   6.106   0.048   0.101
10384SOL    HW132051   6.170   0.015   0.031
10384SOL    HW232052   6.013   0.045   0.064
10385SOL     OW32053   6.101   1.549   6.574
10385SOL    HW132054   6.083   1.471   6.513
10385SOL    HW232055   6.093   1.520   6.669
10386SOL     OW32056   6.133   2.685   5.864
10386SOL    HW132057   6.056   2.747   5.880
10386SOL    HW232058   6.200   2.695   5.938
10387SOL     OW32059   1.947   3.054   3.248
10387SOL    HW132060   1.850   3.077   3.259
10387SOL    HW232061   1.957   2.955   3.243
10388SOL     OW32062   1.774   4.725   2.886
10388SOL    HW132063   1.746   4.807   2.935
10388SOL    HW232064   1.831   4.668   2.947
10389SOL     OW32065   0.650   5.027   3.205
10389SOL    HW132066   0.642   4.934   3.241
10389SOL    HW232067   0.610   5.091   3.270
10390SOL     OW32068   1.271   3.144   3.893
10390SOL    HW132069   1.346   3.117   3.953
10390SOL    HW232070   1.279   3.241   3.870
10391SOL     OW32071   2.457   6.652   6.223
10391SOL    HW132072   2.371   6.661   6.174
10391SOL    HW232073   2.439   6.649   6.322
10392SOL     OW32074   6.610   5.404   0.197
10392SOL    HW132075   6.537   5.364   0.141
10392SOL    HW232076   6.636   5.492   0.158
10393SOL     OW32077   1.326   1.366   3.937
10393SOL    HW132078   1.381   1.438   3.894
10393SOL    HW232079   1.317   1.289   3.874
10394SOL     OW32080   1.997   6.409   0.035
10394SOL    HW132081   2.019   6.490   0.090
10394SOL    HW232082   1.904   6.416   7.028
10395SOL     OW32083   0.566   1.241   4.769
10395SOL    HW132084   0.552   1.196   4.681
10395SOL    HW232085   0.483   1.236   4.823
10396SOL     OW32086   0.360   0.188   5.136
10396SOL    HW132087   0.302   0.140   5.069
10396SOL    HW232088   0.365   0.134   5.220
10397SOL     OW32089   3.863   1.612   2.763
10397SOL    HW132090   3.931   1.539   2.771
10397SOL    HW232091   3.772   1.571   2.761
10398SOL     OW32092   6.822   2.568   2.322
10398SOL    HW132093   6.849   2.655   2.278
10398SOL    HW232094   6.904   2.522   2.357
10399SOL     OW32095   5.890   1.638   5.490
10399SOL    HW132096   5.924   1.699   5.418
10399SOL    HW232097   5.810   1.679   5.534
10400SOL     OW32098   2.369   4.635   1.478
10400SOL    HW132099   2.417   4.693   1.543
10400SOL    HW232100   2.433   4.570   1.437
10401SOL     OW32101   0.264   6.363   1.241
10401SOL    HW132102   0.277   6.286   1.303
10401SOL    HW232103   0.166   6.375   1.223
10402SOL     OW32104   0.507   3.126   4.171
10402SOL    HW132105   0.483   3.030   4.187
10402SOL    HW232106   0.606   3.134   4.161
10403SOL     OW32107   5.173   1.218   2.075
10403SOL    HW132108   5.169   1.124   2.109
10403SOL    HW232109   5.202   1.279   2.149
10404SOL     OW32110   0.710   6.224   3.802
10404SOL    HW132111   0.757   6.281   3.869
10404SOL    HW232112   0.648   6.161   3.849
10405SOL     OW32113   1.629   6.523   6.221
10405SOL    HW132114   1.566   6.583   6.172
10405SOL    HW232115   1.716   6.518   6.172
10406SOL     OW32116   2.707   4.885   6.143
10406SOL    HW132117   2.781   4.916   6.083
10406SOL    HW232118   2.671   4.798   6.109
10407SOL     OW32119   1.079   1.201   6.971
10407SOL    HW132120   1.038   1.249   0.019
10407SOL    HW232121   1.139   1.129   7.006
10408SOL     OW32122   4.298   5.191   3.452
10408SOL    HW132123   4.326   5.227   3.363
10408SOL    HW232124   4.249   5.105   3.439
10409SOL     OW32125   6.179   5.065   2.529
10409SOL    HW132126   6.134   5.149   2.560
10409SOL    HW232127   6.152   4.989   2.588
10410SOL     OW32128   5.985   6.874   0.792
10410SOL    HW132129   5.956   6.937   0.864
10410SOL    HW232130   6.063   6.820   0.825
10411SOL     OW32131   2.030   4.229   2.497
10411SOL    HW132132   2.021   4.302   2.429
10411SOL    HW232133   2.125   4.222   2.527
10412SOL     OW32134   0.837   2.366   0.006
10412SOL    HW132135   0.902   2.312   6.982
10412SOL    HW232136   0.775   2.305   0.055
10413SOL     OW32137   0.465   1.888   6.569
10413SOL    HW132138   0.423   1.935   6.646
10413SOL    HW232139   0.396   1.864   6.502
10414SOL     OW32140   5.500   6.855   5.243
10414SOL    HW132141   5.453   6.943   5.242
10414SOL    HW232142   5.597   6.870   5.260
10415SOL     OW32143   0.859   5.398   3.315
10415SOL    HW132144   0.905   5.478   3.353
10415SOL    HW232145   0.873   5.396   3.216
10416SOL     OW32146   5.125   0.554   6.469
10416SOL    HW132147   5.185   0.614   6.417
10416SOL    HW232148   5.030   0.586   6.461
10417SOL     OW32149   3.730   5.102   4.544
10417SOL    HW132150   3.778   5.049   4.474
10417SOL    HW232151   3.713   5.194   4.510
10418SOL     OW32152   6.406   3.801   6.352
10418SOL    HW132153   6.314   3.838   6.336
10418SOL    HW232154   6.433   3.745   6.274
10419SOL     OW32155   2.715   1.581   4.314
10419SOL    HW132156   2.646   1.509   4.303
10419SOL    HW232157   2.687   1.642   4.388
10420SOL     OW32158   5.585   3.665   3.337
10420SOL    HW132159   5.570   3.690   3.432
10420SOL    HW232160   5.581   3.566   3.326
10421SOL     OW32161   0.710   4.801   3.827
10421SOL    HW132162   0.669   4.773   3.740
10421SOL    HW232163   0.699   4.900   3.838
10422SOL     OW32164   6.543   3.664   5.332
10422SOL    HW132165   6.521   3.756   5.364
10422SOL    HW232166   6.533   3.660   5.232
10423SOL     OW32167   2.426   5.107   3.989
10423SOL    HW132168   2.416   5.011   3.962
10423SOL    HW232169   2.338   5.153   3.980
10424SOL     OW32170   3.286   1.077   0.380
10424SOL    HW132171   3.315   1.077   0.476
10424SOL    HW232172   3.311   0.991   0.337
10425SOL     OW32173   1.397   2.606   0.834
10425SOL    HW132174   1.388   2.652   0.746
10425SOL    HW232175   1.477   2.547   0.834
10426SOL     OW32176   6.483   1.847   6.425
10426SOL    HW132177   6.424   1.901   6.365
10426SOL    HW232178   6.528   1.908   6.490
10427SOL     OW32179   5.492   0.818   4.321
10427SOL    HW132180   5.553   0.762   4.376
10427SOL    HW232181   5.429   0.868   4.381
10428SOL     OW32182   2.452   0.413   4.335
10428SOL    HW132183   2.483   0.332   4.386
10428SOL    HW232184   2.527   0.479   4.329
10429SOL     OW32185   1.138   2.792   1.259
10429SOL    HW132186   1.215   2.816   1.200
10429SOL    HW232187   1.172   2.772   1.351
10430SOL     OW32188   2.918   0.068   3.716
10430SOL    HW132189   2.974   7.026   3.674
10430SOL    HW232190   2.943   0.158   3.678
10431SOL     OW32191   4.252   0.355   3.017
10431SOL    HW132192   4.206   0.291   2.956
10431SOL    HW232193   4.185   0.415   3.061
10432SOL     OW32194   0.457   5.512   6.459
10432SOL    HW132195   0.506   5.569   6.394
10432SOL    HW232196   0.507   5.427   6.474
10433SOL     OW32197   2.867   0.029   2.963
10433SOL    HW132198   2.965   0.034   2.983
10433SOL    HW232199   2.815   0.029   3.049
10434SOL     OW32200   5.286   0.840   5.733
10434SOL    HW132201   5.274   0.931   5.694
10434SOL    HW232202   5.381   0.825   5.757
10435SOL     OW32203   2.351   1.913   0.288
10435SOL    HW132204   2.342   1.919   0.188
10435SOL    HW232205   2.280   1.969   0.330
10436SOL     OW32206   6.869   3.584   5.057
10436SOL    HW132207   6.902   3.663   5.006
10436SOL    HW232208   6.928   3.505   5.040
10437SOL     OW32209   5.689   6.640   4.613
10437SOL    HW132210   5.763   6.697   4.649
10437SOL    HW232211   5.621   6.626   4.685
10438SOL     OW32212   6.890   5.766   6.744
10438SOL    HW132213   6.953   5.810   6.679
10438SOL    HW232214   6.941   5.704   6.802
10439SOL     OW32215   6.482   5.938   4.594
10439SOL    HW132216   6.582   5.941   4.593
10439SOL    HW232217   6.448   5.988   4.674
10440SOL     OW32218   6.168   2.720   0.926
10440SOL    HW132219   6.202   2.796   0.870
10440SOL    HW232220   6.235   2.645   0.924
10441SOL     OW32221   4.473   1.805   6.779
10441SOL    HW132222   4.539   1.769   6.845
10441SOL    HW232223   4.412   1.870   6.825
10442SOL     OW32224   1.854   1.437   4.967
10442SOL    HW132225   1.870   1.519   4.912
10442SOL    HW232226   1.763   1.400   4.947
10443SOL     OW32227   0.454   1.494   1.281
10443SOL    HW132228   0.497   1.405   1.270
10443SOL    HW232229   0.522   1.566   1.262
10444SOL     OW32230   3.994   5.071   4.638
10444SOL    HW132231   4.022   5.166   4.648
10444SOL    HW232232   3.896   5.066   4.619
10445SOL     OW32233   0.787   3.577   3.262
10445SOL    HW132234   0.753   3.632   3.339
10445SOL    HW232235   0.828   3.493   3.297
10446SOL     OW32236   2.587   4.568   5.497
10446SOL    HW132237   2.523   4.525   5.561
10446SOL    HW232238   2.606   4.505   5.422
10447SOL     OW32239   0.267   2.379   2.368
10447SOL    HW132240   0.355   2.378   2.416
10447SOL    HW232241   0.276   2.331   2.281
10448SOL     OW32242   2.054   6.572   1.545
10448SOL    HW132243   2.115   6.633   1.597
10448SOL    HW232244   2.011   6.507   1.608
10449SOL     OW32245   3.788   5.023   4.969
10449SOL    HW132246   3.775   4.958   5.043
10449SOL    HW232247   3.735   4.994   4.889
10450SOL     OW32248   6.738   0.386   5.409
10450SOL    HW132249   6.828   0.380   5.368
10450SOL    HW232250   6.673   0.424   5.343
10451SOL     OW32251   3.374   1.331   3.455
10451SOL    HW132252   3.364   1.408   3.518
10451SOL    HW232253   3.284   1.302   3.424
10452SOL     OW32254   6.142   2.639   4.654
10452SOL    HW132255   6.103   2.589   4.577
10452SOL    HW232256   6.132   2.585   4.737
10453SOL     OW32257   4.536   6.224   4.014
10453SOL    HW132258   4.475   6.219   3.934
10453SOL    HW232259   4.618   6.169   3.996
10454SOL     OW32260   6.559   1.334   6.328
10454SOL    HW132261   6.570   1.416   6.384
10454SOL    HW232262   6.471   1.336   6.281
10455SOL     OW32263   0.121   5.447   3.236
10455SOL    HW132264   0.086   5.356   3.256
10455SOL    HW232265   0.085   5.479   3.149
10456SOL     OW32266   1.253   5.227   6.576
10456SOL    HW132267   1.217   5.138   6.550
10456SOL    HW232268   1.178   5.293   6.582
10457SOL     OW32269   3.655   2.548   6.913
10457SOL    HW132270   3.712   2.491   6.972
10457SOL    HW232271   3.713   2.604   6.853
10458SOL     OW32272   0.258   6.019   6.985
10458SOL    HW132273   0.170   6.048   7.022
10458SOL    HW232274   0.251   5.926   6.949
10459SOL     OW32275   6.155   5.181   1.419
10459SOL    HW132276   6.248   5.207   1.392
10459SOL    HW232277   6.089   5.226   1.358
10460SOL     OW32278   0.033   0.658   0.861
10460SOL    HW132279   0.008   0.588   0.795
10460SOL    HW232280   6.999   0.735   0.854
10461SOL     OW32281   0.122   4.930   6.411
10461SOL    HW132282   0.100   4.832   6.417
10461SOL    HW232283   0.081   4.978   6.489
10462SOL     OW32284   4.187   2.216   6.289
10462SOL    HW132285   4.114   2.174   6.342
10462SOL    HW232286   4.164   2.312   6.271
10463SOL     OW32287   4.830   1.979   6.558
10463SOL    HW132288   4.731   1.971   6.547
10463SOL    HW232289   4.865   2.047   6.494
10464SOL     OW32290   6.498   5.004   2.314
10464SOL    HW132291   6.525   4.988   2.219
10464SOL    HW232292   6.401   5.029   2.318
10465SOL     OW32293   5.247   4.292   1.351
10465SOL    HW132294   5.322   4.226   1.352
10465SOL    HW232295   5.285   4.385   1.357
10466SOL     OW32296   6.355   4.333   5.859
10466SOL    HW132297   6.307   4.412   5.820
10466SOL    HW232298   6.453   4.352   5.864
10467SOL     OW32299   0.933   3.336   0.294
10467SOL    HW132300   0.921   3.375   0.385
10467SOL    HW232301   1.021   3.365   0.256
10468SOL     OW32302   1.880   4.606   3.643
10468SOL    HW132303   1.947   4.579   3.712
10468SOL    HW232304   1.903   4.562   3.556
10469SOL     OW32305   0.264   1.569   4.075
10469SOL    HW132306   0.185   1.557   4.015
10469SOL    HW232307   0.232   1.582   4.169
10470SOL     OW32308   2.096   3.342   2.912
10470SOL    HW132309   2.026   3.287   2.867
10470SOL    HW232310   2.140   3.287   2.983
10471SOL     OW32311   2.737   6.370   6.545
10471SOL    HW132312   2.767   6.295   6.487
10471SOL    HW232313   2.637   6.369   6.553
10472SOL     OW32314   4.055   4.926   6.756
10472SOL    HW132315   4.102   4.985   6.821
10472SOL    HW232316   4.015   4.981   6.682
10473SOL     OW32317   5.786   4.624   0.801
10473SOL    HW132318   5.877   4.614   0.761
10473SOL    HW232319   5.786   4.584   0.893
10474SOL     OW32320   5.632   0.916   4.996
10474SOL    HW132321   5.595   0.875   5.079
10474SOL    HW232322   5.731   0.920   5.002
10475SOL     OW32323   1.523   5.652   1.406
10475SOL    HW132324   1.468   5.571   1.427
10475SOL    HW232325   1.604   5.654   1.465
10476SOL     OW32326   4.868   6.498   0.648
10476SOL    HW132327   4.920   6.583   0.658
10476SOL    HW232328   4.903   6.447   0.570
10477SOL     OW32329   0.088   5.651   3.832
10477SOL    HW132330   0.127   5.559   3.830
10477SOL    HW232331   0.099   5.694   3.743
10478SOL     OW32332   6.969   1.041   6.742
10478SOL    HW132333   6.943   0.951   6.776
10478SOL    HW232334   6.998   1.099   6.818
10479SOL     OW32335   0.666   2.693   1.961
10479SOL    HW132336   0.689   2.596   1.956
10479SOL    HW232337   0.630   2.724   1.873
10480SOL     OW32338   2.629   0.039   3.169
10480SOL    HW132339   2.605   0.074   3.078
10480SOL    HW232340   2.555   7.009   3.202
10481SOL     OW32341   6.963   0.870   2.202
10481SOL    HW132342   6.898   0.922   2.146
10481SOL    HW232343   0.015   0.926   2.219
10482SOL     OW32344   5.322   3.409   4.079
10482SOL    HW132345   5.334   3.465   3.996
10482SOL    HW232346   5.393   3.433   4.145
10483SOL     OW32347   6.423   6.341   0.088
10483SOL    HW132348   6.335   6.387   0.072
10483SOL    HW232349   6.480   6.398   0.147
10484SOL     OW32350   6.437   1.117   2.878
10484SOL    HW132351   6.401   1.051   2.813
10484SOL    HW232352   6.513   1.168   2.836
10485SOL     OW32353   5.337   3.893   5.533
10485SOL    HW132354   5.260   3.923   5.589
10485SOL    HW232355   5.420   3.888   5.590
10486SOL     OW32356   5.212   2.975   2.238
10486SOL    HW132357   5.269   3.058   2.241
10486SOL    HW232358   5.230   2.926   2.152
10487SOL     OW32359   5.770   6.534   1.429
10487SOL    HW132360   5.841   6.463   1.426
10487SOL    HW232361   5.681   6.492   1.410
10488SOL     OW32362   2.547   2.530   0.038
10488SOL    HW132363   2.482   2.556   0.110
10488SOL    HW232364   2.562   2.431   0.040
10489SOL     OW32365   1.203   5.672   5.978
10489SOL    HW132366   1.140   5.727   6.033
10489SOL    HW232367   1.235   5.726   5.900
10490SOL     OW32368   0.101   0.436   3.981
10490SOL    HW132369   0.013   0.467   3.943
10490SOL    HW232370   0.097   0.440   4.081
10491SOL     OW32371   0.831   4.229   5.813
10491SOL    HW132372   0.830   4.241   5.714
10491SOL    HW232373   0.793   4.310   5.857
10492SOL     OW32374   4.111   3.743   5.614
10492SOL    HW132375   4.193   3.707   5.567
10492SOL    HW232376   4.061   3.667   5.655
10493SOL     OW32377   3.291   0.704   1.195
10493SOL    HW132378   3.192   0.695   1.182
10493SOL    HW232379   3.338   0.626   1.153
10494SOL     OW32380   5.671   2.284   4.126
10494SOL    HW132381   5.605   2.212   4.102
10494SOL    HW232382   5.755   2.241   4.160
10495SOL     OW32383   1.452   6.720   7.022
10495SOL    HW132384   1.465   6.783   6.945
10495SOL    HW232385   1.422   6.632   6.988
10496SOL     OW32386   6.567   0.148   5.404
10496SOL    HW132387   6.645   0.211   5.407
10496SOL    HW232388   6.490   0.187   5.455
10497SOL     OW32389   1.210   0.983   1.097
10497SOL    HW132390   1.117   1.016   1.083
10497SOL    HW232391   1.266   1.056   1.137
10498SOL     OW32392   3.032   5.561   6.016
10498SOL    HW132393   2.960   5.528   6.078
10498SOL    HW232394   3.073   5.482   5.969
10499SOL     OW32395   3.707   5.513   3.421
10499SOL    HW132396   3.803   5.486   3.419
10499SOL    HW232397   3.686   5.554   3.510
10500SOL     OW32398   1.434   2.008   6.204
10500SOL    HW132399   1.376   1.933   6.173
10500SOL    HW232400   1.456   2.068   6.127
10501SOL     OW32401   1.592   2.988   3.011
10501SOL    HW132402   1.650   2.907   3.009
10501SOL    HW232403   1.605   3.037   3.097
10502SOL     OW32404   3.074   6.446   6.342
10502SOL    HW132405   3.034   6.357   6.318
10502SOL    HW232406   3.078   6.455   6.441
10503SOL     OW32407   2.426   3.343   6.223
10503SOL    HW132408   2.399   3.248   6.243
10503SOL    HW232409   2.490   3.343   6.146
10504SOL     OW32410   2.855   3.187   0.760
10504SOL    HW132411   2.853   3.233   0.849
10504SOL    HW232412   2.950   3.169   0.735
10505SOL     OW32413   0.017   6.406   1.178
10505SOL    HW132414   7.002   6.489   1.214
10505SOL    HW232415   7.005   6.382   1.090
10506SOL     OW32416   0.840   4.240   5.519
10506SOL    HW132417   0.920   4.203   5.473
10506SOL    HW232418   0.769   4.262   5.452
10507SOL     OW32419   0.961   0.092   5.076
10507SOL    HW132420   0.952   0.192   5.075
10507SOL    HW232421   0.873   0.051   5.101
10508SOL     OW32422   5.140   4.532   2.966
10508SOL    HW132423   5.234   4.562   2.957
10508SOL    HW232424   5.092   4.590   3.032
10509SOL     OW32425   1.741   0.160   5.805
10509SOL    HW132426   1.728   0.245   5.857
10509SOL    HW232427   1.664   0.147   5.743
10510SOL     OW32428   6.649   5.858   0.170
10510SOL    HW132429   6.584   5.930   0.193
10510SOL    HW232430   6.711   5.891   0.098
10511SOL     OW32431   5.425   2.694   0.015
10511SOL    HW132432   5.462   2.639   0.090
10511SOL    HW232433   5.423   2.639   6.960
10512SOL     OW32434   3.396   6.549   6.657
10512SOL    HW132435   3.441   6.490   6.590
10512SOL    HW232436   3.464   6.584   6.722
10513SOL     OW32437   6.593   2.072   0.083
10513SOL    HW132438   6.496   2.065   0.104
10513SOL    HW232439   6.626   1.986   0.044
10514SOL     OW32440   0.261   4.278   1.650
10514SOL    HW132441   0.298   4.333   1.725
10514SOL    HW232442   0.184   4.327   1.608
10515SOL     OW32443   6.461   2.186   4.648
10515SOL    HW132444   6.493   2.221   4.736
10515SOL    HW232445   6.412   2.258   4.599
10516SOL     OW32446   4.228   0.635   6.470
10516SOL    HW132447   4.131   0.628   6.449
10516SOL    HW232448   4.271   0.700   6.407
10517SOL     OW32449   0.425   1.694   3.057
10517SOL    HW132450   0.475   1.723   3.139
10517SOL    HW232451   0.327   1.706   3.073
10518SOL     OW32452   0.708   6.547   1.268
10518SOL    HW132453   0.652   6.575   1.346
10518SOL    HW232454   0.656   6.561   1.183
10519SOL     OW32455   2.812   3.438   5.494
10519SOL    HW132456   2.893   3.465   5.442
10519SOL    HW232457   2.821   3.469   5.588
10520SOL     OW32458   4.022   2.737   6.327
10520SOL    HW132459   3.936   2.754   6.279
10520SOL    HW232460   4.094   2.792   6.285
10521SOL     OW32461   6.575   5.686   1.517
10521SOL    HW132462   6.492   5.631   1.526
10521SOL    HW232463   6.559   5.777   1.553
10522SOL     OW32464   6.060   0.310   2.199
10522SOL    HW132465   6.114   0.333   2.280
10522SOL    HW232466   5.965   0.339   2.212
10523SOL     OW32467   0.268   5.743   6.878
10523SOL    HW132468   0.331   5.725   6.803
10523SOL    HW232469   0.183   5.692   6.864
10524SOL     OW32470   3.314   0.909   4.226
10524SOL    HW132471   3.375   0.932   4.150
10524SOL    HW232472   3.333   0.815   4.256
10525SOL     OW32473   2.920   6.233   4.594
10525SOL    HW132474   2.854   6.300   4.560
10525SOL    HW232475   2.892   6.142   4.565
10526SOL     OW32476   5.694   6.573   2.615
10526SOL    HW132477   5.632   6.530   2.681
10526SOL    HW232478   5.780   6.596   2.661
10527SOL     OW32479   1.287   2.633   5.019
10527SOL    HW132480   1.354   2.565   4.988
10527SOL    HW232481   1.311   2.722   4.982
10528SOL     OW32482   6.495   4.816   5.048
10528SOL    HW132483   6.498   4.767   4.961
10528SOL    HW232484   6.405   4.804   5.089
10529SOL     OW32485   6.354   6.179   3.686
10529SOL    HW132486   6.374   6.277   3.678
10529SOL    HW232487   6.314   6.161   3.776
10530SOL     OW32488   1.858   1.591   5.972
10530SOL    HW132489   1.820   1.663   6.030
10530SOL    HW232490   1.946   1.620   5.935
10531SOL     OW32491   2.045   2.685   5.175
10531SOL    HW132492   2.099   2.750   5.229
10531SOL    HW232493   2.087   2.594   5.181
10532SOL     OW32494   3.376   2.633   5.656
10532SOL    HW132495   3.323   2.688   5.591
10532SOL    HW232496   3.341   2.648   5.748
10533SOL     OW32497   2.620   1.256   6.263
10533SOL    HW132498   2.522   1.266   6.243
10533SOL    HW232499   2.631   1.196   6.342
10534SOL     OW32500   6.102   5.470   0.969
10534SOL    HW132501   6.138   5.564   0.973
10534SOL    HW232502   6.039   5.462   0.892
10535SOL     OW32503   0.174   0.978   2.269
10535SOL    HW132504   0.249   1.042   2.254
10535SOL    HW232505   0.211   0.889   2.296
10536SOL     OW32506   4.517   0.331   3.005
10536SOL    HW132507   4.541   0.286   3.091
10536SOL    HW232508   4.423   0.308   2.980
10537SOL     OW32509   0.679   4.700   1.555
10537SOL    HW132510   0.680   4.603   1.580
10537SOL    HW232511   0.773   4.735   1.556
10538SOL     OW32512   5.438   3.625   0.222
10538SOL    HW132513   5.427   3.584   0.132
10538SOL    HW232514   5.457   3.723   0.214
10539SOL     OW32515   0.387   2.909   5.703
10539SOL    HW132516   0.439   2.919   5.788
10539SOL    HW232517   0.450   2.895   5.626
10540SOL     OW32518   2.646   0.570   6.807
10540SOL    HW132519   2.640   0.647   6.744
10540SOL    HW232520   2.739   0.563   6.843
10541SOL     OW32521   3.711   2.568   0.435
10541SOL    HW132522   3.704   2.666   0.451
10541SOL    HW232523   3.630   2.536   0.386
10542SOL     OW32524   0.661   2.545   0.290
10542SOL    HW132525   0.581   2.585   0.244
10542SOL    HW232526   0.630   2.483   0.362
10543SOL     OW32527   1.999   1.227   5.665
10543SOL    HW132528   1.909   1.250   5.627
10543SOL    HW232529   2.054   1.310   5.671
10544SOL     OW32530   0.897   2.397   1.969
10544SOL    HW132531   0.808   2.358   1.944
10544SOL    HW232532   0.899   2.414   2.068
10545SOL     OW32533   5.650   0.019   2.349
10545SOL    HW132534   5.732   0.031   2.292
10545SOL    HW232535   5.677   7.029   2.443
10546SOL     OW32536   3.039   0.974   4.097
10546SOL    HW132537   3.042   0.955   3.998
10546SOL    HW232538   3.107   0.917   4.143
10547SOL     OW32539   4.186   1.360   1.066
10547SOL    HW132540   4.094   1.391   1.090
10547SOL    HW232541   4.205   1.274   1.113
10548SOL     OW32542   4.868   4.016   4.785
10548SOL    HW132543   4.840   4.027   4.880
10548SOL    HW232544   4.905   3.924   4.772
10549SOL     OW32545   1.354   1.087   1.886
10549SOL    HW132546   1.307   1.016   1.938
10549SOL    HW232547   1.290   1.162   1.867
10550SOL     OW32548   4.931   0.362   4.445
10550SOL    HW132549   5.028   0.368   4.421
10550SOL    HW232550   4.891   0.453   4.447
10551SOL     OW32551   1.276   2.715   5.768
10551SOL    HW132552   1.361   2.673   5.798
10551SOL    HW232553   1.284   2.815   5.774
10552SOL     OW32554   2.951   2.237   5.293
10552SOL    HW132555   2.878   2.263   5.230
10552SOL    HW232556   3.035   2.287   5.270
10553SOL     OW32557   2.971   4.690   6.860
10553SOL    HW132558   3.024   4.647   6.787
10553SOL    HW232559   2.913   4.622   6.905
10554SOL     OW32560   6.681   4.482   6.088
10554SOL    HW132561   6.663   4.430   6.005
10554SOL    HW232562   6.629   4.568   6.085
10555SOL     OW32563   3.118   2.142   1.170
10555SOL    HW132564   3.044   2.194   1.128
10555SOL    HW232565   3.092   2.116   1.263
10556SOL     OW32566   2.065   3.159   4.709
10556SOL    HW132567   1.989   3.139   4.648
10556SOL    HW232568   2.134   3.088   4.702
10557SOL     OW32569   6.401   2.889   3.701
10557SOL    HW132570   6.371   2.883   3.796
10557SOL    HW232571   6.407   2.796   3.663
10558SOL     OW32572   5.328   6.350   4.945
10558SOL    HW132573   5.347   6.431   5.001
10558SOL    HW232574   5.231   6.347   4.922
10559SOL     OW32575   4.178   2.390   0.237
10559SOL    HW132576   4.180   2.442   0.322
10559SOL    HW232577   4.150   2.296   0.255
10560SOL     OW32578   0.448   2.882   4.303
10560SOL    HW132579   0.385   2.806   4.288
10560SOL    HW232580   0.414   2.939   4.378
10561SOL     OW32581   2.417   4.098   6.928
10561SOL    HW132582   2.482   4.079   7.002
10561SOL    HW232583   2.442   4.044   6.847
10562SOL     OW32584   3.471   0.973   0.175
10562SOL    HW132585   3.497   0.885   0.134
10562SOL    HW232586   3.503   0.977   0.270
10563SOL     OW32587   1.542   1.413   4.464
10563SOL    HW132588   1.564   1.505   4.494
10563SOL    HW232589   1.604   1.387   4.390
10564SOL     OW32590   6.350   1.879   1.871
10564SOL    HW132591   6.264   1.911   1.830
10564SOL    HW232592   6.336   1.863   1.969
10565SOL     OW32593   5.669   1.912   4.952
10565SOL    HW132594   5.674   1.812   4.960
10565SOL    HW232595   5.596   1.937   4.889
10566SOL     OW32596   3.981   4.482   6.665
10566SOL    HW132597   3.944   4.536   6.589
10566SOL    HW232598   3.953   4.387   6.655
10567SOL     OW32599   1.846   4.818   4.079
10567SOL    HW132600   1.832   4.726   4.116
10567SOL    HW232601   1.882   4.878   4.151
10568SOL     OW32602   4.114   1.270   3.390
10568SOL    HW132603   4.198   1.220   3.366
10568SOL    HW232604   4.110   1.282   3.489
10569SOL     OW32605   6.067   3.137   4.063
10569SOL    HW132606   6.047   3.106   4.156
10569SOL    HW232607   6.081   3.236   4.063
10570SOL     OW32608   1.618   4.524   2.724
10570SOL    HW132609   1.655   4.472   2.647
10570SOL    HW232610   1.600   4.462   2.800
10571SOL     OW32611   6.029   6.832   3.836
10571SOL    HW132612   6.106   6.830   3.773
10571SOL    HW232613   6.017   6.925   3.871
10572SOL     OW32614   6.208   3.557   2.042
10572SOL    HW132615   6.225   3.600   2.130
10572SOL    HW232616   6.295   3.547   1.992
10573SOL     OW32617   5.984   4.819   5.772
10573SOL    HW132618   5.912   4.883   5.798
10573SOL    HW232619   5.961   4.776   5.685
10574SOL     OW32620   0.535   1.918   2.949
10574SOL    HW132621   0.492   1.846   3.003
10574SOL    HW232622   0.559   1.995   3.009
10575SOL     OW32623   0.852   6.863   5.653
10575SOL    HW132624   0.762   6.823   5.670
10575SOL    HW232625   0.864   6.877   5.554
10576SOL     OW32626   1.819   5.181   3.423
10576SOL    HW132627   1.799   5.090   3.388
10576SOL    HW232628   1.844   5.176   3.519
10577SOL     OW32629   1.314   2.046   5.359
10577SOL    HW132630   1.268   2.127   5.322
10577SOL    HW232631   1.411   2.066   5.374
10578SOL     OW32632   6.614   0.630   5.808
10578SOL    HW132633   6.662   0.617   5.894
10578SOL    HW232634   6.576   0.722   5.804
10579SOL     OW32635   4.320   1.831   0.154
10579SOL    HW132636   4.292   1.893   0.227
10579SOL    HW232637   4.418   1.813   0.162
10580SOL     OW32638   6.436   6.100   0.210
10580SOL    HW132639   6.398   6.020   0.163
10580SOL    HW232640   6.394   6.183   0.174
10581SOL     OW32641   5.167   1.122   3.422
10581SOL    HW132642   5.105   1.159   3.491
10581SOL    HW232643   5.244   1.077   3.466
10582SOL     OW32644   3.719   4.646   6.901
10582SOL    HW132645   3.706   4.745   6.915
10582SOL    HW232646   3.668   4.596   6.970
10583SOL     OW32647   4.508   1.739   0.682
10583SOL    HW132648   4.520   1.832   0.647
10583SOL    HW232649   4.412   1.725   0.706
10584SOL     OW32650   5.869   0.133   1.788
10584SOL    HW132651   5.801   0.205   1.778
10584SOL    HW232652   5.956   0.164   1.749
10585SOL     OW32653   1.394   3.743   6.644
10585SOL    HW132654   1.443   3.829   6.656
10585SOL    HW232655   1.297   3.762   6.627
10586SOL     OW32656   3.959   0.605   6.749
10586SOL    HW132657   3.994   0.644   6.835
10586SOL    HW232658   4.003   0.651   6.672
10587SOL     OW32659   6.421   4.040   1.190
10587SOL    HW132660   6.393   3.958   1.141
10587SOL    HW232661   6.492   4.088   1.138
10588SOL     OW32662   6.828   5.548   2.710
10588SOL    HW132663   6.916   5.506   2.729
10588SOL    HW232664   6.775   5.554   2.795
10589SOL     OW32665   6.172   1.649   4.049
10589SOL    HW132666   6.191   1.671   4.145
10589SOL    HW232667   6.259   1.636   4.000
10590SOL     OW32668   1.211   0.614   3.979
10590SOL    HW132669   1.181   0.650   4.068
10590SOL    HW232670   1.141   0.553   3.942
10591SOL     OW32671   1.179   2.935   0.721
10591SOL    HW132672   1.252   2.877   0.686
10591SOL    HW232673   1.168   3.014   0.661
10592SOL     OW32674   6.734   1.405   6.988
10592SOL    HW132675   6.810   1.413   0.023
10592SOL    HW232676   6.708   1.309   6.977
10593SOL     OW32677   1.827   5.206   1.010
10593SOL    HW132678   1.793   5.144   0.939
10593SOL    HW232679   1.785   5.296   0.998
10594SOL     OW32680   0.677   2.061   4.498
10594SOL    HW132681   0.772   2.039   4.478
10594SOL    HW232682   0.663   2.160   4.491
10595SOL     OW32683   3.449   6.059   6.067
10595SOL    HW132684   3.519   5.989   6.077
10595SOL    HW232685   3.385   6.054   6.143
10596SOL     OW32686   3.581   1.027   1.393
10596SOL    HW132687   3.568   0.949   1.456
10596SOL    HW232688   3.678   1.038   1.374
10597SOL     OW32689   1.478   0.168   4.561
10597SOL    HW132690   1.525   0.142   4.476
10597SOL    HW232691   1.505   0.262   4.585
10598SOL     OW32692   1.653   2.182   0.122
10598SOL    HW132693   1.689   2.195   0.215
10598SOL    HW232694   1.639   2.272   0.080
10599SOL     OW32695   5.010   1.386   6.798
10599SOL    HW132696   4.979   1.314   6.736
10599SOL    HW232697   5.107   1.371   6.820
10600SOL     OW32698   2.204   3.102   6.482
10600SOL    HW132699   2.137   3.029   6.471
10600SOL    HW232700   2.288   3.078   6.433
10601SOL     OW32701   2.950   6.808   6.023
10601SOL    HW132702   2.935   6.731   6.085
10601SOL    HW232703   3.017   6.870   6.063
10602SOL     OW32704   4.580   1.187   1.891
10602SOL    HW132705   4.635   1.244   1.831
10602SOL    HW232706   4.640   1.142   1.958
10603SOL     OW32707   1.715   5.453   4.804
10603SOL    HW132708   1.760   5.480   4.719
10603SOL    HW232709   1.617   5.472   4.797
10604SOL     OW32710   0.053   4.293   5.154
10604SOL    HW132711   0.141   4.281   5.199
10604SOL    HW232712   0.067   4.307   5.056
10605SOL     OW32713   1.949   4.983   6.683
10605SOL    HW132714   1.955   5.066   6.739
10605SOL    HW232715   1.867   4.933   6.707
10606SOL     OW32716   0.657   0.686   2.776
10606SOL    HW132717   0.700   0.659   2.862
10606SOL    HW232718   0.632   0.604   2.724
10607SOL     OW32719   5.352   4.957   0.222
10607SOL    HW132720   5.270   4.921   0.178
10607SOL    HW232721   5.329   5.043   0.269
10608SOL     OW32722   6.093   1.713   3.430
10608SOL    HW132723   6.107   1.775   3.506
10608SOL    HW232724   5.999   1.721   3.396
10609SOL     OW32725   3.997   6.499   1.600
10609SOL    HW132726   3.905   6.485   1.564
10609SOL    HW232727   3.994   6.571   1.670
10610SOL     OW32728   1.579   3.044   5.624
10610SOL    HW132729   1.490   3.058   5.668
10610SOL    HW232730   1.649   3.098   5.672
10611SOL     OW32731   5.366   2.570   6.330
10611SOL    HW132732   5.419   2.535   6.407
10611SOL    HW232733   5.427   2.615   6.265
10612SOL     OW32734   1.781   6.830   0.507
10612SOL    HW132735   1.695   6.796   0.470
10612SOL    HW232736   1.787   6.929   0.495
10613SOL     OW32737   0.601   6.670   6.124
10613SOL    HW132738   0.553   6.755   6.147
10613SOL    HW232739   0.676   6.691   6.060
10614SOL     OW32740   6.508   0.987   4.556
10614SOL    HW132741   6.556   0.982   4.469
10614SOL    HW232742   6.444   0.910   4.564
10615SOL     OW32743   6.175   5.840   5.581
10615SOL    HW132744   6.190   5.924   5.635
10615SOL    HW232745   6.175   5.761   5.642
10616SOL     OW32746   2.849   5.709   0.258
10616SOL    HW132747   2.836   5.625   0.205
10616SOL    HW232748   2.944   5.714   0.289
10617SOL     OW32749   1.207   2.088   6.411
10617SOL    HW132750   1.122   2.040   6.393
10617SOL    HW232751   1.280   2.022   6.428
10618SOL     OW32752   6.025   3.800   1.091
10618SOL    HW132753   6.035   3.793   0.991
10618SOL    HW232754   5.930   3.778   1.116
10619SOL     OW32755   1.188   4.114   4.021
10619SOL    HW132756   1.198   4.031   4.075
10619SOL    HW232757   1.226   4.192   4.071
10620SOL     OW32758   1.490   5.752   4.632
10620SOL    HW132759   1.499   5.688   4.556
10620SOL    HW232760   1.581   5.789   4.655
10621SOL     OW32761   2.972   5.962   0.910
10621SOL    HW132762   3.057   6.012   0.891
10621SOL    HW232763   2.896   6.026   0.918
10622SOL     OW32764   4.207   1.181   1.473
10622SOL    HW132765   4.259   1.181   1.558
10622SOL    HW232766   4.136   1.250   1.477
10623SOL     OW32767   6.772   1.550   3.732
10623SOL    HW132768   6.811   1.458   3.729
10623SOL    HW232769   6.727   1.570   3.646
10624SOL     OW32770   2.177   0.531   3.901
10624SOL    HW132771   2.173   0.494   3.994
10624SOL    HW232772   2.180   0.456   3.835
10625SOL     OW32773   0.344   3.355   6.840
10625SOL    HW132774   0.437   3.374   6.810
10625SOL    HW232775   0.343   3.341   6.939
10626SOL     OW32776   0.174   2.691   1.213
10626SOL    HW132777   0.234   2.670   1.136
10626SOL    HW232778   0.225   2.747   1.280
10627SOL     OW32779   6.050   5.767   4.320
10627SOL    HW132780   6.106   5.782   4.402
10627SOL    HW232781   6.087   5.821   4.244
10628SOL     OW32782   6.383   5.653   6.165
10628SOL    HW132783   6.390   5.584   6.093
10628SOL    HW232784   6.448   5.727   6.147
10629SOL     OW32785   2.781   5.477   5.846
10629SOL    HW132786   2.749   5.571   5.839
10629SOL    HW232787   2.872   5.469   5.805
10630SOL     OW32788   0.050   1.370   3.291
10630SOL    HW132789   0.085   1.320   3.370
10630SOL    HW232790   6.987   1.403   3.310
10631SOL     OW32791   1.038   6.588   4.411
10631SOL    HW132792   0.990   6.655   4.468
10631SOL    HW232793   1.064   6.630   4.324
10632SOL     OW32794   0.262   2.393   5.532
10632SOL    HW132795   0.204   2.354   5.604
10632SOL    HW232796   0.204   2.432   5.460
10633SOL     OW32797   1.322   5.118   1.334
10633SOL    HW132798   1.382   5.198   1.333
10633SOL    HW232799   1.369   5.042   1.380
10634SOL     OW32800   3.253   6.877   1.845
10634SOL    HW132801   3.327   6.812   1.828
10634SOL    HW232802   3.166   6.830   1.841
10635SOL     OW32803   2.547   1.228   1.175
10635SOL    HW132804   2.595   1.306   1.215
10635SOL    HW232805   2.505   1.256   1.088
10636SOL     OW32806   0.549   1.992   1.712
10636SOL    HW132807   0.553   2.076   1.658
10636SOL    HW232808   0.517   2.014   1.804
10637SOL     OW32809   3.703   4.626   5.501
10637SOL    HW132810   3.719   4.706   5.558
10637SOL    HW232811   3.759   4.633   5.418
10638SOL     OW32812   6.604   6.884   5.466
10638SOL    HW132813   6.641   6.969   5.428
10638SOL    HW232814   6.510   6.901   5.497
10639SOL     OW32815   2.555   0.840   4.212
10639SOL    HW132816   2.578   0.931   4.247
10639SOL    HW232817   2.461   0.817   4.236
10640SOL     OW32818   3.879   0.056   0.371
10640SOL    HW132819   3.923   6.995   0.370
10640SOL    HW232820   3.922   0.114   0.441
10641SOL     OW32821   4.820   0.987   6.589
10641SOL    HW132822   4.855   1.040   6.666
10641SOL    HW232823   4.721   0.975   6.598
10642SOL     OW32824   6.679   3.135   1.095
10642SOL    HW132825   6.768   3.094   1.115
10642SOL    HW232826   6.661   3.128   0.996
10643SOL     OW32827   3.323   3.544   5.611
10643SOL    HW132828   3.317   3.585   5.520
10643SOL    HW232829   3.377   3.461   5.607
10644SOL     OW32830   3.787   1.281   4.621
10644SOL    HW132831   3.701   1.290   4.571
10644SOL    HW232832   3.824   1.373   4.640
10645SOL     OW32833   2.701   0.882   5.088
10645SOL    HW132834   2.671   0.788   5.102
10645SOL    HW232835   2.684   0.909   4.993
10646SOL     OW32836   0.404   3.887   6.707
10646SOL    HW132837   0.441   3.832   6.782
10646SOL    HW232838   0.316   3.851   6.678
10647SOL     OW32839   0.362   4.921   0.752
10647SOL    HW132840   0.421   4.990   0.710
10647SOL    HW232841   0.294   4.967   0.810
10648SOL     OW32842   4.446   3.657   6.645
10648SOL    HW132843   4.357   3.674   6.602
10648SOL    HW232844   4.463   3.559   6.648
10649SOL     OW32845   0.165   4.474   5.749
10649SOL    HW132846   0.225   4.540   5.794
10649SOL    HW232847   0.172   4.385   5.795
10650SOL     OW32848   3.125   6.897   3.642
10650SOL    HW132849   3.169   6.808   3.649
10650SOL    HW232850   3.174   6.963   3.699
10651SOL     OW32851   3.741   6.889   5.976
10651SOL    HW132852   3.651   6.929   5.992
10651SOL    HW232853   3.811   6.952   6.010
10652SOL     OW32854   3.644   0.831   6.752
10652SOL    HW132855   3.634   0.862   6.657
10652SOL    HW232856   3.641   0.731   6.754
10653SOL     OW32857   5.484   3.233   3.719
10653SOL    HW132858   5.440   3.239   3.629
10653SOL    HW232859   5.414   3.240   3.791
10654SOL     OW32860   4.256   0.909   1.028
10654SOL    HW132861   4.341   0.858   1.039
10654SOL    HW232862   4.247   0.939   0.933
10655SOL     OW32863   3.240   6.017   1.481
10655SOL    HW132864   3.288   5.980   1.561
10655SOL    HW232865   3.148   5.978   1.476
10656SOL     OW32866   6.659   3.107   6.047
10656SOL    HW132867   6.632   3.203   6.049
10656SOL    HW232868   6.749   3.099   6.003
10657SOL     OW32869   6.089   0.443   1.234
10657SOL    HW132870   6.052   0.491   1.313
10657SOL    HW232871   6.142   0.506   1.178
10658SOL     OW32872   0.539   5.481   5.064
10658SOL    HW132873   0.548   5.571   5.022
10658SOL    HW232874   0.443   5.463   5.084
10659SOL     OW32875   5.164   0.595   0.551
10659SOL    HW132876   5.172   0.685   0.508
10659SOL    HW232877   5.235   0.584   0.620
10660SOL     OW32878   5.140   5.216   5.666
10660SOL    HW132879   5.073   5.147   5.694
10660SOL    HW232880   5.112   5.256   5.579
10661SOL     OW32881   0.288   0.453   2.679
10661SOL    HW132882   0.237   0.433   2.763
10661SOL    HW232883   0.383   0.422   2.689
10662SOL     OW32884   6.190   1.477   0.702
10662SOL    HW132885   6.178   1.400   0.641
10662SOL    HW232886   6.269   1.531   0.673
10663SOL     OW32887   0.183   0.714   0.448
10663SOL    HW132888   0.128   0.767   0.513
10663SOL    HW232889   0.235   0.776   0.391
10664SOL     OW32890   2.046   4.524   6.758
10664SOL    HW132891   2.101   4.607   6.748
10664SOL    HW232892   1.950   4.545   6.740
10665SOL     OW32893   6.562   0.965   0.406
10665SOL    HW132894   6.580   0.914   0.490
10665SOL    HW232895   6.560   1.063   0.425
10666SOL     OW32896   1.334   6.706   0.358
10666SOL    HW132897   1.288   6.776   0.412
10666SOL    HW232898   1.351   6.740   0.265
10667SOL     OW32899   3.364   1.795   5.322
10667SOL    HW132900   3.272   1.819   5.292
10667SOL    HW232901   3.414   1.878   5.344
10668SOL     OW32902   2.371   0.907   5.886
10668SOL    HW132903   2.465   0.940   5.874
10668SOL    HW232904   2.315   0.980   5.925
10669SOL     OW32905   1.017   6.440   6.349
10669SOL    HW132906   1.026   6.458   6.447
10669SOL    HW232907   0.929   6.397   6.331
10670SOL     OW32908   6.861   4.801   5.658
10670SOL    HW132909   6.781   4.765   5.610
10670SOL    HW232910   6.941   4.792   5.599
10671SOL     OW32911   1.578   1.647   3.311
10671SOL    HW132912   1.562   1.714   3.238
10671SOL    HW232913   1.665   1.667   3.356
10672SOL     OW32914   6.910   2.981   0.624
10672SOL    HW132915   6.843   3.036   0.574
10672SOL    HW232916   6.995   3.033   0.633
10673SOL     OW32917   3.386   3.543   5.033
10673SOL    HW132918   3.318   3.600   4.987
10673SOL    HW232919   3.447   3.502   4.965
10674SOL     OW32920   3.994   1.926   2.154
10674SOL    HW132921   3.962   1.990   2.085
10674SOL    HW232922   4.003   1.972   2.242
10675SOL     OW32923   0.556   0.717   6.230
10675SOL    HW132924   0.643   0.718   6.181
10675SOL    HW232925   0.558   0.647   6.301
10676SOL     OW32926   6.767   0.662   0.054
10676SOL    HW132927   6.849   0.620   0.016
10676SOL    HW232928   6.701   0.590   0.078
10677SOL     OW32929   0.018   0.899   0.581
10677SOL    HW132930   6.998   0.910   0.668
10677SOL    HW232931   6.986   0.923   0.506
10678SOL     OW32932   2.819   6.291   3.388
10678SOL    HW132933   2.743   6.268   3.448
10678SOL    HW232934   2.893   6.331   3.442
10679SOL     OW32935   5.676   5.313   3.827
10679SOL    HW132936   5.689   5.215   3.841
10679SOL    HW232937   5.696   5.336   3.731
10680SOL     OW32938   1.611   2.414   3.615
10680SOL    HW132939   1.708   2.422   3.595
10680SOL    HW232940   1.559   2.405   3.530
10681SOL     OW32941   0.619   1.467   5.742
10681SOL    HW132942   0.580   1.557   5.723
10681SOL    HW232943   0.712   1.477   5.776
10682SOL     OW32944   6.661   1.786   2.955
10682SOL    HW132945   6.636   1.883   2.954
10682SOL    HW232946   6.590   1.734   2.907
10683SOL     OW32947   1.687   1.386   4.146
10683SOL    HW132948   1.716   1.476   4.114
10683SOL    HW232949   1.760   1.345   4.199
10684SOL     OW32950   5.909   5.843   0.301
10684SOL    HW132951   5.956   5.814   0.384
10684SOL    HW232952   5.967   5.823   0.221
10685SOL     OW32953   0.018   2.410   1.664
10685SOL    HW132954   7.016   2.443   1.574
10685SOL    HW232955   0.088   2.471   1.700
10686SOL     OW32956   3.770   4.324   0.971
10686SOL    HW132957   3.763   4.362   1.063
10686SOL    HW232958   3.825   4.240   0.974
10687SOL     OW32959   0.135   4.945   1.760
10687SOL    HW132960   0.074   4.976   1.687
10687SOL    HW232961   0.124   5.004   1.840
10688SOL     OW32962   0.014   6.000   2.196
10688SOL    HW132963   0.076   5.936   2.242
10688SOL    HW232964   0.058   6.036   2.114
10689SOL     OW32965   0.709   0.472   1.684
10689SOL    HW132966   0.721   0.396   1.621
10689SOL    HW232967   0.614   0.474   1.716
10690SOL     OW32968   4.477   5.790   2.161
10690SOL    HW132969   4.544   5.781   2.087
10690SOL    HW232970   4.478   5.884   2.195
10691SOL     OW32971   6.749   1.298   1.489
10691SOL    HW132972   6.689   1.219   1.498
10691SOL    HW232973   6.696   1.382   1.502
10692SOL     OW32974   4.983   6.187   4.499
10692SOL    HW132975   5.030   6.115   4.550
10692SOL    HW232976   5.043   6.222   4.427
10693SOL     OW32977   5.293   2.448   3.226
10693SOL    HW132978   5.364   2.399   3.277
10693SOL    HW232979   5.253   2.519   3.284
10694SOL     OW32980   4.362   6.181   1.009
10694SOL    HW132981   4.418   6.113   1.056
10694SOL    HW232982   4.420   6.236   0.949
10695SOL     OW32983   5.912   2.807   4.642
10695SOL    HW132984   5.832   2.774   4.692
10695SOL    HW232985   5.992   2.752   4.667
10696SOL     OW32986   6.178   0.169   1.233
10696SOL    HW132987   6.142   0.088   1.187
10696SOL    HW232988   6.125   0.250   1.205
10697SOL     OW32989   2.130   6.138   3.668
10697SOL    HW132990   2.203   6.194   3.707
10697SOL    HW232991   2.132   6.047   3.710
10698SOL     OW32992   2.936   0.782   3.210
10698SOL    HW132993   2.975   0.705   3.160
10698SOL    HW232994   2.962   0.775   3.307
10699SOL     OW32995   1.810   2.496   2.715
10699SOL    HW132996   1.881   2.508   2.785
10699SOL    HW232997   1.854   2.485   2.626
10700SOL     OW32998   6.378   0.503   2.145
10700SOL    HW132999   6.326   0.580   2.107
10700SOL    HW233000   6.408   0.527   2.237
10701SOL     OW33001   3.671   6.373   0.977
10701SOL    HW133002   3.709   6.359   1.068
10701SOL    HW233003   3.604   6.448   0.979
10702SOL     OW33004   6.025   3.349   0.927
10702SOL    HW133005   6.088   3.420   0.893
10702SOL    HW233006   5.932   3.385   0.931
10703SOL     OW33007   3.791   3.049   4.275
10703SOL    HW133008   3.733   2.987   4.222
10703SOL    HW233009   3.845   2.996   4.340
10704SOL     OW33010   5.603   6.580   2.090
10704SOL    HW133011   5.596   6.679   2.103
10704SOL    HW233012   5.513   6.539   2.106
10705SOL     OW33013   1.270   2.967   6.468
10705SOL    HW133014   1.352   2.926   6.427
10705SOL    HW233015   1.275   2.960   6.567
10706SOL     OW33016   3.577   1.711   1.501
10706SOL    HW133017   3.632   1.767   1.440
10706SOL    HW233018   3.513   1.770   1.551
10707SOL     OW33019   6.281   6.870   6.160
10707SOL    HW133020   6.351   6.829   6.219
10707SOL    HW233021   6.197   6.816   6.166
10708SOL     OW33022   4.481   1.108   1.386
10708SOL    HW133023   4.395   1.145   1.421
10708SOL    HW233024   4.557   1.140   1.443
10709SOL     OW33025   0.825   6.690   5.956
10709SOL    HW133026   0.889   6.724   5.886
10709SOL    HW233027   0.876   6.668   6.039
10710SOL     OW33028   6.489   5.750   3.041
10710SOL    HW133029   6.582   5.714   3.048
10710SOL    HW233030   6.483   5.809   2.961
10711SOL     OW33031   2.451   5.730   5.084
10711SOL    HW133032   2.426   5.746   4.989
10711SOL    HW233033   2.513   5.802   5.115
10712SOL     OW33034   4.743   1.397   4.968
10712SOL    HW133035   4.793   1.437   4.891
10712SOL    HW233036   4.783   1.429   5.054
10713SOL     OW33037   1.728   6.479   1.449
10713SOL    HW133038   1.753   6.576   1.439
10713SOL    HW233039   1.629   6.471   1.453
10714SOL     OW33040   6.996   5.589   5.774
10714SOL    HW133041   6.975   5.617   5.867
10714SOL    HW233042   6.923   5.619   5.712
10715SOL     OW33043   5.853   1.184   3.838
10715SOL    HW133044   5.814   1.237   3.763
10715SOL    HW233045   5.792   1.188   3.917
10716SOL     OW33046   6.501   0.853   3.230
10716SOL    HW133047   6.430   0.915   3.197
10716SOL    HW233048   6.513   0.865   3.328
10717SOL     OW33049   6.168   6.437   2.016
10717SOL    HW133050   6.192   6.533   2.003
10717SOL    HW233051   6.123   6.426   2.105
10718SOL     OW33052   0.682   3.604   5.918
10718SOL    HW133053   0.760   3.586   5.858
10718SOL    HW233054   0.622   3.524   5.921
10719SOL     OW33055   3.526   0.751   2.389
10719SOL    HW133056   3.439   0.796   2.373
10719SOL    HW233057   3.563   0.720   2.301
10720SOL     OW33058   0.595   3.207   6.908
10720SOL    HW133059   0.531   3.151   6.960
10720SOL    HW233060   0.659   3.251   6.971
10721SOL     OW33061   4.737   2.864   4.133
10721SOL    HW133062   4.776   2.948   4.096
10721SOL    HW233063   4.795   2.829   4.206
10722SOL     OW33064   0.206   4.101   1.024
10722SOL    HW133065   0.275   4.174   1.017
10722SOL    HW233066   0.123   4.138   1.064
10723SOL     OW33067   5.925   4.792   0.281
10723SOL    HW133068   5.931   4.889   0.259
10723SOL    HW233069   5.916   4.781   0.380
10724SOL     OW33070   3.881   0.018   5.682
10724SOL    HW133071   3.963   6.995   5.706
10724SOL    HW233072   3.887   0.111   5.719
10725SOL     OW33073   6.494   0.125   5.126
10725SOL    HW133074   6.521   0.034   5.093
10725SOL    HW233075   6.518   0.133   5.223
10726SOL     OW33076   5.839   1.334   5.015
10726SOL    HW133077   5.760   1.284   5.050
10726SOL    HW233078   5.903   1.269   4.974
10727SOL     OW33079   2.656   6.357   7.028
10727SOL    HW133080   2.587   6.423   7.001
10727SOL    HW233081   2.676   6.366   0.097
10728SOL     OW33082   6.022   6.113   3.543
10728SOL    HW133083   6.008   6.212   3.543
10728SOL    HW233084   5.995   6.075   3.455
10729SOL     OW33085   5.778   2.855   4.378
10729SOL    HW133086   5.805   2.892   4.467
10729SOL    HW233087   5.729   2.926   4.327
10730SOL     OW33088   2.124   5.774   4.083
10730SOL    HW133089   2.081   5.817   4.162
10730SOL    HW233090   2.079   5.687   4.064
10731SOL     OW33091   5.134   6.299   6.834
10731SOL    HW133092   5.140   6.232   6.908
10731SOL    HW233093   5.053   6.281   6.779
10732SOL     OW33094   6.280   6.423   3.055
10732SOL    HW133095   6.333   6.402   2.973
10732SOL    HW233096   6.182   6.419   3.034
10733SOL     OW33097   0.412   0.948   6.177
10733SOL    HW133098   0.467   0.865   6.185
10733SOL    HW233099   0.363   0.947   6.090
10734SOL     OW33100   1.909   0.596   4.357
10734SOL    HW133101   1.858   0.518   4.321
10734SOL    HW233102   1.926   0.583   4.454
10735SOL     OW33103   6.699   6.755   1.868
10735SOL    HW133104   6.642   6.767   1.949
10735SOL    HW233105   6.784   6.807   1.879
10736SOL     OW33106   5.248   6.513   3.372
10736SOL    HW133107   5.205   6.431   3.408
10736SOL    HW233108   5.338   6.490   3.335
10737SOL     OW33109   5.978   0.923   1.792
10737SOL    HW133110   5.913   0.964   1.728
10737SOL    HW233111   5.941   0.929   1.885
10738SOL     OW33112   3.532   0.149   1.049
10738SOL    HW133113   3.574   0.151   0.958
10738SOL    HW233114   3.468   0.072   1.055
10739SOL     OW33115   5.648   3.126   3.988
10739SOL    HW133116   5.558   3.138   4.032
10739SOL    HW233117   5.668   3.029   3.979
10740SOL     OW33118   2.775   0.927   6.240
10740SOL    HW133119   2.684   0.968   6.234
10740SOL    HW233120   2.768   0.836   6.279
10741SOL     OW33121   1.395   2.232   3.706
10741SOL    HW133122   1.447   2.316   3.693
10741SOL    HW233123   1.335   2.217   3.627
10742SOL     OW33124   6.543   6.802   2.650
10742SOL    HW133125   6.449   6.828   2.673
10742SOL    HW233126   6.576   6.860   2.576
10743SOL     OW33127   2.865   1.825   5.415
10743SOL    HW133128   2.881   1.745   5.357
10743SOL    HW233129   2.937   1.892   5.399
10744SOL     OW33130   2.424   0.926   0.441
10744SOL    HW133131   2.376   0.979   0.511
10744SOL    HW233132   2.443   0.835   0.476
10745SOL     OW33133   2.044   4.367   1.907
10745SOL    HW133134   1.966   4.402   1.959
10745SOL    HW233135   2.106   4.318   1.969
10746SOL     OW33136   2.229   5.830   6.705
10746SOL    HW133137   2.281   5.915   6.712
10746SOL    HW233138   2.234   5.796   6.611
10747SOL     OW33139   6.441   1.450   4.686
10747SOL    HW133140   6.388   1.367   4.673
10747SOL    HW233141   6.423   1.487   4.777
10748SOL     OW33142   2.994   6.631   1.587
10748SOL    HW133143   2.981   6.730   1.580
10748SOL    HW233144   2.936   6.594   1.659
10749SOL     OW33145   5.813   4.384   1.457
10749SOL    HW133146   5.716   4.378   1.483
10749SOL    HW233147   5.849   4.292   1.440
10750SOL     OW33148   4.315   2.339   4.315
10750SOL    HW133149   4.384   2.351   4.243
10750SOL    HW233150   4.226   2.320   4.274
10751SOL     OW33151   0.041   5.947   4.381
10751SOL    HW133152   0.108   5.902   4.323
10751SOL    HW233153   0.028   6.042   4.351
10752SOL     OW33154   6.535   6.491   0.284
10752SOL    HW133155   6.595   6.555   0.332
10752SOL    HW233156   6.451   6.478   0.336
10753SOL     OW33157   5.241   0.527   4.153
10753SOL    HW133158   5.155   0.578   4.152
10753SOL    HW233159   5.234   0.449   4.091
10754SOL     OW33160   0.880   4.594   2.114
10754SOL    HW133161   0.801   4.582   2.174
10754SOL    HW233162   0.924   4.682   2.133
10755SOL     OW33163   0.321   2.904   0.914
10755SOL    HW133164   0.340   2.956   0.830
10755SOL    HW233165   0.224   2.911   0.936
10756SOL     OW33166   1.308   0.733   0.599
10756SOL    HW133167   1.290   0.639   0.627
10756SOL    HW233168   1.299   0.794   0.677
10757SOL     OW33169   0.522   3.366   1.906
10757SOL    HW133170   0.457   3.346   1.980
10757SOL    HW233171   0.583   3.288   1.893
10758SOL     OW33172   1.005   0.175   0.291
10758SOL    HW133173   0.997   0.084   0.249
10758SOL    HW233174   0.919   0.224   0.280
10759SOL     OW33175   2.763   2.849   5.496
10759SOL    HW133176   2.730   2.918   5.561
10759SOL    HW233177   2.691   2.830   5.429
10760SOL     OW33178   0.940   4.561   6.580
10760SOL    HW133179   0.939   4.463   6.561
10760SOL    HW233180   0.945   4.576   6.679
10761SOL     OW33181   1.163   1.474   5.447
10761SOL    HW133182   1.200   1.475   5.354
10761SOL    HW233183   1.092   1.544   5.456
10762SOL     OW33184   2.721   6.008   6.245
10762SOL    HW133185   2.699   6.051   6.158
10762SOL    HW233186   2.714   5.909   6.236
10763SOL     OW33187   4.888   0.651   3.152
10763SOL    HW133188   4.877   0.668   3.250
10763SOL    HW233189   4.806   0.681   3.104
10764SOL     OW33190   5.088   6.603   4.352
10764SOL    HW133191   5.034   6.663   4.411
10764SOL    HW233192   5.184   6.605   4.381
10765SOL     OW33193   0.563   1.686   1.762
10765SOL    HW133194   0.599   1.640   1.681
10765SOL    HW233195   0.574   1.785   1.752
10766SOL     OW33196   2.385   5.245   0.074
10766SOL    HW133197   2.462   5.270   0.015
10766SOL    HW233198   2.414   5.249   0.170
10767SOL     OW33199   1.421   5.103   6.799
10767SOL    HW133200   1.349   5.146   6.745
10767SOL    HW233201   1.388   5.015   6.834
10768SOL     OW33202   5.477   6.247   6.600
10768SOL    HW133203   5.452   6.343   6.585
10768SOL    HW233204   5.438   6.215   6.686
10769SOL     OW33205   3.054   3.381   4.709
10769SOL    HW133206   3.128   3.333   4.754
10769SOL    HW233207   3.027   3.332   4.626
10770SOL     OW33208   5.692   0.056   3.247
10770SOL    HW133209   5.618   7.019   3.245
10770SOL    HW233210   5.767   0.021   3.303
10771SOL     OW33211   4.381   5.956   5.982
10771SOL    HW133212   4.438   5.877   5.959
10771SOL    HW233213   4.292   5.947   5.936
10772SOL     OW33214   5.789   5.225   2.588
10772SOL    HW133215   5.746   5.312   2.566
10772SOL    HW233216   5.728   5.149   2.566
10773SOL     OW33217   0.328   4.080   1.500
10773SOL    HW133218   0.270   4.142   1.552
10773SOL    HW233219   0.398   4.132   1.452
10774SOL     OW33220   0.776   3.849   0.515
10774SOL    HW133221   0.759   3.754   0.539
10774SOL    HW233222   0.710   3.879   0.446
10775SOL     OW33223   1.717   3.907   0.821
10775SOL    HW133224   1.649   3.960   0.873
10775SOL    HW233225   1.690   3.811   0.819
10776SOL     OW33226   0.424   2.674   3.701
10776SOL    HW133227   0.413   2.773   3.709
10776SOL    HW233228   0.518   2.653   3.674
10777SOL     OW33229   2.098   0.707   1.580
10777SOL    HW133230   2.018   0.760   1.608
10777SOL    HW233231   2.168   0.769   1.543
10778SOL     OW33232   4.814   0.103   2.849
10778SOL    HW133233   4.839   0.199   2.834
10778SOL    HW233234   4.782   0.063   2.763
10779SOL     OW33235   5.592   3.114   5.849
10779SOL    HW133236   5.578   3.213   5.857
10779SOL    HW233237   5.592   3.088   5.753
10780SOL     OW33238   2.242   5.193   4.471
10780SOL    HW133239   2.216   5.240   4.555
10780SOL    HW233240   2.341   5.175   4.472
10781SOL     OW33241   5.652   2.169   4.450
10781SOL    HW133242   5.553   2.172   4.437
10781SOL    HW233243   5.698   2.179   4.361
10782SOL     OW33244   0.607   1.343   5.464
10782SOL    HW133245   0.547   1.291   5.524
10782SOL    HW233246   0.654   1.414   5.516
10783SOL     OW33247   0.751   2.291   3.484
10783SOL    HW133248   0.786   2.215   3.540
10783SOL    HW233249   0.657   2.312   3.511
10784SOL     OW33250   4.351   5.864   3.299
10784SOL    HW133251   4.399   5.841   3.214
10784SOL    HW233252   4.263   5.907   3.277
10785SOL     OW33253   1.492   5.427   1.919
10785SOL    HW133254   1.556   5.504   1.921
10785SOL    HW233255   1.542   5.341   1.922
10786SOL     OW33256   4.264   1.830   2.087
10786SOL    HW133257   4.171   1.866   2.092
10786SOL    HW233258   4.329   1.906   2.092
10787SOL     OW33259   3.632   1.725   3.488
10787SOL    HW133260   3.543   1.742   3.531
10787SOL    HW233261   3.618   1.692   3.395
10788SOL     OW33262   1.881   4.330   0.146
10788SOL    HW133263   1.871   4.397   0.220
10788SOL    HW233264   1.937   4.369   0.073
10789SOL     OW33265   6.617   1.109   2.448
10789SOL    HW133266   6.585   1.018   2.474
10789SOL    HW233267   6.624   1.114   2.348
10790SOL     OW33268   0.502   1.750   5.683
10790SOL    HW133269   0.445   1.829   5.705
10790SOL    HW233270   0.592   1.762   5.724
10791SOL     OW33271   1.464   2.485   3.147
10791SOL    HW133272   1.531   2.550   3.183
10791SOL    HW233273   1.423   2.435   3.224
10792SOL     OW33274   3.744   1.430   2.029
10792SOL    HW133275   3.784   1.356   1.976
10792SOL    HW233276   3.785   1.517   2.002
10793SOL     OW33277   3.919   1.661   4.478
10793SOL    HW133278   3.941   1.613   4.563
10793SOL    HW233279   3.963   1.750   4.477
10794SOL     OW33280   5.252   2.474   0.438
10794SOL    HW133281   5.329   2.421   0.472
10794SOL    HW233282   5.243   2.558   0.491
10795SOL     OW33283   0.007   3.442   3.340
10795SOL    HW133284   6.958   3.381   3.355
10795SOL    HW233285   7.011   3.513   3.274
10796SOL     OW33286   0.128   0.006   6.240
10796SOL    HW133287   0.078   6.950   6.255
10796SOL    HW233288   0.076   0.082   6.280
10797SOL     OW33289   4.140   4.338   0.021
10797SOL    HW133290   4.049   4.376   0.032
10797SOL    HW233291   4.169   4.347   6.955
10798SOL     OW33292   2.094   6.300   6.813
10798SOL    HW133293   2.071   6.355   6.893
10798SOL    HW233294   2.020   6.305   6.746
10799SOL     OW33295   2.713   1.482   3.004
10799SOL    HW133296   2.790   1.418   3.005
10799SOL    HW233297   2.627   1.431   2.999
10800SOL     OW33298   2.564   0.127   5.285
10800SOL    HW133299   2.501   0.185   5.338
10800SOL    HW233300   2.518   0.093   5.204
10801SOL     OW33301   3.109   6.054   6.155
10801SOL    HW133302   3.139   6.004   6.236
10801SOL    HW233303   3.011   6.073   6.162
10802SOL     OW33304   0.393   5.424   4.370
10802SOL    HW133305   0.308   5.468   4.339
10802SOL    HW233306   0.463   5.494   4.384
10803SOL     OW33307   6.974   4.232   4.593
10803SOL    HW133308   0.042   4.211   4.605
10803SOL    HW233309   6.955   4.323   4.630
10804SOL     OW33310   4.851   4.680   0.996
10804SOL    HW133311   4.842   4.674   0.897
10804SOL    HW233312   4.900   4.600   1.030
10805SOL     OW33313   3.852   6.104   0.280
10805SOL    HW133314   3.877   6.200   0.268
10805SOL    HW233315   3.932   6.051   0.307
10806SOL     OW33316   6.005   4.443   6.351
10806SOL    HW133317   5.981   4.369   6.289
10806SOL    HW233318   5.983   4.417   6.445
10807SOL     OW33319   4.334   1.240   4.475
10807SOL    HW133320   4.336   1.199   4.384
10807SOL    HW233321   4.325   1.340   4.467
10808SOL     OW33322   0.249   2.039   0.277
10808SOL    HW133323   0.267   2.101   0.200
10808SOL    HW233324   0.174   2.076   0.332
10809SOL     OW33325   3.056   1.344   2.497
10809SOL    HW133326   3.022   1.437   2.505
10809SOL    HW233327   3.106   1.319   2.580
10810SOL     OW33328   1.947   1.521   6.606
10810SOL    HW133329   1.924   1.527   6.509
10810SOL    HW233330   1.871   1.556   6.660
10811SOL     OW33331   4.470   4.533   6.273
10811SOL    HW133332   4.404   4.459   6.261
10811SOL    HW233333   4.421   4.620   6.280
10812SOL     OW33334   6.466   2.694   2.063
10812SOL    HW133335   6.483   2.714   1.967
10812SOL    HW233336   6.368   2.700   2.082
10813SOL     OW33337   3.526   5.588   2.550
10813SOL    HW133338   3.445   5.623   2.596
10813SOL    HW233339   3.561   5.657   2.487
10814SOL     OW33340   2.034   5.949   4.780
10814SOL    HW133341   1.971   6.002   4.724
10814SOL    HW233342   2.035   5.985   4.873
10815SOL     OW33343   4.860   1.956   3.437
10815SOL    HW133344   4.795   2.017   3.483
10815SOL    HW233345   4.820   1.924   3.351
10816SOL     OW33346   2.048   2.205   1.992
10816SOL    HW133347   1.968   2.155   2.027
10816SOL    HW233348   2.099   2.146   1.929
10817SOL     OW33349   4.469   0.164   2.119
10817SOL    HW133350   4.496   0.163   2.216
10817SOL    HW233351   4.370   0.165   2.113
10818SOL     OW33352   4.555   2.866   6.493
10818SOL    HW133353   4.480   2.860   6.558
10818SOL    HW233354   4.632   2.810   6.526
10819SOL     OW33355   0.547   4.019   5.605
10819SOL    HW133356   0.506   4.105   5.633
10819SOL    HW233357   0.521   3.998   5.511
10820SOL     OW33358   6.684   0.380   4.660
10820SOL    HW133359   6.698   0.445   4.585
10820SOL    HW233360   6.588   0.354   4.663
10821SOL     OW33361   6.929   6.626   0.890
10821SOL    HW133362   6.936   6.712   0.940
10821SOL    HW233363   6.967   6.637   0.798
10822SOL     OW33364   0.369   4.492   0.156
10822SOL    HW133365   0.341   4.486   0.252
10822SOL    HW233366   0.362   4.402   0.113
10823SOL     OW33367   1.520   1.723   0.985
10823SOL    HW133368   1.536   1.648   1.048
10823SOL    HW233369   1.563   1.806   1.021
10824SOL     OW33370   5.776   0.556   3.324
10824SOL    HW133371   5.716   0.488   3.366
10824SOL    HW233372   5.856   0.571   3.383
10825SOL     OW33373   3.464   1.458   1.789
10825SOL    HW133374   3.388   1.508   1.832
10825SOL    HW233375   3.530   1.431   1.860
10826SOL     OW33376   6.521   2.789   1.363
10826SOL    HW133377   6.620   2.788   1.353
10826SOL    HW233378   6.488   2.698   1.387
10827SOL     OW33379   1.242   2.780   3.561
10827SOL    HW133380   1.246   2.846   3.487
10827SOL    HW233381   1.222   2.827   3.647
10828SOL     OW33382   0.866   6.081   0.459
10828SOL    HW133383   0.954   6.089   0.413
10828SOL    HW233384   0.803   6.029   0.402
10829SOL     OW33385   2.086   3.959   1.707
10829SOL    HW133386   2.072   3.863   1.731
10829SOL    HW233387   2.161   3.966   1.641
10830SOL     OW33388   4.862   1.024   3.476
10830SOL    HW133389   4.934   0.984   3.421
10830SOL    HW233390   4.798   1.074   3.417
10831SOL     OW33391   5.263   2.781   2.056
10831SOL    HW133392   5.311   2.785   1.968
10831SOL    HW233393   5.301   2.706   2.111
10832SOL     OW33394   6.842   2.971   2.704
10832SOL    HW133395   6.901   3.008   2.776
10832SOL    HW233396   6.751   3.012   2.711
10833SOL     OW33397   2.796   6.999   4.180
10833SOL    HW133398   2.766   6.924   4.122
10833SOL    HW233399   2.872   0.019   4.136
10834SOL     OW33400   0.210   0.848   5.701
10834SOL    HW133401   0.290   0.803   5.662
10834SOL    HW233402   0.155   0.888   5.628
10835SOL     OW33403   6.904   2.760   1.808
10835SOL    HW133404   6.982   2.712   1.768
10835SOL    HW233405   6.851   2.696   1.863
10836SOL     OW33406   1.658   2.942   1.225
10836SOL    HW133407   1.650   3.041   1.212
10836SOL    HW233408   1.578   2.896   1.187
10837SOL     OW33409   1.389   5.944   1.442
10837SOL    HW133410   1.299   5.936   1.484
10837SOL    HW233411   1.423   5.853   1.417
10838SOL     OW33412   6.660   0.322   0.388
10838SOL    HW133413   6.643   0.223   0.385
10838SOL    HW233414   6.757   0.340   0.373
10839SOL     OW33415   1.875   1.587   6.970
10839SOL    HW133416   1.882   1.687   6.969
10839SOL    HW233417   1.807   1.558   6.903
10840SOL     OW33418   3.647   5.814   2.342
10840SOL    HW133419   3.609   5.906   2.333
10840SOL    HW233420   3.738   5.811   2.300
10841SOL     OW33421   4.648   3.175   6.182
10841SOL    HW133422   4.634   3.264   6.140
10841SOL    HW233423   4.727   3.180   6.244
10842SOL     OW33424   6.454   3.033   1.480
10842SOL    HW133425   6.537   3.088   1.488
10842SOL    HW233426   6.478   2.939   1.454
10843SOL     OW33427   0.339   0.721   2.216
10843SOL    HW133428   0.415   0.780   2.190
10843SOL    HW233429   0.349   0.693   2.311
10844SOL     OW33430   3.245   6.989   3.423
10844SOL    HW133431   3.190   6.995   3.506
10844SOL    HW233432   3.329   0.013   3.434
10845SOL     OW33433   2.056   3.110   1.033
10845SOL    HW133434   2.075   3.197   0.988
10845SOL    HW233435   2.129   3.089   1.098
10846SOL     OW33436   3.883   1.709   1.565
10846SOL    HW133437   3.967   1.654   1.569
10846SOL    HW233438   3.809   1.652   1.528
10847SOL     OW33439   4.339   2.796   5.881
10847SOL    HW133440   4.330   2.855   5.800
10847SOL    HW233441   4.434   2.800   5.914
10848SOL     OW33442   1.193   0.484   0.432
10848SOL    HW133443   1.104   0.462   0.471
10848SOL    HW233444   1.255   0.407   0.445
10849SOL     OW33445   2.239   5.474   3.823
10849SOL    HW133446   2.283   5.536   3.888
10849SOL    HW233447   2.148   5.508   3.801
10850SOL     OW33448   5.578   0.614   2.357
10850SOL    HW133449   5.612   0.534   2.407
10850SOL    HW233450   5.609   0.609   2.262
10851SOL     OW33451   4.193   1.807   6.644
10851SOL    HW133452   4.292   1.821   6.644
10851SOL    HW233453   4.161   1.794   6.550
10852SOL     OW33454   6.893   0.162   5.866
10852SOL    HW133455   6.828   0.093   5.897
10852SOL    HW233456   6.867   0.196   5.776
10853SOL     OW33457   2.417   0.522   4.748
10853SOL    HW133458   2.470   0.438   4.754
10853SOL    HW233459   2.462   0.595   4.800
10854SOL     OW33460   6.816   6.059   0.990
10854SOL    HW133461   6.771   5.976   1.022
10854SOL    HW233462   6.810   6.130   1.060
10855SOL     OW33463   1.371   5.460   1.529
10855SOL    HW133464   1.276   5.460   1.498
10855SOL    HW233465   1.376   5.504   1.619
10856SOL     OW33466   6.173   0.547   6.870
10856SOL    HW133467   6.193   0.467   6.814
10856SOL    HW233468   6.074   0.553   6.885
10857SOL     OW33469   6.724   0.573   4.876
10857SOL    HW133470   6.718   0.525   4.789
10857SOL    HW233471   6.729   0.507   4.951
10858SOL     OW33472   1.805   2.300   0.421
10858SOL    HW133473   1.848   2.389   0.406
10858SOL    HW233474   1.709   2.314   0.446
10859SOL     OW33475   1.271   5.572   2.943
10859SOL    HW133476   1.319   5.495   2.900
10859SOL    HW233477   1.290   5.573   3.041
10860SOL     OW33478   6.425   3.443   1.784
10860SOL    HW133479   6.475   3.490   1.857
10860SOL    HW233480   6.467   3.354   1.766
10861SOL     OW33481   2.843   3.446   1.218
10861SOL    HW133482   2.782   3.426   1.294
10861SOL    HW233483   2.789   3.473   1.138
10862SOL     OW33484   3.686   3.939   5.480
10862SOL    HW133485   3.660   3.951   5.385
10862SOL    HW233486   3.695   4.029   5.523
10863SOL     OW33487   2.127   0.393   2.990
10863SOL    HW133488   2.212   0.442   3.007
10863SOL    HW233489   2.143   0.294   3.001
10864SOL     OW33490   3.160   4.177   1.683
10864SOL    HW133491   3.176   4.130   1.596
10864SOL    HW233492   3.110   4.262   1.666
10865SOL     OW33493   3.990   1.428   2.401
10865SOL    HW133494   4.081   1.436   2.360
10865SOL    HW233495   3.954   1.520   2.419
10866SOL     OW33496   0.295   3.648   3.768
10866SOL    HW133497   0.221   3.623   3.706
10866SOL    HW233498   0.378   3.596   3.743
10867SOL     OW33499   4.515   2.675   0.093
10867SOL    HW133500   4.426   2.719   0.080
10867SOL    HW233501   4.503   2.576   0.095
10868SOL     OW33502   1.532   0.024   4.795
10868SOL    HW133503   1.485   6.968   4.817
10868SOL    HW233504   1.498   0.059   4.708
10869NA      NA33505   7.017   0.953   6.064
10870NA      NA33506   4.483   4.539   5.224
10871NA      NA33507   1.512   4.728   2.820
10872NA      NA33508   5.804   3.927   2.988
10873NA      NA33509   3.717   2.416   5.469
10874NA      NA33510   2.340   4.835   0.221
10875NA      NA33511   1.783   5.520   6.717
10876NA      NA33512   4.147   4.544   1.437
10877NA      NA33513   4.772   4.533   0.190
10878NA      NA33514   3.392   1.194   0.134
10879NA      NA33515   5.483   6.953   1.802
10880NA      NA33516   2.548   6.339   5.527
10881NA      NA33517   4.280   5.001   1.980
10882NA      NA33518   3.931   3.719   6.785
   7.02898   7.02898   7.02898
