Generated by trjconv : CNT in water t= 339.00000
33518
    1C        C    1   2.847   2.777   4.747
    1C        C    2   2.900   2.725   4.867
    1C        C    3   2.847   2.779   4.984
    1C        C    4   2.849   2.779   4.260
    1C        C    5   2.903   2.732   4.382
    1C        C    6   2.845   2.773   4.505
    1C        C    7   3.017   2.646   4.626
    1C        C    8   2.902   2.728   4.626
    1C        C    9   3.077   2.604   4.747
    1C        C   10   3.014   2.641   4.867
    1C        C   11   3.175   2.487   4.970
    1C        C   12   3.061   2.568   4.976
    1C        C   13   2.853   2.775   3.774
    1C        C   14   2.906   2.729   3.897
    1C        C   15   2.851   2.779   4.017
    1C        C   16   3.018   2.648   4.138
    1C        C   17   2.904   2.731   4.139
    1C        C   18   3.081   2.615   4.260
    1C        C   19   3.018   2.650   4.382
    1C        C   20   3.208   2.555   4.506
    1C        C   21   3.079   2.612   4.503
    1C        C   22   3.281   2.534   4.625
    1C        C   23   3.209   2.550   4.745
    1C        C   24   3.412   2.483   4.868
    1C        C   25   3.270   2.503   4.864
    1C        C   26   3.490   2.486   4.985
    1C        C   27   2.854   2.771   3.283
    1C        C   28   2.906   2.727   3.407
    1C        C   29   2.852   2.775   3.529
    1C        C   30   3.018   2.643   3.651
    1C        C   31   2.904   2.727   3.651
    1C        C   32   3.078   2.605   3.773
    1C        C   33   3.020   2.646   3.895
    1C        C   34   3.212   2.560   4.020
    1C        C   35   3.079   2.607   4.017
    1C        C   36   3.281   2.541   4.142
    1C        C   37   3.213   2.566   4.263
    1C        C   38   3.419   2.514   4.382
    1C        C   39   3.280   2.542   4.385
    1C        C   40   3.489   2.501   4.504
    1C        C   41   3.418   2.501   4.627
    1C        C   42   3.630   2.485   4.747
    1C        C   43   3.488   2.482   4.748
    1C        C   44   3.706   2.483   4.866
    1C        C   45   3.628   2.476   4.982
    1C        C   46   2.845   2.758   2.794
    1C        C   47   2.896   2.710   2.916
    1C        C   48   2.848   2.762   3.038
    1C        C   49   3.023   2.644   3.162
    1C        C   50   2.904   2.720   3.161
    1C        C   51   3.081   2.610   3.286
    1C        C   52   3.020   2.644   3.409
    1C        C   53   3.208   2.543   3.529
    1C        C   54   3.081   2.606   3.530
    1C        C   55   3.276   2.524   3.651
    1C        C   56   3.208   2.549   3.772
    1C        C   57   3.412   2.502   3.893
    1C        C   58   3.273   2.529   3.896
    1C        C   59   3.486   2.500   4.013
    1C        C   60   3.419   2.512   4.138
    1C        C   61   3.630   2.505   4.260
    1C        C   62   3.489   2.503   4.260
    1C        C   63   3.701   2.506   4.382
    1C        C   64   3.630   2.501   4.504
    1C        C   65   3.835   2.549   4.622
    1C        C   66   3.701   2.505   4.626
    1C        C   67   3.904   2.563   4.744
    1C        C   68   3.840   2.527   4.865
    1C        C   69   4.056   2.584   4.978
    1C        C   70   3.925   2.533   4.976
    1C        C   71   2.827   2.736   2.311
    1C        C   72   2.884   2.690   2.431
    1C        C   73   2.836   2.747   2.551
    1C        C   74   3.013   2.627   2.674
    1C        C   75   2.897   2.708   2.673
    1C        C   76   3.073   2.587   2.795
    1C        C   77   3.016   2.634   2.915
    1C        C   78   3.207   2.546   3.039
    1C        C   79   3.081   2.609   3.038
    1C        C   80   3.276   2.522   3.160
    1C        C   81   3.208   2.547   3.281
    1C        C   82   3.411   2.496   3.402
    1C        C   83   3.273   2.524   3.404
    1C        C   84   3.482   2.496   3.524
    1C        C   85   3.416   2.505   3.649
    1C        C   86   3.626   2.504   3.772
    1C        C   87   3.485   2.498   3.772
    1C        C   88   3.697   2.511   3.894
    1C        C   89   3.627   2.503   4.016
    1C        C   90   3.837   2.548   4.137
    1C        C   91   3.699   2.516   4.137
    1C        C   92   3.906   2.567   4.258
    1C        C   93   3.838   2.543   4.380
    1C        C   94   4.033   2.629   4.501
    1C        C   95   3.905   2.569   4.501
    1C        C   96   4.091   2.671   4.623
    1C        C   97   4.030   2.629   4.743
    1C        C   98   4.188   2.769   4.864
    1C        C   99   4.104   2.653   4.863
    1C        C  100   4.213   2.843   4.980
    1C        C  101   2.827   2.735   2.070
    1C        C  102   2.993   2.595   2.193
    1C        C  103   2.881   2.684   2.189
    1C        C  104   3.063   2.568   2.313
    1C        C  105   3.000   2.610   2.432
    1C        C  106   3.201   2.530   2.551
    1C        C  107   3.071   2.584   2.552
    1C        C  108   3.271   2.512   2.673
    1C        C  109   3.202   2.528   2.795
    1C        C  110   3.409   2.492   2.916
    1C        C  111   3.269   2.511   2.918
    1C        C  112   3.483   2.485   3.036
    1C        C  113   3.415   2.494   3.160
    1C        C  114   3.626   2.499   3.280
    1C        C  115   3.485   2.488   3.282
    1C        C  116   3.694   2.509   3.404
    1C        C  117   3.624   2.502   3.526
    1C        C  118   3.832   2.541   3.648
    1C        C  119   3.694   2.510   3.648
    1C        C  120   3.898   2.571   3.769
    1C        C  121   3.835   2.544   3.892
    1C        C  122   4.025   2.639   4.013
    1C        C  123   3.902   2.570   4.013
    1C        C  124   4.087   2.673   4.135
    1C        C  125   4.031   2.632   4.259
    1C        C  126   4.199   2.763   4.376
    1C        C  127   4.095   2.667   4.380
    1C        C  128   4.240   2.821   4.498
    1C        C  129   4.194   2.768   4.620
    1C        C  130   4.320   2.939   4.743
    1C        C  131   4.240   2.822   4.742
    1C        C  132   4.352   3.009   4.862
    1C        C  133   4.289   2.959   4.977
    1C        C  134   3.169   2.471   2.081
    1C        C  135   3.035   2.510   2.085
    1C        C  136   3.259   2.475   2.189
    1C        C  137   3.194   2.512   2.309
    1C        C  138   3.405   2.474   2.429
    1C        C  139   3.266   2.498   2.430
    1C        C  140   3.481   2.480   2.548
    1C        C  141   3.410   2.489   2.670
    1C        C  142   3.620   2.487   2.790
    1C        C  143   3.479   2.484   2.793
    1C        C  144   3.694   2.498   2.910
    1C        C  145   3.624   2.495   3.033
    1C        C  146   3.830   2.540   3.159
    1C        C  147   3.693   2.504   3.156
    1C        C  148   3.898   2.564   3.280
    1C        C  149   3.832   2.541   3.403
    1C        C  150   4.024   2.629   3.523
    1C        C  151   3.898   2.566   3.525
    1C        C  152   4.082   2.672   3.644
    1C        C  153   4.022   2.640   3.768
    1C        C  154   4.194   2.765   3.892
    1C        C  155   4.081   2.680   3.890
    1C        C  156   4.254   2.805   4.014
    1C        C  157   4.200   2.758   4.135
    1C        C  158   4.340   2.922   4.256
    1C        C  159   4.253   2.811   4.255
    1C        C  160   4.371   2.987   4.377
    1C        C  161   4.324   2.934   4.500
    1C        C  162   4.440   3.115   4.615
    1C        C  163   4.366   2.995   4.621
    1C        C  164   4.465   3.185   4.736
    1C        C  165   4.432   3.125   4.859
    1C        C  166   4.516   3.323   4.973
    1C        C  167   4.476   3.190   4.975
    1C        C  168   3.476   2.434   2.074
    1C        C  169   3.399   2.456   2.189
    1C        C  170   3.618   2.464   2.306
    1C        C  171   3.475   2.461   2.307
    1C        C  172   3.692   2.487   2.424
    1C        C  173   3.622   2.487   2.546
    1C        C  174   3.826   2.542   2.668
    1C        C  175   3.690   2.503   2.669
    1C        C  176   3.894   2.567   2.790
    1C        C  177   3.830   2.535   2.912
    1C        C  178   4.024   2.618   3.033
    1C        C  179   3.895   2.560   3.035
    1C        C  180   4.084   2.661   3.154
    1C        C  181   4.023   2.629   3.277
    1C        C  182   4.194   2.753   3.399
    1C        C  183   4.083   2.665   3.400
    1C        C  184   4.242   2.806   3.521
    1C        C  185   4.194   2.759   3.645
    1C        C  186   4.337   2.915   3.765
    1C        C  187   4.248   2.805   3.767
    1C        C  188   4.376   2.976   3.887
    1C        C  189   4.340   2.917   4.010
    1C        C  190   4.445   3.102   4.129
    1C        C  191   4.376   2.979   4.131
    1C        C  192   4.473   3.168   4.251
    1C        C  193   4.442   3.109   4.375
    1C        C  194   4.511   3.315   4.491
    1C        C  195   4.473   3.179   4.494
    1C        C  196   4.527   3.388   4.611
    1C        C  197   4.514   3.318   4.733
    1C        C  198   4.556   3.533   4.851
    1C        C  199   4.532   3.392   4.853
    1C        C  200   4.578   3.618   4.965
    1C        C  201   3.615   2.417   2.072
    1C        C  202   3.825   2.509   2.184
    1C        C  203   3.692   2.457   2.185
    1C        C  204   3.896   2.541   2.303
    1C        C  205   3.828   2.526   2.425
    1C        C  206   4.022   2.619   2.543
    1C        C  207   3.895   2.558   2.545
    1C        C  208   4.083   2.657   2.665
    1C        C  209   4.021   2.628   2.789
    1C        C  210   4.193   2.749   2.909
    1C        C  211   4.084   2.658   2.912
    1C        C  212   4.248   2.796   3.030
    1C        C  213   4.196   2.747   3.152
    1C        C  214   4.329   2.911   3.275
    1C        C  215   4.243   2.799   3.275
    1C        C  216   4.372   2.970   3.396
    1C        C  217   4.334   2.913   3.519
    1C        C  218   4.437   3.097   3.640
    1C        C  219   4.379   2.968   3.641
    1C        C  220   4.462   3.166   3.761
    1C        C  221   4.436   3.104   3.885
    1C        C  222   4.502   3.306   4.007
    1C        C  223   4.465   3.170   4.007
    1C        C  224   4.523   3.376   4.128
    1C        C  225   4.509   3.304   4.249
    1C        C  226   4.522   3.523   4.366
    1C        C  227   4.521   3.381   4.367
    1C        C  228   4.521   3.597   4.486
    1C        C  229   4.529   3.529   4.610
    1C        C  230   4.508   3.743   4.725
    1C        C  231   4.540   3.604   4.729
    1C        C  232   4.490   3.818   4.843
    1C        C  233   4.537   3.752   4.958
    1C        C  234   4.016   2.604   2.064
    1C        C  235   3.894   2.538   2.065
    1C        C  236   4.081   2.647   2.180
    1C        C  237   4.022   2.608   2.302
    1C        C  238   4.200   2.735   2.420
    1C        C  239   4.085   2.652   2.421
    1C        C  240   4.249   2.787   2.542
    1C        C  241   4.195   2.743   2.665
    1C        C  242   4.341   2.899   2.786
    1C        C  243   4.247   2.794   2.787
    1C        C  244   4.377   2.964   2.907
    1C        C  245   4.335   2.908   3.030
    1C        C  246   4.437   3.093   3.150
    1C        C  247   4.372   2.968   3.152
    1C        C  248   4.465   3.158   3.272
    1C        C  249   4.436   3.096   3.395
    1C        C  250   4.500   3.298   3.517
    1C        C  251   4.460   3.163   3.517
    1C        C  252   4.512   3.368   3.639
    1C        C  253   4.503   3.301   3.763
    1C        C  254   4.523   3.515   3.877
    1C        C  255   4.516   3.374   3.883
    1C        C  256   4.522   3.587   3.998
    1C        C  257   4.528   3.517   4.121
    1C        C  258   4.489   3.729   4.241
    1C        C  259   4.515   3.590   4.241
    1C        C  260   4.473   3.801   4.361
    1C        C  261   4.486   3.733   4.484
    1C        C  262   4.427   3.940   4.601
    1C        C  263   4.474   3.807   4.604
    1C        C  264   4.398   4.009   4.720
    1C        C  265   4.432   3.946   4.842
    1C        C  266   4.327   4.135   4.958
    1C        C  267   4.392   4.013   4.959
    1C        C  268   4.261   2.775   2.061
    1C        C  269   4.197   2.728   2.176
    1C        C  270   4.341   2.889   2.298
    1C        C  271   4.253   2.778   2.296
    1C        C  272   4.380   2.953   2.418
    1C        C  273   4.341   2.894   2.541
    1C        C  274   4.445   3.079   2.661
    1C        C  275   4.381   2.954   2.663
    1C        C  276   4.475   3.147   2.781
    1C        C  277   4.444   3.088   2.906
    1C        C  278   4.504   3.293   3.024
    1C        C  279   4.464   3.157   3.027
    1C        C  280   4.515   3.361   3.147
    1C        C  281   4.505   3.294   3.271
    1C        C  282   4.524   3.505   3.388
    1C        C  283   4.517   3.364   3.393
    1C        C  284   4.516   3.580   3.507
    1C        C  285   4.516   3.509   3.630
    1C        C  286   4.487   3.719   3.753
    1C        C  287   4.516   3.581   3.752
    1C        C  288   4.466   3.787   3.875
    1C        C  289   4.491   3.725   4.000
    1C        C  290   4.421   3.930   4.113
    1C        C  291   4.471   3.798   4.119
    1C        C  292   4.392   3.995   4.235
    1C        C  293   4.428   3.935   4.357
    1C        C  294   4.329   4.126   4.478
    1C        C  295   4.400   4.004   4.477
    1C        C  296   4.282   4.187   4.597
    1C        C  297   4.324   4.131   4.720
    1C        C  298   4.199   4.311   4.838
    1C        C  299   4.286   4.198   4.840
    1C        C  300   4.169   4.399   4.947
    1C        C  301   4.343   2.888   2.061
    1C        C  302   4.474   3.062   2.179
    1C        C  303   4.397   2.941   2.179
    1C        C  304   4.487   3.139   2.297
    1C        C  305   4.447   3.077   2.417
    1C        C  306   4.510   3.281   2.536
    1C        C  307   4.475   3.144   2.539
    1C        C  308   4.520   3.352   2.658
    1C        C  309   4.512   3.284   2.781
    1C        C  310   4.522   3.499   2.899
    1C        C  311   4.524   3.358   2.900
    1C        C  312   4.518   3.572   3.020
    1C        C  313   4.522   3.502   3.143
    1C        C  314   4.482   3.712   3.264
    1C        C  315   4.511   3.574   3.265
    1C        C  316   4.469   3.786   3.384
    1C        C  317   4.487   3.718   3.506
    1C        C  318   4.419   3.917   3.627
    1C        C  319   4.468   3.785   3.629
    1C        C  320   4.388   3.985   3.747
    1C        C  321   4.418   3.920   3.869
    1C        C  322   4.312   4.106   3.991
    1C        C  323   4.391   3.990   3.989
    1C        C  324   4.275   4.169   4.113
    1C        C  325   4.322   4.118   4.236
    1C        C  326   4.185   4.281   4.353
    1C        C  327   4.286   4.183   4.356
    1C        C  328   4.134   4.334   4.473
    1C        C  329   4.191   4.294   4.596
    1C        C  330   4.024   4.434   4.716
    1C        C  331   4.138   4.350   4.715
    1C        C  332   3.973   4.496   4.833
    1C        C  333   4.052   4.476   4.946
    1C        C  334   4.554   3.260   2.065
    1C        C  335   4.537   3.121   2.064
    1C        C  336   4.539   3.347   2.174
    1C        C  337   4.515   3.279   2.295
    1C        C  338   4.529   3.494   2.414
    1C        C  339   4.524   3.352   2.415
    1C        C  340   4.526   3.566   2.535
    1C        C  341   4.521   3.494   2.657
    1C        C  342   4.495   3.709   2.776
    1C        C  343   4.517   3.569   2.776
    1C        C  344   4.473   3.780   2.896
    1C        C  345   4.486   3.709   3.017
    1C        C  346   4.411   3.907   3.137
    1C        C  347   4.466   3.777   3.140
    1C        C  348   4.380   3.975   3.257
    1C        C  349   4.421   3.919   3.380
    1C        C  350   4.316   4.100   3.502
    1C        C  351   4.392   3.981   3.504
    1C        C  352   4.270   4.158   3.622
    1C        C  353   4.308   4.101   3.745
    1C        C  354   4.170   4.262   3.870
    1C        C  355   4.266   4.158   3.868
    1C        C  356   4.121   4.319   3.990
    1C        C  357   4.182   4.275   4.110
    1C        C  358   4.009   4.400   4.233
    1C        C  359   4.129   4.325   4.230
    1C        C  360   3.948   4.440   4.354
    1C        C  361   4.017   4.413   4.475
    1C        C  362   3.828   4.517   4.595
    1C        C  363   3.954   4.453   4.595
    1C        C  364   3.762   4.547   4.717
    1C        C  365   3.839   4.541   4.835
    1C        C  366   3.629   4.593   4.954
    1C        C  367   3.766   4.568   4.951
    1C        C  368   4.518   3.562   2.055
    1C        C  369   4.532   3.488   2.173
    1C        C  370   4.498   3.703   2.292
    1C        C  371   4.525   3.564   2.292
    1C        C  372   4.484   3.776   2.412
    1C        C  373   4.499   3.704   2.532
    1C        C  374   4.424   3.906   2.649
    1C        C  375   4.476   3.775   2.652
    1C        C  376   4.388   3.971   2.769
    1C        C  377   4.416   3.909   2.893
    1C        C  378   4.309   4.093   3.012
    1C        C  379   4.385   3.974   3.015
    1C        C  380   4.269   4.154   3.134
    1C        C  381   4.308   4.096   3.257
    1C        C  382   4.174   4.258   3.380
    1C        C  383   4.268   4.153   3.380
    1C        C  384   4.121   4.307   3.502
    1C        C  385   4.174   4.262   3.625
    1C        C  386   4.007   4.393   3.746
    1C        C  387   4.122   4.311   3.746
    1C        C  388   3.946   4.433   3.867
    1C        C  389   4.007   4.401   3.990
    1C        C  390   3.812   4.484   4.111
    1C        C  391   3.945   4.435   4.112
    1C        C  392   3.748   4.506   4.235
    1C        C  393   3.819   4.497   4.357
    1C        C  394   3.613   4.548   4.478
    1C        C  395   3.753   4.533   4.477
    1C        C  396   3.546   4.565   4.601
    1C        C  397   3.621   4.561   4.720
    1C        C  398   3.410   4.550   4.841
    1C        C  399   3.549   4.576   4.840
    1C        C  400   3.344   4.515   4.959
    1C        C  401   4.509   3.701   2.055
    1C        C  402   4.453   3.913   2.169
    1C        C  403   4.484   3.775   2.171
    1C        C  404   4.411   3.978   2.287
    1C        C  405   4.440   3.910   2.408
    1C        C  406   4.325   4.094   2.527
    1C        C  407   4.401   3.975   2.528
    1C        C  408   4.272   4.147   2.648
    1C        C  409   4.312   4.090   2.770
    1C        C  410   4.171   4.254   2.889
    1C        C  411   4.265   4.149   2.890
    1C        C  412   4.123   4.303   3.012
    1C        C  413   4.171   4.255   3.137
    1C        C  414   4.000   4.381   3.255
    1C        C  415   4.116   4.301   3.259
    1C        C  416   3.945   4.422   3.379
    1C        C  417   4.008   4.392   3.502
    1C        C  418   3.817   4.486   3.621
    1C        C  419   3.946   4.429   3.624
    1C        C  420   3.748   4.506   3.742
    1C        C  421   3.814   4.485   3.865
    1C        C  422   3.608   4.532   3.986
    1C        C  423   3.747   4.504   3.988
    1C        C  424   3.540   4.535   4.110
    1C        C  425   3.609   4.535   4.233
    1C        C  426   3.400   4.550   4.358
    1C        C  427   3.542   4.551   4.356
    1C        C  428   3.331   4.552   4.481
    1C        C  429   3.405   4.562   4.601
    1C        C  430   3.194   4.519   4.725
    1C        C  431   3.333   4.547   4.722
    1C        C  432   3.126   4.489   4.846
    1C        C  433   3.206   4.495   4.961
    1C        C  434   4.385   4.123   2.052
    1C        C  435   4.449   3.999   2.058
    1C        C  436   4.301   4.160   2.162
    1C        C  437   4.332   4.096   2.285
    1C        C  438   4.184   4.252   2.404
    1C        C  439   4.282   4.150   2.405
    1C        C  440   4.130   4.303   2.524
    1C        C  441   4.177   4.251   2.646
    1C        C  442   4.007   4.386   2.766
    1C        C  443   4.121   4.302   2.766
    1C        C  444   3.948   4.423   2.889
    1C        C  445   4.007   4.383   3.011
    1C        C  446   3.815   4.479   3.133
    1C        C  447   3.943   4.419   3.131
    1C        C  448   3.750   4.502   3.256
    1C        C  449   3.815   4.477   3.378
    1C        C  450   3.608   4.527   3.500
    1C        C  451   3.747   4.504   3.499
    1C        C  452   3.536   4.541   3.621
    1C        C  453   3.610   4.538   3.741
    1C        C  454   3.398   4.548   3.866
    1C        C  455   3.539   4.544   3.864
    1C        C  456   3.329   4.540   3.989
    1C        C  457   3.399   4.539   4.112
    1C        C  458   3.192   4.509   4.239
    1C        C  459   3.330   4.538   4.236
    1C        C  460   3.128   4.484   4.362
    1C        C  461   3.195   4.513   4.483
    1C        C  462   2.999   4.429   4.604
    1C        C  463   3.127   4.489   4.604
    1C        C  464   2.933   4.396   4.725
    1C        C  465   2.991   4.441   4.847
    1C        C  466   2.794   4.341   4.957
    1C        C  467   2.905   4.425   4.961
    1C        C  468   4.127   4.293   2.043
    1C        C  469   4.189   4.249   2.161
    1C        C  470   4.009   4.372   2.281
    1C        C  471   4.129   4.295   2.281
    1C        C  472   3.941   4.405   2.401
    1C        C  473   4.008   4.374   2.521
    1C        C  474   3.816   4.467   2.645
    1C        C  475   3.949   4.418   2.642
    1C        C  476   3.749   4.492   2.766
    1C        C  477   3.816   4.473   2.890
    1C        C  478   3.608   4.523   3.009
    1C        C  479   3.747   4.498   3.010
    1C        C  480   3.539   4.535   3.132
    1C        C  481   3.610   4.521   3.254
    1C        C  482   3.399   4.538   3.375
    1C        C  483   3.540   4.534   3.376
    1C        C  484   3.328   4.531   3.498
    1C        C  485   3.395   4.545   3.621
    1C        C  486   3.191   4.500   3.747
    1C        C  487   3.326   4.540   3.745
    1C        C  488   3.128   4.475   3.871
    1C        C  489   3.194   4.498   3.993
    1C        C  490   3.002   4.416   4.114
    1C        C  491   3.128   4.481   4.117
    1C        C  492   2.945   4.381   4.238
    1C        C  493   3.001   4.423   4.361
    1C        C  494   2.833   4.295   4.482
    1C        C  495   2.938   4.390   4.483
    1C        C  496   2.775   4.249   4.603
    1C        C  497   2.820   4.310   4.722
    1C        C  498   2.669   4.161   4.846
    1C        C  499   2.752   4.275   4.841
    1C        C  500   2.596   4.116   4.957
    1C        C  501   4.005   4.361   2.044
    1C        C  502   3.817   4.467   2.155
    1C        C  503   3.946   4.410   2.161
    1C        C  504   3.747   4.485   2.277
    1C        C  505   3.813   4.463   2.400
    1C        C  506   3.608   4.512   2.522
    1C        C  507   3.746   4.483   2.523
    1C        C  508   3.539   4.523   2.645
    1C        C  509   3.611   4.522   2.766
    1C        C  510   3.396   4.531   2.885
    1C        C  511   3.538   4.530   2.887
    1C        C  512   3.327   4.525   3.008
    1C        C  513   3.398   4.536   3.130
    1C        C  514   3.193   4.491   3.256
    1C        C  515   3.329   4.527   3.253
    1C        C  516   3.128   4.466   3.379
    1C        C  517   3.193   4.492   3.502
    1C        C  518   2.997   4.413   3.626
    1C        C  519   3.125   4.473   3.625
    1C        C  520   2.937   4.375   3.748
    1C        C  521   3.001   4.413   3.869
    1C        C  522   2.837   4.283   3.997
    1C        C  523   2.942   4.378   3.992
    1C        C  524   2.789   4.233   4.120
    1C        C  525   2.839   4.287   4.241
    1C        C  526   2.697   4.130   4.365
    1C        C  527   2.782   4.243   4.362
    1C        C  528   2.652   4.073   4.486
    1C        C  529   2.689   4.138   4.607
    1C        C  530   2.581   3.958   4.732
    1C        C  531   2.640   4.087   4.729
    1C        C  532   2.542   3.899   4.855
    1C        C  533   2.525   3.995   4.960
    1C        C  534   3.616   4.557   2.040
    1C        C  535   3.750   4.516   2.043
    1C        C  536   3.535   4.539   2.156
    1C        C  537   3.607   4.511   2.276
    1C        C  538   3.397   4.513   2.401
    1C        C  539   3.538   4.520   2.399
    1C        C  540   3.325   4.508   2.523
    1C        C  541   3.398   4.516   2.644
    1C        C  542   3.187   4.488   2.765
    1C        C  543   3.325   4.519   2.764
    1C        C  544   3.125   4.463   2.889
    1C        C  545   3.191   4.488   3.012
    1C        C  546   2.999   4.401   3.135
    1C        C  547   3.124   4.467   3.135
    1C        C  548   2.944   4.362   3.259
    1C        C  549   3.005   4.397   3.382
    1C        C  550   2.832   4.278   3.504
    1C        C  551   2.943   4.366   3.505
    1C        C  552   2.782   4.231   3.628
    1C        C  553   2.830   4.283   3.750
    1C        C  554   2.705   4.118   3.877
    1C        C  555   2.786   4.233   3.875
    1C        C  556   2.668   4.059   4.000
    1C        C  557   2.702   4.121   4.121
    1C        C  558   2.593   3.942   4.245
    1C        C  559   2.659   4.067   4.244
    1C        C  560   2.565   3.876   4.367
    1C        C  561   2.592   3.946   4.488
    1C        C  562   2.534   3.747   4.618
    1C        C  563   2.561   3.886   4.612
    1C        C  564   2.516   3.679   4.740
    1C        C  565   2.520   3.757   4.858
    1C        C  566   2.522   3.543   4.981
    1C        C  567   2.528   3.682   4.976
    1C        C  568   3.324   4.476   2.045
    1C        C  569   3.394   4.518   2.158
    1C        C  570   3.186   4.472   2.280
    1C        C  571   3.324   4.506   2.281
    1C        C  572   3.118   4.454   2.402
    1C        C  573   3.188   4.477   2.523
    1C        C  574   2.990   4.403   2.649
    1C        C  575   3.118   4.463   2.645
    1C        C  576   2.939   4.355   2.772
    1C        C  577   3.002   4.393   2.893
    1C        C  578   2.832   4.267   3.017
    1C        C  579   2.938   4.360   3.014
    1C        C  580   2.779   4.221   3.140
    1C        C  581   2.830   4.279   3.259
    1C        C  582   2.700   4.113   3.387
    1C        C  583   2.785   4.226   3.382
    1C        C  584   2.658   4.059   3.511
    1C        C  585   2.696   4.119   3.633
    1C        C  586   2.598   3.933   3.756
    1C        C  587   2.661   4.059   3.756
    1C        C  588   2.575   3.867   3.879
    1C        C  589   2.603   3.933   4.000
    1C        C  590   2.533   3.737   4.126
    1C        C  591   2.569   3.874   4.124
    1C        C  592   2.525   3.670   4.250
    1C        C  593   2.535   3.739   4.373
    1C        C  594   2.513   3.533   4.497
    1C        C  595   2.521   3.674   4.498
    1C        C  596   2.516   3.462   4.619
    1C        C  597   2.514   3.536   4.739
    1C        C  598   2.522   3.327   4.863
    1C        C  599   2.520   3.468   4.863
    1C        C  600   2.529   3.247   4.978
    1C        C  601   3.192   4.435   2.046
    1C        C  602   2.975   4.403   2.162
    1C        C  603   3.112   4.446   2.161
    1C        C  604   2.921   4.362   2.287
    1C        C  605   2.992   4.391   2.406
    1C        C  606   2.823   4.267   2.529
    1C        C  607   2.929   4.361   2.529
    1C        C  608   2.779   4.214   2.652
    1C        C  609   2.831   4.265   2.773
    1C        C  610   2.685   4.111   2.897
    1C        C  611   2.779   4.216   2.896
    1C        C  612   2.653   4.052   3.022
    1C        C  613   2.689   4.112   3.144
    1C        C  614   2.594   3.925   3.267
    1C        C  615   2.657   4.051   3.268
    1C        C  616   2.570   3.865   3.393
    1C        C  617   2.598   3.931   3.515
    1C        C  618   2.526   3.730   3.640
    1C        C  619   2.572   3.863   3.636
    1C        C  620   2.513   3.662   3.763
    1C        C  621   2.529   3.733   3.883
    1C        C  622   2.502   3.524   4.010
    1C        C  623   2.515   3.664   4.006
    1C        C  624   2.507   3.453   4.133
    1C        C  625   2.512   3.529   4.252
    1C        C  626   2.538   3.322   4.378
    1C        C  627   2.515   3.461   4.375
    1C        C  628   2.556   3.254   4.500
    1C        C  629   2.536   3.322   4.622
    1C        C  630   2.589   3.117   4.742
    1C        C  631   2.545   3.252   4.745
    1C        C  632   2.614   3.054   4.867
    1C        C  633   2.558   3.110   4.986
    1C        C  634   2.786   4.300   2.052
    1C        C  635   2.890   4.394   2.047
    1C        C  636   2.749   4.232   2.169
    1C        C  637   2.808   4.276   2.289
    1C        C  638   2.673   4.112   2.409
    1C        C  639   2.759   4.224   2.411
    1C        C  640   2.641   4.049   2.532
    1C        C  641   2.686   4.107   2.652
    1C        C  642   2.581   3.926   2.778
    1C        C  643   2.647   4.051   2.776
    1C        C  644   2.563   3.858   2.900
    1C        C  645   2.594   3.924   3.022
    1C        C  646   2.525   3.725   3.149
    1C        C  647   2.564   3.860   3.145
    1C        C  648   2.512   3.659   3.274
    1C        C  649   2.526   3.731   3.395
    1C        C  650   2.507   3.520   3.518
    1C        C  651   2.515   3.661   3.517
    1C        C  652   2.511   3.452   3.643
    1C        C  653   2.502   3.521   3.766
    1C        C  654   2.521   3.312   3.889
    1C        C  655   2.497   3.451   3.889
    1C        C  656   2.535   3.242   4.011
    1C        C  657   2.525   3.313   4.133
    1C        C  658   2.583   3.112   4.257
    1C        C  659   2.548   3.249   4.257
    1C        C  660   2.630   3.054   4.377
    1C        C  661   2.602   3.120   4.499
    1C        C  662   2.711   2.941   4.626
    1C        C  663   2.626   3.054   4.622
    1C        C  664   2.752   2.882   4.748
    1C        C  665   2.700   2.939   4.868
    1C        C  666   2.741   2.869   4.982
    1C        C  667   2.677   4.028   2.054
    1C        C  668   2.682   4.108   2.169
    1C        C  669   2.586   3.914   2.291
    1C        C  670   2.639   4.046   2.288
    1C        C  671   2.558   3.851   2.414
    1C        C  672   2.581   3.921   2.534
    1C        C  673   2.521   3.720   2.662
    1C        C  674   2.554   3.857   2.657
    1C        C  675   2.504   3.650   2.784
    1C        C  676   2.519   3.724   2.903
    1C        C  677   2.504   3.515   3.028
    1C        C  678   2.509   3.656   3.027
    1C        C  679   2.512   3.447   3.152
    1C        C  680   2.506   3.518   3.274
    1C        C  681   2.531   3.309   3.397
    1C        C  682   2.508   3.448   3.396
    1C        C  683   2.552   3.246   3.522
    1C        C  684   2.530   3.312   3.645
    1C        C  685   2.604   3.115   3.770
    1C        C  686   2.545   3.244   3.768
    1C        C  687   2.637   3.055   3.894
    1C        C  688   2.596   3.115   4.015
    1C        C  689   2.712   2.939   4.139
    1C        C  690   2.624   3.050   4.138
    1C        C  691   2.753   2.883   4.262
    1C        C  692   2.708   2.937   4.385
    1C        C  693   2.753   2.880   4.506
    1C        C  694   2.629   3.897   2.057
    1C        C  695   2.529   3.705   2.174
    1C        C  696   2.575   3.838   2.173
    1C        C  697   2.503   3.642   2.298
    1C        C  698   2.517   3.716   2.417
    1C        C  699   2.486   3.508   2.541
    1C        C  700   2.502   3.649   2.541
    1C        C  701   2.498   3.438   2.663
    1C        C  702   2.499   3.509   2.785
    1C        C  703   2.528   3.301   2.907
    1C        C  704   2.502   3.440   2.908
    1C        C  705   2.548   3.236   3.031
    1C        C  706   2.531   3.307   3.153
    1C        C  707   2.600   3.108   3.279
    1C        C  708   2.547   3.238   3.275
    1C        C  709   2.635   3.049   3.403
    1C        C  710   2.606   3.115   3.524
    1C        C  711   2.714   2.935   3.649
    1C        C  712   2.634   3.052   3.647
    1C        C  713   2.763   2.884   3.771
    1C        C  714   2.716   2.938   3.893
    1C        C  715   2.754   2.882   4.017
    1C        C  716   2.452   3.499   2.066
    1C        C  717   2.495   3.632   2.059
    1C        C  718   2.469   3.422   2.184
    1C        C  719   2.477   3.502   2.302
    1C        C  720   2.510   3.291   2.422
    1C        C  721   2.484   3.430   2.423
    1C        C  722   2.532   3.226   2.545
    1C        C  723   2.516   3.298   2.666
    1C        C  724   2.596   3.099   2.789
    1C        C  725   2.540   3.229   2.787
    1C        C  726   2.628   3.039   2.913
    1C        C  727   2.599   3.105   3.034
    1C        C  728   2.710   2.925   3.159
    1C        C  729   2.635   3.045   3.157
    1C        C  730   2.754   2.870   3.282
    1C        C  731   2.711   2.930   3.403
    1C        C  732   2.757   2.880   3.526
    1C        C  733   2.489   3.198   2.070
    1C        C  734   2.490   3.280   2.184
    1C        C  735   2.585   3.085   2.307
    1C        C  736   2.527   3.215   2.304
    1C        C  737   2.617   3.023   2.430
    1C        C  738   2.594   3.099   2.547
    1C        C  739   2.703   2.915   2.672
    1C        C  740   2.631   3.036   2.668
    1C        C  741   2.747   2.860   2.795
    1C        C  742   2.705   2.921   2.916
    1C        C  743   2.750   2.865   3.038
    1C        C  744   2.540   3.069   2.075
    1C        C  745   2.686   2.898   2.188
    1C        C  746   2.604   3.013   2.187
    1C        C  747   2.734   2.844   2.309
    1C        C  748   2.693   2.904   2.430
    1C        C  749   2.740   2.851   2.552
    1C        C  750   2.740   2.843   2.071
    1C        C  751   3.662   2.311   1.980
    1C        O  752   3.657   2.190   2.014
    1C        O  753   3.670   2.342   1.844
    1C        C  754   4.624   3.036   1.980
    1C        O  755   4.614   3.019   1.856
    1C        O  756   4.751   2.996   2.025
    1C        C  757   4.448   4.221   1.960
    1C        O  758   4.516   4.309   2.020
    1C        O  759   4.497   4.200   1.831
    1C        C  760   3.586   4.670   1.949
    1C        O  761   3.632   4.783   1.982
    1C        O  762   3.531   4.660   1.820
    1C        C  763   2.875   4.509   1.955
    1C        O  764   2.965   4.542   1.873
    1C        O  765   2.786   4.615   1.978
    1C        C  766   2.337   3.471   1.977
    1C        O  767   2.352   3.460   1.852
    1C        O  768   2.219   3.542   2.005
    1C        C  769   4.701   3.604   5.046
    1C        O  770   4.687   3.571   5.167
    1C        O  771   4.827   3.658   5.017
    1C        C  772   4.283   4.458   5.021
    1C        O  773   4.272   4.477   5.145
    1C        O  774   4.350   4.570   4.971
    1C        C  775   4.145   2.498   5.059
    1C        O  776   4.240   2.433   5.008
    1C        O  777   4.187   2.534   5.187
    1C        C  778   2.915   4.516   5.078
    1C        O  779   2.882   4.637   5.075
    1C        O  780   2.931   4.467   5.208
    1C        C  781   2.486   3.033   5.089
    1C        O  782   2.377   2.975   5.061
    1C        O  783   2.536   2.996   5.213
    1C        C  784   2.398   4.006   5.034
    1C        O  785   2.284   4.027   4.983
    1C        O  786   2.401   4.015   5.174
    1C        C  787   2.939   2.417   2.023
    1C        O  788   2.933   2.426   1.898
    1C        O  789   2.942   2.285   2.068
    1C        C  790   3.158   2.356   5.037
    1C        O  791   3.144   2.254   4.965
    1C        O  792   3.159   2.341   5.176
    1C        H  793   4.275   3.029   5.057
    1C        H  794   4.185   2.810   5.078
    1C        H  795   4.508   3.129   5.056
    1C        H  796   4.505   3.379   5.064
    1C        H  797   4.566   3.818   5.037
    1C        H  798   4.373   3.956   5.048
    1C        H  799   4.331   4.195   5.047
    1C        H  800   4.019   4.507   5.043
    1C        H  801   3.807   4.544   5.047
    1C        H  802   3.595   4.662   5.028
    1C        H  803   3.392   4.504   5.054
    1C        H  804   3.166   4.445   5.047
    1C        H  805   3.886   2.500   5.070
    1C        H  806   3.669   2.403   5.049
    1C        H  807   2.991   2.537   5.052
    1C        H  808   3.441   2.478   5.080
    1C        H  809   2.917   2.786   5.065
    1C        H  810   2.695   2.885   5.078
    1C        H  811   2.522   3.297   5.072
    1C        H  812   2.482   3.501   5.071
    1C        H  813   2.531   3.731   5.072
    1C        H  814   2.596   4.177   5.045
    1C        H  815   2.758   4.308   5.053
    1C        H  816   2.688   2.866   1.980
    1C        H  817   2.816   2.668   1.987
    1C        H  818   3.201   2.416   1.995
    1C        H  819   3.424   2.444   1.981
    1C        H  820   3.839   2.546   1.973
    1C        H  821   4.058   2.625   1.968
    1C        H  822   4.241   2.724   1.969
    1C        H  823   4.326   2.956   1.981
    1C        H  824   4.577   3.314   1.975
    1C        H  825   4.490   3.521   1.960
    1C        H  826   4.556   3.755   1.976
    1C        H  827   3.798   4.511   1.947
    1C        H  828   3.974   4.402   1.950
    1C        H  829   4.175   4.276   1.950
    1C        H  830   4.520   3.977   1.981
    1C        H  831   2.656   3.840   1.970
    1C        H  832   2.713   4.069   1.962
    1C        H  833   2.711   4.315   1.978
    1C        H  834   3.365   4.475   1.946
    1C        H  835   3.144   4.424   1.951
    1C        H  836   2.525   3.011   1.986
    1C        H  837   2.399   3.207   2.013
    1C        H  838   2.496   3.682   1.964
    2V3OU   H29  839   2.811   3.547   3.725
    2V3OU   C27  840   2.794   3.499   3.825
    2V3OU   H27  841   2.735   3.564   3.895
    2V3OU   H28  842   2.742   3.402   3.808
    2V3OU   O11  843   2.913   3.480   3.903
    2V3OU   C15  844   2.926   3.400   4.014
    2V3OU   C13  845   3.055   3.378   4.066
    2V3OU   C14  846   3.081   3.272   4.153
    2V3OU   C16  847   2.981   3.189   4.203
    2V3OU    H6  848   2.996   3.105   4.272
    2V3OU   C12  849   3.219   3.223   4.176
    2V3OU    O2  850   3.238   3.119   4.244
    2V3OU   C10  851   3.327   3.309   4.126
    2V3OU    C8  852   3.459   3.274   4.150
    2V3OU   O10  853   3.494   3.153   4.201
    2V3OU   H26  854   3.409   3.112   4.223
    2V3OU    C6  855   3.567   3.353   4.099
    2V3OU    C5  856   3.538   3.466   4.023
    2V3OU    C4  857   3.704   3.294   4.089
    2V3OU    H4  858   3.723   3.229   4.179
    2V3OU    H5  859   3.710   3.227   3.999
    2V3OU    C2  860   3.815   3.400   4.087
    2V3OU    O6  861   3.806   3.477   4.207
    2V3OU   H21  862   3.765   3.560   4.178
    2V3OU    C3  863   3.783   3.499   3.975
    2V3OU    H2  864   3.869   3.571   3.972
    2V3OU    H3  865   3.784   3.434   3.884
    2V3OU   C25  866   3.955   3.339   4.072
    2V3OU    O7  867   3.998   3.304   3.962
    2V3OU   C26  868   4.033   3.293   4.193
    2V3OU   H22  869   4.065   3.385   4.249
    2V3OU   H23  870   4.119   3.227   4.163
    2V3OU    O8  871   3.958   3.212   4.281
    2V3OU   H24  872   3.924   3.271   4.349
    2V3OU    C1  873   3.647   3.564   3.990
    2V3OU    H1  874   3.624   3.617   3.892
    2V3OU    O3  875   3.668   3.654   4.098
    2V3OU   C19  876   3.620   3.788   4.079
    2V3OU    H9  877   3.522   3.805   4.026
    2V3OU    O4  878   3.712   3.849   3.992
    2V3OU   C20  879   3.843   3.875   4.041
    2V3OU   H10  880   3.882   3.771   4.062
    2V3OU   C24  881   3.610   3.858   4.215
    2V3OU   H16  882   3.546   3.799   4.285
    2V3OU   H17  883   3.563   3.959   4.201
    2V3OU   C23  884   3.751   3.875   4.271
    2V3OU   H15  885   3.792   3.770   4.292
    2V3OU    N1  886   3.737   3.957   4.390
    2V3OU   H19  887   3.814   3.927   4.447
    2V3OU   H20  888   3.651   3.933   4.435
    2V3OU   C21  889   3.848   3.950   4.174
    2V3OU   H11  890   3.953   3.922   4.203
    2V3OU    O5  891   3.832   4.091   4.167
    2V3OU   H18  892   3.792   4.111   4.253
    2V3OU   C22  893   3.909   3.952   3.927
    2V3OU   H12  894   3.864   4.053   3.917
    2V3OU   H13  895   3.906   3.890   3.834
    2V3OU   H14  896   4.020   3.953   3.940
    2V3OU   C11  897   3.162   3.475   4.036
    2V3OU    O1  898   3.141   3.595   4.006
    2V3OU    C9  899   3.301   3.428   4.053
    2V3OU    C7  900   3.403   3.505   3.999
    2V3OU    O9  901   3.385   3.623   3.928
    2V3OU   H25  902   3.289   3.633   3.923
    2V3OU   C17  903   2.826   3.318   4.070
    2V3OU    H7  904   2.732   3.352   4.029
    2V3OU   C18  905   2.851   3.220   4.166
    2V3OU    H8  906   2.789   3.176   4.246
    3SOL     OW  907   2.883   4.129   5.575
    3SOL    HW1  908   2.835   4.146   5.490
    3SOL    HW2  909   2.867   4.205   5.638
    4SOL     OW  910   6.357   6.862   6.725
    4SOL    HW1  911   6.312   6.869   6.814
    4SOL    HW2  912   6.380   6.953   6.691
    5SOL     OW  913   4.588   1.775   2.671
    5SOL    HW1  914   4.579   1.690   2.724
    5SOL    HW2  915   4.509   1.785   2.610
    6SOL     OW  916   4.981   2.449   3.414
    6SOL    HW1  917   5.044   2.451   3.337
    6SOL    HW2  918   4.890   2.421   3.381
    7SOL     OW  919   0.993   3.996   3.901
    7SOL    HW1  920   1.078   4.000   3.954
    7SOL    HW2  921   0.958   3.902   3.901
    8SOL     OW  922   2.970   2.115   5.507
    8SOL    HW1  923   3.064   2.105   5.475
    8SOL    HW2  924   2.936   2.026   5.539
    9SOL     OW  925   6.417   1.809   5.953
    9SOL    HW1  926   6.369   1.721   5.948
    9SOL    HW2  927   6.489   1.804   6.022
   10SOL     OW  928   3.214   4.888   4.037
   10SOL    HW1  929   3.275   4.853   3.966
   10SOL    HW2  930   3.155   4.960   3.998
   11SOL     OW  931   1.770   1.297   6.806
   11SOL    HW1  932   1.733   1.389   6.814
   11SOL    HW2  933   1.709   1.241   6.751
   12SOL     OW  934   2.679   4.747   4.112
   12SOL    HW1  935   2.669   4.689   4.031
   12SOL    HW2  936   2.774   4.745   4.142
   13SOL     OW  937   3.832   6.189   2.641
   13SOL    HW1  938   3.909   6.240   2.603
   13SOL    HW2  939   3.850   6.090   2.634
   14SOL     OW  940   4.326   4.087   6.138
   14SOL    HW1  941   4.312   4.034   6.222
   14SOL    HW2  942   4.417   4.129   6.140
   15SOL     OW  943   0.686   6.648   6.494
   15SOL    HW1  944   0.690   6.692   6.584
   15SOL    HW2  945   0.708   6.715   6.423
   16SOL     OW  946   6.043   2.501   6.279
   16SOL    HW1  947   6.115   2.570   6.286
   16SOL    HW2  948   5.987   2.501   6.362
   17SOL     OW  949   5.115   0.497   6.545
   17SOL    HW1  950   5.024   0.455   6.544
   17SOL    HW2  951   5.153   0.492   6.637
   18SOL     OW  952   4.133   1.332   4.957
   18SOL    HW1  953   4.057   1.272   4.980
   18SOL    HW2  954   4.164   1.379   5.040
   19SOL     OW  955   0.796   2.232   2.121
   19SOL    HW1  956   0.890   2.202   2.137
   19SOL    HW2  957   0.734   2.181   2.182
   20SOL     OW  958   5.325   1.939   5.224
   20SOL    HW1  959   5.389   1.885   5.169
   20SOL    HW2  960   5.369   2.023   5.253
   21SOL     OW  961   2.729   0.476   2.941
   21SOL    HW1  962   2.668   0.407   2.981
   21SOL    HW2  963   2.795   0.507   3.009
   22SOL     OW  964   0.950   6.400   6.457
   22SOL    HW1  965   1.003   6.468   6.506
   22SOL    HW2  966   1.005   6.363   6.382
   23SOL     OW  967   3.983   5.334   2.110
   23SOL    HW1  968   3.997   5.419   2.058
   23SOL    HW2  969   4.009   5.349   2.205
   24SOL     OW  970   3.621   6.986   2.445
   24SOL    HW1  971   3.673   0.038   2.406
   24SOL    HW2  972   3.621   6.992   2.545
   25SOL     OW  973   2.515   0.001   4.219
   25SOL    HW1  974   2.520   0.053   4.304
   25SOL    HW2  975   2.497   6.929   4.239
   26SOL     OW  976   0.294   2.151   6.925
   26SOL    HW1  977   0.281   2.214   7.001
   26SOL    HW2  978   0.339   2.199   6.850
   27SOL     OW  979   1.588   1.441   1.985
   27SOL    HW1  980   1.501   1.472   2.023
   27SOL    HW2  981   1.601   1.482   1.894
   28SOL     OW  982   0.481   1.165   4.831
   28SOL    HW1  983   0.470   1.084   4.774
   28SOL    HW2  984   0.532   1.235   4.781
   29SOL     OW  985   6.472   1.051   1.260
   29SOL    HW1  986   6.486   0.959   1.298
   29SOL    HW2  987   6.542   1.069   1.191
   30SOL     OW  988   3.841   0.370   5.360
   30SOL    HW1  989   3.742   0.357   5.356
   30SOL    HW2  990   3.887   0.282   5.363
   31SOL     OW  991   0.475   2.254   5.644
   31SOL    HW1  992   0.529   2.173   5.669
   31SOL    HW2  993   0.537   2.327   5.615
   32SOL     OW  994   1.920   1.531   2.361
   32SOL    HW1  995   2.001   1.488   2.399
   32SOL    HW2  996   1.870   1.579   2.434
   33SOL     OW  997   0.955   4.429   5.116
   33SOL    HW1  998   0.923   4.443   5.210
   33SOL    HW2  999   0.998   4.513   5.083
   34SOL     OW 1000   2.210   5.754   4.931
   34SOL    HW1 1001   2.133   5.817   4.942
   34SOL    HW2 1002   2.182   5.679   4.870
   35SOL     OW 1003   4.417   1.768   5.502
   35SOL    HW1 1004   4.392   1.720   5.586
   35SOL    HW2 1005   4.335   1.783   5.447
   36SOL     OW 1006   5.387   1.514   3.612
   36SOL    HW1 1007   5.430   1.514   3.703
   36SOL    HW2 1008   5.329   1.433   3.603
   37SOL     OW 1009   1.957   1.464   4.951
   37SOL    HW1 1010   1.976   1.474   4.853
   37SOL    HW2 1011   1.999   1.540   5.001
   38SOL     OW 1012   2.336   4.071   1.950
   38SOL    HW1 1013   2.317   3.988   2.001
   38SOL    HW2 1014   2.380   4.048   1.863
   39SOL     OW 1015   6.548   4.911   6.035
   39SOL    HW1 1016   6.591   4.884   6.121
   39SOL    HW2 1017   6.486   4.839   6.005
   40SOL     OW 1018   3.581   1.739   6.625
   40SOL    HW1 1019   3.543   1.832   6.633
   40SOL    HW2 1020   3.673   1.744   6.588
   41SOL     OW 1021   6.526   3.616   2.730
   41SOL    HW1 1022   6.575   3.690   2.682
   41SOL    HW2 1023   6.441   3.596   2.682
   42SOL     OW 1024   3.122   6.161   4.454
   42SOL    HW1 1025   3.191   6.174   4.383
   42SOL    HW2 1026   3.051   6.230   4.445
   43SOL     OW 1027   4.207   0.350   5.478
   43SOL    HW1 1028   4.195   0.392   5.568
   43SOL    HW2 1029   4.128   0.291   5.459
   44SOL     OW 1030   6.246   2.788   4.694
   44SOL    HW1 1031   6.194   2.776   4.778
   44SOL    HW2 1032   6.344   2.785   4.715
   45SOL     OW 1033   3.907   5.477   1.281
   45SOL    HW1 1034   3.892   5.551   1.216
   45SOL    HW2 1035   3.862   5.394   1.249
   46SOL     OW 1036   0.517   2.628   4.317
   46SOL    HW1 1037   0.600   2.681   4.332
   46SOL    HW2 1038   0.526   2.575   4.232
   47SOL     OW 1039   4.567   3.622   1.192
   47SOL    HW1 1040   4.627   3.607   1.271
   47SOL    HW2 1041   4.479   3.659   1.224
   48SOL     OW 1042   0.168   2.759   6.187
   48SOL    HW1 1043   0.131   2.691   6.125
   48SOL    HW2 1044   0.221   2.713   6.259
   49SOL     OW 1045   5.450   2.912   1.328
   49SOL    HW1 1046   5.533   2.960   1.299
   49SOL    HW2 1047   5.439   2.922   1.427
   50SOL     OW 1048   6.146   1.527   5.201
   50SOL    HW1 1049   6.162   1.626   5.206
   50SOL    HW2 1050   6.092   1.498   5.280
   51SOL     OW 1051   2.095   6.345   3.069
   51SOL    HW1 1052   2.190   6.376   3.071
   51SOL    HW2 1053   2.087   6.264   3.011
   52SOL     OW 1054   5.166   3.247   2.058
   52SOL    HW1 1055   5.068   3.238   2.075
   52SOL    HW2 1056   5.217   3.217   2.139
   53SOL     OW 1057   5.285   0.332   3.573
   53SOL    HW1 1058   5.200   0.361   3.618
   53SOL    HW2 1059   5.318   0.404   3.513
   54SOL     OW 1060   5.303   7.013   0.215
   54SOL    HW1 1061   5.278   0.045   0.293
   54SOL    HW2 1062   5.224   6.958   0.187
   55SOL     OW 1063   2.364   2.213   5.573
   55SOL    HW1 1064   2.404   2.280   5.510
   55SOL    HW2 1065   2.433   2.147   5.601
   56SOL     OW 1066   1.424   1.915   1.113
   56SOL    HW1 1067   1.486   1.986   1.145
   56SOL    HW2 1068   1.389   1.940   1.022
   57SOL     OW 1069   3.519   1.210   0.184
   57SOL    HW1 1070   3.498   1.239   0.091
   57SOL    HW2 1071   3.541   1.112   0.184
   58SOL     OW 1072   0.475   7.005   5.931
   58SOL    HW1 1073   0.509   7.021   5.839
   58SOL    HW2 1074   0.546   6.962   5.987
   59SOL     OW 1075   6.433   3.673   5.967
   59SOL    HW1 1076   6.487   3.634   6.041
   59SOL    HW2 1077   6.380   3.601   5.922
   60SOL     OW 1078   5.246   2.467   3.942
   60SOL    HW1 1079   5.171   2.402   3.957
   60SOL    HW2 1080   5.213   2.560   3.957
   61SOL     OW 1081   6.979   1.045   4.478
   61SOL    HW1 1082   6.984   1.018   4.382
   61SOL    HW2 1083   6.932   0.973   4.530
   62SOL     OW 1084   1.878   1.262   1.450
   62SOL    HW1 1085   1.950   1.194   1.462
   62SOL    HW2 1086   1.884   1.330   1.523
   63SOL     OW 1087   3.908   0.194   3.822
   63SOL    HW1 1088   3.899   0.095   3.809
   63SOL    HW2 1089   3.820   0.238   3.801
   64SOL     OW 1090   0.530   3.555   6.484
   64SOL    HW1 1091   0.606   3.604   6.442
   64SOL    HW2 1092   0.449   3.564   6.426
   65SOL     OW 1093   1.315   6.249   5.528
   65SOL    HW1 1094   1.340   6.190   5.451
   65SOL    HW2 1095   1.271   6.332   5.493
   66SOL     OW 1096   3.315   0.009   3.116
   66SOL    HW1 1097   3.383   0.075   3.150
   66SOL    HW2 1098   3.362   6.963   3.062
   67SOL     OW 1099   0.169   3.155   6.076
   67SOL    HW1 1100   0.143   3.125   6.168
   67SOL    HW2 1101   0.268   3.161   6.070
   68SOL     OW 1102   6.981   1.422   6.062
   68SOL    HW1 1103   0.050   1.398   6.089
   68SOL    HW2 1104   6.921   1.344   6.078
   69SOL     OW 1105   1.993   3.179   5.939
   69SOL    HW1 1106   2.048   3.160   6.019
   69SOL    HW2 1107   2.052   3.193   5.860
   70SOL     OW 1108   5.591   5.075   4.919
   70SOL    HW1 1109   5.688   5.050   4.925
   70SOL    HW2 1110   5.556   5.094   5.010
   71SOL     OW 1111   4.767   1.671   3.387
   71SOL    HW1 1112   4.725   1.746   3.439
   71SOL    HW2 1113   4.742   1.584   3.429
   72SOL     OW 1114   0.302   1.000   3.224
   72SOL    HW1 1115   0.330   1.021   3.318
   72SOL    HW2 1116   0.204   0.985   3.221
   73SOL     OW 1117   3.044   0.313   1.136
   73SOL    HW1 1118   2.971   0.247   1.121
   73SOL    HW2 1119   3.080   0.345   1.048
   74SOL     OW 1120   2.608   1.183   6.433
   74SOL    HW1 1121   2.540   1.113   6.411
   74SOL    HW2 1122   2.695   1.159   6.390
   75SOL     OW 1123   3.819   1.231   1.627
   75SOL    HW1 1124   3.771   1.146   1.608
   75SOL    HW2 1125   3.761   1.309   1.601
   76SOL     OW 1126   1.960   4.100   6.128
   76SOL    HW1 1127   1.937   4.021   6.186
   76SOL    HW2 1128   1.878   4.131   6.081
   77SOL     OW 1129   2.051   5.880   3.080
   77SOL    HW1 1130   2.132   5.821   3.084
   77SOL    HW2 1131   1.999   5.871   3.164
   78SOL     OW 1132   4.030   1.354   1.134
   78SOL    HW1 1133   4.028   1.281   1.066
   78SOL    HW2 1134   3.943   1.405   1.130
   79SOL     OW 1135   2.424   5.957   1.900
   79SOL    HW1 1136   2.409   5.916   1.810
   79SOL    HW2 1137   2.456   6.052   1.888
   80SOL     OW 1138   4.276   1.859   4.583
   80SOL    HW1 1139   4.263   1.879   4.486
   80SOL    HW2 1140   4.235   1.933   4.637
   81SOL     OW 1141   2.019   6.830   0.724
   81SOL    HW1 1142   2.050   6.746   0.768
   81SOL    HW2 1143   1.984   6.810   0.633
   82SOL     OW 1144   0.145   5.957   1.818
   82SOL    HW1 1145   0.145   5.898   1.898
   82SOL    HW2 1146   0.197   5.913   1.744
   83SOL     OW 1147   0.280   1.968   6.105
   83SOL    HW1 1148   0.354   1.939   6.045
   83SOL    HW2 1149   0.287   1.919   6.192
   84SOL     OW 1150   6.625   4.044   2.840
   84SOL    HW1 1151   6.605   4.125   2.784
   84SOL    HW2 1152   6.677   4.071   2.920
   85SOL     OW 1153   1.773   0.389   3.326
   85SOL    HW1 1154   1.831   0.468   3.348
   85SOL    HW2 1155   1.814   0.306   3.365
   86SOL     OW 1156   6.656   1.087   6.600
   86SOL    HW1 1157   6.744   1.133   6.606
   86SOL    HW2 1158   6.586   1.142   6.647
   87SOL     OW 1159   3.753   3.914   0.810
   87SOL    HW1 1160   3.664   3.957   0.795
   87SOL    HW2 1161   3.805   3.969   0.876
   88SOL     OW 1162   3.024   2.049   6.492
   88SOL    HW1 1163   2.955   2.121   6.491
   88SOL    HW2 1164   2.995   1.975   6.431
   89SOL     OW 1165   3.294   3.762   0.832
   89SOL    HW1 1166   3.378   3.737   0.784
   89SOL    HW2 1167   3.221   3.699   0.806
   90SOL     OW 1168   4.753   4.565   2.541
   90SOL    HW1 1169   4.689   4.490   2.522
   90SOL    HW2 1170   4.706   4.652   2.530
   91SOL     OW 1171   5.836   5.007   6.298
   91SOL    HW1 1172   5.825   4.953   6.215
   91SOL    HW2 1173   5.750   5.051   6.321
   92SOL     OW 1174   5.377   3.964   1.003
   92SOL    HW1 1175   5.344   4.058   1.008
   92SOL    HW2 1176   5.398   3.931   1.095
   93SOL     OW 1177   3.192   3.692   0.495
   93SOL    HW1 1178   3.117   3.719   0.434
   93SOL    HW2 1179   3.168   3.607   0.541
   94SOL     OW 1180   2.419   6.099   0.784
   94SOL    HW1 1181   2.384   6.185   0.748
   94SOL    HW2 1182   2.344   6.036   0.801
   95SOL     OW 1183   1.283   1.232   3.124
   95SOL    HW1 1184   1.287   1.161   3.053
   95SOL    HW2 1185   1.317   1.194   3.210
   96SOL     OW 1186   5.030   5.832   6.826
   96SOL    HW1 1187   4.999   5.794   6.739
   96SOL    HW2 1188   4.957   5.890   6.864
   97SOL     OW 1189   2.090   4.174   4.960
   97SOL    HW1 1190   2.099   4.253   4.900
   97SOL    HW2 1191   2.174   4.119   4.955
   98SOL     OW 1192   0.725   2.296   0.974
   98SOL    HW1 1193   0.683   2.249   1.052
   98SOL    HW2 1194   0.657   2.353   0.928
   99SOL     OW 1195   3.522   3.927   2.982
   99SOL    HW1 1196   3.509   3.870   2.900
   99SOL    HW2 1197   3.595   3.993   2.964
  100SOL     OW 1198   6.460   0.204   4.233
  100SOL    HW1 1199   6.470   0.132   4.302
  100SOL    HW2 1200   6.370   0.246   4.241
  101SOL     OW 1201   0.492   5.187   2.489
  101SOL    HW1 1202   0.409   5.153   2.533
  101SOL    HW2 1203   0.468   5.263   2.427
  102SOL     OW 1204   3.570   5.661   2.657
  102SOL    HW1 1205   3.542   5.745   2.612
  102SOL    HW2 1206   3.566   5.585   2.592
  103SOL     OW 1207   1.976   1.907   2.216
  103SOL    HW1 1208   2.050   1.949   2.164
  103SOL    HW2 1209   1.977   1.808   2.201
  104SOL     OW 1210   1.465   4.931   2.316
  104SOL    HW1 1211   1.527   4.899   2.245
  104SOL    HW2 1212   1.422   4.852   2.361
  105SOL     OW 1213   5.103   1.733   5.894
  105SOL    HW1 1214   5.160   1.809   5.925
  105SOL    HW2 1215   5.155   1.648   5.898
  106SOL     OW 1216   4.608   4.950   2.250
  106SOL    HW1 1217   4.542   4.947   2.326
  106SOL    HW2 1218   4.609   4.862   2.203
  107SOL     OW 1219   6.163   0.646   6.916
  107SOL    HW1 1220   6.236   0.709   6.892
  107SOL    HW2 1221   6.075   0.686   6.892
  108SOL     OW 1222   3.356   6.933   5.552
  108SOL    HW1 1223   3.452   6.955   5.536
  108SOL    HW2 1224   3.350   6.849   5.607
  109SOL     OW 1225   3.018   0.336   2.539
  109SOL    HW1 1226   2.963   0.353   2.457
  109SOL    HW2 1227   3.087   0.265   2.519
  110SOL     OW 1228   2.656   5.274   4.900
  110SOL    HW1 1229   2.574   5.323   4.871
  110SOL    HW2 1230   2.650   5.179   4.869
  111SOL     OW 1231   0.883   1.546   2.904
  111SOL    HW1 1232   0.894   1.632   2.855
  111SOL    HW2 1233   0.801   1.499   2.871
  112SOL     OW 1234   4.952   6.828   6.661
  112SOL    HW1 1235   4.962   6.924   6.636
  112SOL    HW2 1236   4.864   6.814   6.706
  113SOL     OW 1237   6.976   6.000   2.649
  113SOL    HW1 1238   6.952   6.043   2.562
  113SOL    HW2 1239   6.907   6.023   2.718
  114SOL     OW 1240   1.236   5.298   2.152
  114SOL    HW1 1241   1.258   5.203   2.172
  114SOL    HW2 1242   1.250   5.316   2.054
  115SOL     OW 1243   5.932   0.691   3.355
  115SOL    HW1 1244   5.958   0.764   3.418
  115SOL    HW2 1245   5.911   0.731   3.266
  116SOL     OW 1246   0.297   6.204   1.236
  116SOL    HW1 1247   0.241   6.120   1.238
  116SOL    HW2 1248   0.345   6.213   1.323
  117SOL     OW 1249   2.227   0.647   0.234
  117SOL    HW1 1250   2.199   0.660   0.329
  117SOL    HW2 1251   2.324   0.668   0.225
  118SOL     OW 1252   1.673   1.819   3.320
  118SOL    HW1 1253   1.709   1.822   3.413
  118SOL    HW2 1254   1.625   1.905   3.300
  119SOL     OW 1255   0.105   6.933   6.434
  119SOL    HW1 1256   0.202   6.933   6.459
  119SOL    HW2 1257   0.094   6.890   6.344
  120SOL     OW 1258   4.442   0.701   4.591
  120SOL    HW1 1259   4.439   0.799   4.607
  120SOL    HW2 1260   4.399   0.680   4.503
  121SOL     OW 1261   2.020   4.176   0.115
  121SOL    HW1 1262   2.033   4.253   0.177
  121SOL    HW2 1263   1.923   4.162   0.099
  122SOL     OW 1264   1.768   3.555   0.029
  122SOL    HW1 1265   1.765   3.596   0.120
  122SOL    HW2 1266   1.807   3.621   6.988
  123SOL     OW 1267   1.497   1.038   1.866
  123SOL    HW1 1268   1.505   0.994   1.956
  123SOL    HW2 1269   1.456   1.128   1.877
  124SOL     OW 1270   3.178   2.142   0.557
  124SOL    HW1 1271   3.213   2.133   0.651
  124SOL    HW2 1272   3.248   2.111   0.493
  125SOL     OW 1273   3.205   2.669   0.440
  125SOL    HW1 1274   3.170   2.614   0.516
  125SOL    HW2 1275   3.176   2.628   0.353
  126SOL     OW 1276   3.399   3.239   3.392
  126SOL    HW1 1277   3.399   3.176   3.314
  126SOL    HW2 1278   3.493   3.266   3.414
  127SOL     OW 1279   6.608   6.318   6.145
  127SOL    HW1 1280   6.577   6.245   6.206
  127SOL    HW2 1281   6.622   6.281   6.053
  128SOL     OW 1282   5.304   3.405   2.386
  128SOL    HW1 1283   5.261   3.487   2.347
  128SOL    HW2 1284   5.375   3.373   2.323
  129SOL     OW 1285   3.063   4.386   0.911
  129SOL    HW1 1286   3.139   4.339   0.955
  129SOL    HW2 1287   3.086   4.483   0.900
  130SOL     OW 1288   6.423   0.885   4.704
  130SOL    HW1 1289   6.397   0.861   4.610
  130SOL    HW2 1290   6.484   0.963   4.704
  131SOL     OW 1291   5.883   0.818   4.583
  131SOL    HW1 1292   5.820   0.892   4.560
  131SOL    HW2 1293   5.955   0.853   4.643
  132SOL     OW 1294   3.659   3.422   1.463
  132SOL    HW1 1295   3.622   3.482   1.534
  132SOL    HW2 1296   3.628   3.328   1.481
  133SOL     OW 1297   5.341   1.349   3.261
  133SOL    HW1 1298   5.320   1.280   3.330
  133SOL    HW2 1299   5.376   1.432   3.305
  134SOL     OW 1300   0.531   0.585   2.569
  134SOL    HW1 1301   0.571   0.588   2.477
  134SOL    HW2 1302   0.601   0.606   2.637
  135SOL     OW 1303   5.177   3.040   4.014
  135SOL    HW1 1304   5.225   3.122   4.046
  135SOL    HW2 1305   5.245   2.972   3.985
  136SOL     OW 1306   2.408   6.305   4.106
  136SOL    HW1 1307   2.399   6.395   4.063
  136SOL    HW2 1308   2.503   6.290   4.133
  137SOL     OW 1309   4.180   0.894   4.600
  137SOL    HW1 1310   4.190   0.954   4.520
  137SOL    HW2 1311   4.099   0.837   4.588
  138SOL     OW 1312   0.798   4.600   3.297
  138SOL    HW1 1313   0.813   4.696   3.272
  138SOL    HW2 1314   0.716   4.592   3.354
  139SOL     OW 1315   2.621   5.609   6.506
  139SOL    HW1 1316   2.568   5.632   6.587
  139SOL    HW2 1317   2.559   5.599   6.428
  140SOL     OW 1318   1.796   6.250   2.772
  140SOL    HW1 1319   1.816   6.320   2.703
  140SOL    HW2 1320   1.878   6.194   2.788
  141SOL     OW 1321   6.713   3.180   6.038
  141SOL    HW1 1322   6.758   3.258   5.994
  141SOL    HW2 1323   6.630   3.157   5.988
  142SOL     OW 1324   2.513   3.833   1.718
  142SOL    HW1 1325   2.428   3.780   1.716
  142SOL    HW2 1326   2.492   3.930   1.709
  143SOL     OW 1327   5.905   6.040   1.271
  143SOL    HW1 1328   5.889   6.043   1.173
  143SOL    HW2 1329   5.997   6.005   1.290
  144SOL     OW 1330   3.167   4.867   4.305
  144SOL    HW1 1331   3.229   4.914   4.368
  144SOL    HW2 1332   3.216   4.848   4.220
  145SOL     OW 1333   1.210   5.020   2.226
  145SOL    HW1 1334   1.286   5.019   2.290
  145SOL    HW2 1335   1.150   4.942   2.243
  146SOL     OW 1336   5.194   0.909   5.654
  146SOL    HW1 1337   5.138   0.915   5.737
  146SOL    HW2 1338   5.278   0.859   5.674
  147SOL     OW 1339   4.961   1.275   4.869
  147SOL    HW1 1340   4.897   1.274   4.792
  147SOL    HW2 1341   5.049   1.310   4.838
  148SOL     OW 1342   1.349   5.224   1.349
  148SOL    HW1 1343   1.345   5.133   1.392
  148SOL    HW2 1344   1.391   5.288   1.412
  149SOL     OW 1345   2.973   1.819   5.103
  149SOL    HW1 1346   2.971   1.915   5.076
  149SOL    HW2 1347   3.066   1.794   5.130
  150SOL     OW 1348   4.395   0.880   6.191
  150SOL    HW1 1349   4.402   0.978   6.208
  150SOL    HW2 1350   4.483   0.837   6.207
  151SOL     OW 1351   4.061   0.635   1.464
  151SOL    HW1 1352   4.097   0.709   1.407
  151SOL    HW2 1353   4.091   0.547   1.428
  152SOL     OW 1354   6.866   1.505   0.685
  152SOL    HW1 1355   6.863   1.562   0.767
  152SOL    HW2 1356   6.910   1.418   0.706
  153SOL     OW 1357   2.614   0.203   3.525
  153SOL    HW1 1358   2.568   0.128   3.574
  153SOL    HW2 1359   2.709   0.207   3.554
  154SOL     OW 1360   6.564   2.360   6.828
  154SOL    HW1 1361   6.627   2.301   6.879
  154SOL    HW2 1362   6.569   2.453   6.864
  155SOL     OW 1363   0.878   7.013   2.152
  155SOL    HW1 1364   0.941   0.022   2.222
  155SOL    HW2 1365   0.807   0.057   2.135
  156SOL     OW 1366   6.319   1.555   0.244
  156SOL    HW1 1367   6.414   1.581   0.262
  156SOL    HW2 1368   6.273   1.537   0.331
  157SOL     OW 1369   5.867   2.981   6.821
  157SOL    HW1 1370   5.959   3.011   6.797
  157SOL    HW2 1371   5.836   3.031   6.902
  158SOL     OW 1372   1.519   2.694   1.823
  158SOL    HW1 1373   1.508   2.606   1.777
  158SOL    HW2 1374   1.430   2.739   1.832
  159SOL     OW 1375   4.255   4.592   1.015
  159SOL    HW1 1376   4.318   4.598   0.937
  159SOL    HW2 1377   4.207   4.679   1.026
  160SOL     OW 1378   6.600   0.416   1.558
  160SOL    HW1 1379   6.612   0.343   1.491
  160SOL    HW2 1380   6.684   0.426   1.611
  161SOL     OW 1381   1.328   6.715   1.498
  161SOL    HW1 1382   1.406   6.770   1.527
  161SOL    HW2 1383   1.251   6.730   1.560
  162SOL     OW 1384   2.608   6.769   0.402
  162SOL    HW1 1385   2.589   6.690   0.343
  162SOL    HW2 1386   2.688   6.749   0.459
  163SOL     OW 1387   0.618   4.941   3.231
  163SOL    HW1 1388   0.575   4.965   3.144
  163SOL    HW2 1389   0.582   4.853   3.262
  164SOL     OW 1390   0.935   2.225   2.730
  164SOL    HW1 1391   0.868   2.151   2.739
  164SOL    HW2 1392   0.960   2.259   2.820
  165SOL     OW 1393   6.156   5.624   1.279
  165SOL    HW1 1394   6.121   5.536   1.246
  165SOL    HW2 1395   6.087   5.669   1.335
  166SOL     OW 1396   6.546   3.486   1.813
  166SOL    HW1 1397   6.482   3.429   1.762
  166SOL    HW2 1398   6.506   3.511   1.901
  167SOL     OW 1399   5.581   1.587   6.697
  167SOL    HW1 1400   5.634   1.514   6.742
  167SOL    HW2 1401   5.488   1.588   6.734
  168SOL     OW 1402   4.195   2.148   1.577
  168SOL    HW1 1403   4.199   2.202   1.494
  168SOL    HW2 1404   4.147   2.199   1.648
  169SOL     OW 1405   6.056   3.442   6.840
  169SOL    HW1 1406   6.000   3.448   6.757
  169SOL    HW2 1407   6.125   3.514   6.838
  170SOL     OW 1408   7.004   5.647   3.224
  170SOL    HW1 1409   6.959   5.608   3.305
  170SOL    HW2 1410   6.941   5.707   3.175
  171SOL     OW 1411   1.797   3.752   6.823
  171SOL    HW1 1412   1.703   3.731   6.847
  171SOL    HW2 1413   1.822   3.702   6.740
  172SOL     OW 1414   6.527   2.495   2.144
  172SOL    HW1 1415   6.432   2.508   2.116
  172SOL    HW2 1416   6.577   2.445   2.073
  173SOL     OW 1417   6.174   1.530   4.432
  173SOL    HW1 1418   6.212   1.505   4.343
  173SOL    HW2 1419   6.160   1.448   4.487
  174SOL     OW 1420   5.198   5.064   4.686
  174SOL    HW1 1421   5.255   5.039   4.608
  174SOL    HW2 1422   5.102   5.055   4.662
  175SOL     OW 1423   2.925   0.407   1.667
  175SOL    HW1 1424   3.006   0.355   1.640
  175SOL    HW2 1425   2.843   0.359   1.637
  176SOL     OW 1426   4.945   4.583   3.623
  176SOL    HW1 1427   4.849   4.579   3.649
  176SOL    HW2 1428   4.957   4.541   3.533
  177SOL     OW 1429   5.264   2.469   5.385
  177SOL    HW1 1430   5.271   2.425   5.475
  177SOL    HW2 1431   5.244   2.566   5.397
  178SOL     OW 1432   3.434   4.939   4.493
  178SOL    HW1 1433   3.391   4.967   4.579
  178SOL    HW2 1434   3.529   4.912   4.511
  179SOL     OW 1435   4.398   6.589   0.094
  179SOL    HW1 1436   4.488   6.551   0.070
  179SOL    HW2 1437   4.354   6.531   0.161
  180SOL     OW 1438   2.472   6.731   0.026
  180SOL    HW1 1439   2.482   6.660   0.095
  180SOL    HW2 1440   2.409   6.700   6.979
  181SOL     OW 1441   3.578   2.598   5.729
  181SOL    HW1 1442   3.646   2.648   5.783
  181SOL    HW2 1443   3.622   2.521   5.683
  182SOL     OW 1444   4.743   3.094   6.658
  182SOL    HW1 1445   4.667   3.033   6.638
  182SOL    HW2 1446   4.743   3.117   6.756
  183SOL     OW 1447   4.252   2.339   3.536
  183SOL    HW1 1448   4.156   2.337   3.566
  183SOL    HW2 1449   4.255   2.341   3.436
  184SOL     OW 1450   0.657   6.790   3.701
  184SOL    HW1 1451   0.756   6.777   3.713
  184SOL    HW2 1452   0.614   6.799   3.791
  185SOL     OW 1453   1.265   1.543   3.774
  185SOL    HW1 1454   1.299   1.449   3.771
  185SOL    HW2 1455   1.226   1.561   3.864
  186SOL     OW 1456   5.507   6.673   4.248
  186SOL    HW1 1457   5.460   6.664   4.336
  186SOL    HW2 1458   5.567   6.754   4.250
  187SOL     OW 1459   4.424   5.791   2.128
  187SOL    HW1 1460   4.391   5.844   2.050
  187SOL    HW2 1461   4.425   5.694   2.104
  188SOL     OW 1462   1.055   2.350   3.233
  188SOL    HW1 1463   1.052   2.442   3.271
  188SOL    HW2 1464   1.048   2.355   3.133
  189SOL     OW 1465   0.083   4.490   6.517
  189SOL    HW1 1466   7.015   4.453   6.530
  189SOL    HW2 1467   0.088   4.539   6.431
  190SOL     OW 1468   5.760   4.877   6.978
  190SOL    HW1 1469   5.704   4.921   6.909
  190SOL    HW2 1470   5.844   4.931   6.992
  191SOL     OW 1471   6.720   1.408   5.384
  191SOL    HW1 1472   6.658   1.351   5.330
  191SOL    HW2 1473   6.807   1.418   5.335
  192SOL     OW 1474   0.430   4.665   1.390
  192SOL    HW1 1475   0.429   4.608   1.308
  192SOL    HW2 1476   0.521   4.704   1.402
  193SOL     OW 1477   4.933   4.373   5.146
  193SOL    HW1 1478   4.981   4.294   5.181
  193SOL    HW2 1479   4.834   4.355   5.146
  194SOL     OW 1480   4.041   0.196   2.216
  194SOL    HW1 1481   4.050   0.243   2.128
  194SOL    HW2 1482   4.102   0.116   2.218
  195SOL     OW 1483   2.323   0.823   3.975
  195SOL    HW1 1484   2.279   0.902   3.931
  195SOL    HW2 1485   2.345   0.754   3.906
  196SOL     OW 1486   3.419   6.940   0.071
  196SOL    HW1 1487   3.470   6.888   0.139
  196SOL    HW2 1488   3.412   0.011   0.099
  197SOL     OW 1489   3.230   5.729   6.778
  197SOL    HW1 1490   3.165   5.777   6.837
  197SOL    HW2 1491   3.234   5.775   6.689
  198SOL     OW 1492   4.714   6.783   0.675
  198SOL    HW1 1493   4.748   6.876   0.687
  198SOL    HW2 1494   4.785   6.718   0.700
  199SOL     OW 1495   6.493   1.134   2.569
  199SOL    HW1 1496   6.414   1.150   2.510
  199SOL    HW2 1497   6.573   1.115   2.512
  200SOL     OW 1498   0.584   3.812   2.269
  200SOL    HW1 1499   0.594   3.713   2.271
  200SOL    HW2 1500   0.487   3.837   2.268
  201SOL     OW 1501   2.933   6.662   5.870
  201SOL    HW1 1502   2.987   6.603   5.810
  201SOL    HW2 1503   2.836   6.650   5.850
  202SOL     OW 1504   4.836   0.589   5.231
  202SOL    HW1 1505   4.820   0.517   5.299
  202SOL    HW2 1506   4.761   0.589   5.164
  203SOL     OW 1507   4.890   2.482   5.098
  203SOL    HW1 1508   4.920   2.502   5.191
  203SOL    HW2 1509   4.956   2.421   5.054
  204SOL     OW 1510   0.475   0.122   6.429
  204SOL    HW1 1511   0.547   0.190   6.437
  204SOL    HW2 1512   0.476   0.083   6.337
  205SOL     OW 1513   1.026   0.946   1.667
  205SOL    HW1 1514   1.016   0.850   1.693
  205SOL    HW2 1515   1.055   0.999   1.747
  206SOL     OW 1516   0.421   4.930   2.380
  206SOL    HW1 1517   0.449   5.004   2.441
  206SOL    HW2 1518   0.362   4.866   2.431
  207SOL     OW 1519   4.026   0.582   5.482
  207SOL    HW1 1520   4.122   0.607   5.489
  207SOL    HW2 1521   4.017   0.493   5.437
  208SOL     OW 1522   5.254   3.994   5.823
  208SOL    HW1 1523   5.235   4.090   5.845
  208SOL    HW2 1524   5.347   3.986   5.787
  209SOL     OW 1525   1.020   5.584   5.615
  209SOL    HW1 1526   1.036   5.491   5.650
  209SOL    HW2 1527   0.922   5.599   5.606
  210SOL     OW 1528   4.051   2.186   2.658
  210SOL    HW1 1529   4.124   2.256   2.659
  210SOL    HW2 1530   4.000   2.192   2.573
  211SOL     OW 1531   0.822   6.453   3.556
  211SOL    HW1 1532   0.908   6.485   3.596
  211SOL    HW2 1533   0.753   6.444   3.627
  212SOL     OW 1534   1.681   4.386   2.121
  212SOL    HW1 1535   1.641   4.360   2.209
  212SOL    HW2 1536   1.777   4.408   2.134
  213SOL     OW 1537   4.246   0.920   6.883
  213SOL    HW1 1538   4.158   0.968   6.878
  213SOL    HW2 1539   4.308   0.959   6.815
  214SOL     OW 1540   2.403   5.978   2.455
  214SOL    HW1 1541   2.495   5.989   2.416
  214SOL    HW2 1542   2.389   6.046   2.527
  215SOL     OW 1543   3.336   4.018   2.043
  215SOL    HW1 1544   3.242   4.022   2.008
  215SOL    HW2 1545   3.334   4.000   2.142
  216SOL     OW 1546   1.377   6.889   4.680
  216SOL    HW1 1547   1.460   6.838   4.704
  216SOL    HW2 1548   1.313   6.886   4.756
  217SOL     OW 1549   2.109   2.693   4.933
  217SOL    HW1 1550   2.026   2.669   4.882
  217SOL    HW2 1551   2.140   2.784   4.905
  218SOL     OW 1552   1.245   2.433   5.363
  218SOL    HW1 1553   1.298   2.349   5.368
  218SOL    HW2 1554   1.306   2.512   5.370
  219SOL     OW 1555   3.529   4.964   6.059
  219SOL    HW1 1556   3.591   5.017   6.117
  219SOL    HW2 1557   3.481   5.025   5.997
  220SOL     OW 1558   3.392   5.276   0.010
  220SOL    HW1 1559   3.372   5.215   6.958
  220SOL    HW2 1560   3.368   5.370   7.009
  221SOL     OW 1561   5.967   4.216   2.688
  221SOL    HW1 1562   5.997   4.311   2.694
  221SOL    HW2 1563   5.872   4.213   2.658
  222SOL     OW 1564   2.110   5.015   5.684
  222SOL    HW1 1565   2.121   5.040   5.588
  222SOL    HW2 1566   2.079   4.920   5.691
  223SOL     OW 1567   0.266   3.447   0.531
  223SOL    HW1 1568   0.255   3.521   0.465
  223SOL    HW2 1569   0.212   3.368   0.502
  224SOL     OW 1570   3.034   2.224   3.819
  224SOL    HW1 1571   3.024   2.233   3.918
  224SOL    HW2 1572   2.970   2.286   3.773
  225SOL     OW 1573   5.498   1.734   6.281
  225SOL    HW1 1574   5.404   1.737   6.313
  225SOL    HW2 1575   5.499   1.710   6.184
  226SOL     OW 1576   0.369   6.441   6.958
  226SOL    HW1 1577   0.373   6.449   0.034
  226SOL    HW2 1578   0.280   6.473   6.925
  227SOL     OW 1579   0.900   4.526   2.618
  227SOL    HW1 1580   0.999   4.515   2.614
  227SOL    HW2 1581   0.864   4.480   2.699
  228SOL     OW 1582   2.862   6.997   3.977
  228SOL    HW1 1583   2.842   6.932   3.903
  228SOL    HW2 1584   2.803   0.053   3.967
  229SOL     OW 1585   6.244   5.517   0.871
  229SOL    HW1 1586   6.194   5.602   0.885
  229SOL    HW2 1587   6.334   5.523   0.914
  230SOL     OW 1588   2.973   4.838   3.840
  230SOL    HW1 1589   2.887   4.806   3.801
  230SOL    HW2 1590   3.043   4.842   3.769
  231SOL     OW 1591   6.592   2.452   5.580
  231SOL    HW1 1592   6.661   2.518   5.550
  231SOL    HW2 1593   6.634   2.362   5.590
  232SOL     OW 1594   0.490   4.182   6.382
  232SOL    HW1 1595   0.456   4.183   6.288
  232SOL    HW2 1596   0.428   4.235   6.440
  233SOL     OW 1597   2.464   1.208   4.619
  233SOL    HW1 1598   2.534   1.191   4.689
  233SOL    HW2 1599   2.471   1.302   4.586
  234SOL     OW 1600   2.644   5.645   5.500
  234SOL    HW1 1601   2.544   5.637   5.505
  234SOL    HW2 1602   2.669   5.698   5.418
  235SOL     OW 1603   3.359   2.909   2.535
  235SOL    HW1 1604   3.287   2.905   2.603
  235SOL    HW2 1605   3.435   2.850   2.562
  236SOL     OW 1606   5.833   3.496   7.008
  236SOL    HW1 1607   5.767   3.433   6.967
  236SOL    HW2 1608   5.923   3.481   6.966
  237SOL     OW 1609   0.105   6.597   0.372
  237SOL    HW1 1610   0.164   6.520   0.394
  237SOL    HW2 1611   0.161   6.676   0.348
  238SOL     OW 1612   6.887   2.783   0.401
  238SOL    HW1 1613   6.940   2.754   0.480
  238SOL    HW2 1614   6.821   2.853   0.429
  239SOL     OW 1615   6.771   4.444   0.240
  239SOL    HW1 1616   6.720   4.414   0.159
  239SOL    HW2 1617   6.808   4.535   0.224
  240SOL     OW 1618   0.576   3.149   5.388
  240SOL    HW1 1619   0.651   3.083   5.385
  240SOL    HW2 1620   0.501   3.118   5.330
  241SOL     OW 1621   0.540   0.651   3.725
  241SOL    HW1 1622   0.460   0.697   3.765
  241SOL    HW2 1623   0.567   0.698   3.641
  242SOL     OW 1624   1.729   2.560   6.100
  242SOL    HW1 1625   1.792   2.498   6.053
  242SOL    HW2 1626   1.777   2.643   6.126
  243SOL     OW 1627   4.595   0.201   5.635
  243SOL    HW1 1628   4.622   0.136   5.705
  243SOL    HW2 1629   4.527   0.264   5.672
  244SOL     OW 1630   4.798   2.818   4.399
  244SOL    HW1 1631   4.796   2.781   4.492
  244SOL    HW2 1632   4.719   2.782   4.348
  245SOL     OW 1633   0.135   3.218   4.386
  245SOL    HW1 1634   0.205   3.278   4.347
  245SOL    HW2 1635   0.120   3.140   4.325
  246SOL     OW 1636   5.317   3.443   3.876
  246SOL    HW1 1637   5.352   3.354   3.850
  246SOL    HW2 1638   5.393   3.505   3.896
  247SOL     OW 1639   2.693   1.664   2.482
  247SOL    HW1 1640   2.686   1.564   2.474
  247SOL    HW2 1641   2.725   1.687   2.574
  248SOL     OW 1642   4.625   2.683   4.218
  248SOL    HW1 1643   4.712   2.634   4.226
  248SOL    HW2 1644   4.550   2.618   4.206
  249SOL     OW 1645   3.669   0.001   5.076
  249SOL    HW1 1646   3.632   0.021   5.166
  249SOL    HW2 1647   3.647   0.075   5.013
  250SOL     OW 1648   5.361   1.751   5.437
  250SOL    HW1 1649   5.333   1.801   5.519
  250SOL    HW2 1650   5.354   1.811   5.357
  251SOL     OW 1651   4.261   3.828   5.653
  251SOL    HW1 1652   4.299   3.918   5.635
  251SOL    HW2 1653   4.211   3.796   5.572
  252SOL     OW 1654   0.047   1.495   5.759
  252SOL    HW1 1655   0.012   1.568   5.819
  252SOL    HW2 1656   0.036   1.407   5.804
  253SOL     OW 1657   2.494   4.486   7.008
  253SOL    HW1 1658   2.460   4.461   6.918
  253SOL    HW2 1659   2.424   4.467   0.052
  254SOL     OW 1660   6.701   2.507   3.684
  254SOL    HW1 1661   6.619   2.553   3.718
  254SOL    HW2 1662   6.706   2.414   3.721
  255SOL     OW 1663   2.912   1.854   4.238
  255SOL    HW1 1664   2.966   1.898   4.166
  255SOL    HW2 1665   2.971   1.826   4.313
  256SOL     OW 1666   6.743   4.664   6.762
  256SOL    HW1 1667   6.799   4.595   6.808
  256SOL    HW2 1668   6.667   4.619   6.715
  257SOL     OW 1669   3.561   5.335   5.430
  257SOL    HW1 1670   3.514   5.281   5.360
  257SOL    HW2 1671   3.623   5.277   5.482
  258SOL     OW 1672   5.447   3.495   4.826
  258SOL    HW1 1673   5.406   3.560   4.890
  258SOL    HW2 1674   5.535   3.464   4.861
  259SOL     OW 1675   1.700   2.883   2.670
  259SOL    HW1 1676   1.712   2.860   2.574
  259SOL    HW2 1677   1.746   2.815   2.727
  260SOL     OW 1678   4.714   0.032   1.068
  260SOL    HW1 1679   4.649   6.991   1.107
  260SOL    HW2 1680   4.670   0.121   1.060
  261SOL     OW 1681   0.235   3.482   1.043
  261SOL    HW1 1682   0.280   3.432   0.968
  261SOL    HW2 1683   0.230   3.423   1.123
  262SOL     OW 1684   1.121   3.766   2.149
  262SOL    HW1 1685   1.036   3.816   2.165
  262SOL    HW2 1686   1.107   3.669   2.166
  263SOL     OW 1687   7.006   1.796   4.507
  263SOL    HW1 1688   6.951   1.874   4.536
  263SOL    HW2 1689   7.012   1.730   4.581
  264SOL     OW 1690   6.575   3.894   5.930
  264SOL    HW1 1691   6.533   3.951   5.859
  264SOL    HW2 1692   6.533   3.804   5.930
  265SOL     OW 1693   4.968   4.068   3.470
  265SOL    HW1 1694   5.018   4.039   3.388
  265SOL    HW2 1695   4.944   3.988   3.524
  266SOL     OW 1696   3.751   2.651   6.776
  266SOL    HW1 1697   3.686   2.686   6.844
  266SOL    HW2 1698   3.708   2.579   6.722
  267SOL     OW 1699   1.015   3.327   0.078
  267SOL    HW1 1700   1.033   3.374   7.016
  267SOL    HW2 1701   0.933   3.271   0.069
  268SOL     OW 1702   4.904   5.224   5.032
  268SOL    HW1 1703   5.002   5.235   5.047
  268SOL    HW2 1704   4.888   5.163   4.954
  269SOL     OW 1705   1.710   2.262   0.226
  269SOL    HW1 1706   1.645   2.266   0.302
  269SOL    HW2 1707   1.776   2.188   0.243
  270SOL     OW 1708   5.239   1.078   2.114
  270SOL    HW1 1709   5.197   1.154   2.164
  270SOL    HW2 1710   5.335   1.070   2.141
  271SOL     OW 1711   2.292   2.169   0.975
  271SOL    HW1 1712   2.204   2.193   0.934
  271SOL    HW2 1713   2.310   2.230   1.052
  272SOL     OW 1714   3.848   5.696   3.863
  272SOL    HW1 1715   3.779   5.624   3.853
  272SOL    HW2 1716   3.808   5.784   3.836
  273SOL     OW 1717   1.103   5.556   5.128
  273SOL    HW1 1718   1.134   5.466   5.097
  273SOL    HW2 1719   1.081   5.552   5.225
  274SOL     OW 1720   5.217   2.564   3.626
  274SOL    HW1 1721   5.214   2.650   3.677
  274SOL    HW2 1722   5.143   2.505   3.657
  275SOL     OW 1723   0.974   5.662   6.383
  275SOL    HW1 1724   0.986   5.720   6.303
  275SOL    HW2 1725   0.996   5.567   6.360
  276SOL     OW 1726   6.274   5.412   4.163
  276SOL    HW1 1727   6.349   5.462   4.120
  276SOL    HW2 1728   6.294   5.314   4.163
  277SOL     OW 1729   3.017   0.820   6.011
  277SOL    HW1 1730   3.057   0.810   5.919
  277SOL    HW2 1731   2.973   0.734   6.036
  278SOL     OW 1732   5.712   3.505   2.316
  278SOL    HW1 1733   5.631   3.522   2.260
  278SOL    HW2 1734   5.699   3.422   2.370
  279SOL     OW 1735   6.626   3.226   3.991
  279SOL    HW1 1736   6.720   3.193   3.997
  279SOL    HW2 1737   6.620   3.294   3.918
  280SOL     OW 1738   4.876   0.100   3.574
  280SOL    HW1 1739   4.900   0.157   3.495
  280SOL    HW2 1740   4.901   0.148   3.658
  281SOL     OW 1741   2.963   5.350   3.764
  281SOL    HW1 1742   2.972   5.255   3.793
  281SOL    HW2 1743   3.022   5.409   3.819
  282SOL     OW 1744   3.626   2.133   5.295
  282SOL    HW1 1745   3.559   2.143   5.221
  282SOL    HW2 1746   3.577   2.113   5.380
  283SOL     OW 1747   6.150   6.949   5.364
  283SOL    HW1 1748   6.102   6.937   5.278
  283SOL    HW2 1749   6.123   0.010   5.407
  284SOL     OW 1750   1.086   4.651   4.210
  284SOL    HW1 1751   1.099   4.615   4.302
  284SOL    HW2 1752   0.990   4.645   4.185
  285SOL     OW 1753   5.638   6.395   0.228
  285SOL    HW1 1754   5.655   6.406   0.326
  285SOL    HW2 1755   5.559   6.336   0.214
  286SOL     OW 1756   3.725   5.155   5.541
  286SOL    HW1 1757   3.735   5.182   5.637
  286SOL    HW2 1758   3.814   5.128   5.504
  287SOL     OW 1759   1.298   5.409   6.516
  287SOL    HW1 1760   1.223   5.368   6.568
  287SOL    HW2 1761   1.385   5.368   6.547
  288SOL     OW 1762   4.226   0.569   0.894
  288SOL    HW1 1763   4.134   0.607   0.887
  288SOL    HW2 1764   4.229   0.480   0.848
  289SOL     OW 1765   1.206   5.375   6.009
  289SOL    HW1 1766   1.304   5.358   5.999
  289SOL    HW2 1767   1.192   5.458   6.062
  290SOL     OW 1768   4.422   0.758   3.725
  290SOL    HW1 1769   4.376   0.675   3.695
  290SOL    HW2 1770   4.374   0.838   3.690
  291SOL     OW 1771   3.592   1.076   3.568
  291SOL    HW1 1772   3.581   0.977   3.558
  291SOL    HW2 1773   3.510   1.115   3.610
  292SOL     OW 1774   4.163   1.159   3.725
  292SOL    HW1 1775   4.098   1.233   3.745
  292SOL    HW2 1776   4.228   1.150   3.801
  293SOL     OW 1777   4.559   6.158   1.463
  293SOL    HW1 1778   4.518   6.166   1.372
  293SOL    HW2 1779   4.642   6.215   1.467
  294SOL     OW 1780   6.194   5.815   6.780
  294SOL    HW1 1781   6.289   5.817   6.748
  294SOL    HW2 1782   6.151   5.904   6.765
  295SOL     OW 1783   1.842   2.255   5.821
  295SOL    HW1 1784   1.843   2.239   5.722
  295SOL    HW2 1785   1.804   2.174   5.867
  296SOL     OW 1786   6.480   2.195   0.925
  296SOL    HW1 1787   6.438   2.285   0.918
  296SOL    HW2 1788   6.538   2.178   0.846
  297SOL     OW 1789   4.100   4.876   3.516
  297SOL    HW1 1790   4.162   4.929   3.457
  297SOL    HW2 1791   4.025   4.839   3.460
  298SOL     OW 1792   4.099   0.580   0.387
  298SOL    HW1 1793   4.027   0.647   0.373
  298SOL    HW2 1794   4.070   0.512   0.454
  299SOL     OW 1795   3.392   1.810   0.246
  299SOL    HW1 1796   3.355   1.760   0.167
  299SOL    HW2 1797   3.484   1.843   0.225
  300SOL     OW 1798   3.846   0.854   2.780
  300SOL    HW1 1799   3.846   0.933   2.719
  300SOL    HW2 1800   3.781   0.869   2.855
  301SOL     OW 1801   5.280   0.870   1.364
  301SOL    HW1 1802   5.362   0.910   1.323
  301SOL    HW2 1803   5.305   0.786   1.412
  302SOL     OW 1804   0.948   0.428   1.984
  302SOL    HW1 1805   0.942   0.411   1.885
  302SOL    HW2 1806   0.901   0.513   2.006
  303SOL     OW 1807   6.070   6.389   1.753
  303SOL    HW1 1808   6.003   6.361   1.822
  303SOL    HW2 1809   6.163   6.380   1.791
  304SOL     OW 1810   2.054   6.111   6.287
  304SOL    HW1 1811   2.007   6.041   6.342
  304SOL    HW2 1812   2.149   6.084   6.273
  305SOL     OW 1813   1.604   3.098   0.714
  305SOL    HW1 1814   1.666   3.037   0.764
  305SOL    HW2 1815   1.510   3.064   0.722
  306SOL     OW 1816   0.245   1.121   2.757
  306SOL    HW1 1817   0.289   1.103   2.669
  306SOL    HW2 1818   0.313   1.118   2.830
  307SOL     OW 1819   3.818   3.607   0.156
  307SOL    HW1 1820   3.735   3.635   0.107
  307SOL    HW2 1821   3.894   3.667   0.129
  308SOL     OW 1822   6.538   2.811   4.309
  308SOL    HW1 1823   6.588   2.864   4.241
  308SOL    HW2 1824   6.477   2.872   4.360
  309SOL     OW 1825   1.711   6.616   0.491
  309SOL    HW1 1826   1.799   6.659   0.515
  309SOL    HW2 1827   1.701   6.531   0.542
  310SOL     OW 1828   5.481   6.481   4.034
  310SOL    HW1 1829   5.483   6.546   4.110
  310SOL    HW2 1830   5.508   6.390   4.066
  311SOL     OW 1831   2.284   4.226   2.789
  311SOL    HW1 1832   2.243   4.279   2.715
  311SOL    HW2 1833   2.369   4.270   2.818
  312SOL     OW 1834   4.163   2.301   4.474
  312SOL    HW1 1835   4.066   2.281   4.488
  312SOL    HW2 1836   4.182   2.306   4.376
  313SOL     OW 1837   3.243   3.598   3.041
  313SOL    HW1 1838   3.244   3.690   3.001
  313SOL    HW2 1839   3.304   3.597   3.121
  314SOL     OW 1840   1.909   4.905   4.813
  314SOL    HW1 1841   1.923   4.831   4.747
  314SOL    HW2 1842   1.837   4.879   4.878
  315SOL     OW 1843   0.686   2.066   3.942
  315SOL    HW1 1844   0.741   2.035   3.864
  315SOL    HW2 1845   0.590   2.077   3.913
  316SOL     OW 1846   3.938   1.164   4.514
  316SOL    HW1 1847   3.866   1.233   4.522
  316SOL    HW2 1848   4.026   1.210   4.500
  317SOL     OW 1849   1.146   1.449   1.302
  317SOL    HW1 1850   1.082   1.524   1.318
  317SOL    HW2 1851   1.237   1.487   1.284
  318SOL     OW 1852   6.013   0.785   6.516
  318SOL    HW1 1853   6.034   0.706   6.459
  318SOL    HW2 1854   5.944   0.760   6.584
  319SOL     OW 1855   6.582   2.202   3.311
  319SOL    HW1 1856   6.503   2.264   3.310
  319SOL    HW2 1857   6.550   2.108   3.313
  320SOL     OW 1858   6.358   3.604   6.796
  320SOL    HW1 1859   6.414   3.525   6.819
  320SOL    HW2 1860   6.349   3.611   6.696
  321SOL     OW 1861   4.213   2.192   0.546
  321SOL    HW1 1862   4.196   2.217   0.641
  321SOL    HW2 1863   4.214   2.274   0.489
  322SOL     OW 1864   3.848   3.012   4.444
  322SOL    HW1 1865   3.882   3.052   4.529
  322SOL    HW2 1866   3.901   3.048   4.367
  323SOL     OW 1867   1.211   2.292   4.995
  323SOL    HW1 1868   1.129   2.330   5.039
  323SOL    HW2 1869   1.203   2.192   4.992
  324SOL     OW 1870   2.272   7.016   3.561
  324SOL    HW1 1871   2.352   7.001   3.620
  324SOL    HW2 1872   2.248   0.088   3.561
  325SOL     OW 1873   0.866   3.825   2.787
  325SOL    HW1 1874   0.809   3.799   2.865
  325SOL    HW2 1875   0.809   3.862   2.714
  326SOL     OW 1876   0.894   4.085   6.169
  326SOL    HW1 1877   0.832   4.133   6.106
  326SOL    HW2 1878   0.845   4.062   6.253
  327SOL     OW 1879   2.401   4.484   2.850
  327SOL    HW1 1880   2.344   4.450   2.925
  327SOL    HW2 1881   2.467   4.550   2.885
  328SOL     OW 1882   1.942   4.588   1.680
  328SOL    HW1 1883   1.970   4.493   1.690
  328SOL    HW2 1884   1.957   4.637   1.765
  329SOL     OW 1885   2.492   3.790   6.011
  329SOL    HW1 1886   2.434   3.748   6.081
  329SOL    HW2 1887   2.441   3.799   5.926
  330SOL     OW 1888   3.448   6.027   0.372
  330SOL    HW1 1889   3.410   6.038   0.281
  330SOL    HW2 1890   3.426   6.108   0.427
  331SOL     OW 1891   5.635   5.254   1.510
  331SOL    HW1 1892   5.633   5.238   1.411
  331SOL    HW2 1893   5.698   5.191   1.553
  332SOL     OW 1894   6.143   2.335   3.855
  332SOL    HW1 1895   6.125   2.330   3.757
  332SOL    HW2 1896   6.063   2.303   3.906
  333SOL     OW 1897   4.256   0.761   5.476
  333SOL    HW1 1898   4.345   0.788   5.514
  333SOL    HW2 1899   4.215   0.839   5.429
  334SOL     OW 1900   3.541   2.137   0.674
  334SOL    HW1 1901   3.459   2.184   0.707
  334SOL    HW2 1902   3.594   2.198   0.616
  335SOL     OW 1903   3.985   0.518   6.777
  335SOL    HW1 1904   3.963   0.434   6.726
  335SOL    HW2 1905   3.950   0.597   6.726
  336SOL     OW 1906   2.870   0.894   2.936
  336SOL    HW1 1907   2.909   0.847   2.858
  336SOL    HW2 1908   2.854   0.990   2.913
  337SOL     OW 1909   0.698   2.765   5.824
  337SOL    HW1 1910   0.613   2.727   5.789
  337SOL    HW2 1911   0.687   2.785   5.922
  338SOL     OW 1912   3.165   2.888   1.775
  338SOL    HW1 1913   3.097   2.820   1.748
  338SOL    HW2 1914   3.234   2.845   1.834
  339SOL     OW 1915   4.824   5.028   4.844
  339SOL    HW1 1916   4.843   4.935   4.875
  339SOL    HW2 1917   4.726   5.040   4.830
  340SOL     OW 1918   4.987   2.988   4.559
  340SOL    HW1 1919   4.936   3.042   4.493
  340SOL    HW2 1920   4.927   2.965   4.636
  341SOL     OW 1921   5.005   6.678   4.508
  341SOL    HW1 1922   5.069   6.605   4.534
  341SOL    HW2 1923   5.040   6.726   4.428
  342SOL     OW 1924   4.650   2.969   0.322
  342SOL    HW1 1925   4.644   3.032   0.244
  342SOL    HW2 1926   4.704   2.889   0.295
  343SOL     OW 1927   0.302   6.503   2.453
  343SOL    HW1 1928   0.210   6.471   2.429
  343SOL    HW2 1929   0.367   6.428   2.440
  344SOL     OW 1930   0.815   2.654   1.881
  344SOL    HW1 1931   0.765   2.570   1.906
  344SOL    HW2 1932   0.808   2.720   1.956
  345SOL     OW 1933   6.236   2.134   4.266
  345SOL    HW1 1934   6.291   2.217   4.255
  345SOL    HW2 1935   6.275   2.077   4.338
  346SOL     OW 1936   1.663   0.393   2.616
  346SOL    HW1 1937   1.739   0.383   2.551
  346SOL    HW2 1938   1.700   0.398   2.709
  347SOL     OW 1939   2.987   5.369   0.403
  347SOL    HW1 1940   2.917   5.313   0.449
  347SOL    HW2 1941   2.984   5.351   0.305
  348SOL     OW 1942   4.954   4.521   3.310
  348SOL    HW1 1943   4.965   4.469   3.226
  348SOL    HW2 1944   4.903   4.605   3.291
  349SOL     OW 1945   6.670   4.620   2.138
  349SOL    HW1 1946   6.760   4.598   2.176
  349SOL    HW2 1947   6.607   4.544   2.156
  350SOL     OW 1948   3.021   3.087   1.036
  350SOL    HW1 1949   2.934   3.122   1.069
  350SOL    HW2 1950   3.040   2.998   1.079
  351SOL     OW 1951   2.353   3.586   0.527
  351SOL    HW1 1952   2.392   3.579   0.619
  351SOL    HW2 1953   2.426   3.603   0.461
  352SOL     OW 1954   3.795   6.820   3.472
  352SOL    HW1 1955   3.732   6.843   3.546
  352SOL    HW2 1956   3.775   6.878   3.392
  353SOL     OW 1957   2.891   6.971   6.618
  353SOL    HW1 1958   2.934   6.981   6.708
  353SOL    HW2 1959   2.851   0.034   6.590
  354SOL     OW 1960   4.704   2.373   1.327
  354SOL    HW1 1961   4.646   2.341   1.402
  354SOL    HW2 1962   4.800   2.357   1.349
  355SOL     OW 1963   1.820   3.906   2.838
  355SOL    HW1 1964   1.858   3.846   2.908
  355SOL    HW2 1965   1.722   3.890   2.829
  356SOL     OW 1966   2.434   0.909   5.661
  356SOL    HW1 1967   2.509   0.975   5.665
  356SOL    HW2 1968   2.392   0.912   5.570
  357SOL     OW 1969   6.367   5.851   4.948
  357SOL    HW1 1970   6.429   5.825   5.022
  357SOL    HW2 1971   6.335   5.768   4.902
  358SOL     OW 1972   4.825   6.579   1.028
  358SOL    HW1 1973   4.791   6.486   1.040
  358SOL    HW2 1974   4.857   6.592   0.934
  359SOL     OW 1975   3.229   1.308   2.091
  359SOL    HW1 1976   3.188   1.397   2.073
  359SOL    HW2 1977   3.323   1.320   2.123
  360SOL     OW 1978   1.729   3.413   4.745
  360SOL    HW1 1979   1.774   3.502   4.749
  360SOL    HW2 1980   1.645   3.420   4.692
  361SOL     OW 1981   6.737   6.557   2.539
  361SOL    HW1 1982   6.791   6.510   2.469
  361SOL    HW2 1983   6.645   6.518   2.541
  362SOL     OW 1984   3.354   2.741   1.890
  362SOL    HW1 1985   3.370   2.691   1.975
  362SOL    HW2 1986   3.352   2.677   1.813
  363SOL     OW 1987   5.823   4.469   3.348
  363SOL    HW1 1988   5.918   4.440   3.364
  363SOL    HW2 1989   5.806   4.554   3.397
  364SOL     OW 1990   6.839   5.312   6.714
  364SOL    HW1 1991   6.899   5.235   6.737
  364SOL    HW2 1992   6.887   5.374   6.651
  365SOL     OW 1993   4.915   0.324   1.127
  365SOL    HW1 1994   4.936   0.247   1.066
  365SOL    HW2 1995   4.943   0.300   1.220
  366SOL     OW 1996   5.914   2.109   6.398
  366SOL    HW1 1997   5.977   2.142   6.327
  366SOL    HW2 1998   5.862   2.031   6.363
  367SOL     OW 1999   5.725   2.291   6.417
  367SOL    HW1 2000   5.788   2.214   6.432
  367SOL    HW2 2001   5.734   2.324   6.323
  368SOL     OW 2002   0.214   2.700   5.515
  368SOL    HW1 2003   0.175   2.772   5.572
  368SOL    HW2 2004   0.177   2.707   5.423
  369SOL     OW 2005   6.239   5.359   2.641
  369SOL    HW1 2006   6.272   5.310   2.560
  369SOL    HW2 2007   6.253   5.303   2.722
  370SOL     OW 2008   0.919   1.962   4.336
  370SOL    HW1 2009   0.827   1.950   4.299
  370SOL    HW2 2010   0.914   2.011   4.422
  371SOL     OW 2011   1.846   4.703   6.611
  371SOL    HW1 2012   1.931   4.701   6.664
  371SOL    HW2 2013   1.768   4.692   6.674
  372SOL     OW 2014   1.918   6.462   5.862
  372SOL    HW1 2015   1.921   6.543   5.803
  372SOL    HW2 2016   2.008   6.448   5.903
  373SOL     OW 2017   5.880   6.407   5.440
  373SOL    HW1 2018   5.886   6.383   5.343
  373SOL    HW2 2019   5.786   6.432   5.462
  374SOL     OW 2020   2.795   1.968   3.389
  374SOL    HW1 2021   2.826   1.972   3.484
  374SOL    HW2 2022   2.855   2.024   3.332
  375SOL     OW 2023   1.373   4.291   4.122
  375SOL    HW1 2024   1.315   4.227   4.072
  375SOL    HW2 2025   1.343   4.385   4.103
  376SOL     OW 2026   1.431   1.112   5.206
  376SOL    HW1 2027   1.334   1.091   5.198
  376SOL    HW2 2028   1.450   1.144   5.299
  377SOL     OW 2029   1.323   1.914   0.176
  377SOL    HW1 2030   1.257   1.842   0.156
  377SOL    HW2 2031   1.343   1.916   0.274
  378SOL     OW 2032   4.043   1.840   0.466
  378SOL    HW1 2033   4.040   1.907   0.392
  378SOL    HW2 2034   4.136   1.834   0.502
  379SOL     OW 2035   5.539   2.790   0.302
  379SOL    HW1 2036   5.474   2.731   0.255
  379SOL    HW2 2037   5.564   2.749   0.389
  380SOL     OW 2038   2.945   1.455   1.120
  380SOL    HW1 2039   3.028   1.431   1.171
  380SOL    HW2 2040   2.949   1.412   1.030
  381SOL     OW 2041   1.550   3.625   3.601
  381SOL    HW1 2042   1.554   3.699   3.668
  381SOL    HW2 2043   1.639   3.579   3.597
  382SOL     OW 2044   6.320   1.093   6.930
  382SOL    HW1 2045   6.261   1.168   6.962
  382SOL    HW2 2046   6.405   1.131   6.894
  383SOL     OW 2047   3.652   2.978   0.121
  383SOL    HW1 2048   3.660   3.008   0.026
  383SOL    HW2 2049   3.567   2.925   0.132
  384SOL     OW 2050   6.774   5.765   4.582
  384SOL    HW1 2051   6.851   5.737   4.639
  384SOL    HW2 2052   6.792   5.738   4.487
  385SOL     OW 2053   2.945   5.236   5.172
  385SOL    HW1 2054   2.912   5.223   5.266
  385SOL    HW2 2055   3.004   5.159   5.148
  386SOL     OW 2056   2.769   6.360   4.119
  386SOL    HW1 2057   2.769   6.304   4.036
  386SOL    HW2 2058   2.857   6.406   4.128
  387SOL     OW 2059   1.091   5.611   2.409
  387SOL    HW1 2060   1.068   5.606   2.506
  387SOL    HW2 2061   1.038   5.543   2.359
  388SOL     OW 2062   1.877   2.170   6.445
  388SOL    HW1 2063   1.949   2.238   6.429
  388SOL    HW2 2064   1.918   2.080   6.455
  389SOL     OW 2065   3.549   3.637   2.130
  389SOL    HW1 2066   3.585   3.693   2.056
  389SOL    HW2 2067   3.621   3.577   2.166
  390SOL     OW 2068   2.867   1.137   2.812
  390SOL    HW1 2069   2.777   1.180   2.824
  390SOL    HW2 2070   2.937   1.197   2.852
  391SOL     OW 2071   2.366   2.218   6.212
  391SOL    HW1 2072   2.399   2.175   6.296
  391SOL    HW2 2073   2.281   2.174   6.183
  392SOL     OW 2074   1.961   4.432   1.217
  392SOL    HW1 2075   1.870   4.473   1.221
  392SOL    HW2 2076   2.030   4.504   1.219
  393SOL     OW 2077   0.923   4.387   6.653
  393SOL    HW1 2078   0.846   4.330   6.627
  393SOL    HW2 2079   0.893   4.455   6.720
  394SOL     OW 2080   6.887   0.923   6.862
  394SOL    HW1 2081   6.839   0.887   6.941
  394SOL    HW2 2082   6.882   0.858   6.786
  395SOL     OW 2083   4.913   3.571   3.313
  395SOL    HW1 2084   4.857   3.654   3.306
  395SOL    HW2 2085   5.010   3.595   3.315
  396SOL     OW 2086   3.825   3.940   2.141
  396SOL    HW1 2087   3.863   3.848   2.126
  396SOL    HW2 2088   3.796   3.978   2.054
  397SOL     OW 2089   4.508   2.329   5.489
  397SOL    HW1 2090   4.505   2.401   5.558
  397SOL    HW2 2091   4.457   2.357   5.408
  398SOL     OW 2092   0.936   6.354   2.563
  398SOL    HW1 2093   1.004   6.305   2.618
  398SOL    HW2 2094   0.981   6.427   2.512
  399SOL     OW 2095   5.426   6.226   2.750
  399SOL    HW1 2096   5.401   6.322   2.737
  399SOL    HW2 2097   5.364   6.168   2.698
  400SOL     OW 2098   6.232   6.930   6.132
  400SOL    HW1 2099   6.274   6.983   6.206
  400SOL    HW2 2100   6.293   6.927   6.053
  401SOL     OW 2101   4.998   0.770   5.471
  401SOL    HW1 2102   4.947   0.844   5.426
  401SOL    HW2 2103   5.076   0.809   5.521
  402SOL     OW 2104   5.675   0.128   3.495
  402SOL    HW1 2105   5.667   0.143   3.396
  402SOL    HW2 2106   5.605   0.182   3.542
  403SOL     OW 2107   4.133   1.791   4.345
  403SOL    HW1 2108   4.121   1.701   4.305
  403SOL    HW2 2109   4.065   1.854   4.307
  404SOL     OW 2110   1.130   6.013   4.227
  404SOL    HW1 2111   1.142   6.032   4.325
  404SOL    HW2 2112   1.132   5.914   4.213
  405SOL     OW 2113   1.729   3.261   1.868
  405SOL    HW1 2114   1.785   3.263   1.786
  405SOL    HW2 2115   1.658   3.332   1.863
  406SOL     OW 2116   1.331   4.445   4.595
  406SOL    HW1 2117   1.411   4.440   4.655
  406SOL    HW2 2118   1.341   4.379   4.520
  407SOL     OW 2119   1.533   0.806   3.401
  407SOL    HW1 2120   1.589   0.779   3.480
  407SOL    HW2 2121   1.438   0.776   3.416
  408SOL     OW 2122   1.324   2.647   3.069
  408SOL    HW1 2123   1.325   2.589   3.151
  408SOL    HW2 2124   1.241   2.628   3.017
  409SOL     OW 2125   6.923   2.481   0.991
  409SOL    HW1 2126   6.829   2.499   0.961
  409SOL    HW2 2127   6.963   2.566   1.026
  410SOL     OW 2128   1.204   0.569   1.348
  410SOL    HW1 2129   1.247   0.619   1.424
  410SOL    HW2 2130   1.275   0.523   1.295
  411SOL     OW 2131   5.212   0.174   0.406
  411SOL    HW1 2132   5.179   0.208   0.493
  411SOL    HW2 2133   5.154   0.208   0.332
  412SOL     OW 2134   5.094   6.294   3.723
  412SOL    HW1 2135   5.166   6.253   3.667
  412SOL    HW2 2136   5.132   6.325   3.810
  413SOL     OW 2137   5.614   5.079   2.266
  413SOL    HW1 2138   5.518   5.071   2.290
  413SOL    HW2 2139   5.656   4.988   2.264
  414SOL     OW 2140   3.663   5.479   3.827
  414SOL    HW1 2141   3.692   5.449   3.735
  414SOL    HW2 2142   3.566   5.460   3.839
  415SOL     OW 2143   1.042   5.630   6.828
  415SOL    HW1 2144   1.085   5.676   6.751
  415SOL    HW2 2145   0.986   5.553   6.795
  416SOL     OW 2146   4.999   5.653   4.306
  416SOL    HW1 2147   5.002   5.675   4.209
  416SOL    HW2 2148   5.028   5.558   4.319
  417SOL     OW 2149   2.674   5.116   0.081
  417SOL    HW1 2150   2.620   5.100   7.023
  417SOL    HW2 2151   2.716   5.030   0.110
  418SOL     OW 2152   4.007   5.908   0.851
  418SOL    HW1 2153   3.954   5.990   0.830
  418SOL    HW2 2154   4.026   5.858   0.767
  419SOL     OW 2155   1.763   0.679   1.081
  419SOL    HW1 2156   1.843   0.639   1.036
  419SOL    HW2 2157   1.740   0.766   1.036
  420SOL     OW 2158   5.928   1.664   6.841
  420SOL    HW1 2159   6.028   1.662   6.836
  420SOL    HW2 2160   5.893   1.731   6.776
  421SOL     OW 2161   6.942   4.409   6.039
  421SOL    HW1 2162   6.891   4.485   6.077
  421SOL    HW2 2163   6.995   4.441   5.960
  422SOL     OW 2164   5.658   4.156   0.272
  422SOL    HW1 2165   5.586   4.121   0.332
  422SOL    HW2 2166   5.743   4.105   0.287
  423SOL     OW 2167   1.071   2.360   7.020
  423SOL    HW1 2168   1.122   2.279   6.989
  423SOL    HW2 2169   1.105   2.441   6.972
  424SOL     OW 2170   2.342   4.361   0.638
  424SOL    HW1 2171   2.421   4.330   0.690
  424SOL    HW2 2172   2.277   4.405   0.700
  425SOL     OW 2173   5.753   1.504   2.735
  425SOL    HW1 2174   5.671   1.535   2.687
  425SOL    HW2 2175   5.767   1.561   2.816
  426SOL     OW 2176   4.498   2.460   4.093
  426SOL    HW1 2177   4.441   2.437   4.172
  426SOL    HW2 2178   4.591   2.427   4.108
  427SOL     OW 2179   5.037   5.496   2.868
  427SOL    HW1 2180   5.057   5.569   2.802
  427SOL    HW2 2181   5.111   5.491   2.935
  428SOL     OW 2182   4.302   0.598   4.285
  428SOL    HW1 2183   4.217   0.629   4.241
  428SOL    HW2 2184   4.306   0.498   4.282
  429SOL     OW 2185   1.430   3.095   1.398
  429SOL    HW1 2186   1.465   3.146   1.320
  429SOL    HW2 2187   1.341   3.131   1.425
  430SOL     OW 2188   6.843   0.220   5.302
  430SOL    HW1 2189   6.818   0.163   5.224
  430SOL    HW2 2190   6.941   0.236   5.301
  431SOL     OW 2191   3.504   0.182   0.570
  431SOL    HW1 2192   3.438   0.220   0.635
  431SOL    HW2 2193   3.492   0.227   0.481
  432SOL     OW 2194   6.782   1.557   1.115
  432SOL    HW1 2195   6.721   1.636   1.109
  432SOL    HW2 2196   6.730   1.473   1.097
  433SOL     OW 2197   2.671   6.357   5.008
  433SOL    HW1 2198   2.610   6.298   4.956
  433SOL    HW2 2199   2.736   6.401   4.945
  434SOL     OW 2200   3.477   5.884   2.450
  434SOL    HW1 2201   3.555   5.945   2.463
  434SOL    HW2 2202   3.440   5.896   2.358
  435SOL     OW 2203   5.275   2.458   6.370
  435SOL    HW1 2204   5.181   2.471   6.402
  435SOL    HW2 2205   5.337   2.509   6.429
  436SOL     OW 2206   3.025   6.400   1.081
  436SOL    HW1 2207   3.047   6.493   1.052
  436SOL    HW2 2208   2.982   6.403   1.171
  437SOL     OW 2209   1.285   0.759   0.079
  437SOL    HW1 2210   1.201   0.803   0.048
  437SOL    HW2 2211   1.363   0.817   0.056
  438SOL     OW 2212   2.053   3.848   2.638
  438SOL    HW1 2213   2.062   3.823   2.542
  438SOL    HW2 2214   2.143   3.861   2.678
  439SOL     OW 2215   6.012   4.844   2.817
  439SOL    HW1 2216   5.958   4.922   2.847
  439SOL    HW2 2217   5.968   4.759   2.847
  440SOL     OW 2218   1.841   1.156   5.467
  440SOL    HW1 2219   1.912   1.183   5.402
  440SOL    HW2 2220   1.880   1.097   5.538
  441SOL     OW 2221   0.836   2.445   4.303
  441SOL    HW1 2222   0.904   2.400   4.244
  441SOL    HW2 2223   0.752   2.391   4.304
  442SOL     OW 2224   3.430   4.753   5.828
  442SOL    HW1 2225   3.463   4.786   5.917
  442SOL    HW2 2226   3.427   4.829   5.764
  443SOL     OW 2227   5.815   4.158   4.678
  443SOL    HW1 2228   5.910   4.144   4.652
  443SOL    HW2 2229   5.758   4.162   4.595
  444SOL     OW 2230   4.996   1.343   5.535
  444SOL    HW1 2231   5.076   1.402   5.520
  444SOL    HW2 2232   5.025   1.247   5.537
  445SOL     OW 2233   0.689   5.332   2.961
  445SOL    HW1 2234   0.637   5.396   2.905
  445SOL    HW2 2235   0.632   5.298   3.035
  446SOL     OW 2236   3.733   4.906   3.523
  446SOL    HW1 2237   3.792   4.892   3.603
  446SOL    HW2 2238   3.768   4.851   3.447
  447SOL     OW 2239   0.470   2.865   6.213
  447SOL    HW1 2240   0.455   2.962   6.232
  447SOL    HW2 2241   0.391   2.829   6.163
  448SOL     OW 2242   1.692   0.454   3.593
  448SOL    HW1 2243   1.734   0.364   3.606
  448SOL    HW2 2244   1.702   0.482   3.498
  449SOL     OW 2245   3.754   1.533   4.010
  449SOL    HW1 2246   3.853   1.534   3.996
  449SOL    HW2 2247   3.729   1.462   4.075
  450SOL     OW 2248   1.283   5.847   3.927
  450SOL    HW1 2249   1.187   5.866   3.904
  450SOL    HW2 2250   1.340   5.920   3.891
  451SOL     OW 2251   1.828   1.621   3.720
  451SOL    HW1 2252   1.854   1.531   3.685
  451SOL    HW2 2253   1.903   1.685   3.707
  452SOL     OW 2254   6.268   5.808   0.870
  452SOL    HW1 2255   6.314   5.871   0.808
  452SOL    HW2 2256   6.308   5.816   0.961
  453SOL     OW 2257   3.855   0.881   5.987
  453SOL    HW1 2258   3.773   0.886   6.044
  453SOL    HW2 2259   3.899   0.792   6.000
  454SOL     OW 2260   6.792   4.579   6.329
  454SOL    HW1 2261   6.738   4.529   6.396
  454SOL    HW2 2262   6.866   4.628   6.376
  455SOL     OW 2263   6.288   2.660   3.314
  455SOL    HW1 2264   6.298   2.757   3.290
  455SOL    HW2 2265   6.196   2.629   3.292
  456SOL     OW 2266   5.748   6.637   4.092
  456SOL    HW1 2267   5.743   6.673   3.999
  456SOL    HW2 2268   5.656   6.612   4.123
  457SOL     OW 2269   1.817   2.726   4.234
  457SOL    HW1 2270   1.793   2.783   4.156
  457SOL    HW2 2271   1.743   2.729   4.301
  458SOL     OW 2272   4.249   5.769   3.914
  458SOL    HW1 2273   4.213   5.785   3.822
  458SOL    HW2 2274   4.335   5.818   3.926
  459SOL     OW 2275   1.654   6.584   5.059
  459SOL    HW1 2276   1.700   6.536   5.134
  459SOL    HW2 2277   1.589   6.522   5.014
  460SOL     OW 2278   1.663   6.800   3.817
  460SOL    HW1 2279   1.703   6.771   3.729
  460SOL    HW2 2280   1.674   6.899   3.827
  461SOL     OW 2281   6.712   0.148   6.526
  461SOL    HW1 2282   6.719   0.059   6.479
  461SOL    HW2 2283   6.769   0.147   6.607
  462SOL     OW 2284   3.583   2.856   6.045
  462SOL    HW1 2285   3.589   2.905   5.958
  462SOL    HW2 2286   3.650   2.893   6.109
  463SOL     OW 2287   6.215   6.085   3.778
  463SOL    HW1 2288   6.283   6.111   3.846
  463SOL    HW2 2289   6.176   6.167   3.736
  464SOL     OW 2290   2.693   1.831   5.031
  464SOL    HW1 2291   2.651   1.920   5.047
  464SOL    HW2 2292   2.791   1.837   5.047
  465SOL     OW 2293   0.616   2.458   5.980
  465SOL    HW1 2294   0.715   2.472   5.983
  465SOL    HW2 2295   0.578   2.470   6.072
  466SOL     OW 2296   0.741   5.635   2.780
  466SOL    HW1 2297   0.659   5.578   2.787
  466SOL    HW2 2298   0.781   5.624   2.688
  467SOL     OW 2299   2.022   1.351   0.374
  467SOL    HW1 2300   2.081   1.430   0.362
  467SOL    HW2 2301   2.078   1.269   0.386
  468SOL     OW 2302   3.402   0.351   6.321
  468SOL    HW1 2303   3.378   0.267   6.370
  468SOL    HW2 2304   3.500   0.367   6.329
  469SOL     OW 2305   2.639   3.088   6.277
  469SOL    HW1 2306   2.657   3.109   6.373
  469SOL    HW2 2307   2.689   3.153   6.219
  470SOL     OW 2308   4.248   0.080   1.792
  470SOL    HW1 2309   4.246   0.180   1.801
  470SOL    HW2 2310   4.157   0.044   1.809
  471SOL     OW 2311   1.998   2.127   3.867
  471SOL    HW1 2312   1.963   2.144   3.776
  471SOL    HW2 2313   1.935   2.068   3.917
  472SOL     OW 2314   5.032   3.369   6.062
  472SOL    HW1 2315   4.989   3.455   6.090
  472SOL    HW2 2316   4.968   3.294   6.076
  473SOL     OW 2317   1.223   3.066   3.296
  473SOL    HW1 2318   1.232   3.135   3.225
  473SOL    HW2 2319   1.306   3.064   3.352
  474SOL     OW 2320   4.862   5.977   4.168
  474SOL    HW1 2321   4.900   5.975   4.260
  474SOL    HW2 2322   4.919   6.034   4.109
  475SOL     OW 2323   5.711   1.102   6.329
  475SOL    HW1 2324   5.703   1.055   6.241
  475SOL    HW2 2325   5.637   1.072   6.389
  476SOL     OW 2326   0.137   3.274   3.181
  476SOL    HW1 2327   0.133   3.364   3.224
  476SOL    HW2 2328   0.232   3.252   3.158
  477SOL     OW 2329   1.643   5.227   3.551
  477SOL    HW1 2330   1.694   5.290   3.609
  477SOL    HW2 2331   1.551   5.264   3.535
  478SOL     OW 2332   3.074   6.071   2.414
  478SOL    HW1 2333   3.138   6.075   2.491
  478SOL    HW2 2334   3.084   6.153   2.358
  479SOL     OW 2335   4.244   2.176   5.908
  479SOL    HW1 2336   4.342   2.177   5.888
  479SOL    HW2 2337   4.203   2.094   5.868
  480SOL     OW 2338   2.630   0.955   0.158
  480SOL    HW1 2339   2.701   0.941   0.226
  480SOL    HW2 2340   2.569   0.876   0.155
  481SOL     OW 2341   1.939   6.790   0.435
  481SOL    HW1 2342   1.885   6.873   0.425
  481SOL    HW2 2343   1.949   6.745   0.347
  482SOL     OW 2344   4.364   4.936   2.456
  482SOL    HW1 2345   4.319   4.958   2.542
  482SOL    HW2 2346   4.317   4.983   2.381
  483SOL     OW 2347   0.202   1.261   2.178
  483SOL    HW1 2348   0.205   1.184   2.114
  483SOL    HW2 2349   0.295   1.289   2.201
  484SOL     OW 2350   2.100   3.384   4.476
  484SOL    HW1 2351   2.047   3.301   4.460
  484SOL    HW2 2352   2.097   3.442   4.395
  485SOL     OW 2353   3.611   5.395   2.814
  485SOL    HW1 2354   3.641   5.490   2.815
  485SOL    HW2 2355   3.525   5.387   2.765
  486SOL     OW 2356   6.618   1.022   0.213
  486SOL    HW1 2357   6.653   1.071   0.293
  486SOL    HW2 2358   6.520   1.039   0.203
  487SOL     OW 2359   1.160   0.490   1.652
  487SOL    HW1 2360   1.094   0.558   1.622
  487SOL    HW2 2361   1.135   0.401   1.615
  488SOL     OW 2362   1.087   1.559   1.850
  488SOL    HW1 2363   1.014   1.505   1.892
  488SOL    HW2 2364   1.046   1.627   1.789
  489SOL     OW 2365   3.549   6.271   5.429
  489SOL    HW1 2366   3.509   6.318   5.350
  489SOL    HW2 2367   3.522   6.174   5.427
  490SOL     OW 2368   6.450   6.385   2.614
  490SOL    HW1 2369   6.407   6.297   2.594
  490SOL    HW2 2370   6.526   6.372   2.677
  491SOL     OW 2371   0.563   2.815   2.820
  491SOL    HW1 2372   0.503   2.821   2.899
  491SOL    HW2 2373   0.634   2.885   2.827
  492SOL     OW 2374   1.889   0.574   5.356
  492SOL    HW1 2375   1.844   0.520   5.427
  492SOL    HW2 2376   1.965   0.521   5.318
  493SOL     OW 2377   5.166   5.870   5.904
  493SOL    HW1 2378   5.215   5.901   5.823
  493SOL    HW2 2379   5.068   5.876   5.888
  494SOL     OW 2380   0.323   6.366   6.363
  494SOL    HW1 2381   0.337   6.268   6.380
  494SOL    HW2 2382   0.411   6.413   6.368
  495SOL     OW 2383   4.842   5.997   3.415
  495SOL    HW1 2384   4.850   5.982   3.514
  495SOL    HW2 2385   4.929   5.972   3.371
  496SOL     OW 2386   5.157   3.508   1.993
  496SOL    HW1 2387   5.226   3.533   1.924
  496SOL    HW2 2388   5.184   3.422   2.037
  497SOL     OW 2389   3.101   1.258   4.751
  497SOL    HW1 2390   3.070   1.352   4.768
  497SOL    HW2 2391   3.151   1.254   4.664
  498SOL     OW 2392   1.695   3.680   1.715
  498SOL    HW1 2393   1.666   3.647   1.625
  498SOL    HW2 2394   1.782   3.638   1.740
  499SOL     OW 2395   1.852   6.393   4.714
  499SOL    HW1 2396   1.893   6.311   4.674
  499SOL    HW2 2397   1.825   6.373   4.809
  500SOL     OW 2398   0.216   3.272   5.027
  500SOL    HW1 2399   0.203   3.330   4.946
  500SOL    HW2 2400   0.157   3.304   5.101
  501SOL     OW 2401   3.136   5.606   0.759
  501SOL    HW1 2402   3.130   5.601   0.859
  501SOL    HW2 2403   3.229   5.582   0.730
  502SOL     OW 2404   0.371   3.895   0.188
  502SOL    HW1 2405   0.394   3.843   0.106
  502SOL    HW2 2406   0.272   3.892   0.203
  503SOL     OW 2407   6.945   5.372   6.997
  503SOL    HW1 2408   6.894   5.385   6.912
  503SOL    HW2 2409   6.915   5.440   0.040
  504SOL     OW 2410   0.965   5.374   2.263
  504SOL    HW1 2411   0.959   5.341   2.168
  504SOL    HW2 2412   1.055   5.352   2.300
  505SOL     OW 2413   2.915   5.960   5.198
  505SOL    HW1 2414   2.914   5.957   5.098
  505SOL    HW2 2415   2.884   6.051   5.229
  506SOL     OW 2416   2.327   4.999   4.041
  506SOL    HW1 2417   2.345   4.936   4.116
  506SOL    HW2 2418   2.234   5.033   4.047
  507SOL     OW 2419   3.250   6.639   3.174
  507SOL    HW1 2420   3.180   6.585   3.220
  507SOL    HW2 2421   3.238   6.631   3.075
  508SOL     OW 2422   6.985   3.857   2.305
  508SOL    HW1 2423   0.035   3.908   2.261
  508SOL    HW2 2424   6.983   3.879   2.402
  509SOL     OW 2425   2.859   1.617   1.401
  509SOL    HW1 2426   2.903   1.585   1.317
  509SOL    HW2 2427   2.916   1.594   1.480
  510SOL     OW 2428   6.524   4.808   0.109
  510SOL    HW1 2429   6.455   4.871   0.072
  510SOL    HW2 2430   6.615   4.843   0.089
  511SOL     OW 2431   0.943   1.386   5.651
  511SOL    HW1 2432   0.887   1.307   5.622
  511SOL    HW2 2433   0.895   1.470   5.628
  512SOL     OW 2434   0.074   3.184   0.096
  512SOL    HW1 2435   0.147   3.117   0.079
  512SOL    HW2 2436   0.001   3.141   0.149
  513SOL     OW 2437   5.788   6.915   3.281
  513SOL    HW1 2438   5.771   6.941   3.186
  513SOL    HW2 2439   5.869   6.964   3.315
  514SOL     OW 2440   6.757   2.196   3.532
  514SOL    HW1 2441   6.739   2.103   3.499
  514SOL    HW2 2442   6.759   2.259   3.454
  515SOL     OW 2443   0.890   0.720   6.399
  515SOL    HW1 2444   0.885   0.671   6.312
  515SOL    HW2 2445   0.798   0.735   6.434
  516SOL     OW 2446   2.597   4.506   1.786
  516SOL    HW1 2447   2.515   4.564   1.781
  516SOL    HW2 2448   2.664   4.550   1.847
  517SOL     OW 2449   4.416   5.974   1.609
  517SOL    HW1 2450   4.325   6.012   1.594
  517SOL    HW2 2451   4.485   6.038   1.574
  518SOL     OW 2452   3.071   2.185   3.398
  518SOL    HW1 2453   3.166   2.207   3.419
  518SOL    HW2 2454   3.058   2.184   3.299
  519SOL     OW 2455   0.406   0.390   4.899
  519SOL    HW1 2456   0.487   0.346   4.859
  519SOL    HW2 2457   0.415   0.489   4.891
  520SOL     OW 2458   6.349   4.101   0.900
  520SOL    HW1 2459   6.329   4.199   0.891
  520SOL    HW2 2460   6.445   4.085   0.878
  521SOL     OW 2461   6.519   5.117   5.060
  521SOL    HW1 2462   6.609   5.156   5.082
  521SOL    HW2 2463   6.505   5.033   5.113
  522SOL     OW 2464   3.630   2.903   4.535
  522SOL    HW1 2465   3.653   2.864   4.625
  522SOL    HW2 2466   3.715   2.924   4.486
  523SOL     OW 2467   6.941   5.515   1.677
  523SOL    HW1 2468   6.984   5.433   1.639
  523SOL    HW2 2469   6.973   5.595   1.627
  524SOL     OW 2470   0.539   1.765   2.558
  524SOL    HW1 2471   0.578   1.680   2.522
  524SOL    HW2 2472   0.453   1.784   2.512
  525SOL     OW 2473   2.316   3.292   5.525
  525SOL    HW1 2474   2.293   3.352   5.449
  525SOL    HW2 2475   2.353   3.206   5.491
  526SOL     OW 2476   4.115   6.752   3.739
  526SOL    HW1 2477   4.072   6.701   3.664
  526SOL    HW2 2478   4.147   6.689   3.809
  527SOL     OW 2479   5.922   2.535   6.519
  527SOL    HW1 2480   6.008   2.496   6.550
  527SOL    HW2 2481   5.909   2.626   6.559
  528SOL     OW 2482   1.040   1.837   3.665
  528SOL    HW1 2483   1.020   1.787   3.749
  528SOL    HW2 2484   1.137   1.826   3.643
  529SOL     OW 2485   2.007   6.976   4.484
  529SOL    HW1 2486   1.926   6.963   4.427
  529SOL    HW2 2487   2.087   6.939   4.437
  530SOL     OW 2488   3.604   3.310   4.418
  530SOL    HW1 2489   3.574   3.271   4.505
  530SOL    HW2 2490   3.568   3.255   4.343
  531SOL     OW 2491   0.212   1.297   3.313
  531SOL    HW1 2492   0.256   1.223   3.362
  531SOL    HW2 2493   0.197   1.374   3.375
  532SOL     OW 2494   1.126   2.919   6.609
  532SOL    HW1 2495   1.127   2.878   6.518
  532SOL    HW2 2496   1.035   2.954   6.630
  533SOL     OW 2497   4.427   7.012   4.091
  533SOL    HW1 2498   4.440   6.916   4.067
  533SOL    HW2 2499   4.479   0.045   4.028
  534SOL     OW 2500   5.333   6.479   2.743
  534SOL    HW1 2501   5.261   6.541   2.776
  534SOL    HW2 2502   5.383   6.523   2.669
  535SOL     OW 2503   0.928   3.615   4.609
  535SOL    HW1 2504   0.963   3.644   4.698
  535SOL    HW2 2505   0.837   3.653   4.595
  536SOL     OW 2506   6.772   5.252   1.482
  536SOL    HW1 2507   6.710   5.330   1.473
  536SOL    HW2 2508   6.748   5.200   1.564
  537SOL     OW 2509   3.023   6.760   4.375
  537SOL    HW1 2510   3.022   6.705   4.292
  537SOL    HW2 2511   2.943   6.820   4.376
  538SOL     OW 2512   1.461   4.619   3.030
  538SOL    HW1 2513   1.558   4.634   3.050
  538SOL    HW2 2514   1.443   4.521   3.024
  539SOL     OW 2515   1.365   5.929   1.039
  539SOL    HW1 2516   1.328   6.011   1.083
  539SOL    HW2 2517   1.454   5.907   1.078
  540SOL     OW 2518   1.103   0.564   3.237
  540SOL    HW1 2519   1.171   0.555   3.310
  540SOL    HW2 2520   1.149   0.593   3.153
  541SOL     OW 2521   4.770   5.840   3.894
  541SOL    HW1 2522   4.810   5.812   3.982
  541SOL    HW2 2523   4.679   5.877   3.909
  542SOL     OW 2524   6.336   6.644   0.270
  542SOL    HW1 2525   6.240   6.623   0.251
  542SOL    HW2 2526   6.395   6.577   0.224
  543SOL     OW 2527   1.458   3.947   5.664
  543SOL    HW1 2528   1.392   3.961   5.738
  543SOL    HW2 2529   1.549   3.934   5.703
  544SOL     OW 2530   3.307   4.071   0.207
  544SOL    HW1 2531   3.269   4.164   0.211
  544SOL    HW2 2532   3.318   4.035   0.299
  545SOL     OW 2533   3.010   1.216   2.255
  545SOL    HW1 2534   2.984   1.306   2.289
  545SOL    HW2 2535   3.084   1.226   2.188
  546SOL     OW 2536   2.012   3.028   0.363
  546SOL    HW1 2537   2.036   3.115   0.406
  546SOL    HW2 2538   2.059   2.953   0.409
  547SOL     OW 2539   3.228   1.116   0.157
  547SOL    HW1 2540   3.242   1.177   0.079
  547SOL    HW2 2541   3.187   1.168   0.232
  548SOL     OW 2542   3.207   3.201   2.468
  548SOL    HW1 2543   3.266   3.120   2.466
  548SOL    HW2 2544   3.130   3.184   2.530
  549SOL     OW 2545   5.455   2.787   0.556
  549SOL    HW1 2546   5.402   2.710   0.520
  549SOL    HW2 2547   5.403   2.871   0.545
  550SOL     OW 2548   6.934   5.360   3.705
  550SOL    HW1 2549   6.881   5.279   3.679
  550SOL    HW2 2550   6.960   5.354   3.801
  551SOL     OW 2551   1.136   0.443   2.192
  551SOL    HW1 2552   1.143   0.371   2.262
  551SOL    HW2 2553   1.049   0.433   2.144
  552SOL     OW 2554   5.249   4.374   0.207
  552SOL    HW1 2555   5.314   4.428   0.153
  552SOL    HW2 2556   5.295   4.337   0.287
  553SOL     OW 2557   1.655   6.421   2.201
  553SOL    HW1 2558   1.748   6.439   2.170
  553SOL    HW2 2559   1.635   6.479   2.281
  554SOL     OW 2560   5.670   0.153   5.807
  554SOL    HW1 2561   5.619   0.234   5.833
  554SOL    HW2 2562   5.653   0.131   5.711
  555SOL     OW 2563   1.515   5.451   2.877
  555SOL    HW1 2564   1.442   5.490   2.821
  555SOL    HW2 2565   1.508   5.485   2.970
  556SOL     OW 2566   4.892   2.596   3.893
  556SOL    HW1 2567   4.811   2.645   3.861
  556SOL    HW2 2568   4.920   2.529   3.825
  557SOL     OW 2569   0.607   4.768   0.471
  557SOL    HW1 2570   0.600   4.806   0.563
  557SOL    HW2 2571   0.559   4.680   0.469
  558SOL     OW 2572   2.939   3.325   4.586
  558SOL    HW1 2573   2.878   3.300   4.662
  558SOL    HW2 2574   2.983   3.242   4.551
  559SOL     OW 2575   6.335   5.655   0.139
  559SOL    HW1 2576   6.365   5.599   0.216
  559SOL    HW2 2577   6.363   5.611   0.053
  560SOL     OW 2578   4.999   4.170   6.953
  560SOL    HW1 2579   4.906   4.173   6.990
  560SOL    HW2 2580   5.043   4.259   6.965
  561SOL     OW 2581   6.585   1.212   0.801
  561SOL    HW1 2582   6.528   1.285   0.762
  561SOL    HW2 2583   6.587   1.134   0.738
  562SOL     OW 2584   5.437   0.811   5.748
  562SOL    HW1 2585   5.411   0.776   5.838
  562SOL    HW2 2586   5.500   0.746   5.704
  563SOL     OW 2587   2.301   0.452   3.020
  563SOL    HW1 2588   2.371   0.386   2.995
  563SOL    HW2 2589   2.267   0.497   2.937
  564SOL     OW 2590   2.261   2.352   6.599
  564SOL    HW1 2591   2.207   2.353   6.515
  564SOL    HW2 2592   2.213   2.298   6.668
  565SOL     OW 2593   3.825   2.841   5.426
  565SOL    HW1 2594   3.875   2.832   5.340
  565SOL    HW2 2595   3.888   2.871   5.498
  566SOL     OW 2596   6.161   5.181   3.966
  566SOL    HW1 2597   6.138   5.129   4.048
  566SOL    HW2 2598   6.107   5.266   3.963
  567SOL     OW 2599   3.713   3.201   2.156
  567SOL    HW1 2600   3.640   3.199   2.225
  567SOL    HW2 2601   3.786   3.139   2.184
  568SOL     OW 2602   4.199   1.536   0.005
  568SOL    HW1 2603   4.199   1.527   0.104
  568SOL    HW2 2604   4.231   1.627   7.004
  569SOL     OW 2605   1.505   3.237   6.538
  569SOL    HW1 2606   1.491   3.149   6.492
  569SOL    HW2 2607   1.446   3.242   6.618
  570SOL     OW 2608   3.299   6.436   0.053
  570SOL    HW1 2609   3.301   6.392   0.143
  570SOL    HW2 2610   3.337   6.374   7.009
  571SOL     OW 2611   3.218   0.158   2.525
  571SOL    HW1 2612   3.196   0.097   2.601
  571SOL    HW2 2613   3.246   0.104   2.446
  572SOL     OW 2614   2.884   5.102   5.418
  572SOL    HW1 2615   2.787   5.123   5.406
  572SOL    HW2 2616   2.895   5.009   5.452
  573SOL     OW 2617   5.557   1.391   5.714
  573SOL    HW1 2618   5.497   1.312   5.698
  573SOL    HW2 2619   5.530   1.466   5.653
  574SOL     OW 2620   3.600   2.144   4.498
  574SOL    HW1 2621   3.510   2.183   4.520
  574SOL    HW2 2622   3.599   2.108   4.405
  575SOL     OW 2623   5.472   3.909   0.414
  575SOL    HW1 2624   5.551   3.878   0.361
  575SOL    HW2 2625   5.442   3.835   0.475
  576SOL     OW 2626   1.225   2.183   2.896
  576SOL    HW1 2627   1.296   2.235   2.942
  576SOL    HW2 2628   1.264   2.136   2.816
  577SOL     OW 2629   1.803   1.465   2.860
  577SOL    HW1 2630   1.780   1.375   2.897
  577SOL    HW2 2631   1.863   1.513   2.923
  578SOL     OW 2632   6.417   5.140   3.112
  578SOL    HW1 2633   6.465   5.052   3.103
  578SOL    HW2 2634   6.375   5.164   3.025
  579SOL     OW 2635   1.312   2.882   2.166
  579SOL    HW1 2636   1.216   2.852   2.162
  579SOL    HW2 2637   1.322   2.948   2.240
  580SOL     OW 2638   6.581   5.205   6.948
  580SOL    HW1 2639   6.636   5.123   6.934
  580SOL    HW2 2640   6.639   5.286   6.939
  581SOL     OW 2641   3.144   3.032   3.056
  581SOL    HW1 2642   3.087   3.065   3.131
  581SOL    HW2 2643   3.240   3.029   3.085
  582SOL     OW 2644   5.431   6.192   2.362
  582SOL    HW1 2645   5.512   6.173   2.417
  582SOL    HW2 2646   5.453   6.263   2.295
  583SOL     OW 2647   3.232   5.174   5.676
  583SOL    HW1 2648   3.184   5.254   5.639
  583SOL    HW2 2649   3.185   5.091   5.647
  584SOL     OW 2650   2.171   3.936   6.455
  584SOL    HW1 2651   2.168   3.863   6.386
  584SOL    HW2 2652   2.239   4.004   6.428
  585SOL     OW 2653   5.645   3.298   5.973
  585SOL    HW1 2654   5.705   3.251   6.038
  585SOL    HW2 2655   5.625   3.237   5.896
  586SOL     OW 2656   3.886   1.888   6.681
  586SOL    HW1 2657   3.943   1.805   6.688
  586SOL    HW2 2658   3.896   1.927   6.589
  587SOL     OW 2659   3.220   1.331   5.295
  587SOL    HW1 2660   3.311   1.295   5.314
  587SOL    HW2 2661   3.209   1.343   5.196
  588SOL     OW 2662   2.691   4.545   0.808
  588SOL    HW1 2663   2.663   4.456   0.845
  588SOL    HW2 2664   2.729   4.532   0.716
  589SOL     OW 2665   3.091   5.426   1.363
  589SOL    HW1 2666   2.996   5.455   1.357
  589SOL    HW2 2667   3.123   5.396   1.272
  590SOL     OW 2668   5.188   2.871   2.781
  590SOL    HW1 2669   5.170   2.970   2.779
  590SOL    HW2 2670   5.101   2.822   2.792
  591SOL     OW 2671   3.619   5.768   3.566
  591SOL    HW1 2672   3.576   5.827   3.634
  591SOL    HW2 2673   3.549   5.736   3.502
  592SOL     OW 2674   3.039   0.161   1.551
  592SOL    HW1 2675   3.026   0.095   1.625
  592SOL    HW2 2676   3.137   0.176   1.537
  593SOL     OW 2677   4.460   2.513   3.143
  593SOL    HW1 2678   4.533   2.475   3.086
  593SOL    HW2 2679   4.500   2.574   3.212
  594SOL     OW 2680   5.472   2.172   6.470
  594SOL    HW1 2681   5.563   2.211   6.484
  594SOL    HW2 2682   5.405   2.246   6.466
  595SOL     OW 2683   5.995   0.390   3.857
  595SOL    HW1 2684   5.929   0.465   3.869
  595SOL    HW2 2685   5.996   0.362   3.761
  596SOL     OW 2686   1.687   4.786   3.348
  596SOL    HW1 2687   1.693   4.713   3.280
  596SOL    HW2 2688   1.778   4.804   3.385
  597SOL     OW 2689   4.020   6.853   6.646
  597SOL    HW1 2690   4.090   6.781   6.651
  597SOL    HW2 2691   3.938   6.816   6.600
  598SOL     OW 2692   3.073   3.828   6.466
  598SOL    HW1 2693   3.082   3.873   6.377
  598SOL    HW2 2694   3.080   3.729   6.454
  599SOL     OW 2695   1.977   6.621   2.709
  599SOL    HW1 2696   1.919   6.545   2.681
  599SOL    HW2 2697   2.072   6.591   2.715
  600SOL     OW 2698   0.757   0.644   1.073
  600SOL    HW1 2699   0.781   0.549   1.093
  600SOL    HW2 2700   0.818   0.705   1.123
  601SOL     OW 2701   3.128   6.085   3.898
  601SOL    HW1 2702   3.035   6.115   3.916
  601SOL    HW2 2703   3.149   6.095   3.800
  602SOL     OW 2704   1.791   2.914   6.523
  602SOL    HW1 2705   1.853   2.967   6.580
  602SOL    HW2 2706   1.802   2.941   6.427
  603SOL     OW 2707   3.742   1.939   3.885
  603SOL    HW1 2708   3.842   1.944   3.885
  603SOL    HW2 2709   3.711   1.881   3.810
  604SOL     OW 2710   0.694   3.302   1.905
  604SOL    HW1 2711   0.758   3.337   1.973
  604SOL    HW2 2712   0.606   3.350   1.914
  605SOL     OW 2713   6.334   6.129   2.521
  605SOL    HW1 2714   6.388   6.055   2.561
  605SOL    HW2 2715   6.350   6.131   2.422
  606SOL     OW 2716   4.991   0.645   6.750
  606SOL    HW1 2717   5.000   0.673   6.654
  606SOL    HW2 2718   4.894   0.638   6.774
  607SOL     OW 2719   5.630   0.667   5.644
  607SOL    HW1 2720   5.621   0.586   5.585
  607SOL    HW2 2721   5.694   0.647   5.718
  608SOL     OW 2722   3.732   6.165   6.481
  608SOL    HW1 2723   3.771   6.098   6.418
  608SOL    HW2 2724   3.792   6.177   6.560
  609SOL     OW 2725   4.107   3.320   3.719
  609SOL    HW1 2726   4.077   3.338   3.813
  609SOL    HW2 2727   4.115   3.221   3.706
  610SOL     OW 2728   5.015   2.829   2.485
  610SOL    HW1 2729   5.063   2.786   2.562
  610SOL    HW2 2730   5.050   2.794   2.399
  611SOL     OW 2731   2.514   0.606   6.872
  611SOL    HW1 2732   2.426   0.559   6.864
  611SOL    HW2 2733   2.517   0.682   6.807
  612SOL     OW 2734   3.890   6.483   6.109
  612SOL    HW1 2735   3.867   6.464   6.204
  612SOL    HW2 2736   3.959   6.556   6.106
  613SOL     OW 2737   4.308   6.994   5.982
  613SOL    HW1 2738   4.212   7.024   5.979
  613SOL    HW2 2739   4.312   6.895   5.972
  614SOL     OW 2740   4.850   4.184   1.663
  614SOL    HW1 2741   4.819   4.192   1.757
  614SOL    HW2 2742   4.800   4.249   1.605
  615SOL     OW 2743   0.368   1.677   0.665
  615SOL    HW1 2744   0.426   1.734   0.722
  615SOL    HW2 2745   0.297   1.635   0.721
  616SOL     OW 2746   0.430   2.062   3.869
  616SOL    HW1 2747   0.411   1.974   3.913
  616SOL    HW2 2748   0.347   2.117   3.867
  617SOL     OW 2749   6.614   3.526   6.399
  617SOL    HW1 2750   6.669   3.482   6.328
  617SOL    HW2 2751   6.663   3.523   6.486
  618SOL     OW 2752   6.865   3.238   6.865
  618SOL    HW1 2753   6.963   3.251   6.854
  618SOL    HW2 2754   6.836   3.156   6.816
  619SOL     OW 2755   4.841   0.340   6.592
  619SOL    HW1 2756   4.743   0.342   6.610
  619SOL    HW2 2757   4.859   0.279   6.514
  620SOL     OW 2758   4.957   2.450   1.855
  620SOL    HW1 2759   4.906   2.471   1.938
  620SOL    HW2 2760   4.919   2.502   1.779
  621SOL     OW 2761   2.324   6.810   5.900
  621SOL    HW1 2762   2.356   6.734   5.957
  621SOL    HW2 2763   2.246   6.854   5.943
  622SOL     OW 2764   0.869   1.692   4.977
  622SOL    HW1 2765   0.841   1.724   4.886
  622SOL    HW2 2766   0.864   1.768   5.042
  623SOL     OW 2767   0.770   6.236   5.774
  623SOL    HW1 2768   0.747   6.294   5.853
  623SOL    HW2 2769   0.868   6.244   5.754
  624SOL     OW 2770   0.174   1.138   0.566
  624SOL    HW1 2771   0.171   1.206   0.493
  624SOL    HW2 2772   0.268   1.105   0.576
  625SOL     OW 2773   1.954   2.287   1.410
  625SOL    HW1 2774   2.032   2.318   1.464
  625SOL    HW2 2775   1.940   2.189   1.424
  626SOL     OW 2776   0.363   5.667   2.956
  626SOL    HW1 2777   0.440   5.730   2.963
  626SOL    HW2 2778   0.330   5.644   3.048
  627SOL     OW 2779   6.499   6.164   0.918
  627SOL    HW1 2780   6.431   6.098   0.885
  627SOL    HW2 2781   6.457   6.225   0.984
  628SOL     OW 2782   5.356   5.607   5.446
  628SOL    HW1 2783   5.453   5.604   5.470
  628SOL    HW2 2784   5.334   5.698   5.409
  629SOL     OW 2785   0.661   0.655   6.173
  629SOL    HW1 2786   0.618   0.724   6.231
  629SOL    HW2 2787   0.633   0.564   6.202
  630SOL     OW 2788   0.558   1.489   0.225
  630SOL    HW1 2789   0.613   1.419   0.270
  630SOL    HW2 2790   0.510   1.449   0.147
  631SOL     OW 2791   3.868   0.701   5.674
  631SOL    HW1 2792   3.857   0.800   5.673
  631SOL    HW2 2793   3.930   0.673   5.601
  632SOL     OW 2794   4.652   2.025   1.467
  632SOL    HW1 2795   4.589   1.952   1.495
  632SOL    HW2 2796   4.746   1.991   1.469
  633SOL     OW 2797   2.502   3.959   6.838
  633SOL    HW1 2798   2.509   3.894   6.913
  633SOL    HW2 2799   2.470   4.047   6.872
  634SOL     OW 2800   3.276   4.090   3.338
  634SOL    HW1 2801   3.310   4.114   3.247
  634SOL    HW2 2802   3.203   4.023   3.330
  635SOL     OW 2803   4.966   5.910   0.986
  635SOL    HW1 2804   4.984   5.905   0.887
  635SOL    HW2 2805   5.049   5.885   1.035
  636SOL     OW 2806   3.072   6.652   6.624
  636SOL    HW1 2807   3.139   6.628   6.554
  636SOL    HW2 2808   3.094   6.606   6.710
  637SOL     OW 2809   0.243   3.035   3.331
  637SOL    HW1 2810   0.224   3.061   3.237
  637SOL    HW2 2811   0.161   2.994   3.372
  638SOL     OW 2812   5.695   3.143   3.686
  638SOL    HW1 2813   5.793   3.129   3.673
  638SOL    HW2 2814   5.647   3.056   3.674
  639SOL     OW 2815   4.921   3.380   2.905
  639SOL    HW1 2816   4.976   3.419   2.832
  639SOL    HW2 2817   4.862   3.308   2.868
  640SOL     OW 2818   0.029   5.214   4.614
  640SOL    HW1 2819   0.002   5.164   4.531
  640SOL    HW2 2820   0.119   5.182   4.643
  641SOL     OW 2821   0.722   4.677   4.993
  641SOL    HW1 2822   0.748   4.744   5.063
  641SOL    HW2 2823   0.741   4.585   5.027
  642SOL     OW 2824   0.350   3.543   4.563
  642SOL    HW1 2825   0.429   3.520   4.619
  642SOL    HW2 2826   0.380   3.579   4.475
  643SOL     OW 2827   6.194   0.199   6.580
  643SOL    HW1 2828   6.287   0.216   6.547
  643SOL    HW2 2829   6.138   0.162   6.506
  644SOL     OW 2830   1.443   0.148   4.246
  644SOL    HW1 2831   1.504   0.094   4.188
  644SOL    HW2 2832   1.400   0.089   4.314
  645SOL     OW 2833   4.541   0.079   4.992
  645SOL    HW1 2834   4.504   0.171   4.977
  645SOL    HW2 2835   4.539   0.059   5.090
  646SOL     OW 2836   3.292   0.482   4.908
  646SOL    HW1 2837   3.259   0.549   4.842
  646SOL    HW2 2838   3.267   0.511   5.001
  647SOL     OW 2839   5.397   1.793   5.010
  647SOL    HW1 2840   5.452   1.832   4.937
  647SOL    HW2 2841   5.300   1.813   4.993
  648SOL     OW 2842   0.602   4.131   4.058
  648SOL    HW1 2843   0.693   4.121   4.100
  648SOL    HW2 2844   0.548   4.195   4.111
  649SOL     OW 2845   2.316   3.888   1.274
  649SOL    HW1 2846   2.224   3.860   1.248
  649SOL    HW2 2847   2.314   3.983   1.307
  650SOL     OW 2848   6.221   3.843   1.054
  650SOL    HW1 2849   6.255   3.849   1.148
  650SOL    HW2 2850   6.286   3.889   0.992
  651SOL     OW 2851   1.859   6.776   5.965
  651SOL    HW1 2852   1.911   6.717   6.026
  651SOL    HW2 2853   1.763   6.749   5.966
  652SOL     OW 2854   5.052   0.412   3.628
  652SOL    HW1 2855   5.010   0.355   3.700
  652SOL    HW2 2856   5.062   0.506   3.661
  653SOL     OW 2857   0.825   5.755   0.378
  653SOL    HW1 2858   0.819   5.655   0.378
  653SOL    HW2 2859   0.849   5.787   0.287
  654SOL     OW 2860   0.663   6.248   0.325
  654SOL    HW1 2861   0.685   6.159   0.284
  654SOL    HW2 2862   0.705   6.321   0.271
  655SOL     OW 2863   6.953   5.819   1.334
  655SOL    HW1 2864   6.891   5.779   1.401
  655SOL    HW2 2865   6.913   5.809   1.243
  656SOL     OW 2866   2.779   5.858   0.779
  656SOL    HW1 2867   2.789   5.893   0.686
  656SOL    HW2 2868   2.817   5.765   0.783
  657SOL     OW 2869   2.684   3.607   1.062
  657SOL    HW1 2870   2.733   3.544   1.002
  657SOL    HW2 2871   2.589   3.613   1.033
  658SOL     OW 2872   1.722   4.165   6.673
  658SOL    HW1 2873   1.786   4.090   6.658
  658SOL    HW2 2874   1.726   4.194   6.768
  659SOL     OW 2875   2.200   6.109   4.513
  659SOL    HW1 2876   2.227   6.203   4.492
  659SOL    HW2 2877   2.240   6.081   4.600
  660SOL     OW 2878   5.858   3.797   2.796
  660SOL    HW1 2879   5.797   3.721   2.773
  660SOL    HW2 2880   5.913   3.821   2.716
  661SOL     OW 2881   4.853   3.939   3.815
  661SOL    HW1 2882   4.859   3.891   3.727
  661SOL    HW2 2883   4.807   3.881   3.881
  662SOL     OW 2884   4.166   0.475   5.737
  662SOL    HW1 2885   4.178   0.574   5.737
  662SOL    HW2 2886   4.094   0.450   5.802
  663SOL     OW 2887   1.726   4.128   0.093
  663SOL    HW1 2888   1.697   4.168   0.007
  663SOL    HW2 2889   1.649   4.123   0.156
  664SOL     OW 2890   0.686   5.053   6.357
  664SOL    HW1 2891   0.685   5.123   6.428
  664SOL    HW2 2892   0.663   5.094   6.269
  665SOL     OW 2893   4.597   5.193   1.152
  665SOL    HW1 2894   4.620   5.179   1.055
  665SOL    HW2 2895   4.564   5.108   1.191
  666SOL     OW 2896   4.357   2.274   2.086
  666SOL    HW1 2897   4.368   2.366   2.048
  666SOL    HW2 2898   4.363   2.278   2.185
  667SOL     OW 2899   6.403   4.397   3.322
  667SOL    HW1 2900   6.390   4.334   3.399
  667SOL    HW2 2901   6.473   4.464   3.346
  668SOL     OW 2902   5.230   5.991   6.779
  668SOL    HW1 2903   5.245   5.982   6.680
  668SOL    HW2 2904   5.175   5.914   6.812
  669SOL     OW 2905   3.524   6.125   2.960
  669SOL    HW1 2906   3.481   6.210   2.990
  669SOL    HW2 2907   3.621   6.126   2.988
  670SOL     OW 2908   2.736   3.119   1.779
  670SOL    HW1 2909   2.831   3.118   1.810
  670SOL    HW2 2910   2.699   3.211   1.791
  671SOL     OW 2911   2.504   5.725   6.765
  671SOL    HW1 2912   2.412   5.685   6.768
  671SOL    HW2 2913   2.506   5.798   6.697
  672SOL     OW 2914   0.794   4.456   1.496
  672SOL    HW1 2915   0.773   4.553   1.482
  672SOL    HW2 2916   0.859   4.425   1.426
  673SOL     OW 2917   6.599   0.802   0.984
  673SOL    HW1 2918   6.611   0.888   1.032
  673SOL    HW2 2919   6.649   0.730   1.033
  674SOL     OW 2920   6.628   3.967   4.836
  674SOL    HW1 2921   6.670   4.027   4.769
  674SOL    HW2 2922   6.537   4.001   4.860
  675SOL     OW 2923   0.137   1.192   5.015
  675SOL    HW1 2924   0.128   1.125   5.089
  675SOL    HW2 2925   0.200   1.264   5.043
  676SOL     OW 2926   4.012   5.484   2.564
  676SOL    HW1 2927   4.092   5.500   2.507
  676SOL    HW2 2928   4.019   5.394   2.608
  677SOL     OW 2929   6.186   1.693   6.212
  677SOL    HW1 2930   6.154   1.615   6.266
  677SOL    HW2 2931   6.276   1.722   6.245
  678SOL     OW 2932   1.114   1.380   5.277
  678SOL    HW1 2933   1.212   1.383   5.294
  678SOL    HW2 2934   1.085   1.285   5.263
  679SOL     OW 2935   4.741   1.517   4.057
  679SOL    HW1 2936   4.838   1.534   4.073
  679SOL    HW2 2937   4.730   1.443   3.990
  680SOL     OW 2938   5.429   5.571   6.218
  680SOL    HW1 2939   5.503   5.610   6.163
  680SOL    HW2 2940   5.341   5.606   6.185
  681SOL     OW 2941   5.785   6.651   1.586
  681SOL    HW1 2942   5.796   6.553   1.568
  681SOL    HW2 2943   5.726   6.664   1.666
  682SOL     OW 2944   1.556   6.958   6.919
  682SOL    HW1 2945   1.539   6.908   7.004
  682SOL    HW2 2946   1.618   6.905   6.861
  683SOL     OW 2947   3.446   1.996   6.624
  683SOL    HW1 2948   3.378   2.067   6.641
  683SOL    HW2 2949   3.465   1.990   6.526
  684SOL     OW 2950   6.092   0.941   6.730
  684SOL    HW1 2951   6.053   0.920   6.819
  684SOL    HW2 2952   6.108   0.856   6.679
  685SOL     OW 2953   4.613   0.884   4.812
  685SOL    HW1 2954   4.625   0.943   4.733
  685SOL    HW2 2955   4.636   0.790   4.787
  686SOL     OW 2956   6.109   3.140   3.373
  686SOL    HW1 2957   6.096   3.079   3.295
  686SOL    HW2 2958   6.192   3.112   3.423
  687SOL     OW 2959   0.292   2.815   4.294
  687SOL    HW1 2960   0.381   2.770   4.286
  687SOL    HW2 2961   0.265   2.819   4.391
  688SOL     OW 2962   1.807   3.099   6.978
  688SOL    HW1 2963   1.758   3.185   6.967
  688SOL    HW2 2964   1.776   3.033   6.910
  689SOL     OW 2965   0.674   4.378   6.091
  689SOL    HW1 2966   0.705   4.409   6.180
  689SOL    HW2 2967   0.659   4.457   6.031
  690SOL     OW 2968   0.785   4.071   3.724
  690SOL    HW1 2969   0.852   4.038   3.791
  690SOL    HW2 2970   0.693   4.049   3.755
  691SOL     OW 2971   2.369   0.996   6.441
  691SOL    HW1 2972   2.321   1.074   6.481
  691SOL    HW2 2973   2.325   0.911   6.471
  692SOL     OW 2974   3.800   6.161   3.033
  692SOL    HW1 2975   3.851   6.229   3.087
  692SOL    HW2 2976   3.845   6.151   2.944
  693SOL     OW 2977   6.455   1.764   2.947
  693SOL    HW1 2978   6.397   1.768   3.028
  693SOL    HW2 2979   6.527   1.695   2.960
  694SOL     OW 2980   3.512   6.583   2.652
  694SOL    HW1 2981   3.559   6.648   2.712
  694SOL    HW2 2982   3.569   6.564   2.572
  695SOL     OW 2983   4.449   4.819   5.548
  695SOL    HW1 2984   4.475   4.805   5.644
  695SOL    HW2 2985   4.526   4.856   5.498
  696SOL     OW 2986   2.948   5.215   1.975
  696SOL    HW1 2987   2.861   5.165   1.978
  696SOL    HW2 2988   2.951   5.281   2.051
  697SOL     OW 2989   1.863   2.884   4.768
  697SOL    HW1 2990   1.935   2.836   4.717
  697SOL    HW2 2991   1.897   2.973   4.798
  698SOL     OW 2992   5.488   0.078   6.757
  698SOL    HW1 2993   5.484   0.045   6.851
  698SOL    HW2 2994   5.557   0.150   6.750
  699SOL     OW 2995   1.203   4.365   6.834
  699SOL    HW1 2996   1.266   4.340   6.908
  699SOL    HW2 2997   1.217   4.304   6.756
  700SOL     OW 2998   2.833   1.404   4.166
  700SOL    HW1 2999   2.925   1.442   4.174
  700SOL    HW2 3000   2.789   1.443   4.084
  701SOL     OW 3001   6.229   4.422   5.145
  701SOL    HW1 3002   6.252   4.351   5.213
  701SOL    HW2 3003   6.235   4.383   5.053
  702SOL     OW 3004   6.418   6.571   6.252
  702SOL    HW1 3005   6.482   6.497   6.228
  702SOL    HW2 3006   6.381   6.555   6.343
  703SOL     OW 3007   3.896   3.735   6.406
  703SOL    HW1 3008   3.975   3.776   6.362
  703SOL    HW2 3009   3.914   3.724   6.504
  704SOL     OW 3010   1.471   1.342   6.435
  704SOL    HW1 3011   1.461   1.253   6.390
  704SOL    HW2 3012   1.438   1.413   6.373
  705SOL     OW 3013   5.371   0.051   3.528
  705SOL    HW1 3014   5.349   0.148   3.522
  705SOL    HW2 3015   5.362   0.009   3.438
  706SOL     OW 3016   3.828   1.898   4.311
  706SOL    HW1 3017   3.859   1.930   4.401
  706SOL    HW2 3018   3.857   1.963   4.241
  707SOL     OW 3019   4.653   0.137   2.779
  707SOL    HW1 3020   4.581   0.101   2.720
  707SOL    HW2 3021   4.740   0.094   2.755
  708SOL     OW 3022   4.242   0.303   1.163
  708SOL    HW1 3023   4.170   0.241   1.193
  708SOL    HW2 3024   4.310   0.313   1.236
  709SOL     OW 3025   1.087   5.262   0.648
  709SOL    HW1 3026   1.056   5.327   0.718
  709SOL    HW2 3027   1.064   5.297   0.557
  710SOL     OW 3028   4.102   3.367   2.674
  710SOL    HW1 3029   4.108   3.418   2.588
  710SOL    HW2 3030   4.128   3.426   2.750
  711SOL     OW 3031   0.078   2.558   6.029
  711SOL    HW1 3032   0.168   2.527   5.999
  711SOL    HW2 3033   0.035   2.487   6.085
  712SOL     OW 3034   3.538   4.112   0.792
  712SOL    HW1 3035   3.553   4.160   0.705
  712SOL    HW2 3036   3.449   4.067   0.790
  713SOL     OW 3037   3.046   2.890   0.162
  713SOL    HW1 3038   2.982   2.876   0.237
  713SOL    HW2 3039   3.131   2.930   0.197
  714SOL     OW 3040   5.972   4.904   4.614
  714SOL    HW1 3041   5.895   4.967   4.620
  714SOL    HW2 3042   5.966   4.852   4.529
  715SOL     OW 3043   5.359   6.320   0.569
  715SOL    HW1 3044   5.342   6.224   0.547
  715SOL    HW2 3045   5.286   6.376   0.530
  716SOL     OW 3046   1.156   0.101   0.725
  716SOL    HW1 3047   1.136   0.184   0.777
  716SOL    HW2 3048   1.095   0.028   0.755
  717SOL     OW 3049   5.492   5.061   6.186
  717SOL    HW1 3050   5.505   5.160   6.197
  717SOL    HW2 3051   5.477   5.041   6.089
  718SOL     OW 3052   4.845   2.266   5.833
  718SOL    HW1 3053   4.805   2.176   5.816
  718SOL    HW2 3054   4.937   2.256   5.870
  719SOL     OW 3055   0.052   2.349   1.191
  719SOL    HW1 3056   0.025   2.383   1.101
  719SOL    HW2 3057   0.092   2.424   1.244
  720SOL     OW 3058   3.502   0.689   6.514
  720SOL    HW1 3059   3.594   0.707   6.478
  720SOL    HW2 3060   3.439   0.672   6.438
  721SOL     OW 3061   2.551   0.645   4.591
  721SOL    HW1 3062   2.553   0.742   4.617
  721SOL    HW2 3063   2.630   0.599   4.630
  722SOL     OW 3064   2.337   6.839   4.776
  722SOL    HW1 3065   2.401   6.912   4.800
  722SOL    HW2 3066   2.244   6.866   4.799
  723SOL     OW 3067   2.117   3.272   3.373
  723SOL    HW1 3068   2.144   3.180   3.401
  723SOL    HW2 3069   2.027   3.269   3.329
  724SOL     OW 3070   1.256   2.679   5.000
  724SOL    HW1 3071   1.183   2.714   5.058
  724SOL    HW2 3072   1.293   2.754   4.944
  725SOL     OW 3073   3.314   5.801   0.492
  725SOL    HW1 3074   3.370   5.750   0.557
  725SOL    HW2 3075   3.372   5.864   0.440
  726SOL     OW 3076   4.394   4.848   0.485
  726SOL    HW1 3077   4.438   4.924   0.532
  726SOL    HW2 3078   4.331   4.883   0.416
  727SOL     OW 3079   5.118   5.495   6.222
  727SOL    HW1 3080   5.088   5.567   6.160
  727SOL    HW2 3081   5.201   5.452   6.187
  728SOL     OW 3082   0.209   3.454   4.829
  728SOL    HW1 3083   0.147   3.526   4.798
  728SOL    HW2 3084   0.255   3.413   4.751
  729SOL     OW 3085   1.395   2.169   0.396
  729SOL    HW1 3086   1.404   2.073   0.423
  729SOL    HW2 3087   1.318   2.178   0.332
  730SOL     OW 3088   5.417   1.398   2.328
  730SOL    HW1 3089   5.457   1.480   2.286
  730SOL    HW2 3090   5.325   1.384   2.291
  731SOL     OW 3091   5.764   4.140   5.838
  731SOL    HW1 3092   5.856   4.121   5.872
  731SOL    HW2 3093   5.763   4.132   5.738
  732SOL     OW 3094   0.500   3.006   0.790
  732SOL    HW1 3095   0.492   2.906   0.787
  732SOL    HW2 3096   0.494   3.042   0.697
  733SOL     OW 3097   5.629   5.628   5.517
  733SOL    HW1 3098   5.670   5.600   5.604
  733SOL    HW2 3099   5.634   5.727   5.509
  734SOL     OW 3100   6.580   4.099   2.538
  734SOL    HW1 3101   6.509   4.156   2.578
  734SOL    HW2 3102   6.601   4.132   2.446
  735SOL     OW 3103   4.001   2.694   0.340
  735SOL    HW1 3104   4.023   2.708   0.437
  735SOL    HW2 3105   3.920   2.748   0.316
  736SOL     OW 3106   0.535   0.286   2.480
  736SOL    HW1 3107   0.552   0.374   2.524
  736SOL    HW2 3108   0.533   0.299   2.381
  737SOL     OW 3109   4.774   2.169   6.157
  737SOL    HW1 3110   4.677   2.151   6.138
  737SOL    HW2 3111   4.785   2.198   6.252
  738SOL     OW 3112   1.907   4.043   2.363
  738SOL    HW1 3113   1.843   4.024   2.288
  738SOL    HW2 3114   1.990   3.988   2.350
  739SOL     OW 3115   3.928   7.018   4.750
  739SOL    HW1 3116   3.853   0.030   4.694
  739SOL    HW2 3117   4.015   0.019   4.710
  740SOL     OW 3118   4.950   0.279   0.547
  740SOL    HW1 3119   4.855   0.285   0.577
  740SOL    HW2 3120   4.998   0.362   0.576
  741SOL     OW 3121   2.253   6.504   3.603
  741SOL    HW1 3122   2.162   6.490   3.642
  741SOL    HW2 3123   2.259   6.458   3.515
  742SOL     OW 3124   1.937   6.386   1.131
  742SOL    HW1 3125   1.979   6.364   1.219
  742SOL    HW2 3126   1.997   6.447   1.079
  743SOL     OW 3127   0.308   4.415   4.395
  743SOL    HW1 3128   0.334   4.418   4.491
  743SOL    HW2 3129   0.209   4.399   4.387
  744SOL     OW 3130   5.768   0.044   6.628
  744SOL    HW1 3131   5.680   0.032   6.674
  744SOL    HW2 3132   5.789   0.141   6.619
  745SOL     OW 3133   1.025   5.245   4.780
  745SOL    HW1 3134   0.945   5.305   4.773
  745SOL    HW2 3135   1.088   5.263   4.704
  746SOL     OW 3136   0.506   5.268   5.888
  746SOL    HW1 3137   0.421   5.308   5.922
  746SOL    HW2 3138   0.578   5.281   5.956
  747SOL     OW 3139   4.276   6.857   5.122
  747SOL    HW1 3140   4.259   6.955   5.124
  747SOL    HW2 3141   4.369   6.838   5.155
  748SOL     OW 3142   3.224   5.030   2.495
  748SOL    HW1 3143   3.138   5.080   2.483
  748SOL    HW2 3144   3.208   4.932   2.481
  749SOL     OW 3145   6.570   4.415   4.856
  749SOL    HW1 3146   6.554   4.348   4.928
  749SOL    HW2 3147   6.483   4.438   4.812
  750SOL     OW 3148   2.350   2.402   1.199
  750SOL    HW1 3149   2.386   2.494   1.215
  750SOL    HW2 3150   2.254   2.408   1.173
  751SOL     OW 3151   4.133   2.732   6.560
  751SOL    HW1 3152   4.127   2.638   6.525
  751SOL    HW2 3153   4.098   2.734   6.654
  752SOL     OW 3154   3.435   1.382   2.397
  752SOL    HW1 3155   3.508   1.402   2.463
  752SOL    HW2 3156   3.475   1.340   2.316
  753SOL     OW 3157   1.656   2.905   4.559
  753SOL    HW1 3158   1.618   2.813   4.546
  753SOL    HW2 3159   1.716   2.904   4.639
  754SOL     OW 3160   5.396   3.102   5.938
  754SOL    HW1 3161   5.325   3.034   5.954
  754SOL    HW2 3162   5.355   3.193   5.933
  755SOL     OW 3163   1.763   4.812   5.857
  755SOL    HW1 3164   1.710   4.861   5.787
  755SOL    HW2 3165   1.839   4.764   5.814
  756SOL     OW 3166   3.815   0.248   1.319
  756SOL    HW1 3167   3.851   0.263   1.411
  756SOL    HW2 3168   3.801   0.337   1.274
  757SOL     OW 3169   0.922   0.024   3.528
  757SOL    HW1 3170   0.874   0.077   3.598
  757SOL    HW2 3171   0.995   6.996   3.572
  758SOL     OW 3172   4.049   0.380   2.011
  758SOL    HW1 3173   4.115   0.412   1.943
  758SOL    HW2 3174   4.026   0.455   2.073
  759SOL     OW 3175   1.036   1.209   0.756
  759SOL    HW1 3176   1.086   1.123   0.770
  759SOL    HW2 3177   1.071   1.254   0.674
  760SOL     OW 3178   5.032   0.440   5.699
  760SOL    HW1 3179   5.080   0.466   5.615
  760SOL    HW2 3180   4.958   0.376   5.677
  761SOL     OW 3181   5.555   2.864   5.895
  761SOL    HW1 3182   5.519   2.958   5.893
  761SOL    HW2 3183   5.479   2.800   5.883
  762SOL     OW 3184   2.546   0.287   4.709
  762SOL    HW1 3185   2.480   0.308   4.637
  762SOL    HW2 3186   2.635   0.327   4.686
  763SOL     OW 3187   3.845   4.726   6.890
  763SOL    HW1 3188   3.934   4.716   6.846
  763SOL    HW2 3189   3.826   4.823   6.906
  764SOL     OW 3190   4.314   1.221   4.130
  764SOL    HW1 3191   4.266   1.307   4.112
  764SOL    HW2 3192   4.400   1.240   4.177
  765SOL     OW 3193   1.267   6.166   1.213
  765SOL    HW1 3194   1.221   6.227   1.148
  765SOL    HW2 3195   1.366   6.175   1.203
  766SOL     OW 3196   1.987   4.180   6.860
  766SOL    HW1 3197   1.983   4.089   6.817
  766SOL    HW2 3198   2.010   4.169   6.957
  767SOL     OW 3199   5.971   5.915   2.357
  767SOL    HW1 3200   6.018   5.925   2.269
  767SOL    HW2 3201   6.015   5.973   2.425
  768SOL     OW 3202   2.004   6.308   1.412
  768SOL    HW1 3203   2.042   6.388   1.458
  768SOL    HW2 3204   1.939   6.261   1.473
  769SOL     OW 3205   3.118   0.737   4.309
  769SOL    HW1 3206   3.197   0.779   4.265
  769SOL    HW2 3207   3.083   0.798   4.380
  770SOL     OW 3208   2.175   3.320   3.102
  770SOL    HW1 3209   2.205   3.405   3.146
  770SOL    HW2 3210   2.199   3.242   3.160
  771SOL     OW 3211   2.115   5.684   2.232
  771SOL    HW1 3212   2.059   5.660   2.311
  771SOL    HW2 3213   2.212   5.675   2.256
  772SOL     OW 3214   5.761   5.058   0.588
  772SOL    HW1 3215   5.688   5.058   0.520
  772SOL    HW2 3216   5.818   5.139   0.576
  773SOL     OW 3217   0.853   4.125   4.219
  773SOL    HW1 3218   0.949   4.113   4.245
  773SOL    HW2 3219   0.810   4.189   4.283
  774SOL     OW 3220   1.630   1.956   1.509
  774SOL    HW1 3221   1.537   1.933   1.537
  774SOL    HW2 3222   1.686   1.873   1.508
  775SOL     OW 3223   0.773   2.498   2.554
  775SOL    HW1 3224   0.729   2.408   2.558
  775SOL    HW2 3225   0.871   2.487   2.536
  776SOL     OW 3226   0.871   6.858   5.939
  776SOL    HW1 3227   0.929   6.789   5.897
  776SOL    HW2 3228   0.911   6.949   5.926
  777SOL     OW 3229   3.033   5.071   1.213
  777SOL    HW1 3230   3.078   5.146   1.163
  777SOL    HW2 3231   2.987   5.109   1.293
  778SOL     OW 3232   3.312   1.070   2.948
  778SOL    HW1 3233   3.281   1.122   2.868
  778SOL    HW2 3234   3.371   1.127   3.004
  779SOL     OW 3235   0.608   2.275   2.605
  779SOL    HW1 3236   0.613   2.257   2.703
  779SOL    HW2 3237   0.536   2.219   2.564
  780SOL     OW 3238   5.922   3.950   3.679
  780SOL    HW1 3239   5.895   3.870   3.733
  780SOL    HW2 3240   5.862   3.959   3.600
  781SOL     OW 3241   5.482   1.007   0.004
  781SOL    HW1 3242   5.535   0.929   0.036
  781SOL    HW2 3243   5.385   0.990   0.019
  782SOL     OW 3244   1.542   4.221   6.905
  782SOL    HW1 3245   1.492   4.278   6.971
  782SOL    HW2 3246   1.499   4.131   6.900
  783SOL     OW 3247   3.822   4.871   1.065
  783SOL    HW1 3248   3.813   4.914   1.155
  783SOL    HW2 3249   3.803   4.938   0.994
  784SOL     OW 3250   5.310   6.647   0.111
  784SOL    HW1 3251   5.348   6.564   0.070
  784SOL    HW2 3252   5.344   6.727   0.060
  785SOL     OW 3253   0.301   2.488   2.593
  785SOL    HW1 3254   0.241   2.522   2.666
  785SOL    HW2 3255   0.396   2.500   2.620
  786SOL     OW 3256   0.905   0.807   1.220
  786SOL    HW1 3257   1.003   0.817   1.208
  786SOL    HW2 3258   0.862   0.896   1.230
  787SOL     OW 3259   3.183   0.784   6.368
  787SOL    HW1 3260   3.251   0.713   6.351
  787SOL    HW2 3261   3.218   0.848   6.436
  788SOL     OW 3262   3.481   2.797   5.550
  788SOL    HW1 3263   3.472   2.764   5.456
  788SOL    HW2 3264   3.514   2.723   5.608
  789SOL     OW 3265   5.672   3.673   1.216
  789SOL    HW1 3266   5.644   3.603   1.282
  789SOL    HW2 3267   5.615   3.755   1.228
  790SOL     OW 3268   2.119   0.869   4.325
  790SOL    HW1 3269   2.089   0.811   4.249
  790SOL    HW2 3270   2.089   0.963   4.309
  791SOL     OW 3271   3.721   5.416   3.571
  791SOL    HW1 3272   3.672   5.438   3.486
  791SOL    HW2 3273   3.730   5.316   3.578
  792SOL     OW 3274   0.498   0.212   1.607
  792SOL    HW1 3275   0.558   0.193   1.529
  792SOL    HW2 3276   0.425   0.144   1.610
  793SOL     OW 3277   5.019   5.422   3.785
  793SOL    HW1 3278   4.963   5.500   3.757
  793SOL    HW2 3279   5.030   5.360   3.708
  794SOL     OW 3280   2.726   3.905   5.350
  794SOL    HW1 3281   2.820   3.911   5.316
  794SOL    HW2 3282   2.680   3.993   5.337
  795SOL     OW 3283   3.669   6.696   4.513
  795SOL    HW1 3284   3.745   6.759   4.516
  795SOL    HW2 3285   3.627   6.689   4.604
  796SOL     OW 3286   1.260   1.781   6.140
  796SOL    HW1 3287   1.337   1.831   6.102
  796SOL    HW2 3288   1.186   1.845   6.160
  797SOL     OW 3289   4.974   2.554   1.505
  797SOL    HW1 3290   4.909   2.592   1.440
  797SOL    HW2 3291   5.038   2.625   1.535
  798SOL     OW 3292   4.399   6.956   1.999
  798SOL    HW1 3293   4.338   7.022   1.955
  798SOL    HW2 3294   4.489   6.998   2.011
  799SOL     OW 3295   6.311   0.678   5.580
  799SOL    HW1 3296   6.375   0.665   5.656
  799SOL    HW2 3297   6.218   0.657   5.612
  800SOL     OW 3298   5.187   1.681   2.627
  800SOL    HW1 3299   5.264   1.649   2.683
  800SOL    HW2 3300   5.106   1.691   2.685
  801SOL     OW 3301   2.018   3.121   4.428
  801SOL    HW1 3302   2.063   3.097   4.342
  801SOL    HW2 3303   1.919   3.122   4.414
  802SOL     OW 3304   4.681   0.841   0.455
  802SOL    HW1 3305   4.687   0.761   0.395
  802SOL    HW2 3306   4.664   0.923   0.401
  803SOL     OW 3307   6.836   6.515   5.392
  803SOL    HW1 3308   6.782   6.577   5.448
  803SOL    HW2 3309   6.871   6.564   5.312
  804SOL     OW 3310   5.667   5.685   0.025
  804SOL    HW1 3311   5.585   5.639   0.059
  804SOL    HW2 3312   5.673   5.776   0.066
  805SOL     OW 3313   3.570   1.320   5.389
  805SOL    HW1 3314   3.644   1.374   5.350
  805SOL    HW2 3315   3.558   1.236   5.336
  806SOL     OW 3316   5.389   0.990   4.063
  806SOL    HW1 3317   5.454   0.949   3.999
  806SOL    HW2 3318   5.317   0.924   4.084
  807SOL     OW 3319   0.618   1.892   4.549
  807SOL    HW1 3320   0.637   1.990   4.550
  807SOL    HW2 3321   0.523   1.877   4.520
  808SOL     OW 3322   4.659   3.262   5.905
  808SOL    HW1 3323   4.756   3.282   5.896
  808SOL    HW2 3324   4.618   3.324   5.972
  809SOL     OW 3325   7.012   5.170   1.687
  809SOL    HW1 3326   6.953   5.139   1.613
  809SOL    HW2 3327   0.057   5.232   1.650
  810SOL     OW 3328   3.220   2.816   1.064
  810SOL    HW1 3329   3.161   2.739   1.040
  810SOL    HW2 3330   3.181   2.866   1.141
  811SOL     OW 3331   4.298   5.816   4.930
  811SOL    HW1 3332   4.221   5.878   4.921
  811SOL    HW2 3333   4.297   5.749   4.855
  812SOL     OW 3334   0.456   1.294   1.607
  812SOL    HW1 3335   0.537   1.329   1.560
  812SOL    HW2 3336   0.391   1.257   1.540
  813SOL     OW 3337   3.338   6.257   4.947
  813SOL    HW1 3338   3.238   6.263   4.956
  813SOL    HW2 3339   3.361   6.207   4.864
  814SOL     OW 3340   5.820   6.277   2.658
  814SOL    HW1 3341   5.806   6.344   2.732
  814SOL    HW2 3342   5.918   6.262   2.646
  815SOL     OW 3343   0.451   4.037   3.026
  815SOL    HW1 3344   0.436   4.044   3.125
  815SOL    HW2 3345   0.399   4.108   2.979
  816SOL     OW 3346   6.313   6.901   0.200
  816SOL    HW1 3347   6.338   6.807   0.221
  816SOL    HW2 3348   6.396   6.954   0.180
  817SOL     OW 3349   2.290   3.693   1.694
  817SOL    HW1 3350   2.194   3.710   1.672
  817SOL    HW2 3351   2.295   3.629   1.771
  818SOL     OW 3352   6.177   2.581   1.283
  818SOL    HW1 3353   6.202   2.677   1.296
  818SOL    HW2 3354   6.124   2.571   1.199
  819SOL     OW 3355   5.674   2.934   2.977
  819SOL    HW1 3356   5.668   3.033   2.972
  819SOL    HW2 3357   5.583   2.895   2.992
  820SOL     OW 3358   2.622   3.227   5.938
  820SOL    HW1 3359   2.574   3.271   5.862
  820SOL    HW2 3360   2.561   3.162   5.982
  821SOL     OW 3361   1.847   4.150   0.461
  821SOL    HW1 3362   1.882   4.183   0.373
  821SOL    HW2 3363   1.844   4.050   0.460
  822SOL     OW 3364   1.916   3.943   4.748
  822SOL    HW1 3365   2.014   3.956   4.733
  822SOL    HW2 3366   1.871   4.032   4.754
  823SOL     OW 3367   4.903   4.046   6.335
  823SOL    HW1 3368   4.856   4.093   6.260
  823SOL    HW2 3369   4.850   4.056   6.419
  824SOL     OW 3370   5.530   1.104   5.279
  824SOL    HW1 3371   5.620   1.093   5.237
  824SOL    HW2 3372   5.469   1.152   5.216
  825SOL     OW 3373   1.494   4.282   1.278
  825SOL    HW1 3374   1.530   4.197   1.318
  825SOL    HW2 3375   1.395   4.286   1.291
  826SOL     OW 3376   4.910   2.898   5.895
  826SOL    HW1 3377   4.980   2.949   5.945
  826SOL    HW2 3378   4.944   2.806   5.873
  827SOL     OW 3379   3.567   4.480   6.027
  827SOL    HW1 3380   3.489   4.499   6.087
  827SOL    HW2 3381   3.540   4.413   5.958
  828SOL     OW 3382   5.403   6.475   5.973
  828SOL    HW1 3383   5.331   6.433   6.027
  828SOL    HW2 3384   5.369   6.561   5.934
  829SOL     OW 3385   3.033   3.271   3.711
  829SOL    HW1 3386   3.042   3.363   3.750
  829SOL    HW2 3387   3.075   3.204   3.773
  830SOL     OW 3388   4.687   4.465   7.023
  830SOL    HW1 3389   4.770   4.510   6.988
  830SOL    HW2 3390   4.710   4.374   0.032
  831SOL     OW 3391   5.504   0.985   6.493
  831SOL    HW1 3392   5.513   1.053   6.566
  831SOL    HW2 3393   5.407   0.965   6.477
  832SOL     OW 3394   2.814   0.643   1.718
  832SOL    HW1 3395   2.869   0.563   1.693
  832SOL    HW2 3396   2.755   0.668   1.641
  833SOL     OW 3397   0.401   3.810   6.205
  833SOL    HW1 3398   0.420   3.834   6.300
  833SOL    HW2 3399   0.485   3.821   6.151
  834SOL     OW 3400   2.884   3.814   0.940
  834SOL    HW1 3401   2.955   3.744   0.943
  834SOL    HW2 3402   2.817   3.795   1.012
  835SOL     OW 3403   3.359   0.230   4.802
  835SOL    HW1 3404   3.359   0.328   4.821
  835SOL    HW2 3405   3.290   0.184   4.859
  836SOL     OW 3406   3.826   6.708   6.539
  836SOL    HW1 3407   3.843   6.638   6.470
  836SOL    HW2 3408   3.728   6.722   6.550
  837SOL     OW 3409   5.635   6.656   0.139
  837SOL    HW1 3410   5.632   6.686   0.044
  837SOL    HW2 3411   5.629   6.556   0.143
  838SOL     OW 3412   1.947   0.048   4.751
  838SOL    HW1 3413   1.984   0.028   4.661
  838SOL    HW2 3414   1.847   0.058   4.745
  839SOL     OW 3415   2.753   2.348   2.342
  839SOL    HW1 3416   2.732   2.340   2.245
  839SOL    HW2 3417   2.835   2.294   2.363
  840SOL     OW 3418   6.094   6.668   6.898
  840SOL    HW1 3419   6.134   6.751   6.936
  840SOL    HW2 3420   6.146   6.589   6.930
  841SOL     OW 3421   4.612   4.910   0.168
  841SOL    HW1 3422   4.616   4.822   0.214
  841SOL    HW2 3423   4.519   4.926   0.135
  842SOL     OW 3424   4.285   6.139   4.702
  842SOL    HW1 3425   4.347   6.189   4.641
  842SOL    HW2 3426   4.338   6.099   4.777
  843SOL     OW 3427   2.339   1.848   7.018
  843SOL    HW1 3428   2.412   1.801   6.968
  843SOL    HW2 3429   2.309   1.928   6.965
  844SOL     OW 3430   6.136   0.402   1.131
  844SOL    HW1 3431   6.083   0.378   1.212
  844SOL    HW2 3432   6.212   0.462   1.156
  845SOL     OW 3433   5.406   4.555   5.055
  845SOL    HW1 3434   5.391   4.549   4.956
  845SOL    HW2 3435   5.328   4.600   5.098
  846SOL     OW 3436   2.426   1.815   0.360
  846SOL    HW1 3437   2.482   1.738   0.329
  846SOL    HW2 3438   2.331   1.799   0.335
  847SOL     OW 3439   1.622   3.977   0.900
  847SOL    HW1 3440   1.616   3.879   0.918
  847SOL    HW2 3441   1.573   3.999   0.815
  848SOL     OW 3442   5.898   0.665   6.745
  848SOL    HW1 3443   5.933   0.582   6.701
  848SOL    HW2 3444   5.825   0.639   6.809
  849SOL     OW 3445   0.636   4.947   5.639
  849SOL    HW1 3446   0.644   4.935   5.540
  849SOL    HW2 3447   0.539   4.958   5.664
  850SOL     OW 3448   5.920   1.399   4.363
  850SOL    HW1 3449   5.987   1.325   4.363
  850SOL    HW2 3450   5.910   1.434   4.270
  851SOL     OW 3451   0.800   1.174   2.338
  851SOL    HW1 3452   0.759   1.087   2.366
  851SOL    HW2 3453   0.809   1.234   2.417
  852SOL     OW 3454   1.050   2.434   0.455
  852SOL    HW1 3455   1.074   2.414   0.550
  852SOL    HW2 3456   1.067   2.354   0.398
  853SOL     OW 3457   1.974   4.312   2.365
  853SOL    HW1 3458   1.958   4.214   2.376
  853SOL    HW2 3459   1.891   4.363   2.388
  854SOL     OW 3460   4.407   5.923   1.878
  854SOL    HW1 3461   4.446   5.932   1.786
  854SOL    HW2 3462   4.341   5.997   1.894
  855SOL     OW 3463   0.507   0.260   1.260
  855SOL    HW1 3464   0.449   0.336   1.231
  855SOL    HW2 3465   0.563   0.230   1.183
  856SOL     OW 3466   1.592   1.729   5.326
  856SOL    HW1 3467   1.510   1.677   5.301
  856SOL    HW2 3468   1.565   1.821   5.353
  857SOL     OW 3469   6.277   4.398   2.288
  857SOL    HW1 3470   6.205   4.366   2.226
  857SOL    HW2 3471   6.287   4.497   2.279
  858SOL     OW 3472   2.811   4.033   1.408
  858SOL    HW1 3473   2.874   4.099   1.366
  858SOL    HW2 3474   2.780   3.968   1.339
  859SOL     OW 3475   4.908   5.793   6.534
  859SOL    HW1 3476   5.002   5.808   6.501
  859SOL    HW2 3477   4.866   5.718   6.483
  860SOL     OW 3478   4.529   4.131   0.384
  860SOL    HW1 3479   4.443   4.129   0.435
  860SOL    HW2 3480   4.515   4.094   0.292
  861SOL     OW 3481   2.899   0.583   4.225
  861SOL    HW1 3482   2.985   0.629   4.246
  861SOL    HW2 3483   2.822   0.644   4.246
  862SOL     OW 3484   0.655   4.137   5.968
  862SOL    HW1 3485   0.647   4.230   6.003
  862SOL    HW2 3486   0.687   4.139   5.873
  863SOL     OW 3487   0.517   6.938   0.192
  863SOL    HW1 3488   0.525   0.010   0.218
  863SOL    HW2 3489   0.461   6.931   0.109
  864SOL     OW 3490   4.368   4.925   3.902
  864SOL    HW1 3491   4.363   4.855   3.974
  864SOL    HW2 3492   4.439   4.900   3.837
  865SOL     OW 3493   1.614   6.323   6.215
  865SOL    HW1 3494   1.527   6.277   6.236
  865SOL    HW2 3495   1.679   6.306   6.290
  866SOL     OW 3496   1.688   2.440   1.764
  866SOL    HW1 3497   1.608   2.427   1.705
  866SOL    HW2 3498   1.765   2.472   1.708
  867SOL     OW 3499   3.969   3.110   0.732
  867SOL    HW1 3500   3.934   3.022   0.698
  867SOL    HW2 3501   3.926   3.131   0.820
  868SOL     OW 3502   5.895   6.862   1.153
  868SOL    HW1 3503   5.842   6.811   1.221
  868SOL    HW2 3504   5.832   6.913   1.094
  869SOL     OW 3505   6.590   5.332   3.156
  869SOL    HW1 3506   6.533   5.251   3.146
  869SOL    HW2 3507   6.533   5.414   3.157
  870SOL     OW 3508   5.594   3.439   0.799
  870SOL    HW1 3509   5.494   3.433   0.806
  870SOL    HW2 3510   5.621   3.534   0.788
  871SOL     OW 3511   5.216   3.806   3.130
  871SOL    HW1 3512   5.143   3.863   3.168
  871SOL    HW2 3513   5.303   3.832   3.172
  872SOL     OW 3514   6.063   4.688   3.904
  872SOL    HW1 3515   5.965   4.709   3.895
  872SOL    HW2 3516   6.104   4.684   3.813
  873SOL     OW 3517   5.685   6.801   3.880
  873SOL    HW1 3518   5.621   6.850   3.821
  873SOL    HW2 3519   5.733   6.866   3.939
  874SOL     OW 3520   0.885   4.742   5.466
  874SOL    HW1 3521   0.958   4.677   5.444
  874SOL    HW2 3522   0.924   4.831   5.486
  875SOL     OW 3523   3.917   2.866   0.633
  875SOL    HW1 3524   3.878   2.911   0.552
  875SOL    HW2 3525   3.872   2.778   0.647
  876SOL     OW 3526   0.243   5.610   3.199
  876SOL    HW1 3527   0.300   5.665   3.260
  876SOL    HW2 3528   0.147   5.620   3.225
  877SOL     OW 3529   3.784   3.979   0.338
  877SOL    HW1 3530   3.738   3.983   0.250
  877SOL    HW2 3531   3.881   3.959   0.324
  878SOL     OW 3532   4.427   6.227   5.384
  878SOL    HW1 3533   4.519   6.213   5.347
  878SOL    HW2 3534   4.392   6.141   5.420
  879SOL     OW 3535   3.096   2.081   2.024
  879SOL    HW1 3536   3.062   2.046   1.937
  879SOL    HW2 3537   3.043   2.162   2.051
  880SOL     OW 3538   3.202   4.227   5.923
  880SOL    HW1 3539   3.145   4.297   5.879
  880SOL    HW2 3540   3.153   4.189   6.001
  881SOL     OW 3541   4.319   4.630   5.408
  881SOL    HW1 3542   4.383   4.554   5.418
  881SOL    HW2 3543   4.352   4.709   5.461
  882SOL     OW 3544   1.413   1.231   4.191
  882SOL    HW1 3545   1.354   1.309   4.212
  882SOL    HW2 3546   1.379   1.149   4.238
  883SOL     OW 3547   4.532   5.567   6.098
  883SOL    HW1 3548   4.608   5.630   6.082
  883SOL    HW2 3549   4.564   5.489   6.151
  884SOL     OW 3550   0.182   3.206   0.421
  884SOL    HW1 3551   0.235   3.162   0.347
  884SOL    HW2 3552   0.096   3.157   0.433
  885SOL     OW 3553   4.972   6.601   6.942
  885SOL    HW1 3554   5.012   6.691   6.954
  885SOL    HW2 3555   5.016   6.554   6.865
  886SOL     OW 3556   3.391   0.411   0.735
  886SOL    HW1 3557   3.370   0.505   0.709
  886SOL    HW2 3558   3.372   0.398   0.832
  887SOL     OW 3559   4.453   0.300   4.466
  887SOL    HW1 3560   4.457   0.233   4.392
  887SOL    HW2 3561   4.501   0.383   4.439
  888SOL     OW 3562   5.910   6.597   3.038
  888SOL    HW1 3563   5.827   6.603   3.094
  888SOL    HW2 3564   5.990   6.603   3.097
  889SOL     OW 3565   1.471   6.435   5.248
  889SOL    HW1 3566   1.428   6.472   5.330
  889SOL    HW2 3567   1.429   6.474   5.167
  890SOL     OW 3568   2.214   4.942   2.164
  890SOL    HW1 3569   2.177   5.031   2.190
  890SOL    HW2 3570   2.306   4.931   2.202
  891SOL     OW 3571   6.478   3.965   1.592
  891SOL    HW1 3572   6.475   3.922   1.682
  891SOL    HW2 3573   6.468   3.895   1.521
  892SOL     OW 3574   4.480   4.106   0.088
  892SOL    HW1 3575   4.391   4.127   0.048
  892SOL    HW2 3576   4.517   4.023   0.046
  893SOL     OW 3577   2.101   0.945   2.178
  893SOL    HW1 3578   2.100   0.884   2.258
  893SOL    HW2 3579   2.190   0.988   2.170
  894SOL     OW 3580   1.739   2.337   4.434
  894SOL    HW1 3581   1.810   2.279   4.475
  894SOL    HW2 3582   1.761   2.433   4.449
  895SOL     OW 3583   1.783   5.421   4.590
  895SOL    HW1 3584   1.840   5.417   4.508
  895SOL    HW2 3585   1.792   5.335   4.642
  896SOL     OW 3586   5.058   0.126   2.113
  896SOL    HW1 3587   5.140   0.076   2.139
  896SOL    HW2 3588   5.027   0.182   2.190
  897SOL     OW 3589   5.768   1.088   6.974
  897SOL    HW1 3590   5.668   1.082   6.978
  897SOL    HW2 3591   5.802   1.031   6.899
  898SOL     OW 3592   4.443   5.689   2.789
  898SOL    HW1 3593   4.437   5.733   2.879
  898SOL    HW2 3594   4.351   5.675   2.752
  899SOL     OW 3595   6.861   4.662   0.080
  899SOL    HW1 3596   6.922   4.734   0.112
  899SOL    HW2 3597   6.886   4.635   7.011
  900SOL     OW 3598   4.980   6.633   1.750
  900SOL    HW1 3599   4.918   6.661   1.823
  900SOL    HW2 3600   4.938   6.652   1.661
  901SOL     OW 3601   0.946   1.106   5.399
  901SOL    HW1 3602   1.001   1.095   5.482
  901SOL    HW2 3603   0.850   1.120   5.425
  902SOL     OW 3604   0.418   2.561   6.176
  902SOL    HW1 3605   0.362   2.482   6.202
  902SOL    HW2 3606   0.473   2.590   6.254
  903SOL     OW 3607   6.733   4.052   6.196
  903SOL    HW1 3608   6.645   4.088   6.168
  903SOL    HW2 3609   6.725   4.007   6.285
  904SOL     OW 3610   1.416   1.907   3.950
  904SOL    HW1 3611   1.478   1.937   3.878
  904SOL    HW2 3612   1.329   1.956   3.942
  905SOL     OW 3613   4.335   3.301   6.022
  905SOL    HW1 3614   4.293   3.320   5.934
  905SOL    HW2 3615   4.332   3.202   6.040
  906SOL     OW 3616   0.248   3.976   5.738
  906SOL    HW1 3617   0.344   3.987   5.713
  906SOL    HW2 3618   0.215   4.059   5.784
  907SOL     OW 3619   5.626   3.198   3.308
  907SOL    HW1 3620   5.686   3.278   3.301
  907SOL    HW2 3621   5.671   3.128   3.364
  908SOL     OW 3622   1.841   6.289   3.761
  908SOL    HW1 3623   1.765   6.332   3.810
  908SOL    HW2 3624   1.823   6.191   3.751
  909SOL     OW 3625   2.378   6.733   1.218
  909SOL    HW1 3626   2.280   6.727   1.237
  909SOL    HW2 3627   2.396   6.698   1.126
  910SOL     OW 3628   2.497   0.266   0.840
  910SOL    HW1 3629   2.406   0.300   0.813
  910SOL    HW2 3630   2.559   0.344   0.848
  911SOL     OW 3631   0.012   5.710   0.939
  911SOL    HW1 3632   6.941   5.722   0.912
  911SOL    HW2 3633   0.018   5.647   1.016
  912SOL     OW 3634   6.621   1.090   4.744
  912SOL    HW1 3635   6.686   1.165   4.755
  912SOL    HW2 3636   6.583   1.064   4.833
  913SOL     OW 3637   2.234   0.185   2.861
  913SOL    HW1 3638   2.237   0.280   2.890
  913SOL    HW2 3639   2.142   0.162   2.829
  914SOL     OW 3640   2.667   5.529   5.115
  914SOL    HW1 3641   2.615   5.568   5.191
  914SOL    HW2 3642   2.609   5.466   5.063
  915SOL     OW 3643   1.480   3.239   0.338
  915SOL    HW1 3644   1.560   3.299   0.343
  915SOL    HW2 3645   1.413   3.268   0.405
  916SOL     OW 3646   1.608   2.838   2.229
  916SOL    HW1 3647   1.520   2.886   2.233
  916SOL    HW2 3648   1.647   2.847   2.138
  917SOL     OW 3649   5.307   0.601   1.405
  917SOL    HW1 3650   5.238   0.550   1.456
  917SOL    HW2 3651   5.331   0.551   1.321
  918SOL     OW 3652   2.509   6.193   6.928
  918SOL    HW1 3653   2.588   6.159   6.877
  918SOL    HW2 3654   2.490   6.287   6.900
  919SOL     OW 3655   6.660   5.637   2.555
  919SOL    HW1 3656   6.684   5.704   2.485
  919SOL    HW2 3657   6.675   5.545   2.518
  920SOL     OW 3658   1.476   6.770   3.427
  920SOL    HW1 3659   1.424   6.722   3.356
  920SOL    HW2 3660   1.414   6.824   3.484
  921SOL     OW 3661   4.668   4.780   4.176
  921SOL    HW1 3662   4.689   4.744   4.085
  921SOL    HW2 3663   4.584   4.833   4.172
  922SOL     OW 3664   3.297   2.786   6.760
  922SOL    HW1 3665   3.350   2.787   6.675
  922SOL    HW2 3666   3.228   2.858   6.757
  923SOL     OW 3667   2.959   4.983   6.554
  923SOL    HW1 3668   2.919   4.914   6.493
  923SOL    HW2 3669   2.904   5.066   6.551
  924SOL     OW 3670   6.151   2.986   2.041
  924SOL    HW1 3671   6.088   3.054   2.077
  924SOL    HW2 3672   6.127   2.896   2.076
  925SOL     OW 3673   6.604   1.814   5.190
  925SOL    HW1 3674   6.569   1.762   5.268
  925SOL    HW2 3675   6.544   1.800   5.111
  926SOL     OW 3676   6.354   0.838   6.880
  926SOL    HW1 3677   6.334   0.930   6.914
  926SOL    HW2 3678   6.427   0.843   6.812
  927SOL     OW 3679   5.342   4.384   3.871
  927SOL    HW1 3680   5.330   4.287   3.893
  927SOL    HW2 3681   5.336   4.397   3.772
  928SOL     OW 3682   1.839   0.363   0.184
  928SOL    HW1 3683   1.827   0.293   0.113
  928SOL    HW2 3684   1.936   0.373   0.205
  929SOL     OW 3685   0.507   1.471   0.544
  929SOL    HW1 3686   0.448   1.551   0.555
  929SOL    HW2 3687   0.461   1.403   0.487
  930SOL     OW 3688   5.572   5.664   4.755
  930SOL    HW1 3689   5.671   5.672   4.771
  930SOL    HW2 3690   5.529   5.623   4.836
  931SOL     OW 3691   6.030   3.782   3.393
  931SOL    HW1 3692   6.004   3.769   3.297
  931SOL    HW2 3693   5.952   3.818   3.444
  932SOL     OW 3694   2.171   0.000   1.893
  932SOL    HW1 3695   2.104   0.068   1.862
  932SOL    HW2 3696   2.161   6.941   1.840
  933SOL     OW 3697   0.781   5.595   2.478
  933SOL    HW1 3698   0.838   5.557   2.405
  933SOL    HW2 3699   0.767   5.693   2.460
  934SOL     OW 3700   1.883   0.533   4.460
  934SOL    HW1 3701   1.843   0.496   4.376
  934SOL    HW2 3702   1.925   0.459   4.512
  935SOL     OW 3703   5.104   3.583   5.074
  935SOL    HW1 3704   5.044   3.616   5.147
  935SOL    HW2 3705   5.050   3.566   4.991
  936SOL     OW 3706   1.632   0.774   6.322
  936SOL    HW1 3707   1.563   0.841   6.350
  936SOL    HW2 3708   1.597   0.682   6.334
  937SOL     OW 3709   4.784   1.891   5.104
  937SOL    HW1 3710   4.704   1.847   5.146
  937SOL    HW2 3711   4.813   1.967   5.162
  938SOL     OW 3712   0.255   5.166   6.683
  938SOL    HW1 3713   0.224   5.252   6.642
  938SOL    HW2 3714   0.282   5.102   6.612
  939SOL     OW 3715   4.899   1.623   5.058
  939SOL    HW1 3716   4.841   1.699   5.086
  939SOL    HW2 3717   4.966   1.604   5.129
  940SOL     OW 3718   0.326   3.156   2.571
  940SOL    HW1 3719   0.407   3.129   2.518
  940SOL    HW2 3720   0.339   3.248   2.607
  941SOL     OW 3721   6.424   0.554   4.395
  941SOL    HW1 3722   6.521   0.541   4.374
  941SOL    HW2 3723   6.410   0.544   4.493
  942SOL     OW 3724   4.740   1.051   4.155
  942SOL    HW1 3725   4.724   0.956   4.181
  942SOL    HW2 3726   4.715   1.065   4.059
  943SOL     OW 3727   1.174   2.822   3.776
  943SOL    HW1 3728   1.199   2.913   3.743
  943SOL    HW2 3729   1.240   2.792   3.845
  944SOL     OW 3730   6.441   3.689   6.252
  944SOL    HW1 3731   6.500   3.634   6.311
  944SOL    HW2 3732   6.351   3.647   6.247
  945SOL     OW 3733   6.807   3.991   5.831
  945SOL    HW1 3734   6.886   3.977   5.890
  945SOL    HW2 3735   6.727   3.948   5.871
  946SOL     OW 3736   5.019   2.335   6.170
  946SOL    HW1 3737   4.926   2.302   6.152
  946SOL    HW2 3738   5.016   2.410   6.235
  947SOL     OW 3739   3.353   2.947   4.516
  947SOL    HW1 3740   3.314   2.946   4.609
  947SOL    HW2 3741   3.451   2.928   4.521
  948SOL     OW 3742   4.256   0.370   0.722
  948SOL    HW1 3743   4.330   0.372   0.655
  948SOL    HW2 3744   4.220   0.277   0.728
  949SOL     OW 3745   6.812   6.119   6.537
  949SOL    HW1 3746   6.894   6.088   6.584
  949SOL    HW2 3747   6.836   6.158   6.448
  950SOL     OW 3748   4.121   4.993   1.664
  950SOL    HW1 3749   4.094   4.907   1.621
  950SOL    HW2 3750   4.184   4.974   1.740
  951SOL     OW 3751   1.485   0.984   2.589
  951SOL    HW1 3752   1.426   0.917   2.633
  951SOL    HW2 3753   1.431   1.065   2.564
  952SOL     OW 3754   5.795   1.888   1.912
  952SOL    HW1 3755   5.858   1.965   1.900
  952SOL    HW2 3756   5.809   1.822   1.839
  953SOL     OW 3757   5.212   6.134   5.167
  953SOL    HW1 3758   5.258   6.195   5.103
  953SOL    HW2 3759   5.140   6.184   5.215
  954SOL     OW 3760   4.926   5.603   0.718
  954SOL    HW1 3761   4.930   5.514   0.672
  954SOL    HW2 3762   4.994   5.605   0.791
  955SOL     OW 3763   6.878   5.117   3.526
  955SOL    HW1 3764   6.832   5.067   3.453
  955SOL    HW2 3765   6.976   5.120   3.508
  956SOL     OW 3766   1.013   1.963   1.980
  956SOL    HW1 3767   1.013   2.005   1.890
  956SOL    HW2 3768   1.029   2.033   2.050
  957SOL     OW 3769   1.129   4.893   4.742
  957SOL    HW1 3770   1.040   4.921   4.776
  957SOL    HW2 3771   1.198   4.911   4.812
  958SOL     OW 3772   4.595   2.540   1.866
  958SOL    HW1 3773   4.501   2.529   1.833
  958SOL    HW2 3774   4.656   2.483   1.813
  959SOL     OW 3775   2.744   4.703   3.160
  959SOL    HW1 3776   2.677   4.765   3.119
  959SOL    HW2 3777   2.699   4.644   3.227
  960SOL     OW 3778   0.100   5.895   3.836
  960SOL    HW1 3779   0.127   5.809   3.878
  960SOL    HW2 3780   0.008   5.887   3.797
  961SOL     OW 3781   5.179   0.067   3.287
  961SOL    HW1 3782   5.120   0.133   3.334
  961SOL    HW2 3783   5.140   7.000   3.295
  962SOL     OW 3784   1.986   1.088   4.202
  962SOL    HW1 3785   1.977   1.184   4.175
  962SOL    HW2 3786   1.895   1.051   4.223
  963SOL     OW 3787   6.385   1.522   5.994
  963SOL    HW1 3788   6.319   1.481   6.056
  963SOL    HW2 3789   6.409   1.456   5.923
  964SOL     OW 3790   6.516   3.630   0.932
  964SOL    HW1 3791   6.555   3.675   0.852
  964SOL    HW2 3792   6.417   3.624   0.924
  965SOL     OW 3793   5.474   2.055   1.085
  965SOL    HW1 3794   5.569   2.055   1.117
  965SOL    HW2 3795   5.467   2.001   1.001
  966SOL     OW 3796   5.625   2.217   2.452
  966SOL    HW1 3797   5.588   2.299   2.408
  966SOL    HW2 3798   5.578   2.137   2.417
  967SOL     OW 3799   2.650   5.008   1.341
  967SOL    HW1 3800   2.676   5.033   1.247
  967SOL    HW2 3801   2.554   5.031   1.356
  968SOL     OW 3802   4.592   2.578   2.271
  968SOL    HW1 3803   4.650   2.608   2.347
  968SOL    HW2 3804   4.501   2.618   2.281
  969SOL     OW 3805   4.293   6.246   6.773
  969SOL    HW1 3806   4.349   6.241   6.856
  969SOL    HW2 3807   4.239   6.330   6.774
  970SOL     OW 3808   4.509   1.313   4.699
  970SOL    HW1 3809   4.449   1.271   4.767
  970SOL    HW2 3810   4.553   1.394   4.739
  971SOL     OW 3811   0.213   1.915   2.748
  971SOL    HW1 3812   0.134   1.972   2.724
  971SOL    HW2 3813   0.184   1.843   2.811
  972SOL     OW 3814   5.182   4.283   1.377
  972SOL    HW1 3815   5.119   4.236   1.315
  972SOL    HW2 3816   5.166   4.251   1.470
  973SOL     OW 3817   0.006   4.120   0.222
  973SOL    HW1 3818   6.933   4.110   0.198
  973SOL    HW2 3819   0.054   4.035   0.200
  974SOL     OW 3820   5.012   0.339   2.285
  974SOL    HW1 3821   5.064   0.325   2.369
  974SOL    HW2 3822   4.928   0.389   2.306
  975SOL     OW 3823   1.875   5.858   6.257
  975SOL    HW1 3824   1.805   5.910   6.209
  975SOL    HW2 3825   1.960   5.858   6.203
  976SOL     OW 3826   6.700   2.943   2.173
  976SOL    HW1 3827   6.635   2.873   2.202
  976SOL    HW2 3828   6.771   2.953   2.243
  977SOL     OW 3829   1.877   1.191   3.852
  977SOL    HW1 3830   1.816   1.112   3.849
  977SOL    HW2 3831   1.894   1.216   3.947
  978SOL     OW 3832   4.504   4.414   5.455
  978SOL    HW1 3833   4.463   4.350   5.519
  978SOL    HW2 3834   4.517   4.369   5.367
  979SOL     OW 3835   6.911   1.927   1.454
  979SOL    HW1 3836   6.815   1.954   1.455
  979SOL    HW2 3837   6.945   1.926   1.360
  980SOL     OW 3838   4.156   2.231   4.207
  980SOL    HW1 3839   4.224   2.161   4.184
  980SOL    HW2 3840   4.145   2.293   4.130
  981SOL     OW 3841   1.677   1.504   5.029
  981SOL    HW1 3842   1.684   1.603   5.029
  981SOL    HW2 3843   1.767   1.464   5.012
  982SOL     OW 3844   2.797   1.554   2.927
  982SOL    HW1 3845   2.836   1.590   3.012
  982SOL    HW2 3846   2.868   1.503   2.877
  983SOL     OW 3847   5.740   2.475   3.807
  983SOL    HW1 3848   5.785   2.460   3.719
  983SOL    HW2 3849   5.683   2.557   3.802
  984SOL     OW 3850   2.856   1.162   3.865
  984SOL    HW1 3851   2.775   1.212   3.833
  984SOL    HW2 3852   2.847   1.065   3.840
  985SOL     OW 3853   4.663   4.652   6.600
  985SOL    HW1 3854   4.712   4.598   6.531
  985SOL    HW2 3855   4.611   4.591   6.660
  986SOL     OW 3856   5.393   4.257   0.418
  986SOL    HW1 3857   5.341   4.193   0.474
  986SOL    HW2 3858   5.479   4.280   0.464
  987SOL     OW 3859   4.644   6.748   1.710
  987SOL    HW1 3860   4.667   6.759   1.807
  987SOL    HW2 3861   4.703   6.808   1.655
  988SOL     OW 3862   3.649   2.828   2.130
  988SOL    HW1 3863   3.566   2.802   2.180
  988SOL    HW2 3864   3.625   2.843   2.034
  989SOL     OW 3865   6.202   1.226   5.591
  989SOL    HW1 3866   6.154   1.312   5.572
  989SOL    HW2 3867   6.262   1.239   5.670
  990SOL     OW 3868   4.497   1.118   1.969
  990SOL    HW1 3869   4.506   1.029   2.014
  990SOL    HW2 3870   4.431   1.111   1.894
  991SOL     OW 3871   1.781   2.765   5.370
  991SOL    HW1 3872   1.869   2.764   5.417
  991SOL    HW2 3873   1.795   2.792   5.275
  992SOL     OW 3874   0.891   3.214   1.531
  992SOL    HW1 3875   0.939   3.229   1.444
  992SOL    HW2 3876   0.869   3.117   1.540
  993SOL     OW 3877   1.132   4.533   1.875
  993SOL    HW1 3878   1.038   4.498   1.882
  993SOL    HW2 3879   1.173   4.503   1.790
  994SOL     OW 3880   3.205   3.873   2.953
  994SOL    HW1 3881   3.284   3.880   2.892
  994SOL    HW2 3882   3.121   3.871   2.899
  995SOL     OW 3883   3.408   2.793   6.511
  995SOL    HW1 3884   3.470   2.870   6.520
  995SOL    HW2 3885   3.450   2.723   6.453
  996SOL     OW 3886   1.951   4.640   4.643
  996SOL    HW1 3887   1.857   4.635   4.611
  996SOL    HW2 3888   1.954   4.618   4.741
  997SOL     OW 3889   6.975   0.746   2.688
  997SOL    HW1 3890   6.904   0.740   2.618
  997SOL    HW2 3891   6.962   0.674   2.755
  998SOL     OW 3892   4.426   6.583   4.150
  998SOL    HW1 3893   4.359   6.512   4.174
  998SOL    HW2 3894   4.470   6.617   4.233
  999SOL     OW 3895   5.346   4.846   2.045
  999SOL    HW1 3896   5.359   4.910   2.121
  999SOL    HW2 3897   5.267   4.788   2.064
 1000SOL     OW 3898   1.036   0.754   2.103
 1000SOL    HW1 3899   1.057   0.850   2.083
 1000SOL    HW2 3900   1.100   0.719   2.170
 1001SOL     OW 3901   5.822   0.144   0.743
 1001SOL    HW1 3902   5.778   0.203   0.811
 1001SOL    HW2 3903   5.837   0.054   0.783
 1002SOL     OW 3904   6.452   2.248   6.584
 1002SOL    HW1 3905   6.510   2.295   6.650
 1002SOL    HW2 3906   6.360   2.240   6.620
 1003SOL     OW 3907   2.408   6.425   1.539
 1003SOL    HW1 3908   2.445   6.513   1.570
 1003SOL    HW2 3909   2.433   6.410   1.444
 1004SOL     OW 3910   0.220   0.059   1.612
 1004SOL    HW1 3911   0.235   0.066   1.513
 1004SOL    HW2 3912   0.164   0.136   1.642
 1005SOL     OW 3913   0.495   1.625   3.140
 1005SOL    HW1 3914   0.476   1.679   3.057
 1005SOL    HW2 3915   0.445   1.539   3.136
 1006SOL     OW 3916   1.920   5.262   1.057
 1006SOL    HW1 3917   1.823   5.236   1.059
 1006SOL    HW2 3918   1.949   5.286   1.150
 1007SOL     OW 3919   5.312   0.113   4.170
 1007SOL    HW1 3920   5.352   0.162   4.092
 1007SOL    HW2 3921   5.231   0.063   4.139
 1008SOL     OW 3922   2.135   2.972   5.210
 1008SOL    HW1 3923   2.067   2.905   5.181
 1008SOL    HW2 3924   2.218   2.960   5.156
 1009SOL     OW 3925   0.012   6.296   4.615
 1009SOL    HW1 3926   0.107   6.276   4.641
 1009SOL    HW2 3927   7.005   6.228   4.549
 1010SOL     OW 3928   3.474   2.181   6.081
 1010SOL    HW1 3929   3.399   2.238   6.045
 1010SOL    HW2 3930   3.441   2.130   6.160
 1011SOL     OW 3931   2.511   5.181   2.167
 1011SOL    HW1 3932   2.472   5.093   2.193
 1011SOL    HW2 3933   2.481   5.251   2.233
 1012SOL     OW 3934   6.553   0.030   0.524
 1012SOL    HW1 3935   6.487   6.996   0.571
 1012SOL    HW2 3936   6.621   6.997   0.479
 1013SOL     OW 3937   1.034   1.408   5.911
 1013SOL    HW1 3938   1.035   1.508   5.909
 1013SOL    HW2 3939   0.993   1.374   5.826
 1014SOL     OW 3940   4.892   6.121   6.982
 1014SOL    HW1 3941   4.912   6.171   6.898
 1014SOL    HW2 3942   4.804   6.152   7.019
 1015SOL     OW 3943   2.177   6.399   5.510
 1015SOL    HW1 3944   2.179   6.476   5.446
 1015SOL    HW2 3945   2.083   6.369   5.523
 1016SOL     OW 3946   3.427   3.355   0.351
 1016SOL    HW1 3947   3.399   3.372   0.257
 1016SOL    HW2 3948   3.515   3.399   0.369
 1017SOL     OW 3949   4.327   2.680   1.165
 1017SOL    HW1 3950   4.243   2.647   1.121
 1017SOL    HW2 3951   4.307   2.709   1.258
 1018SOL     OW 3952   1.386   3.026   4.532
 1018SOL    HW1 3953   1.483   3.007   4.513
 1018SOL    HW2 3954   1.378   3.070   4.621
 1019SOL     OW 3955   0.543   0.197   6.926
 1019SOL    HW1 3956   0.505   0.232   6.840
 1019SOL    HW2 3957   0.591   0.111   6.909
 1020SOL     OW 3958   0.993   6.683   1.057
 1020SOL    HW1 3959   1.069   6.744   1.079
 1020SOL    HW2 3960   0.984   6.613   1.128
 1021SOL     OW 3961   5.932   1.334   1.433
 1021SOL    HW1 3962   5.991   1.398   1.481
 1021SOL    HW2 3963   5.946   1.242   1.470
 1022SOL     OW 3964   4.027   4.422   5.921
 1022SOL    HW1 3965   3.975   4.452   5.840
 1022SOL    HW2 3966   4.085   4.497   5.953
 1023SOL     OW 3967   0.575   6.931   1.891
 1023SOL    HW1 3968   0.613   7.023   1.880
 1023SOL    HW2 3969   0.512   6.929   1.969
 1024SOL     OW 3970   6.160   3.683   3.951
 1024SOL    HW1 3971   6.174   3.656   4.046
 1024SOL    HW2 3972   6.248   3.684   3.903
 1025SOL     OW 3973   3.216   3.409   0.810
 1025SOL    HW1 3974   3.234   3.333   0.873
 1025SOL    HW2 3975   3.215   3.375   0.716
 1026SOL     OW 3976   2.380   2.831   1.607
 1026SOL    HW1 3977   2.368   2.928   1.585
 1026SOL    HW2 3978   2.298   2.796   1.652
 1027SOL     OW 3979   2.885   6.185   0.919
 1027SOL    HW1 3980   2.896   6.275   0.962
 1027SOL    HW2 3981   2.792   6.153   0.933
 1028SOL     OW 3982   3.745   6.002   0.070
 1028SOL    HW1 3983   3.731   6.021   0.167
 1028SOL    HW2 3984   3.663   5.958   0.032
 1029SOL     OW 3985   1.471   0.559   0.092
 1029SOL    HW1 3986   1.391   0.609   0.058
 1029SOL    HW2 3987   1.450   0.462   0.099
 1030SOL     OW 3988   3.774   3.981   1.588
 1030SOL    HW1 3989   3.682   4.006   1.558
 1030SOL    HW2 3990   3.838   3.990   1.512
 1031SOL     OW 3991   5.094   5.442   1.059
 1031SOL    HW1 3992   5.166   5.377   1.034
 1031SOL    HW2 3993   5.018   5.433   0.994
 1032SOL     OW 3994   1.682   1.773   4.955
 1032SOL    HW1 3995   1.743   1.820   5.019
 1032SOL    HW2 3996   1.594   1.821   4.953
 1033SOL     OW 3997   1.506   6.267   1.157
 1033SOL    HW1 3998   1.561   6.327   1.215
 1033SOL    HW2 3999   1.539   6.273   1.062
 1034SOL     OW 4000   0.632   5.645   4.598
 1034SOL    HW1 4001   0.604   5.554   4.569
 1034SOL    HW2 4002   0.622   5.709   4.522
 1035SOL     OW 4003   1.082   0.904   3.209
 1035SOL    HW1 4004   1.034   0.985   3.178
 1035SOL    HW2 4005   1.131   0.924   3.294
 1036SOL     OW 4006   2.984   0.770   2.018
 1036SOL    HW1 4007   2.958   0.688   1.967
 1036SOL    HW2 4008   2.905   0.831   2.026
 1037SOL     OW 4009   2.035   0.758   1.033
 1037SOL    HW1 4010   2.027   0.850   0.994
 1037SOL    HW2 4011   2.109   0.756   1.100
 1038SOL     OW 4012   1.052   0.285   5.384
 1038SOL    HW1 4013   1.092   0.277   5.292
 1038SOL    HW2 4014   0.952   0.283   5.377
 1039SOL     OW 4015   2.827   2.822   5.863
 1039SOL    HW1 4016   2.783   2.835   5.774
 1039SOL    HW2 4017   2.846   2.724   5.876
 1040SOL     OW 4018   4.816   2.910   2.266
 1040SOL    HW1 4019   4.792   2.936   2.173
 1040SOL    HW2 4020   4.904   2.862   2.266
 1041SOL     OW 4021   6.311   6.912   4.133
 1041SOL    HW1 4022   6.367   6.887   4.054
 1041SOL    HW2 4023   6.269   7.001   4.117
 1042SOL     OW 4024   3.616   4.872   2.243
 1042SOL    HW1 4025   3.520   4.881   2.267
 1042SOL    HW2 4026   3.624   4.830   2.152
 1043SOL     OW 4027   4.233   1.428   5.185
 1043SOL    HW1 4028   4.296   1.502   5.160
 1043SOL    HW2 4029   4.280   1.364   5.246
 1044SOL     OW 4030   4.941   4.455   2.341
 1044SOL    HW1 4031   4.969   4.405   2.423
 1044SOL    HW2 4032   4.911   4.547   2.366
 1045SOL     OW 4033   2.964   6.037   2.774
 1045SOL    HW1 4034   3.022   6.032   2.693
 1045SOL    HW2 4035   2.933   5.946   2.800
 1046SOL     OW 4036   1.216   6.819   0.504
 1046SOL    HW1 4037   1.316   6.814   0.501
 1046SOL    HW2 4038   1.187   6.915   0.497
 1047SOL     OW 4039   1.113   6.209   2.246
 1047SOL    HW1 4040   1.179   6.204   2.321
 1047SOL    HW2 4041   1.021   6.191   2.282
 1048SOL     OW 4042   5.065   6.172   5.858
 1048SOL    HW1 4043   5.070   6.229   5.776
 1048SOL    HW2 4044   5.048   6.077   5.831
 1049SOL     OW 4045   6.642   4.949   3.877
 1049SOL    HW1 4046   6.679   4.923   3.967
 1049SOL    HW2 4047   6.542   4.953   3.883
 1050SOL     OW 4048   3.258   5.507   0.160
 1050SOL    HW1 4049   3.329   5.437   0.156
 1050SOL    HW2 4050   3.300   5.598   0.154
 1051SOL     OW 4051   2.556   5.311   1.111
 1051SOL    HW1 4052   2.537   5.342   1.205
 1051SOL    HW2 4053   2.568   5.390   1.052
 1052SOL     OW 4054   3.623   0.231   3.934
 1052SOL    HW1 4055   3.670   0.235   4.022
 1052SOL    HW2 4056   3.589   0.139   3.918
 1053SOL     OW 4057   5.058   5.253   3.571
 1053SOL    HW1 4058   5.102   5.306   3.498
 1053SOL    HW2 4059   4.981   5.202   3.533
 1054SOL     OW 4060   2.319   3.813   5.504
 1054SOL    HW1 4061   2.253   3.885   5.486
 1054SOL    HW2 4062   2.379   3.802   5.425
 1055SOL     OW 4063   5.964   6.412   4.002
 1055SOL    HW1 4064   5.967   6.335   3.938
 1055SOL    HW2 4065   5.905   6.483   3.966
 1056SOL     OW 4066   1.474   5.307   6.001
 1056SOL    HW1 4067   1.470   5.270   6.094
 1056SOL    HW2 4068   1.533   5.250   5.945
 1057SOL     OW 4069   3.705   3.577   2.850
 1057SOL    HW1 4070   3.731   3.570   2.754
 1057SOL    HW2 4071   3.619   3.628   2.857
 1058SOL     OW 4072   5.014   1.687   2.109
 1058SOL    HW1 4073   5.066   1.694   2.194
 1058SOL    HW2 4074   5.070   1.642   2.039
 1059SOL     OW 4075   2.283   0.037   1.419
 1059SOL    HW1 4076   2.305   7.024   1.330
 1059SOL    HW2 4077   2.196   7.024   1.452
 1060SOL     OW 4078   0.305   3.770   4.146
 1060SOL    HW1 4079   0.283   3.845   4.084
 1060SOL    HW2 4080   0.255   3.687   4.118
 1061SOL     OW 4081   5.262   3.803   1.859
 1061SOL    HW1 4082   5.268   3.791   1.958
 1061SOL    HW2 4083   5.168   3.826   1.834
 1062SOL     OW 4084   5.889   4.521   5.616
 1062SOL    HW1 4085   5.940   4.482   5.540
 1062SOL    HW2 4086   5.948   4.585   5.666
 1063SOL     OW 4087   1.526   4.458   1.911
 1063SOL    HW1 4088   1.430   4.435   1.932
 1063SOL    HW2 4089   1.585   4.426   1.986
 1064SOL     OW 4090   1.434   4.081   2.409
 1064SOL    HW1 4091   1.338   4.109   2.410
 1064SOL    HW2 4092   1.462   4.063   2.314
 1065SOL     OW 4093   4.680   0.748   4.165
 1065SOL    HW1 4094   4.701   0.706   4.077
 1065SOL    HW2 4095   4.738   0.707   4.236
 1066SOL     OW 4096   5.310   0.569   4.131
 1066SOL    HW1 4097   5.262   0.654   4.151
 1066SOL    HW2 4098   5.264   0.493   4.177
 1067SOL     OW 4099   1.254   3.241   7.013
 1067SOL    HW1 4100   1.237   3.146   0.014
 1067SOL    HW2 4101   1.181   3.299   0.025
 1068SOL     OW 4102   4.913   4.647   2.762
 1068SOL    HW1 4103   4.959   4.735   2.765
 1068SOL    HW2 4104   4.867   4.635   2.674
 1069SOL     OW 4105   4.980   5.220   1.209
 1069SOL    HW1 4106   4.886   5.189   1.223
 1069SOL    HW2 4107   5.043   5.143   1.220
 1070SOL     OW 4108   1.475   1.035   1.561
 1070SOL    HW1 4109   1.403   0.995   1.617
 1070SOL    HW2 4110   1.565   1.016   1.602
 1071SOL     OW 4111   3.022   6.500   3.560
 1071SOL    HW1 4112   2.961   6.421   3.567
 1071SOL    HW2 4113   3.069   6.514   3.647
 1072SOL     OW 4114   1.859   6.326   0.822
 1072SOL    HW1 4115   1.853   6.365   0.914
 1072SOL    HW2 4116   1.944   6.274   0.814
 1073SOL     OW 4117   3.889   6.646   2.648
 1073SOL    HW1 4118   3.868   6.558   2.689
 1073SOL    HW2 4119   3.889   6.638   2.548
 1074SOL     OW 4120   2.765   4.932   0.479
 1074SOL    HW1 4121   2.859   4.966   0.475
 1074SOL    HW2 4122   2.751   4.863   0.408
 1075SOL     OW 4123   4.378   6.486   3.691
 1075SOL    HW1 4124   4.291   6.437   3.696
 1075SOL    HW2 4125   4.423   6.483   3.781
 1076SOL     OW 4126   0.068   4.463   5.287
 1076SOL    HW1 4127   7.017   4.416   5.332
 1076SOL    HW2 4128   0.146   4.401   5.278
 1077SOL     OW 4129   5.750   0.573   0.627
 1077SOL    HW1 4130   5.685   0.570   0.703
 1077SOL    HW2 4131   5.790   0.482   0.614
 1078SOL     OW 4132   1.243   1.184   2.541
 1078SOL    HW1 4133   1.160   1.141   2.575
 1078SOL    HW2 4134   1.226   1.224   2.451
 1079SOL     OW 4135   1.689   6.198   2.362
 1079SOL    HW1 4136   1.688   6.234   2.269
 1079SOL    HW2 4137   1.741   6.258   2.421
 1080SOL     OW 4138   1.945   4.488   3.747
 1080SOL    HW1 4139   2.038   4.512   3.775
 1080SOL    HW2 4140   1.882   4.508   3.822
 1081SOL     OW 4141   6.998   6.890   5.630
 1081SOL    HW1 4142   0.069   6.907   5.654
 1081SOL    HW2 4143   6.946   6.868   5.712
 1082SOL     OW 4144   3.394   1.555   6.587
 1082SOL    HW1 4145   3.418   1.496   6.510
 1082SOL    HW2 4146   3.476   1.604   6.619
 1083SOL     OW 4147   4.033   4.273   1.205
 1083SOL    HW1 4148   3.948   4.293   1.255
 1083SOL    HW2 4149   4.013   4.209   1.131
 1084SOL     OW 4150   6.878   6.197   1.121
 1084SOL    HW1 4151   6.847   6.288   1.097
 1084SOL    HW2 4152   6.952   6.169   1.059
 1085SOL     OW 4153   1.190   4.082   3.542
 1085SOL    HW1 4154   1.108   4.114   3.494
 1085SOL    HW2 4155   1.208   4.143   3.620
 1086SOL     OW 4156   6.723   5.839   2.318
 1086SOL    HW1 4157   6.822   5.840   2.334
 1086SOL    HW2 4158   6.695   5.928   2.279
 1087SOL     OW 4159   6.207   3.483   6.201
 1087SOL    HW1 4160   6.223   3.469   6.103
 1087SOL    HW2 4161   6.114   3.454   6.224
 1088SOL     OW 4162   6.081   4.754   3.368
 1088SOL    HW1 4163   6.149   4.812   3.322
 1088SOL    HW2 4164   5.989   4.790   3.351
 1089SOL     OW 4165   1.159   0.307   4.386
 1089SOL    HW1 4166   1.251   0.292   4.422
 1089SOL    HW2 4167   1.151   0.400   4.352
 1090SOL     OW 4168   2.214   1.527   3.487
 1090SOL    HW1 4169   2.166   1.615   3.484
 1090SOL    HW2 4170   2.293   1.534   3.548
 1091SOL     OW 4171   1.877   2.804   5.096
 1091SOL    HW1 4172   1.941   2.731   5.072
 1091SOL    HW2 4173   1.790   2.789   5.049
 1092SOL     OW 4174   2.088   3.559   0.464
 1092SOL    HW1 4175   2.181   3.595   0.463
 1092SOL    HW2 4176   2.028   3.619   0.410
 1093SOL     OW 4177   2.078   1.975   2.470
 1093SOL    HW1 4178   2.139   2.044   2.431
 1093SOL    HW2 4179   2.012   1.946   2.400
 1094SOL     OW 4180   1.331   6.069   3.252
 1094SOL    HW1 4181   1.257   6.002   3.244
 1094SOL    HW2 4182   1.353   6.083   3.349
 1095SOL     OW 4183   0.165   2.479   5.674
 1095SOL    HW1 4184   0.204   2.494   5.765
 1095SOL    HW2 4185   0.192   2.554   5.614
 1096SOL     OW 4186   3.396   4.694   1.601
 1096SOL    HW1 4187   3.437   4.675   1.690
 1096SOL    HW2 4188   3.426   4.625   1.535
 1097SOL     OW 4189   1.597   3.868   4.213
 1097SOL    HW1 4190   1.592   3.885   4.312
 1097SOL    HW2 4191   1.606   3.955   4.165
 1098SOL     OW 4192   5.835   3.305   0.731
 1098SOL    HW1 4193   5.740   3.327   0.751
 1098SOL    HW2 4194   5.840   3.252   0.646
 1099SOL     OW 4195   3.792   1.338   5.073
 1099SOL    HW1 4196   3.858   1.408   5.046
 1099SOL    HW2 4197   3.815   1.304   5.164
 1100SOL     OW 4198   2.951   1.793   6.985
 1100SOL    HW1 4199   2.996   1.842   0.035
 1100SOL    HW2 4200   2.865   1.755   7.019
 1101SOL     OW 4201   6.259   2.419   0.136
 1101SOL    HW1 4202   6.246   2.354   0.061
 1101SOL    HW2 4203   6.306   2.500   0.101
 1102SOL     OW 4204   0.793   6.091   3.873
 1102SOL    HW1 4205   0.722   6.069   3.939
 1102SOL    HW2 4206   0.763   6.066   3.781
 1103SOL     OW 4207   2.760   1.400   0.636
 1103SOL    HW1 4208   2.714   1.352   0.561
 1103SOL    HW2 4209   2.798   1.486   0.602
 1104SOL     OW 4210   2.227   3.451   5.339
 1104SOL    HW1 4211   2.162   3.515   5.381
 1104SOL    HW2 4212   2.314   3.498   5.321
 1105SOL     OW 4213   5.830   3.325   4.899
 1105SOL    HW1 4214   5.832   3.412   4.948
 1105SOL    HW2 4215   5.868   3.337   4.807
 1106SOL     OW 4216   0.618   2.166   0.143
 1106SOL    HW1 4217   0.590   2.256   0.177
 1106SOL    HW2 4218   0.628   2.170   0.043
 1107SOL     OW 4219   1.369   0.743   6.135
 1107SOL    HW1 4220   1.437   0.680   6.099
 1107SOL    HW2 4221   1.342   0.714   6.227
 1108SOL     OW 4222   3.109   0.289   6.285
 1108SOL    HW1 4223   3.205   0.299   6.309
 1108SOL    HW2 4224   3.093   0.197   6.248
 1109SOL     OW 4225   4.255   6.629   4.966
 1109SOL    HW1 4226   4.258   6.720   5.007
 1109SOL    HW2 4227   4.233   6.561   5.036
 1110SOL     OW 4228   2.650   1.316   2.727
 1110SOL    HW1 4229   2.606   1.228   2.746
 1110SOL    HW2 4230   2.579   1.384   2.707
 1111SOL     OW 4231   5.446   5.552   0.154
 1111SOL    HW1 4232   5.451   5.498   0.238
 1111SOL    HW2 4233   5.421   5.493   0.077
 1112SOL     OW 4234   6.207   1.368   2.536
 1112SOL    HW1 4235   6.138   1.402   2.472
 1112SOL    HW2 4236   6.182   1.395   2.629
 1113SOL     OW 4237   0.436   3.557   3.069
 1113SOL    HW1 4238   0.370   3.615   3.021
 1113SOL    HW2 4239   0.444   3.469   3.022
 1114SOL     OW 4240   4.422   1.368   6.656
 1114SOL    HW1 4241   4.324   1.388   6.651
 1114SOL    HW2 4242   4.464   1.388   6.568
 1115SOL     OW 4243   4.271   3.008   0.113
 1115SOL    HW1 4244   4.173   3.024   0.107
 1115SOL    HW2 4245   4.320   3.095   0.109
 1116SOL     OW 4246   5.477   5.697   5.039
 1116SOL    HW1 4247   5.529   5.782   5.049
 1116SOL    HW2 4248   5.534   5.620   5.069
 1117SOL     OW 4249   2.145   2.865   1.371
 1117SOL    HW1 4250   2.146   2.958   1.335
 1117SOL    HW2 4251   2.160   2.866   1.470
 1118SOL     OW 4252   2.204   4.287   1.634
 1118SOL    HW1 4253   2.220   4.322   1.726
 1118SOL    HW2 4254   2.174   4.361   1.574
 1119SOL     OW 4255   4.470   4.350   1.261
 1119SOL    HW1 4256   4.455   4.429   1.320
 1119SOL    HW2 4257   4.394   4.342   1.196
 1120SOL     OW 4258   5.412   6.807   5.570
 1120SOL    HW1 4259   5.423   6.709   5.585
 1120SOL    HW2 4260   5.393   6.852   5.657
 1121SOL     OW 4261   5.503   4.449   2.221
 1121SOL    HW1 4262   5.507   4.547   2.244
 1121SOL    HW2 4263   5.595   4.412   2.221
 1122SOL     OW 4264   4.677   3.031   6.234
 1122SOL    HW1 4265   4.691   2.933   6.217
 1122SOL    HW2 4266   4.589   3.059   6.195
 1123SOL     OW 4267   5.384   1.501   2.766
 1123SOL    HW1 4268   5.309   1.437   2.749
 1123SOL    HW2 4269   5.404   1.504   2.864
 1124SOL     OW 4270   5.994   4.167   5.305
 1124SOL    HW1 4271   5.972   4.110   5.384
 1124SOL    HW2 4272   6.053   4.115   5.243
 1125SOL     OW 4273   2.658   1.340   5.405
 1125SOL    HW1 4274   2.566   1.308   5.382
 1125SOL    HW2 4275   2.722   1.313   5.333
 1126SOL     OW 4276   5.583   6.456   0.700
 1126SOL    HW1 4277   5.503   6.416   0.655
 1126SOL    HW2 4278   5.554   6.527   0.764
 1127SOL     OW 4279   4.687   5.379   5.014
 1127SOL    HW1 4280   4.776   5.337   5.032
 1127SOL    HW2 4281   4.615   5.312   5.031
 1128SOL     OW 4282   5.940   2.461   5.007
 1128SOL    HW1 4283   5.850   2.504   4.995
 1128SOL    HW2 4284   5.928   2.361   5.012
 1129SOL     OW 4285   3.464   0.408   6.612
 1129SOL    HW1 4286   3.546   0.355   6.588
 1129SOL    HW2 4287   3.483   0.505   6.602
 1130SOL     OW 4288   1.540   4.397   1.030
 1130SOL    HW1 4289   1.637   4.412   1.013
 1130SOL    HW2 4290   1.527   4.354   1.120
 1131SOL     OW 4291   0.356   6.273   6.067
 1131SOL    HW1 4292   0.342   6.305   6.161
 1131SOL    HW2 4293   0.352   6.173   6.065
 1132SOL     OW 4294   5.506   0.166   0.463
 1132SOL    HW1 4295   5.429   0.112   0.498
 1132SOL    HW2 4296   5.474   0.227   0.391
 1133SOL     OW 4297   0.868   1.526   0.483
 1133SOL    HW1 4298   0.779   1.541   0.527
 1133SOL    HW2 4299   0.940   1.566   0.540
 1134SOL     OW 4300   4.953   1.570   1.360
 1134SOL    HW1 4301   4.897   1.611   1.431
 1134SOL    HW2 4302   4.960   1.634   1.283
 1135SOL     OW 4303   2.611   1.122   2.178
 1135SOL    HW1 4304   2.597   1.123   2.079
 1135SOL    HW2 4305   2.702   1.158   2.199
 1136SOL     OW 4306   3.867   5.458   4.821
 1136SOL    HW1 4307   3.865   5.558   4.828
 1136SOL    HW2 4308   3.831   5.430   4.731
 1137SOL     OW 4309   1.518   2.004   6.434
 1137SOL    HW1 4310   1.425   2.034   6.411
 1137SOL    HW2 4311   1.535   2.022   6.531
 1138SOL     OW 4312   0.351   1.553   6.154
 1138SOL    HW1 4313   0.378   1.461   6.184
 1138SOL    HW2 4314   0.310   1.547   6.062
 1139SOL     OW 4315   2.955   6.069   1.301
 1139SOL    HW1 4316   3.016   6.042   1.377
 1139SOL    HW2 4317   3.003   6.055   1.214
 1140SOL     OW 4318   3.462   0.914   1.841
 1140SOL    HW1 4319   3.425   0.845   1.779
 1140SOL    HW2 4320   3.390   0.944   1.904
 1141SOL     OW 4321   6.592   6.428   6.954
 1141SOL    HW1 4322   6.691   6.418   6.945
 1141SOL    HW2 4323   6.569   6.524   6.967
 1142SOL     OW 4324   3.740   0.447   4.217
 1142SOL    HW1 4325   3.650   0.441   4.259
 1142SOL    HW2 4326   3.810   0.430   4.287
 1143SOL     OW 4327   2.166   3.117   2.340
 1143SOL    HW1 4328   2.237   3.187   2.347
 1143SOL    HW2 4329   2.110   3.118   2.423
 1144SOL     OW 4330   6.074   4.415   5.384
 1144SOL    HW1 4331   6.093   4.466   5.299
 1144SOL    HW2 4332   6.057   4.319   5.362
 1145SOL     OW 4333   0.392   4.599   2.235
 1145SOL    HW1 4334   0.473   4.654   2.215
 1145SOL    HW2 4335   0.404   4.551   2.322
 1146SOL     OW 4336   5.810   0.787   1.538
 1146SOL    HW1 4337   5.781   0.826   1.450
 1146SOL    HW2 4338   5.731   0.747   1.584
 1147SOL     OW 4339   1.808   4.565   0.984
 1147SOL    HW1 4340   1.845   4.619   1.060
 1147SOL    HW2 4341   1.788   4.625   0.907
 1148SOL     OW 4342   4.528   6.950   6.767
 1148SOL    HW1 4343   4.588   6.874   6.742
 1148SOL    HW2 4344   4.488   6.933   6.857
 1149SOL     OW 4345   6.232   4.034   3.402
 1149SOL    HW1 4346   6.255   3.941   3.430
 1149SOL    HW2 4347   6.244   4.043   3.304
 1150SOL     OW 4348   2.808   4.321   1.034
 1150SOL    HW1 4349   2.730   4.300   0.975
 1150SOL    HW2 4350   2.885   4.351   0.978
 1151SOL     OW 4351   4.575   5.523   6.949
 1151SOL    HW1 4352   4.659   5.469   6.951
 1151SOL    HW2 4353   4.512   5.489   7.019
 1152SOL     OW 4354   0.475   5.739   5.704
 1152SOL    HW1 4355   0.441   5.646   5.721
 1152SOL    HW2 4356   0.463   5.761   5.608
 1153SOL     OW 4357   1.942   0.070   2.202
 1153SOL    HW1 4358   1.907   0.033   2.116
 1153SOL    HW2 4359   1.894   0.028   2.279
 1154SOL     OW 4360   0.798   3.755   1.868
 1154SOL    HW1 4361   0.884   3.709   1.844
 1154SOL    HW2 4362   0.810   3.805   1.954
 1155SOL     OW 4363   2.908   4.938   6.951
 1155SOL    HW1 4364   2.939   5.033   6.953
 1155SOL    HW2 4365   2.984   4.878   6.976
 1156SOL     OW 4366   1.946   0.764   4.841
 1156SOL    HW1 4367   1.930   0.786   4.937
 1156SOL    HW2 4368   1.972   0.668   4.833
 1157SOL     OW 4369   6.468   1.130   5.036
 1157SOL    HW1 4370   6.420   1.197   4.980
 1157SOL    HW2 4371   6.405   1.091   5.102
 1158SOL     OW 4372   0.198   5.740   5.835
 1158SOL    HW1 4373   0.162   5.652   5.801
 1158SOL    HW2 4374   0.289   5.756   5.796
 1159SOL     OW 4375   5.055   6.846   3.539
 1159SOL    HW1 4376   4.983   6.867   3.473
 1159SOL    HW2 4377   5.095   6.757   3.517
 1160SOL     OW 4378   3.887   3.573   1.531
 1160SOL    HW1 4379   3.821   3.498   1.533
 1160SOL    HW2 4380   3.879   3.627   1.615
 1161SOL     OW 4381   4.819   0.509   6.040
 1161SOL    HW1 4382   4.913   0.483   6.061
 1161SOL    HW2 4383   4.772   0.432   5.997
 1162SOL     OW 4384   3.526   2.210   0.292
 1162SOL    HW1 4385   3.578   2.226   0.208
 1162SOL    HW2 4386   3.588   2.194   0.368
 1163SOL     OW 4387   6.335   3.335   1.707
 1163SOL    HW1 4388   6.293   3.244   1.718
 1163SOL    HW2 4389   6.336   3.359   1.610
 1164SOL     OW 4390   5.884   2.540   4.376
 1164SOL    HW1 4391   5.787   2.549   4.354
 1164SOL    HW2 4392   5.934   2.621   4.344
 1165SOL     OW 4393   1.801   4.283   4.814
 1165SOL    HW1 4394   1.890   4.288   4.768
 1165SOL    HW2 4395   1.728   4.287   4.746
 1166SOL     OW 4396   3.625   0.768   0.404
 1166SOL    HW1 4397   3.531   0.783   0.435
 1166SOL    HW2 4398   3.627   0.687   0.345
 1167SOL     OW 4399   3.631   6.862   6.387
 1167SOL    HW1 4400   3.663   6.933   6.449
 1167SOL    HW2 4401   3.688   6.861   6.305
 1168SOL     OW 4402   6.796   1.115   3.477
 1168SOL    HW1 4403   6.741   1.032   3.471
 1168SOL    HW2 4404   6.748   1.190   3.433
 1169SOL     OW 4405   5.916   3.469   6.621
 1169SOL    HW1 4406   5.861   3.389   6.597
 1169SOL    HW2 4407   5.882   3.549   6.571
 1170SOL     OW 4408   4.902   1.117   1.850
 1170SOL    HW1 4409   4.928   1.177   1.925
 1170SOL    HW2 4410   4.836   1.164   1.791
 1171SOL     OW 4411   2.628   6.465   6.561
 1171SOL    HW1 4412   2.716   6.501   6.531
 1171SOL    HW2 4413   2.554   6.510   6.511
 1172SOL     OW 4414   3.588   4.115   2.610
 1172SOL    HW1 4415   3.570   4.213   2.618
 1172SOL    HW2 4416   3.657   4.088   2.676
 1173SOL     OW 4417   3.385   6.688   5.702
 1173SOL    HW1 4418   3.407   6.686   5.799
 1173SOL    HW2 4419   3.397   6.597   5.663
 1174SOL     OW 4420   3.481   4.568   0.482
 1174SOL    HW1 4421   3.558   4.507   0.465
 1174SOL    HW2 4422   3.515   4.656   0.515
 1175SOL     OW 4423   4.297   3.393   6.694
 1175SOL    HW1 4424   4.355   3.461   6.648
 1175SOL    HW2 4425   4.204   3.399   6.659
 1176SOL     OW 4426   5.266   4.457   1.181
 1176SOL    HW1 4427   5.314   4.535   1.221
 1176SOL    HW2 4428   5.243   4.391   1.252
 1177SOL     OW 4429   0.073   1.844   5.940
 1177SOL    HW1 4430   0.101   1.907   6.012
 1177SOL    HW2 4431   7.003   1.815   5.956
 1178SOL     OW 4432   3.956   3.003   1.402
 1178SOL    HW1 4433   3.923   2.947   1.326
 1178SOL    HW2 4434   3.878   3.030   1.459
 1179SOL     OW 4435   2.835   5.593   0.051
 1179SOL    HW1 4436   2.893   5.517   0.080
 1179SOL    HW2 4437   2.762   5.607   0.119
 1180SOL     OW 4438   2.429   6.580   3.981
 1180SOL    HW1 4439   2.508   6.627   4.022
 1180SOL    HW2 4440   2.411   6.620   3.891
 1181SOL     OW 4441   6.825   3.033   4.894
 1181SOL    HW1 4442   6.914   2.995   4.870
 1181SOL    HW2 4443   6.812   3.119   4.845
 1182SOL     OW 4444   2.453   5.166   3.573
 1182SOL    HW1 4445   2.529   5.170   3.638
 1182SOL    HW2 4446   2.366   5.168   3.623
 1183SOL     OW 4447   3.967   6.393   1.259
 1183SOL    HW1 4448   3.925   6.480   1.285
 1183SOL    HW2 4449   4.064   6.408   1.239
 1184SOL     OW 4450   4.436   0.824   5.902
 1184SOL    HW1 4451   4.474   0.902   5.852
 1184SOL    HW2 4452   4.419   0.850   5.997
 1185SOL     OW 4453   1.608   0.004   0.467
 1185SOL    HW1 4454   1.640   0.082   0.521
 1185SOL    HW2 4455   1.681   6.998   0.406
 1186SOL     OW 4456   6.048   6.278   6.503
 1186SOL    HW1 4457   5.979   6.327   6.557
 1186SOL    HW2 4458   6.017   6.270   6.408
 1187SOL     OW 4459   5.382   6.480   5.550
 1187SOL    HW1 4460   5.359   6.383   5.535
 1187SOL    HW2 4461   5.302   6.527   5.586
 1188SOL     OW 4462   3.479   6.065   6.419
 1188SOL    HW1 4463   3.433   6.006   6.352
 1188SOL    HW2 4464   3.577   6.045   6.418
 1189SOL     OW 4465   5.364   0.784   2.084
 1189SOL    HW1 4466   5.322   0.834   2.008
 1189SOL    HW2 4467   5.462   0.803   2.086
 1190SOL     OW 4468   3.991   5.146   4.187
 1190SOL    HW1 4469   4.021   5.087   4.112
 1190SOL    HW2 4470   3.956   5.232   4.150
 1191SOL     OW 4471   4.059   6.518   4.780
 1191SOL    HW1 4472   4.130   6.548   4.844
 1191SOL    HW2 4473   4.023   6.597   4.731
 1192SOL     OW 4474   5.279   5.826   2.899
 1192SOL    HW1 4475   5.259   5.921   2.923
 1192SOL    HW2 4476   5.204   5.789   2.843
 1193SOL     OW 4477   0.092   0.243   5.254
 1193SOL    HW1 4478   0.111   0.309   5.182
 1193SOL    HW2 4479   0.156   0.166   5.247
 1194SOL     OW 4480   6.458   1.484   0.759
 1194SOL    HW1 4481   6.493   1.575   0.780
 1194SOL    HW2 4482   6.386   1.460   0.824
 1195SOL     OW 4483   6.074   2.982   1.225
 1195SOL    HW1 4484   6.079   3.075   1.262
 1195SOL    HW2 4485   5.984   2.943   1.245
 1196SOL     OW 4486   6.919   4.629   1.663
 1196SOL    HW1 4487   6.982   4.571   1.611
 1196SOL    HW2 4488   6.972   4.693   1.719
 1197SOL     OW 4489   4.385   6.705   4.606
 1197SOL    HW1 4490   4.297   6.749   4.623
 1197SOL    HW2 4491   4.396   6.627   4.668
 1198SOL     OW 4492   1.430   2.880   2.711
 1198SOL    HW1 4493   1.530   2.880   2.717
 1198SOL    HW2 4494   1.392   2.885   2.803
 1199SOL     OW 4495   3.666   2.901   3.231
 1199SOL    HW1 4496   3.716   2.972   3.281
 1199SOL    HW2 4497   3.726   2.861   3.162
 1200SOL     OW 4498   3.900   4.189   5.011
 1200SOL    HW1 4499   3.889   4.169   4.914
 1200SOL    HW2 4500   3.926   4.285   5.023
 1201SOL     OW 4501   0.370   1.251   4.380
 1201SOL    HW1 4502   0.301   1.269   4.450
 1201SOL    HW2 4503   0.444   1.198   4.421
 1202SOL     OW 4504   5.972   1.004   6.046
 1202SOL    HW1 4505   6.052   0.980   6.101
 1202SOL    HW2 4506   6.001   1.039   5.958
 1203SOL     OW 4507   6.541   6.552   1.171
 1203SOL    HW1 4508   6.447   6.578   1.192
 1203SOL    HW2 4509   6.587   6.522   1.255
 1204SOL     OW 4510   4.262   1.343   1.617
 1204SOL    HW1 4511   4.179   1.368   1.567
 1204SOL    HW2 4512   4.315   1.277   1.565
 1205SOL     OW 4513   4.389   3.637   6.607
 1205SOL    HW1 4514   4.303   3.678   6.573
 1205SOL    HW2 4515   4.466   3.673   6.553
 1206SOL     OW 4516   1.046   2.519   4.834
 1206SOL    HW1 4517   1.112   2.594   4.829
 1206SOL    HW2 4518   1.006   2.516   4.925
 1207SOL     OW 4519   0.569   6.603   6.919
 1207SOL    HW1 4520   0.608   6.561   7.001
 1207SOL    HW2 4521   0.483   6.558   6.897
 1208SOL     OW 4522   3.050   3.972   2.462
 1208SOL    HW1 4523   3.066   4.065   2.429
 1208SOL    HW2 4524   3.006   3.918   2.390
 1209SOL     OW 4525   5.117   7.022   4.394
 1209SOL    HW1 4526   5.043   7.019   4.327
 1209SOL    HW2 4527   5.169   0.082   4.383
 1210SOL     OW 4528   4.352   6.829   3.684
 1210SOL    HW1 4529   4.398   6.818   3.772
 1210SOL    HW2 4530   4.258   6.796   3.691
 1211SOL     OW 4531   1.072   3.144   3.526
 1211SOL    HW1 4532   1.130   3.114   3.450
 1211SOL    HW2 4533   1.063   3.243   3.523
 1212SOL     OW 4534   0.018   1.214   5.769
 1212SOL    HW1 4535   6.982   1.183   5.843
 1212SOL    HW2 4536   6.990   1.223   5.685
 1213SOL     OW 4537   5.777   2.997   3.443
 1213SOL    HW1 4538   5.770   2.897   3.447
 1213SOL    HW2 4539   5.859   3.026   3.492
 1214SOL     OW 4540   0.975   2.309   5.596
 1214SOL    HW1 4541   0.972   2.337   5.499
 1214SOL    HW2 4542   0.923   2.375   5.651
 1215SOL     OW 4543   1.929   5.186   2.039
 1215SOL    HW1 4544   1.992   5.205   1.964
 1215SOL    HW2 4545   1.953   5.244   2.117
 1216SOL     OW 4546   0.292   0.680   0.581
 1216SOL    HW1 4547   0.241   0.659   0.498
 1216SOL    HW2 4548   0.307   0.779   0.588
 1217SOL     OW 4549   3.570   5.889   0.999
 1217SOL    HW1 4550   3.595   5.829   1.075
 1217SOL    HW2 4551   3.615   5.858   0.915
 1218SOL     OW 4552   0.740   3.812   5.733
 1218SOL    HW1 4553   0.809   3.745   5.761
 1218SOL    HW2 4554   0.656   3.764   5.708
 1219SOL     OW 4555   4.850   5.324   2.533
 1219SOL    HW1 4556   4.790   5.305   2.455
 1219SOL    HW2 4557   4.913   5.398   2.509
 1220SOL     OW 4558   6.326   3.900   2.813
 1220SOL    HW1 4559   6.416   3.941   2.831
 1220SOL    HW2 4560   6.268   3.910   2.893
 1221SOL     OW 4561   5.804   3.885   6.063
 1221SOL    HW1 4562   5.739   3.817   6.029
 1221SOL    HW2 4563   5.876   3.840   6.115
 1222SOL     OW 4564   0.585   0.485   6.981
 1222SOL    HW1 4565   0.517   0.544   7.024
 1222SOL    HW2 4566   0.547   0.393   6.969
 1223SOL     OW 4567   4.157   1.466   0.911
 1223SOL    HW1 4568   4.136   1.410   0.991
 1223SOL    HW2 4569   4.136   1.414   0.828
 1224SOL     OW 4570   2.964   5.612   6.825
 1224SOL    HW1 4571   3.032   5.544   6.796
 1224SOL    HW2 4572   2.948   5.604   6.923
 1225SOL     OW 4573   3.837   2.248   0.894
 1225SOL    HW1 4574   3.857   2.160   0.851
 1225SOL    HW2 4575   3.894   2.319   0.854
 1226SOL     OW 4576   4.988   6.320   0.703
 1226SOL    HW1 4577   5.019   6.283   0.790
 1226SOL    HW2 4578   5.010   6.255   0.630
 1227SOL     OW 4579   5.464   5.052   0.008
 1227SOL    HW1 4580   5.551   5.101   0.013
 1227SOL    HW2 4581   5.417   5.076   6.947
 1228SOL     OW 4582   3.800   2.606   0.696
 1228SOL    HW1 4583   3.722   2.619   0.757
 1228SOL    HW2 4584   3.862   2.537   0.735
 1229SOL     OW 4585   2.080   5.945   1.079
 1229SOL    HW1 4586   2.084   6.010   1.154
 1229SOL    HW2 4587   2.065   5.853   1.115
 1230SOL     OW 4588   5.800   5.307   2.815
 1230SOL    HW1 4589   5.832   5.275   2.726
 1230SOL    HW2 4590   5.769   5.228   2.869
 1231SOL     OW 4591   1.435   1.748   5.571
 1231SOL    HW1 4592   1.515   1.709   5.618
 1231SOL    HW2 4593   1.464   1.825   5.514
 1232SOL     OW 4594   5.830   1.361   5.273
 1232SOL    HW1 4595   5.869   1.298   5.340
 1232SOL    HW2 4596   5.876   1.349   5.185
 1233SOL     OW 4597   0.563   5.758   4.351
 1233SOL    HW1 4598   0.641   5.783   4.293
 1233SOL    HW2 4599   0.533   5.665   4.329
 1234SOL     OW 4600   6.433   2.650   5.433
 1234SOL    HW1 4601   6.487   2.569   5.457
 1234SOL    HW2 4602   6.494   2.727   5.413
 1235SOL     OW 4603   6.267   4.366   1.140
 1235SOL    HW1 4604   6.171   4.375   1.169
 1235SOL    HW2 4605   6.301   4.275   1.164
 1236SOL     OW 4606   3.996   1.414   1.955
 1236SOL    HW1 4607   3.997   1.315   1.941
 1236SOL    HW2 4608   3.910   1.452   1.922
 1237SOL     OW 4609   1.425   5.598   4.860
 1237SOL    HW1 4610   1.413   5.586   4.959
 1237SOL    HW2 4611   1.424   5.508   4.816
 1238SOL     OW 4612   0.783   0.502   5.023
 1238SOL    HW1 4613   0.874   0.525   5.057
 1238SOL    HW2 4614   0.744   0.581   4.976
 1239SOL     OW 4615   6.402   6.538   5.828
 1239SOL    HW1 4616   6.310   6.548   5.865
 1239SOL    HW2 4617   6.461   6.611   5.863
 1240SOL     OW 4618   6.149   5.396   2.359
 1240SOL    HW1 4619   6.066   5.403   2.303
 1240SOL    HW2 4620   6.160   5.302   2.391
 1241SOL     OW 4621   6.233   4.699   5.132
 1241SOL    HW1 4622   6.138   4.720   5.110
 1241SOL    HW2 4623   6.244   4.600   5.142
 1242SOL     OW 4624   2.127   3.261   0.449
 1242SOL    HW1 4625   2.096   3.355   0.464
 1242SOL    HW2 4626   2.183   3.258   0.367
 1243SOL     OW 4627   6.968   1.286   4.343
 1243SOL    HW1 4628   6.984   1.373   4.390
 1243SOL    HW2 4629   6.980   1.210   4.407
 1244SOL     OW 4630   4.992   6.754   4.825
 1244SOL    HW1 4631   4.967   6.672   4.775
 1244SOL    HW2 4632   4.914   6.818   4.825
 1245SOL     OW 4633   5.632   4.739   0.719
 1245SOL    HW1 4634   5.570   4.662   0.703
 1245SOL    HW2 4635   5.648   4.787   0.632
 1246SOL     OW 4636   3.316   1.039   2.217
 1246SOL    HW1 4637   3.294   0.950   2.178
 1246SOL    HW2 4638   3.284   1.112   2.156
 1247SOL     OW 4639   5.671   0.180   5.523
 1247SOL    HW1 4640   5.670   0.087   5.487
 1247SOL    HW2 4641   5.582   0.223   5.508
 1248SOL     OW 4642   1.068   6.510   3.672
 1248SOL    HW1 4643   1.097   6.429   3.724
 1248SOL    HW2 4644   1.147   6.570   3.657
 1249SOL     OW 4645   0.254   3.427   1.908
 1249SOL    HW1 4646   0.196   3.364   1.856
 1249SOL    HW2 4647   0.197   3.485   1.966
 1250SOL     OW 4648   6.212   4.246   3.794
 1250SOL    HW1 4649   6.165   4.172   3.746
 1250SOL    HW2 4650   6.181   4.334   3.758
 1251SOL     OW 4651   2.281   0.774   2.512
 1251SOL    HW1 4652   2.207   0.839   2.531
 1251SOL    HW2 4653   2.369   0.816   2.534
 1252SOL     OW 4654   3.684   4.712   6.417
 1252SOL    HW1 4655   3.765   4.731   6.362
 1252SOL    HW2 4656   3.626   4.645   6.370
 1253SOL     OW 4657   2.705   0.331   2.149
 1253SOL    HW1 4658   2.667   0.393   2.079
 1253SOL    HW2 4659   2.640   0.256   2.165
 1254SOL     OW 4660   6.920   2.516   3.514
 1254SOL    HW1 4661   6.894   2.484   3.423
 1254SOL    HW2 4662   6.842   2.508   3.576
 1255SOL     OW 4663   5.958   2.636   6.055
 1255SOL    HW1 4664   5.992   2.590   6.137
 1255SOL    HW2 4665   5.863   2.663   6.069
 1256SOL     OW 4666   0.325   6.266   4.154
 1256SOL    HW1 4667   0.272   6.189   4.118
 1256SOL    HW2 4668   0.420   6.256   4.126
 1257SOL     OW 4669   6.671   5.253   4.448
 1257SOL    HW1 4670   6.697   5.336   4.398
 1257SOL    HW2 4671   6.607   5.276   4.521
 1258SOL     OW 4672   2.321   4.985   2.914
 1258SOL    HW1 4673   2.265   4.912   2.875
 1258SOL    HW2 4674   2.319   5.065   2.853
 1259SOL     OW 4675   3.391   6.420   5.202
 1259SOL    HW1 4676   3.394   6.382   5.110
 1259SOL    HW2 4677   3.309   6.476   5.213
 1260SOL     OW 4678   2.913   1.145   1.305
 1260SOL    HW1 4679   2.942   1.098   1.388
 1260SOL    HW2 4680   2.984   1.209   1.275
 1261SOL     OW 4681   0.433   4.135   7.018
 1261SOL    HW1 4682   0.426   4.042   0.030
 1261SOL    HW2 4683   0.342   4.176   7.013
 1262SOL     OW 4684   5.132   5.608   1.645
 1262SOL    HW1 4685   5.151   5.698   1.683
 1262SOL    HW2 4686   5.201   5.543   1.678
 1263SOL     OW 4687   6.649   1.311   1.359
 1263SOL    HW1 4688   6.730   1.367   1.374
 1263SOL    HW2 4689   6.621   1.318   1.263
 1264SOL     OW 4690   0.429   3.864   1.274
 1264SOL    HW1 4691   0.383   3.815   1.200
 1264SOL    HW2 4692   0.365   3.928   1.317
 1265SOL     OW 4693   6.601   5.208   3.772
 1265SOL    HW1 4694   6.577   5.166   3.684
 1265SOL    HW2 4695   6.637   5.137   3.834
 1266SOL     OW 4696   1.339   1.071   3.804
 1266SOL    HW1 4697   1.374   1.044   3.894
 1266SOL    HW2 4698   1.265   1.008   3.777
 1267SOL     OW 4699   5.647   6.637   1.076
 1267SOL    HW1 4700   5.556   6.611   1.106
 1267SOL    HW2 4701   5.649   6.642   0.976
 1268SOL     OW 4702   4.787   2.256   0.285
 1268SOL    HW1 4703   4.688   2.246   0.284
 1268SOL    HW2 4704   4.827   2.200   0.212
 1269SOL     OW 4705   5.901   6.529   5.721
 1269SOL    HW1 4706   5.831   6.590   5.758
 1269SOL    HW2 4707   5.908   6.542   5.622
 1270SOL     OW 4708   2.169   2.970   4.864
 1270SOL    HW1 4709   2.250   2.982   4.921
 1270SOL    HW2 4710   2.107   3.048   4.877
 1271SOL     OW 4711   3.450   1.847   3.582
 1271SOL    HW1 4712   3.403   1.851   3.493
 1271SOL    HW2 4713   3.385   1.869   3.655
 1272SOL     OW 4714   6.012   5.661   0.800
 1272SOL    HW1 4715   5.923   5.704   0.815
 1272SOL    HW2 4716   6.062   5.712   0.730
 1273SOL     OW 4717   0.933   4.460   0.416
 1273SOL    HW1 4718   1.001   4.437   0.345
 1273SOL    HW2 4719   0.895   4.550   0.397
 1274SOL     OW 4720   6.361   2.656   1.012
 1274SOL    HW1 4721   6.287   2.722   1.005
 1274SOL    HW2 4722   6.399   2.658   1.105
 1275SOL     OW 4723   3.772   0.146   4.181
 1275SOL    HW1 4724   3.813   0.061   4.149
 1275SOL    HW2 4725   3.819   0.175   4.265
 1276SOL     OW 4726   6.993   0.665   4.720
 1276SOL    HW1 4727   6.910   0.720   4.732
 1276SOL    HW2 4728   6.968   0.575   4.684
 1277SOL     OW 4729   0.971   7.013   5.580
 1277SOL    HW1 4730   0.943   0.026   5.669
 1277SOL    HW2 4731   1.060   0.027   5.556
 1278SOL     OW 4732   1.047   0.576   5.092
 1278SOL    HW1 4733   1.047   0.674   5.076
 1278SOL    HW2 4734   1.101   0.555   5.174
 1279SOL     OW 4735   3.698   5.144   6.951
 1279SOL    HW1 4736   3.733   5.148   0.021
 1279SOL    HW2 4737   3.649   5.058   6.937
 1280SOL     OW 4738   3.487   5.768   4.032
 1280SOL    HW1 4739   3.485   5.813   3.943
 1280SOL    HW2 4740   3.543   5.822   4.095
 1281SOL     OW 4741   1.250   5.593   2.824
 1281SOL    HW1 4742   1.192   5.553   2.753
 1281SOL    HW2 4743   1.221   5.688   2.841
 1282SOL     OW 4744   0.292   1.122   6.385
 1282SOL    HW1 4745   0.297   1.026   6.410
 1282SOL    HW2 4746   0.209   1.138   6.332
 1283SOL     OW 4747   5.465   3.085   5.392
 1283SOL    HW1 4748   5.535   3.015   5.394
 1283SOL    HW2 4749   5.481   3.147   5.316
 1284SOL     OW 4750   4.446   1.897   2.218
 1284SOL    HW1 4751   4.543   1.871   2.225
 1284SOL    HW2 4752   4.430   1.941   2.130
 1285SOL     OW 4753   4.722   3.518   6.308
 1285SOL    HW1 4754   4.708   3.449   6.379
 1285SOL    HW2 4755   4.656   3.502   6.234
 1286SOL     OW 4756   5.107   3.592   2.299
 1286SOL    HW1 4757   5.062   3.522   2.243
 1286SOL    HW2 4758   5.155   3.657   2.239
 1287SOL     OW 4759   4.756   4.123   5.572
 1287SOL    HW1 4760   4.791   4.196   5.514
 1287SOL    HW2 4761   4.665   4.096   5.540
 1288SOL     OW 4762   5.602   3.324   0.355
 1288SOL    HW1 4763   5.574   3.265   0.279
 1288SOL    HW2 4764   5.549   3.301   0.437
 1289SOL     OW 4765   0.598   6.096   1.326
 1289SOL    HW1 4766   0.530   6.142   1.383
 1289SOL    HW2 4767   0.689   6.110   1.365
 1290SOL     OW 4768   0.982   0.383   6.745
 1290SOL    HW1 4769   0.897   0.436   6.739
 1290SOL    HW2 4770   0.996   0.334   6.659
 1291SOL     OW 4771   0.110   3.747   5.653
 1291SOL    HW1 4772   0.012   3.760   5.636
 1291SOL    HW2 4773   0.153   3.835   5.673
 1292SOL     OW 4774   6.661   6.062   2.588
 1292SOL    HW1 4775   6.591   5.990   2.590
 1292SOL    HW2 4776   6.715   6.058   2.672
 1293SOL     OW 4777   1.234   1.525   6.520
 1293SOL    HW1 4778   1.244   1.618   6.486
 1293SOL    HW2 4779   1.236   1.461   6.443
 1294SOL     OW 4780   1.813   3.862   0.078
 1294SOL    HW1 4781   1.795   3.829   7.010
 1294SOL    HW2 4782   1.796   3.961   0.082
 1295SOL     OW 4783   0.159   3.773   3.071
 1295SOL    HW1 4784   0.219   3.779   2.991
 1295SOL    HW2 4785   0.066   3.798   3.045
 1296SOL     OW 4786   3.397   0.361   6.036
 1296SOL    HW1 4787   3.415   0.353   6.134
 1296SOL    HW2 4788   3.302   0.388   6.021
 1297SOL     OW 4789   5.957   0.782   0.203
 1297SOL    HW1 4790   5.970   0.829   0.291
 1297SOL    HW2 4791   5.968   0.847   0.128
 1298SOL     OW 4792   6.701   4.703   2.938
 1298SOL    HW1 4793   6.798   4.706   2.961
 1298SOL    HW2 4794   6.657   4.787   2.969
 1299SOL     OW 4795   0.206   3.848   3.326
 1299SOL    HW1 4796   0.294   3.812   3.355
 1299SOL    HW2 4797   0.170   3.794   3.250
 1300SOL     OW 4798   3.483   3.826   1.909
 1300SOL    HW1 4799   3.451   3.910   1.952
 1300SOL    HW2 4800   3.412   3.756   1.914
 1301SOL     OW 4801   0.123   5.257   2.231
 1301SOL    HW1 4802   0.028   5.241   2.203
 1301SOL    HW2 4803   0.153   5.346   2.195
 1302SOL     OW 4804   3.614   6.917   5.458
 1302SOL    HW1 4805   3.707   6.944   5.483
 1302SOL    HW2 4806   3.578   6.981   5.391
 1303SOL     OW 4807   4.486   1.837   1.598
 1303SOL    HW1 4808   4.484   1.825   1.697
 1303SOL    HW2 4809   4.437   1.762   1.554
 1304SOL     OW 4810   0.900   1.001   6.702
 1304SOL    HW1 4811   0.894   1.039   6.794
 1304SOL    HW2 4812   0.839   1.051   6.641
 1305SOL     OW 4813   4.899   3.243   0.202
 1305SOL    HW1 4814   4.985   3.289   0.221
 1305SOL    HW2 4815   4.834   3.261   0.275
 1306SOL     OW 4816   0.872   4.072   5.480
 1306SOL    HW1 4817   0.958   4.094   5.434
 1306SOL    HW2 4818   0.886   4.072   5.579
 1307SOL     OW 4819   1.093   3.153   5.059
 1307SOL    HW1 4820   1.026   3.223   5.032
 1307SOL    HW2 4821   1.114   3.164   5.156
 1308SOL     OW 4822   4.305   5.687   5.221
 1308SOL    HW1 4823   4.350   5.748   5.156
 1308SOL    HW2 4824   4.207   5.687   5.203
 1309SOL     OW 4825   5.213   2.981   5.416
 1309SOL    HW1 4826   5.307   3.011   5.401
 1309SOL    HW2 4827   5.169   3.040   5.485
 1310SOL     OW 4828   0.238   4.280   5.168
 1310SOL    HW1 4829   0.298   4.248   5.241
 1310SOL    HW2 4830   0.215   4.203   5.108
 1311SOL     OW 4831   0.142   0.671   4.138
 1311SOL    HW1 4832   0.184   0.753   4.177
 1311SOL    HW2 4833   0.126   0.685   4.041
 1312SOL     OW 4834   0.840   0.358   6.328
 1312SOL    HW1 4835   0.840   0.351   6.228
 1312SOL    HW2 4836   0.933   0.367   6.361
 1313SOL     OW 4837   1.791   4.531   3.953
 1313SOL    HW1 4838   1.834   4.549   4.041
 1313SOL    HW2 4839   1.752   4.439   3.952
 1314SOL     OW 4840   3.858   1.546   5.603
 1314SOL    HW1 4841   3.858   1.593   5.691
 1314SOL    HW2 4842   3.940   1.489   5.595
 1315SOL     OW 4843   0.642   0.462   0.444
 1315SOL    HW1 4844   0.633   0.391   0.513
 1315SOL    HW2 4845   0.621   0.551   0.484
 1316SOL     OW 4846   2.434   6.608   4.401
 1316SOL    HW1 4847   2.356   6.605   4.464
 1316SOL    HW2 4848   2.412   6.669   4.324
 1317SOL     OW 4849   1.385   4.244   4.406
 1317SOL    HW1 4850   1.406   4.283   4.316
 1317SOL    HW2 4851   1.437   4.160   4.420
 1318SOL     OW 4852   0.634   1.031   0.682
 1318SOL    HW1 4853   0.677   0.985   0.760
 1318SOL    HW2 4854   0.702   1.042   0.609
 1319SOL     OW 4855   0.235   0.826   0.294
 1319SOL    HW1 4856   0.180   0.753   0.253
 1319SOL    HW2 4857   0.175   0.900   0.324
 1320SOL     OW 4858   5.612   4.277   0.590
 1320SOL    HW1 4859   5.583   4.211   0.660
 1320SOL    HW2 4860   5.691   4.241   0.541
 1321SOL     OW 4861   4.528   2.202   5.870
 1321SOL    HW1 4862   4.582   2.275   5.912
 1321SOL    HW2 4863   4.585   2.150   5.807
 1322SOL     OW 4864   3.981   0.374   4.019
 1322SOL    HW1 4865   3.958   0.292   3.966
 1322SOL    HW2 4866   3.897   0.420   4.047
 1323SOL     OW 4867   5.628   1.931   4.679
 1323SOL    HW1 4868   5.546   1.980   4.647
 1323SOL    HW2 4869   5.679   1.897   4.600
 1324SOL     OW 4870   0.935   2.623   0.092
 1324SOL    HW1 4871   0.888   2.661   0.171
 1324SOL    HW2 4872   1.019   2.578   0.121
 1325SOL     OW 4873   1.645   6.907   2.279
 1325SOL    HW1 4874   1.564   6.887   2.334
 1325SOL    HW2 4875   1.670   6.827   2.225
 1326SOL     OW 4876   4.660   2.901   4.998
 1326SOL    HW1 4877   4.705   2.946   4.922
 1326SOL    HW2 4878   4.616   2.817   4.966
 1327SOL     OW 4879   1.909   4.311   1.793
 1327SOL    HW1 4880   1.999   4.285   1.830
 1327SOL    HW2 4881   1.856   4.356   1.864
 1328SOL     OW 4882   1.573   2.890   1.098
 1328SOL    HW1 4883   1.637   2.816   1.076
 1328SOL    HW2 4884   1.586   2.918   1.193
 1329SOL     OW 4885   1.432   2.661   0.958
 1329SOL    HW1 4886   1.423   2.723   1.037
 1329SOL    HW2 4887   1.379   2.697   0.881
 1330SOL     OW 4888   6.890   0.996   1.714
 1330SOL    HW1 4889   6.813   0.955   1.762
 1330SOL    HW2 4890   6.859   1.038   1.629
 1331SOL     OW 4891   4.893   2.053   3.265
 1331SOL    HW1 4892   4.988   2.028   3.285
 1331SOL    HW2 4893   4.832   2.010   3.331
 1332SOL     OW 4894   3.194   6.942   0.333
 1332SOL    HW1 4895   3.193   6.844   0.355
 1332SOL    HW2 4896   3.101   6.971   0.310
 1333SOL     OW 4897   3.205   3.233   5.952
 1333SOL    HW1 4898   3.131   3.169   5.935
 1333SOL    HW2 4899   3.215   3.295   5.874
 1334SOL     OW 4900   6.887   2.787   4.589
 1334SOL    HW1 4901   6.835   2.730   4.525
 1334SOL    HW2 4902   6.934   2.859   4.538
 1335SOL     OW 4903   2.562   0.628   3.352
 1335SOL    HW1 4904   2.463   0.620   3.359
 1335SOL    HW2 4905   2.586   0.673   3.266
 1336SOL     OW 4906   2.039   1.230   6.591
 1336SOL    HW1 4907   2.022   1.132   6.599
 1336SOL    HW2 4908   1.953   1.280   6.603
 1337SOL     OW 4909   1.594   1.085   4.993
 1337SOL    HW1 4910   1.528   1.111   5.064
 1337SOL    HW2 4911   1.578   0.990   4.965
 1338SOL     OW 4912   5.696   2.937   6.274
 1338SOL    HW1 4913   5.631   3.012   6.285
 1338SOL    HW2 4914   5.648   2.856   6.240
 1339SOL     OW 4915   0.389   0.629   0.063
 1339SOL    HW1 4916   0.354   0.723   0.069
 1339SOL    HW2 4917   0.392   0.590   0.155
 1340SOL     OW 4918   0.760   1.534   1.939
 1340SOL    HW1 4919   0.764   1.584   2.026
 1340SOL    HW2 4920   0.723   1.593   1.868
 1341SOL     OW 4921   4.789   1.100   5.956
 1341SOL    HW1 4922   4.816   1.184   5.909
 1341SOL    HW2 4923   4.700   1.071   5.923
 1342SOL     OW 4924   1.425   4.924   6.218
 1342SOL    HW1 4925   1.345   4.864   6.224
 1342SOL    HW2 4926   1.480   4.914   6.301
 1343SOL     OW 4927   4.398   5.862   2.381
 1343SOL    HW1 4928   4.372   5.780   2.432
 1343SOL    HW2 4929   4.393   5.843   2.283
 1344SOL     OW 4930   6.752   4.800   4.122
 1344SOL    HW1 4931   6.830   4.851   4.087
 1344SOL    HW2 4932   6.784   4.728   4.184
 1345SOL     OW 4933   1.776   1.408   3.353
 1345SOL    HW1 4934   1.714   1.399   3.275
 1345SOL    HW2 4935   1.766   1.329   3.413
 1346SOL     OW 4936   0.955   6.773   3.721
 1346SOL    HW1 4937   1.015   6.694   3.714
 1346SOL    HW2 4938   0.900   6.767   3.805
 1347SOL     OW 4939   6.212   6.523   4.170
 1347SOL    HW1 4940   6.172   6.497   4.082
 1347SOL    HW2 4941   6.143   6.569   4.226
 1348SOL     OW 4942   5.255   4.749   2.909
 1348SOL    HW1 4943   5.238   4.788   2.999
 1348SOL    HW2 4944   5.331   4.685   2.914
 1349SOL     OW 4945   4.827   1.980   6.704
 1349SOL    HW1 4946   4.880   2.023   6.777
 1349SOL    HW2 4947   4.802   1.887   6.732
 1350SOL     OW 4948   4.747   4.328   6.023
 1350SOL    HW1 4949   4.792   4.410   5.987
 1350SOL    HW2 4950   4.805   4.248   6.007
 1351SOL     OW 4951   6.779   2.434   2.852
 1351SOL    HW1 4952   6.728   2.507   2.805
 1351SOL    HW2 4953   6.798   2.360   2.787
 1352SOL     OW 4954   6.776   0.201   3.093
 1352SOL    HW1 4955   6.786   0.297   3.121
 1352SOL    HW2 4956   6.744   0.147   3.170
 1353SOL     OW 4957   6.099   4.552   6.004
 1353SOL    HW1 4958   6.086   4.520   6.098
 1353SOL    HW2 4959   6.163   4.492   5.956
 1354SOL     OW 4960   0.823   2.117   0.310
 1354SOL    HW1 4961   0.753   2.118   0.239
 1354SOL    HW2 4962   0.816   2.032   0.363
 1355SOL     OW 4963   6.677   2.550   5.254
 1355SOL    HW1 4964   6.728   2.585   5.333
 1355SOL    HW2 4965   6.739   2.545   5.175
 1356SOL     OW 4966   3.246   3.117   3.860
 1356SOL    HW1 4967   3.286   3.034   3.899
 1356SOL    HW2 4968   3.303   3.196   3.884
 1357SOL     OW 4969   1.982   4.410   5.814
 1357SOL    HW1 4970   1.999   4.444   5.722
 1357SOL    HW2 4971   1.941   4.319   5.809
 1358SOL     OW 4972   4.152   1.485   6.049
 1358SOL    HW1 4973   4.238   1.478   5.998
 1358SOL    HW2 4974   4.075   1.486   5.984
 1359SOL     OW 4975   0.229   5.032   1.297
 1359SOL    HW1 4976   0.323   5.060   1.314
 1359SOL    HW2 4977   0.207   4.952   1.353
 1360SOL     OW 4978   4.178   3.885   1.483
 1360SOL    HW1 4979   4.089   3.905   1.443
 1360SOL    HW2 4980   4.175   3.905   1.581
 1361SOL     OW 4981   0.235   6.056   5.755
 1361SOL    HW1 4982   0.280   6.049   5.843
 1361SOL    HW2 4983   0.136   6.047   5.767
 1362SOL     OW 4984   3.016   3.903   4.281
 1362SOL    HW1 4985   3.111   3.894   4.254
 1362SOL    HW2 4986   3.007   3.971   4.354
 1363SOL     OW 4987   6.574   5.920   3.746
 1363SOL    HW1 4988   6.506   5.877   3.686
 1363SOL    HW2 4989   6.527   5.960   3.825
 1364SOL     OW 4990   0.314   2.326   0.136
 1364SOL    HW1 4991   0.263   2.257   0.188
 1364SOL    HW2 4992   0.352   2.393   0.198
 1365SOL     OW 4993   1.008   2.794   5.548
 1365SOL    HW1 4994   0.942   2.854   5.592
 1365SOL    HW2 4995   1.096   2.801   5.595
 1366SOL     OW 4996   1.080   4.464   0.645
 1366SOL    HW1 4997   1.009   4.472   0.575
 1366SOL    HW2 4998   1.111   4.369   0.650
 1367SOL     OW 4999   1.646   5.542   2.478
 1367SOL    HW1 5000   1.668   5.530   2.575
 1367SOL    HW2 5001   1.630   5.639   2.459
 1368SOL     OW 5002   6.989   6.952   3.301
 1368SOL    HW1 5003   0.064   6.940   3.305
 1368SOL    HW2 5004   6.960   6.964   3.206
 1369SOL     OW 5005   1.934   0.377   2.458
 1369SOL    HW1 5006   2.014   0.331   2.419
 1369SOL    HW2 5007   1.958   0.417   2.546
 1370SOL     OW 5008   4.675   1.782   3.714
 1370SOL    HW1 5009   4.629   1.764   3.801
 1370SOL    HW2 5010   4.699   1.879   3.709
 1371SOL     OW 5011   5.750   1.271   4.591
 1371SOL    HW1 5012   5.669   1.330   4.580
 1371SOL    HW2 5013   5.833   1.326   4.579
 1372SOL     OW 5014   1.214   2.047   0.929
 1372SOL    HW1 5015   1.116   2.064   0.918
 1372SOL    HW2 5016   1.261   2.133   0.949
 1373SOL     OW 5017   4.386   2.660   0.634
 1373SOL    HW1 5018   4.390   2.757   0.609
 1373SOL    HW2 5019   4.467   2.636   0.687
 1374SOL     OW 5020   4.226   1.973   1.138
 1374SOL    HW1 5021   4.215   1.875   1.154
 1374SOL    HW2 5022   4.184   2.024   1.214
 1375SOL     OW 5023   0.064   6.828   6.169
 1375SOL    HW1 5024   0.125   6.750   6.155
 1375SOL    HW2 5025   6.994   6.798   6.160
 1376SOL     OW 5026   4.523   4.880   5.055
 1376SOL    HW1 5027   4.598   4.815   5.067
 1376SOL    HW2 5028   4.516   4.905   4.958
 1377SOL     OW 5029   0.860   3.770   3.874
 1377SOL    HW1 5030   0.794   3.734   3.939
 1377SOL    HW2 5031   0.817   3.778   3.784
 1378SOL     OW 5032   5.982   2.227   4.347
 1378SOL    HW1 5033   5.998   2.243   4.445
 1378SOL    HW2 5034   6.066   2.196   4.303
 1379SOL     OW 5035   4.350   6.065   3.446
 1379SOL    HW1 5036   4.396   6.100   3.364
 1379SOL    HW2 5037   4.265   6.115   3.460
 1380SOL     OW 5038   0.353   6.394   3.278
 1380SOL    HW1 5039   0.420   6.398   3.352
 1380SOL    HW2 5040   0.396   6.418   3.192
 1381SOL     OW 5041   5.882   1.689   0.306
 1381SOL    HW1 5042   5.916   1.772   0.349
 1381SOL    HW2 5043   5.836   1.713   0.220
 1382SOL     OW 5044   5.827   3.190   1.117
 1382SOL    HW1 5045   5.903   3.248   1.146
 1382SOL    HW2 5046   5.761   3.245   1.065
 1383SOL     OW 5047   0.791   0.642   2.072
 1383SOL    HW1 5048   0.860   0.707   2.104
 1383SOL    HW2 5049   0.758   0.672   1.982
 1384SOL     OW 5050   4.397   0.709   1.546
 1384SOL    HW1 5051   4.338   0.731   1.468
 1384SOL    HW2 5052   4.490   0.738   1.526
 1385SOL     OW 5053   2.630   4.777   3.492
 1385SOL    HW1 5054   2.604   4.853   3.433
 1385SOL    HW2 5055   2.730   4.771   3.498
 1386SOL     OW 5056   3.093   1.143   4.352
 1386SOL    HW1 5057   2.997   1.170   4.365
 1386SOL    HW2 5058   3.114   1.145   4.254
 1387SOL     OW 5059   3.941   5.136   2.530
 1387SOL    HW1 5060   3.889   5.069   2.476
 1387SOL    HW2 5061   3.900   5.146   2.620
 1388SOL     OW 5062   6.880   0.462   2.830
 1388SOL    HW1 5063   6.811   0.442   2.760
 1388SOL    HW2 5064   6.971   0.451   2.790
 1389SOL     OW 5065   6.548   0.654   3.970
 1389SOL    HW1 5066   6.574   0.729   4.031
 1389SOL    HW2 5067   6.576   0.567   4.010
 1390SOL     OW 5068   6.694   2.788   6.163
 1390SOL    HW1 5069   6.688   2.693   6.131
 1390SOL    HW2 5070   6.714   2.848   6.086
 1391SOL     OW 5071   6.082   6.667   4.848
 1391SOL    HW1 5072   6.140   6.586   4.847
 1391SOL    HW2 5073   6.135   6.746   4.878
 1392SOL     OW 5074   6.107   6.721   5.512
 1392SOL    HW1 5075   6.100   6.731   5.612
 1392SOL    HW2 5076   6.119   6.811   5.471
 1393SOL     OW 5077   6.918   4.227   6.239
 1393SOL    HW1 5078   6.840   4.165   6.225
 1393SOL    HW2 5079   6.930   4.285   6.159
 1394SOL     OW 5080   3.789   5.511   5.646
 1394SOL    HW1 5081   3.694   5.481   5.645
 1394SOL    HW2 5082   3.796   5.603   5.608
 1395SOL     OW 5083   2.126   4.632   4.907
 1395SOL    HW1 5084   2.136   4.724   4.869
 1395SOL    HW2 5085   2.204   4.611   4.965
 1396SOL     OW 5086   0.425   1.786   4.946
 1396SOL    HW1 5087   0.358   1.738   4.891
 1396SOL    HW2 5088   0.480   1.720   4.998
 1397SOL     OW 5089   0.361   6.946   4.574
 1397SOL    HW1 5090   0.286   6.894   4.534
 1397SOL    HW2 5091   0.391   7.016   4.510
 1398SOL     OW 5092   2.952   0.950   6.691
 1398SOL    HW1 5093   2.874   0.887   6.679
 1398SOL    HW2 5094   3.037   0.902   6.669
 1399SOL     OW 5095   4.091   5.186   0.475
 1399SOL    HW1 5096   4.134   5.182   0.566
 1399SOL    HW2 5097   4.004   5.235   0.482
 1400SOL     OW 5098   0.240   1.597   4.120
 1400SOL    HW1 5099   0.319   1.573   4.063
 1400SOL    HW2 5100   0.264   1.585   4.216
 1401SOL     OW 5101   6.351   0.336   4.804
 1401SOL    HW1 5102   6.421   0.291   4.859
 1401SOL    HW2 5103   6.274   0.274   4.791
 1402SOL     OW 5104   5.534   3.666   6.404
 1402SOL    HW1 5105   5.574   3.688   6.493
 1402SOL    HW2 5106   5.483   3.745   6.370
 1403SOL     OW 5107   2.186   1.913   1.007
 1403SOL    HW1 5108   2.219   2.003   0.979
 1403SOL    HW2 5109   2.154   1.917   1.101
 1404SOL     OW 5110   6.526   0.393   6.854
 1404SOL    HW1 5111   6.454   0.420   6.790
 1404SOL    HW2 5112   6.491   0.324   6.918
 1405SOL     OW 5113   2.469   3.059   0.659
 1405SOL    HW1 5114   2.505   3.039   0.750
 1405SOL    HW2 5115   2.396   3.127   0.666
 1406SOL     OW 5116   0.814   5.477   0.345
 1406SOL    HW1 5117   0.767   5.476   0.433
 1406SOL    HW2 5118   0.746   5.469   0.272
 1407SOL     OW 5119   0.511   3.347   3.332
 1407SOL    HW1 5120   0.483   3.283   3.260
 1407SOL    HW2 5121   0.604   3.380   3.313
 1408SOL     OW 5122   5.386   1.266   5.457
 1408SOL    HW1 5123   5.427   1.354   5.432
 1408SOL    HW2 5124   5.440   1.192   5.416
 1409SOL     OW 5125   0.177   0.441   5.062
 1409SOL    HW1 5126   0.088   0.439   5.016
 1409SOL    HW2 5127   0.249   0.423   4.995
 1410SOL     OW 5128   1.632   4.607   6.782
 1410SOL    HW1 5129   1.538   4.594   6.749
 1410SOL    HW2 5130   1.632   4.615   6.881
 1411SOL     OW 5131   3.738   6.566   0.465
 1411SOL    HW1 5132   3.776   6.619   0.541
 1411SOL    HW2 5133   3.777   6.598   0.379
 1412SOL     OW 5134   0.850   2.474   1.169
 1412SOL    HW1 5135   0.833   2.400   1.104
 1412SOL    HW2 5136   0.915   2.539   1.129
 1413SOL     OW 5137   2.213   1.685   5.063
 1413SOL    HW1 5138   2.185   1.781   5.074
 1413SOL    HW2 5139   2.158   1.627   5.123
 1414SOL     OW 5140   2.653   1.886   1.798
 1414SOL    HW1 5141   2.681   1.982   1.793
 1414SOL    HW2 5142   2.553   1.881   1.800
 1415SOL     OW 5143   1.915   1.041   4.744
 1415SOL    HW1 5144   1.874   1.123   4.705
 1415SOL    HW2 5145   1.956   1.063   4.832
 1416SOL     OW 5146   4.251   5.145   4.471
 1416SOL    HW1 5147   4.209   5.236   4.463
 1416SOL    HW2 5148   4.220   5.101   4.555
 1417SOL     OW 5149   2.884   2.451   0.616
 1417SOL    HW1 5150   2.786   2.471   0.612
 1417SOL    HW2 5151   2.910   2.395   0.537
 1418SOL     OW 5152   3.221   3.690   2.682
 1418SOL    HW1 5153   3.245   3.650   2.594
 1418SOL    HW2 5154   3.121   3.694   2.691
 1419SOL     OW 5155   2.885   5.618   3.423
 1419SOL    HW1 5156   2.861   5.583   3.513
 1419SOL    HW2 5157   2.828   5.575   3.354
 1420SOL     OW 5158   1.911   6.456   2.080
 1420SOL    HW1 5159   1.958   6.379   2.036
 1420SOL    HW2 5160   1.941   6.541   2.038
 1421SOL     OW 5161   2.238   4.892   3.207
 1421SOL    HW1 5162   2.329   4.897   3.166
 1421SOL    HW2 5163   2.171   4.863   3.139
 1422SOL     OW 5164   1.251   4.145   6.619
 1422SOL    HW1 5165   1.340   4.130   6.576
 1422SOL    HW2 5166   1.180   4.094   6.569
 1423SOL     OW 5167   4.927   0.002   4.174
 1423SOL    HW1 5168   4.889   0.092   4.150
 1423SOL    HW2 5169   4.852   6.963   4.193
 1424SOL     OW 5170   6.726   4.041   0.080
 1424SOL    HW1 5171   6.667   4.080   0.010
 1424SOL    HW2 5172   6.671   3.991   0.147
 1425SOL     OW 5173   1.963   5.451   5.464
 1425SOL    HW1 5174   1.945   5.447   5.366
 1425SOL    HW2 5175   2.039   5.390   5.487
 1426SOL     OW 5176   2.198   3.159   6.532
 1426SOL    HW1 5177   2.225   3.249   6.566
 1426SOL    HW2 5178   2.274   3.118   6.481
 1427SOL     OW 5179   6.848   0.084   3.484
 1427SOL    HW1 5180   6.914   0.032   3.429
 1427SOL    HW2 5181   6.759   0.085   3.437
 1428SOL     OW 5182   0.542   1.898   0.043
 1428SOL    HW1 5183   0.636   1.892   0.012
 1428SOL    HW2 5184   0.531   1.980   0.099
 1429SOL     OW 5185   4.555   1.363   0.085
 1429SOL    HW1 5186   4.511   1.370   0.175
 1429SOL    HW2 5187   4.653   1.379   0.095
 1430SOL     OW 5188   1.937   5.217   3.907
 1430SOL    HW1 5189   1.991   5.190   3.986
 1430SOL    HW2 5190   1.846   5.176   3.913
 1431SOL     OW 5191   2.872   2.297   6.955
 1431SOL    HW1 5192   2.885   2.200   6.978
 1431SOL    HW2 5193   2.947   2.328   6.898
 1432SOL     OW 5194   2.845   1.883   1.459
 1432SOL    HW1 5195   2.836   1.786   1.434
 1432SOL    HW2 5196   2.762   1.932   1.435
 1433SOL     OW 5197   4.768   0.393   5.394
 1433SOL    HW1 5198   4.672   0.367   5.384
 1433SOL    HW2 5199   4.815   0.326   5.452
 1434SOL     OW 5200   1.174   0.413   5.569
 1434SOL    HW1 5201   1.144   0.508   5.560
 1434SOL    HW2 5202   1.154   0.364   5.484
 1435SOL     OW 5203   6.860   6.962   3.058
 1435SOL    HW1 5204   6.890   6.926   2.969
 1435SOL    HW2 5205   6.860   0.038   3.055
 1436SOL     OW 5206   5.201   3.677   6.383
 1436SOL    HW1 5207   5.176   3.748   6.317
 1436SOL    HW2 5208   5.241   3.599   6.336
 1437SOL     OW 5209   2.934   2.086   5.075
 1437SOL    HW1 5210   2.849   2.124   5.112
 1437SOL    HW2 5211   3.000   2.159   5.060
 1438SOL     OW 5212   2.470   6.683   1.622
 1438SOL    HW1 5213   2.506   6.760   1.569
 1438SOL    HW2 5214   2.476   6.704   1.720
 1439SOL     OW 5215   6.320   5.157   0.861
 1439SOL    HW1 5216   6.320   5.137   0.959
 1439SOL    HW2 5217   6.410   5.138   0.823
 1440SOL     OW 5218   3.184   2.870   6.408
 1440SOL    HW1 5219   3.260   2.850   6.469
 1440SOL    HW2 5220   3.207   2.949   6.351
 1441SOL     OW 5221   6.426   1.330   3.793
 1441SOL    HW1 5222   6.336   1.311   3.753
 1441SOL    HW2 5223   6.440   1.272   3.873
 1442SOL     OW 5224   6.718   5.632   6.667
 1442SOL    HW1 5225   6.629   5.589   6.652
 1442SOL    HW2 5226   6.729   5.709   6.604
 1443SOL     OW 5227   1.332   2.650   4.229
 1443SOL    HW1 5228   1.303   2.671   4.135
 1443SOL    HW2 5229   1.379   2.562   4.230
 1444SOL     OW 5230   4.868   5.326   0.898
 1444SOL    HW1 5231   4.809   5.388   0.949
 1444SOL    HW2 5232   4.835   5.317   0.804
 1445SOL     OW 5233   0.330   3.528   2.468
 1445SOL    HW1 5234   0.241   3.571   2.453
 1445SOL    HW2 5235   0.342   3.509   2.566
 1446SOL     OW 5236   5.146   2.374   0.375
 1446SOL    HW1 5237   5.107   2.466   0.364
 1446SOL    HW2 5238   5.222   2.378   0.441
 1447SOL     OW 5239   5.890   7.008   5.210
 1447SOL    HW1 5240   5.872   6.929   5.269
 1447SOL    HW2 5241   5.803   0.022   5.179
 1448SOL     OW 5242   0.059   2.111   5.506
 1448SOL    HW1 5243   6.998   2.151   5.472
 1448SOL    HW2 5244   0.042   2.018   5.538
 1449SOL     OW 5245   0.847   1.080   6.983
 1449SOL    HW1 5246   0.868   1.110   0.052
 1449SOL    HW2 5247   0.755   1.109   6.959
 1450SOL     OW 5248   0.663   2.192   1.220
 1450SOL    HW1 5249   0.631   2.166   1.311
 1450SOL    HW2 5250   0.725   2.121   1.185
 1451SOL     OW 5251   1.821   6.990   1.966
 1451SOL    HW1 5252   1.726   7.021   1.957
 1451SOL    HW2 5253   1.846   6.933   1.888
 1452SOL     OW 5254   4.501   0.870   4.368
 1452SOL    HW1 5255   4.548   0.794   4.324
 1452SOL    HW2 5256   4.416   0.889   4.318
 1453SOL     OW 5257   0.127   4.037   5.431
 1453SOL    HW1 5258   0.037   4.043   5.473
 1453SOL    HW2 5259   0.184   4.113   5.463
 1454SOL     OW 5260   0.312   3.008   1.961
 1454SOL    HW1 5261   0.375   2.936   1.987
 1454SOL    HW2 5262   0.264   3.042   2.042
 1455SOL     OW 5263   1.181   1.002   1.434
 1455SOL    HW1 5264   1.108   0.979   1.497
 1455SOL    HW2 5265   1.245   1.066   1.478
 1456SOL     OW 5266   6.726   6.268   5.315
 1456SOL    HW1 5267   6.632   6.298   5.333
 1456SOL    HW2 5268   6.790   6.337   5.348
 1457SOL     OW 5269   1.295   6.459   1.369
 1457SOL    HW1 5270   1.321   6.384   1.430
 1457SOL    HW2 5271   1.310   6.546   1.415
 1458SOL     OW 5272   5.791   5.673   3.650
 1458SOL    HW1 5273   5.731   5.609   3.602
 1458SOL    HW2 5274   5.886   5.645   3.638
 1459SOL     OW 5275   2.832   5.774   5.785
 1459SOL    HW1 5276   2.817   5.678   5.763
 1459SOL    HW2 5277   2.920   5.804   5.748
 1460SOL     OW 5278   0.810   6.125   5.000
 1460SOL    HW1 5279   0.794   6.027   4.991
 1460SOL    HW2 5280   0.847   6.145   5.090
 1461SOL     OW 5281   6.570   4.923   3.052
 1461SOL    HW1 5282   6.521   4.950   2.969
 1461SOL    HW2 5283   6.518   4.853   3.101
 1462SOL     OW 5284   1.359   0.178   6.688
 1462SOL    HW1 5285   1.361   0.195   6.589
 1462SOL    HW2 5286   1.345   0.081   6.705
 1463SOL     OW 5287   6.744   5.531   6.285
 1463SOL    HW1 5288   6.688   5.575   6.355
 1463SOL    HW2 5289   6.800   5.600   6.239
 1464SOL     OW 5290   0.190   6.535   1.550
 1464SOL    HW1 5291   0.105   6.572   1.513
 1464SOL    HW2 5292   0.261   6.539   1.480
 1465SOL     OW 5293   1.608   1.199   2.923
 1465SOL    HW1 5294   1.599   1.235   2.830
 1465SOL    HW2 5295   1.545   1.122   2.935
 1466SOL     OW 5296   1.856   2.197   2.050
 1466SOL    HW1 5297   1.844   2.183   1.952
 1466SOL    HW2 5298   1.828   2.290   2.073
 1467SOL     OW 5299   1.932   1.235   2.685
 1467SOL    HW1 5300   1.902   1.167   2.618
 1467SOL    HW2 5301   1.991   1.302   2.641
 1468SOL     OW 5302   3.988   6.260   1.896
 1468SOL    HW1 5303   3.979   6.358   1.879
 1468SOL    HW2 5304   3.923   6.210   1.839
 1469SOL     OW 5305   0.787   1.382   1.666
 1469SOL    HW1 5306   0.785   1.477   1.700
 1469SOL    HW2 5307   0.747   1.379   1.575
 1470SOL     OW 5308   1.030   2.101   2.498
 1470SOL    HW1 5309   0.944   2.051   2.504
 1470SOL    HW2 5310   1.035   2.168   2.573
 1471SOL     OW 5311   0.513   6.999   1.132
 1471SOL    HW1 5312   0.487   0.029   1.052
 1471SOL    HW2 5313   0.565   6.919   1.103
 1472SOL     OW 5314   3.693   5.281   5.772
 1472SOL    HW1 5315   3.661   5.327   5.855
 1472SOL    HW2 5316   3.769   5.331   5.733
 1473SOL     OW 5317   4.291   6.163   5.152
 1473SOL    HW1 5318   4.332   6.146   5.062
 1473SOL    HW2 5319   4.347   6.231   5.201
 1474SOL     OW 5320   5.601   5.366   2.324
 1474SOL    HW1 5321   5.616   5.268   2.315
 1474SOL    HW2 5322   5.663   5.404   2.392
 1475SOL     OW 5323   6.070   0.344   2.078
 1475SOL    HW1 5324   6.099   0.330   2.173
 1475SOL    HW2 5325   6.040   0.258   2.039
 1476SOL     OW 5326   3.232   0.684   1.077
 1476SOL    HW1 5327   3.178   0.765   1.101
 1476SOL    HW2 5328   3.258   0.636   1.161
 1477SOL     OW 5329   3.536   0.125   6.139
 1477SOL    HW1 5330   3.448   0.089   6.172
 1477SOL    HW2 5331   3.525   0.162   6.047
 1478SOL     OW 5332   6.199   5.846   6.468
 1478SOL    HW1 5333   6.177   5.749   6.474
 1478SOL    HW2 5334   6.157   5.895   6.544
 1479SOL     OW 5335   1.356   2.251   0.682
 1479SOL    HW1 5336   1.421   2.218   0.751
 1479SOL    HW2 5337   1.394   2.238   0.591
 1480SOL     OW 5338   3.267   0.843   5.223
 1480SOL    HW1 5339   3.229   0.863   5.313
 1480SOL    HW2 5340   3.360   0.880   5.217
 1481SOL     OW 5341   6.491   3.121   5.888
 1481SOL    HW1 5342   6.435   3.087   5.812
 1481SOL    HW2 5343   6.439   3.115   5.973
 1482SOL     OW 5344   4.804   1.652   1.564
 1482SOL    HW1 5345   4.795   1.744   1.603
 1482SOL    HW2 5346   4.720   1.601   1.581
 1483SOL     OW 5347   5.191   2.091   6.699
 1483SOL    HW1 5348   5.248   2.170   6.720
 1483SOL    HW2 5349   5.184   2.080   6.600
 1484SOL     OW 5350   5.440   3.955   4.787
 1484SOL    HW1 5351   5.375   3.947   4.862
 1484SOL    HW2 5352   5.403   3.912   4.706
 1485SOL     OW 5353   3.638   1.689   3.321
 1485SOL    HW1 5354   3.684   1.717   3.237
 1485SOL    HW2 5355   3.561   1.750   3.340
 1486SOL     OW 5356   4.801   1.675   2.380
 1486SOL    HW1 5357   4.891   1.638   2.357
 1486SOL    HW2 5358   4.743   1.600   2.413
 1487SOL     OW 5359   6.990   2.359   6.170
 1487SOL    HW1 5360   6.892   2.379   6.175
 1487SOL    HW2 5361   7.004   2.262   6.149
 1488SOL     OW 5362   5.251   1.268   3.598
 1488SOL    HW1 5363   5.306   1.227   3.525
 1488SOL    HW2 5364   5.240   1.202   3.672
 1489SOL     OW 5365   4.606   4.729   5.292
 1489SOL    HW1 5366   4.622   4.828   5.299
 1489SOL    HW2 5367   4.679   4.680   5.339
 1490SOL     OW 5368   0.530   3.086   2.416
 1490SOL    HW1 5369   0.557   3.008   2.472
 1490SOL    HW2 5370   0.529   3.060   2.320
 1491SOL     OW 5371   6.631   3.816   2.577
 1491SOL    HW1 5372   6.629   3.781   2.483
 1491SOL    HW2 5373   6.621   3.915   2.576
 1492SOL     OW 5374   5.837   0.998   2.724
 1492SOL    HW1 5375   5.737   0.995   2.725
 1492SOL    HW2 5376   5.867   1.091   2.745
 1493SOL     OW 5377   3.907   6.605   5.371
 1493SOL    HW1 5378   3.921   6.703   5.356
 1493SOL    HW2 5379   3.983   6.568   5.423
 1494SOL     OW 5380   5.007   2.133   6.904
 1494SOL    HW1 5381   5.074   2.120   6.831
 1494SOL    HW2 5382   5.049   2.185   6.978
 1495SOL     OW 5383   6.388   3.632   5.249
 1495SOL    HW1 5384   6.422   3.545   5.285
 1495SOL    HW2 5385   6.412   3.640   5.153
 1496SOL     OW 5386   0.370   1.668   1.392
 1496SOL    HW1 5387   0.320   1.753   1.408
 1496SOL    HW2 5388   0.321   1.614   1.323
 1497SOL     OW 5389   6.408   3.307   3.109
 1497SOL    HW1 5390   6.454   3.219   3.105
 1497SOL    HW2 5391   6.464   3.376   3.061
 1498SOL     OW 5392   2.562   5.292   6.770
 1498SOL    HW1 5393   2.583   5.384   6.803
 1498SOL    HW2 5394   2.517   5.240   6.842
 1499SOL     OW 5395   0.729   2.827   6.100
 1499SOL    HW1 5396   0.639   2.850   6.136
 1499SOL    HW2 5397   0.769   2.754   6.155
 1500SOL     OW 5398   0.088   0.048   0.561
 1500SOL    HW1 5399   0.042   6.983   0.565
 1500SOL    HW2 5400   0.034   0.111   0.505
 1501SOL     OW 5401   5.475   2.610   6.496
 1501SOL    HW1 5402   5.524   2.609   6.409
 1501SOL    HW2 5403   5.522   2.672   6.559
 1502SOL     OW 5404   4.251   0.224   0.098
 1502SOL    HW1 5405   4.164   0.218   0.049
 1502SOL    HW2 5406   4.234   0.232   0.196
 1503SOL     OW 5407   0.531   3.882   1.643
 1503SOL    HW1 5408   0.527   3.782   1.652
 1503SOL    HW2 5409   0.625   3.913   1.655
 1504SOL     OW 5410   0.393   0.425   5.279
 1504SOL    HW1 5411   0.315   0.405   5.220
 1504SOL    HW2 5412   0.477   0.391   5.236
 1505SOL     OW 5413   5.216   0.522   5.034
 1505SOL    HW1 5414   5.168   0.605   5.062
 1505SOL    HW2 5415   5.208   0.454   5.107
 1506SOL     OW 5416   0.675   6.330   0.649
 1506SOL    HW1 5417   0.686   6.326   0.550
 1506SOL    HW2 5418   0.630   6.416   0.674
 1507SOL     OW 5419   1.193   1.729   5.693
 1507SOL    HW1 5420   1.285   1.731   5.654
 1507SOL    HW2 5421   1.134   1.794   5.644
 1508SOL     OW 5422   6.675   1.419   2.124
 1508SOL    HW1 5423   6.659   1.396   2.028
 1508SOL    HW2 5424   6.769   1.394   2.149
 1509SOL     OW 5425   3.740   1.656   5.850
 1509SOL    HW1 5426   3.730   1.755   5.866
 1509SOL    HW2 5427   3.649   1.615   5.846
 1510SOL     OW 5428   5.118   1.775   4.895
 1510SOL    HW1 5429   5.062   1.692   4.905
 1510SOL    HW2 5430   5.062   1.855   4.915
 1511SOL     OW 5431   3.737   3.097   2.571
 1511SOL    HW1 5432   3.777   3.096   2.479
 1511SOL    HW2 5433   3.745   3.189   2.609
 1512SOL     OW 5434   0.421   5.411   1.319
 1512SOL    HW1 5435   0.441   5.341   1.389
 1512SOL    HW2 5436   0.489   5.405   1.246
 1513SOL     OW 5437   3.608   0.707   4.368
 1513SOL    HW1 5438   3.594   0.677   4.463
 1513SOL    HW2 5439   3.705   0.700   4.345
 1514SOL     OW 5440   4.038   1.996   5.525
 1514SOL    HW1 5441   3.965   2.063   5.532
 1514SOL    HW2 5442   4.127   2.043   5.528
 1515SOL     OW 5443   5.913   2.088   3.139
 1515SOL    HW1 5444   5.832   2.034   3.162
 1515SOL    HW2 5445   5.950   2.057   3.052
 1516SOL     OW 5446   6.838   6.265   0.286
 1516SOL    HW1 5447   6.776   6.218   0.223
 1516SOL    HW2 5448   6.860   6.355   0.250
 1517SOL     OW 5449   4.514   6.191   3.267
 1517SOL    HW1 5450   4.467   6.227   3.186
 1517SOL    HW2 5451   4.561   6.106   3.243
 1518SOL     OW 5452   1.363   2.319   6.856
 1518SOL    HW1 5453   1.410   2.257   6.793
 1518SOL    HW2 5454   1.431   2.373   6.906
 1519SOL     OW 5455   6.988   5.464   1.361
 1519SOL    HW1 5456   6.976   5.385   1.300
 1519SOL    HW2 5457   6.904   5.517   1.363
 1520SOL     OW 5458   0.403   4.074   1.768
 1520SOL    HW1 5459   0.434   4.000   1.708
 1520SOL    HW2 5460   0.387   4.038   1.860
 1521SOL     OW 5461   1.848   4.252   6.382
 1521SOL    HW1 5462   1.794   4.248   6.466
 1521SOL    HW2 5463   1.879   4.161   6.357
 1522SOL     OW 5464   6.161   6.603   5.164
 1522SOL    HW1 5465   6.214   6.605   5.079
 1522SOL    HW2 5466   6.180   6.519   5.214
 1523SOL     OW 5467   5.228   5.949   1.151
 1523SOL    HW1 5468   5.238   5.850   1.157
 1523SOL    HW2 5469   5.308   5.988   1.106
 1524SOL     OW 5470   2.464   2.248   2.236
 1524SOL    HW1 5471   2.537   2.184   2.258
 1524SOL    HW2 5472   2.450   2.311   2.312
 1525SOL     OW 5473   0.165   2.566   0.076
 1525SOL    HW1 5474   0.080   2.518   0.054
 1525SOL    HW2 5475   0.234   2.499   0.102
 1526SOL     OW 5476   6.463   0.221   6.490
 1526SOL    HW1 5477   6.469   0.319   6.472
 1526SOL    HW2 5478   6.554   0.186   6.514
 1527SOL     OW 5479   4.049   0.498   5.179
 1527SOL    HW1 5480   4.084   0.588   5.207
 1527SOL    HW2 5481   3.970   0.475   5.236
 1528SOL     OW 5482   4.461   5.246   2.153
 1528SOL    HW1 5483   4.551   5.282   2.127
 1528SOL    HW2 5484   4.414   5.313   2.211
 1529SOL     OW 5485   3.701   0.746   0.089
 1529SOL    HW1 5486   3.757   0.696   0.155
 1529SOL    HW2 5487   3.704   0.844   0.110
 1530SOL     OW 5488   3.292   1.715   2.016
 1530SOL    HW1 5489   3.244   1.764   2.089
 1530SOL    HW2 5490   3.226   1.667   1.958
 1531SOL     OW 5491   4.686   0.699   5.658
 1531SOL    HW1 5492   4.765   0.676   5.715
 1531SOL    HW2 5493   4.717   0.718   5.565
 1532SOL     OW 5494   2.844   3.569   6.450
 1532SOL    HW1 5495   2.804   3.513   6.378
 1532SOL    HW2 5496   2.943   3.555   6.451
 1533SOL     OW 5497   5.515   4.227   6.683
 1533SOL    HW1 5498   5.560   4.228   6.772
 1533SOL    HW2 5499   5.433   4.285   6.687
 1534SOL     OW 5500   2.288   4.711   6.420
 1534SOL    HW1 5501   2.275   4.617   6.388
 1534SOL    HW2 5502   2.227   4.772   6.369
 1535SOL     OW 5503   4.832   6.498   4.216
 1535SOL    HW1 5504   4.817   6.520   4.312
 1535SOL    HW2 5505   4.922   6.454   4.205
 1536SOL     OW 5506   4.055   4.636   5.298
 1536SOL    HW1 5507   4.150   4.633   5.328
 1536SOL    HW2 5508   4.014   4.546   5.307
 1537SOL     OW 5509   4.686   6.550   3.290
 1537SOL    HW1 5510   4.598   6.528   3.248
 1537SOL    HW2 5511   4.697   6.496   3.374
 1538SOL     OW 5512   4.207   5.769   6.391
 1538SOL    HW1 5513   4.199   5.680   6.345
 1538SOL    HW2 5514   4.214   5.841   6.322
 1539SOL     OW 5515   4.532   3.929   1.413
 1539SOL    HW1 5516   4.474   4.011   1.415
 1539SOL    HW2 5517   4.477   3.850   1.390
 1540SOL     OW 5518   1.285   6.122   5.758
 1540SOL    HW1 5519   1.371   6.075   5.778
 1540SOL    HW2 5520   1.291   6.165   5.668
 1541SOL     OW 5521   3.872   3.099   3.270
 1541SOL    HW1 5522   3.948   3.164   3.276
 1541SOL    HW2 5523   3.881   3.045   3.187
 1542SOL     OW 5524   5.696   5.983   2.422
 1542SOL    HW1 5525   5.785   5.944   2.397
 1542SOL    HW2 5526   5.683   5.974   2.521
 1543SOL     OW 5527   3.792   4.778   5.325
 1543SOL    HW1 5528   3.879   4.751   5.366
 1543SOL    HW2 5529   3.720   4.716   5.355
 1544SOL     OW 5530   3.504   3.222   2.976
 1544SOL    HW1 5531   3.455   3.282   2.913
 1544SOL    HW2 5532   3.599   3.252   2.984
 1545SOL     OW 5533   4.616   1.058   3.879
 1545SOL    HW1 5534   4.644   0.983   3.818
 1545SOL    HW2 5535   4.521   1.046   3.905
 1546SOL     OW 5536   3.924   6.356   5.863
 1546SOL    HW1 5537   3.849   6.292   5.842
 1546SOL    HW2 5538   3.898   6.413   5.940
 1547SOL     OW 5539   1.583   3.502   2.807
 1547SOL    HW1 5540   1.677   3.526   2.780
 1547SOL    HW2 5541   1.543   3.441   2.740
 1548SOL     OW 5542   5.063   3.824   5.720
 1548SOL    HW1 5543   5.083   3.728   5.739
 1548SOL    HW2 5544   5.127   3.883   5.770
 1549SOL     OW 5545   4.638   1.443   2.518
 1549SOL    HW1 5546   4.688   1.358   2.500
 1549SOL    HW2 5547   4.573   1.460   2.443
 1550SOL     OW 5548   3.351   3.995   6.816
 1550SOL    HW1 5549   3.336   3.978   6.719
 1550SOL    HW2 5550   3.364   4.093   6.831
 1551SOL     OW 5551   1.784   4.837   6.135
 1551SOL    HW1 5552   1.858   4.801   6.192
 1551SOL    HW2 5553   1.807   4.822   6.038
 1552SOL     OW 5554   0.196   5.879   6.894
 1552SOL    HW1 5555   0.228   5.864   6.988
 1552SOL    HW2 5556   0.222   5.971   6.864
 1553SOL     OW 5557   0.209   1.640   5.578
 1553SOL    HW1 5558   0.154   1.585   5.640
 1553SOL    HW2 5559   0.206   1.601   5.486
 1554SOL     OW 5560   4.151   1.714   3.143
 1554SOL    HW1 5561   4.150   1.675   3.235
 1554SOL    HW2 5562   4.162   1.642   3.076
 1555SOL     OW 5563   5.386   2.230   6.962
 1555SOL    HW1 5564   5.397   2.136   6.931
 1555SOL    HW2 5565   5.397   2.293   6.885
 1556SOL     OW 5566   3.389   0.833   0.895
 1556SOL    HW1 5567   3.320   0.781   0.946
 1556SOL    HW2 5568   3.403   0.790   0.806
 1557SOL     OW 5569   2.109   0.801   6.327
 1557SOL    HW1 5570   2.153   0.740   6.261
 1557SOL    HW2 5571   2.018   0.827   6.294
 1558SOL     OW 5572   4.795   0.409   4.492
 1558SOL    HW1 5573   4.719   0.457   4.449
 1558SOL    HW2 5574   4.821   0.457   4.576
 1559SOL     OW 5575   0.361   2.897   6.783
 1559SOL    HW1 5576   0.336   2.965   6.714
 1559SOL    HW2 5577   0.435   2.839   6.747
 1560SOL     OW 5578   1.807   1.446   5.915
 1560SOL    HW1 5579   1.787   1.537   5.881
 1560SOL    HW2 5580   1.877   1.451   5.987
 1561SOL     OW 5581   6.030   6.522   4.418
 1561SOL    HW1 5582   6.112   6.468   4.436
 1561SOL    HW2 5583   5.979   6.481   4.342
 1562SOL     OW 5584   4.174   5.713   2.763
 1562SOL    HW1 5585   4.103   5.780   2.743
 1562SOL    HW2 5586   4.136   5.642   2.823
 1563SOL     OW 5587   2.001   0.499   6.227
 1563SOL    HW1 5588   1.902   0.498   6.208
 1563SOL    HW2 5589   2.048   0.443   6.159
 1564SOL     OW 5590   1.034   2.872   2.940
 1564SOL    HW1 5591   1.101   2.943   2.962
 1564SOL    HW2 5592   0.943   2.900   2.971
 1565SOL     OW 5593   4.341   5.127   4.825
 1565SOL    HW1 5594   4.304   5.215   4.855
 1565SOL    HW2 5595   4.267   5.072   4.786
 1566SOL     OW 5596   5.227   4.831   3.671
 1566SOL    HW1 5597   5.179   4.782   3.744
 1566SOL    HW2 5598   5.199   4.927   3.672
 1567SOL     OW 5599   5.663   5.348   0.241
 1567SOL    HW1 5600   5.573   5.354   0.285
 1567SOL    HW2 5601   5.735   5.359   0.310
 1568SOL     OW 5602   1.619   5.968   1.158
 1568SOL    HW1 5603   1.680   5.918   1.219
 1568SOL    HW2 5604   1.616   6.064   1.184
 1569SOL     OW 5605   3.803   6.392   3.456
 1569SOL    HW1 5606   3.731   6.439   3.508
 1569SOL    HW2 5607   3.804   6.295   3.481
 1570SOL     OW 5608   2.052   6.539   0.702
 1570SOL    HW1 5609   1.957   6.514   0.684
 1570SOL    HW2 5610   2.109   6.513   0.624
 1571SOL     OW 5611   5.973   1.649   1.840
 1571SOL    HW1 5612   6.019   1.679   1.923
 1571SOL    HW2 5613   6.036   1.594   1.785
 1572SOL     OW 5614   0.443   6.831   0.532
 1572SOL    HW1 5615   0.542   6.816   0.537
 1572SOL    HW2 5616   0.425   6.926   0.508
 1573SOL     OW 5617   5.998   3.605   2.024
 1573SOL    HW1 5618   6.072   3.544   1.996
 1573SOL    HW2 5619   6.035   3.695   2.047
 1574SOL     OW 5620   0.197   0.842   2.532
 1574SOL    HW1 5621   0.140   0.836   2.614
 1574SOL    HW2 5622   0.183   0.932   2.489
 1575SOL     OW 5623   3.040   1.906   0.779
 1575SOL    HW1 5624   3.013   2.002   0.784
 1575SOL    HW2 5625   2.959   1.848   0.775
 1576SOL     OW 5626   1.491   0.418   3.277
 1576SOL    HW1 5627   1.435   0.487   3.322
 1576SOL    HW2 5628   1.583   0.419   3.316
 1577SOL     OW 5629   2.495   0.682   5.077
 1577SOL    HW1 5630   2.505   0.619   5.000
 1577SOL    HW2 5631   2.488   0.776   5.043
 1578SOL     OW 5632   5.893   2.812   5.649
 1578SOL    HW1 5633   5.952   2.859   5.716
 1578SOL    HW2 5634   5.806   2.862   5.642
 1579SOL     OW 5635   0.759   1.633   2.334
 1579SOL    HW1 5636   0.797   1.700   2.270
 1579SOL    HW2 5637   0.679   1.590   2.294
 1580SOL     OW 5638   3.153   4.093   4.447
 1580SOL    HW1 5639   3.118   4.185   4.461
 1580SOL    HW2 5640   3.200   4.062   4.531
 1581SOL     OW 5641   0.266   4.060   4.975
 1581SOL    HW1 5642   0.326   3.994   4.931
 1581SOL    HW2 5643   0.244   4.134   4.911
 1582SOL     OW 5644   1.971   0.050   4.104
 1582SOL    HW1 5645   2.047   0.084   4.049
 1582SOL    HW2 5646   1.885   0.083   4.065
 1583SOL     OW 5647   1.210   4.726   3.095
 1583SOL    HW1 5648   1.253   4.738   3.185
 1583SOL    HW2 5649   1.271   4.672   3.037
 1584SOL     OW 5650   1.511   6.373   5.699
 1584SOL    HW1 5651   1.459   6.410   5.777
 1584SOL    HW2 5652   1.447   6.338   5.631
 1585SOL     OW 5653   5.595   1.437   3.436
 1585SOL    HW1 5654   5.685   1.437   3.481
 1585SOL    HW2 5655   5.527   1.479   3.496
 1586SOL     OW 5656   3.325   4.994   2.185
 1586SOL    HW1 5657   3.364   4.975   2.095
 1586SOL    HW2 5658   3.240   4.941   2.196
 1587SOL     OW 5659   3.295   5.495   6.117
 1587SOL    HW1 5660   3.221   5.456   6.173
 1587SOL    HW2 5661   3.281   5.470   6.022
 1588SOL     OW 5662   4.261   1.219   3.218
 1588SOL    HW1 5663   4.247   1.127   3.182
 1588SOL    HW2 5664   4.200   1.234   3.296
 1589SOL     OW 5665   5.908   3.373   1.471
 1589SOL    HW1 5666   5.835   3.381   1.403
 1589SOL    HW2 5667   5.986   3.325   1.432
 1590SOL     OW 5668   3.737   6.178   5.853
 1590SOL    HW1 5669   3.726   6.121   5.772
 1590SOL    HW2 5670   3.663   6.159   5.917
 1591SOL     OW 5671   6.692   4.895   2.565
 1591SOL    HW1 5672   6.711   4.931   2.473
 1591SOL    HW2 5673   6.773   4.905   2.622
 1592SOL     OW 5674   2.250   4.446   6.406
 1592SOL    HW1 5675   2.174   4.416   6.464
 1592SOL    HW2 5676   2.319   4.374   6.403
 1593SOL     OW 5677   1.134   6.085   4.645
 1593SOL    HW1 5678   1.066   6.135   4.592
 1593SOL    HW2 5679   1.187   6.025   4.584
 1594SOL     OW 5680   0.551   5.989   2.404
 1594SOL    HW1 5681   0.636   5.937   2.410
 1594SOL    HW2 5682   0.533   6.013   2.309
 1595SOL     OW 5683   1.391   5.575   0.591
 1595SOL    HW1 5684   1.365   5.500   0.653
 1595SOL    HW2 5685   1.339   5.657   0.615
 1596SOL     OW 5686   0.343   2.379   3.741
 1596SOL    HW1 5687   0.297   2.291   3.733
 1596SOL    HW2 5688   0.406   2.391   3.664
 1597SOL     OW 5689   2.032   6.617   0.209
 1597SOL    HW1 5690   2.128   6.644   0.202
 1597SOL    HW2 5691   2.007   6.563   0.129
 1598SOL     OW 5692   1.034   3.844   6.190
 1598SOL    HW1 5693   1.054   3.824   6.094
 1598SOL    HW2 5694   1.024   3.942   6.203
 1599SOL     OW 5695   4.963   4.624   5.290
 1599SOL    HW1 5696   4.919   4.578   5.367
 1599SOL    HW2 5697   4.940   4.578   5.205
 1600SOL     OW 5698   4.621   1.768   4.047
 1600SOL    HW1 5699   4.533   1.785   4.002
 1600SOL    HW2 5700   4.639   1.670   4.046
 1601SOL     OW 5701   0.057   4.605   4.820
 1601SOL    HW1 5702   0.030   4.678   4.758
 1601SOL    HW2 5703   7.013   4.532   4.817
 1602SOL     OW 5704   2.904   4.825   3.510
 1602SOL    HW1 5705   2.981   4.815   3.573
 1602SOL    HW2 5706   2.938   4.828   3.416
 1603SOL     OW 5707   0.871   6.172   2.353
 1603SOL    HW1 5708   0.878   6.233   2.432
 1603SOL    HW2 5709   0.793   6.199   2.297
 1604SOL     OW 5710   5.636   5.220   1.990
 1604SOL    HW1 5711   5.657   5.136   1.939
 1604SOL    HW2 5712   5.616   5.197   2.085
 1605SOL     OW 5713   6.930   6.241   1.599
 1605SOL    HW1 5714   6.918   6.210   1.505
 1605SOL    HW2 5715   0.002   6.266   1.614
 1606SOL     OW 5716   3.270   0.741   4.783
 1606SOL    HW1 5717   3.331   0.758   4.706
 1606SOL    HW2 5718   3.208   0.819   4.795
 1607SOL     OW 5719   4.363   1.106   1.023
 1607SOL    HW1 5720   4.348   1.034   0.955
 1607SOL    HW2 5721   4.461   1.124   1.032
 1608SOL     OW 5722   0.806   0.606   3.789
 1608SOL    HW1 5723   0.839   0.553   3.867
 1608SOL    HW2 5724   0.707   0.616   3.794
 1609SOL     OW 5725   3.802   0.190   0.555
 1609SOL    HW1 5726   3.715   0.148   0.582
 1609SOL    HW2 5727   3.853   0.126   0.498
 1610SOL     OW 5728   5.743   4.587   7.004
 1610SOL    HW1 5729   5.790   4.524   6.943
 1610SOL    HW2 5730   5.754   4.681   6.970
 1611SOL     OW 5731   2.229   3.613   1.042
 1611SOL    HW1 5732   2.156   3.672   1.008
 1611SOL    HW2 5733   2.218   3.598   1.140
 1612SOL     OW 5734   2.839   0.723   5.715
 1612SOL    HW1 5735   2.748   0.717   5.757
 1612SOL    HW2 5736   2.830   0.746   5.618
 1613SOL     OW 5737   2.214   5.250   1.965
 1613SOL    HW1 5738   2.284   5.186   1.935
 1613SOL    HW2 5739   2.252   5.343   1.969
 1614SOL     OW 5740   5.857   3.785   6.791
 1614SOL    HW1 5741   5.940   3.739   6.822
 1614SOL    HW2 5742   5.801   3.808   6.871
 1615SOL     OW 5743   6.338   4.797   0.853
 1615SOL    HW1 5744   6.322   4.874   0.914
 1615SOL    HW2 5745   6.316   4.712   0.901
 1616SOL     OW 5746   3.123   0.990   4.802
 1616SOL    HW1 5747   3.132   1.086   4.779
 1616SOL    HW2 5748   3.095   0.980   4.897
 1617SOL     OW 5749   5.992   0.546   2.662
 1617SOL    HW1 5750   6.040   0.468   2.623
 1617SOL    HW2 5751   5.895   0.524   2.674
 1618SOL     OW 5752   1.974   3.882   1.927
 1618SOL    HW1 5753   1.885   3.925   1.916
 1618SOL    HW2 5754   1.962   3.783   1.937
 1619SOL     OW 5755   1.035   3.032   2.518
 1619SOL    HW1 5756   1.010   2.942   2.554
 1619SOL    HW2 5757   0.989   3.046   2.430
 1620SOL     OW 5758   2.704   4.859   1.797
 1620SOL    HW1 5759   2.783   4.821   1.748
 1620SOL    HW2 5760   2.639   4.786   1.817
 1621SOL     OW 5761   0.392   0.964   0.579
 1621SOL    HW1 5762   0.483   0.975   0.619
 1621SOL    HW2 5763   0.400   0.968   0.479
 1622SOL     OW 5764   0.436   3.003   4.729
 1622SOL    HW1 5765   0.364   2.984   4.796
 1622SOL    HW2 5766   0.513   3.046   4.776
 1623SOL     OW 5767   2.111   3.321   5.707
 1623SOL    HW1 5768   2.188   3.323   5.643
 1623SOL    HW2 5769   2.033   3.368   5.666
 1624SOL     OW 5770   2.882   0.637   5.160
 1624SOL    HW1 5771   2.861   0.685   5.075
 1624SOL    HW2 5772   2.829   0.552   5.164
 1625SOL     OW 5773   1.206   5.401   1.628
 1625SOL    HW1 5774   1.183   5.310   1.662
 1625SOL    HW2 5775   1.140   5.468   1.663
 1626SOL     OW 5776   4.035   2.058   6.866
 1626SOL    HW1 5777   4.130   2.034   6.850
 1626SOL    HW2 5778   3.975   1.994   6.818
 1627SOL     OW 5779   0.277   3.598   3.764
 1627SOL    HW1 5780   0.337   3.538   3.816
 1627SOL    HW2 5781   0.204   3.543   3.721
 1628SOL     OW 5782   4.306   5.098   0.335
 1628SOL    HW1 5783   4.374   5.102   0.409
 1628SOL    HW2 5784   4.218   5.128   0.370
 1629SOL     OW 5785   2.810   0.943   4.198
 1629SOL    HW1 5786   2.818   0.909   4.104
 1629SOL    HW2 5787   2.770   0.872   4.256
 1630SOL     OW 5788   1.650   5.624   5.573
 1630SOL    HW1 5789   1.716   5.549   5.583
 1630SOL    HW2 5790   1.583   5.619   5.648
 1631SOL     OW 5791   0.747   2.522   6.215
 1631SOL    HW1 5792   0.739   2.456   6.289
 1631SOL    HW2 5793   0.824   2.497   6.156
 1632SOL     OW 5794   0.155   1.967   6.779
 1632SOL    HW1 5795   0.066   2.003   6.750
 1632SOL    HW2 5796   0.215   2.042   6.803
 1633SOL     OW 5797   5.361   3.068   4.915
 1633SOL    HW1 5798   5.307   3.149   4.939
 1633SOL    HW2 5799   5.448   3.096   4.877
 1634SOL     OW 5800   3.940   5.370   6.319
 1634SOL    HW1 5801   3.991   5.306   6.376
 1634SOL    HW2 5802   3.926   5.330   6.228
 1635SOL     OW 5803   7.011   5.961   5.840
 1635SOL    HW1 5804   0.047   5.882   5.838
 1635SOL    HW2 5805   6.997   5.991   5.934
 1636SOL     OW 5806   3.012   4.328   1.708
 1636SOL    HW1 5807   3.001   4.387   1.788
 1636SOL    HW2 5808   2.943   4.256   1.710
 1637SOL     OW 5809   1.005   0.465   2.766
 1637SOL    HW1 5810   0.995   0.417   2.853
 1637SOL    HW2 5811   0.981   0.403   2.691
 1638SOL     OW 5812   0.284   4.485   3.505
 1638SOL    HW1 5813   0.352   4.502   3.434
 1638SOL    HW2 5814   0.295   4.392   3.541
 1639SOL     OW 5815   5.009   6.832   2.801
 1639SOL    HW1 5816   4.948   6.880   2.737
 1639SOL    HW2 5817   4.969   6.835   2.893
 1640SOL     OW 5818   6.027   1.168   0.353
 1640SOL    HW1 5819   5.953   1.176   0.285
 1640SOL    HW2 5820   6.026   1.249   0.412
 1641SOL     OW 5821   5.130   2.696   3.975
 1641SOL    HW1 5822   5.126   2.766   4.047
 1641SOL    HW2 5823   5.039   2.684   3.936
 1642SOL     OW 5824   5.629   3.749   6.645
 1642SOL    HW1 5825   5.712   3.754   6.700
 1642SOL    HW2 5826   5.583   3.838   6.645
 1643SOL     OW 5827   2.802   5.177   4.084
 1643SOL    HW1 5828   2.723   5.124   4.055
 1643SOL    HW2 5829   2.772   5.258   4.134
 1644SOL     OW 5830   0.149   2.897   0.909
 1644SOL    HW1 5831   0.128   2.950   0.826
 1644SOL    HW2 5832   0.247   2.902   0.928
 1645SOL     OW 5833   3.297   5.962   5.625
 1645SOL    HW1 5834   3.198   5.964   5.612
 1645SOL    HW2 5835   3.343   5.973   5.536
 1646SOL     OW 5836   2.989   5.883   0.457
 1646SOL    HW1 5837   3.038   5.881   0.544
 1646SOL    HW2 5838   3.011   5.801   0.404
 1647SOL     OW 5839   6.400   3.302   5.161
 1647SOL    HW1 5840   6.333   3.245   5.208
 1647SOL    HW2 5841   6.396   3.285   5.062
 1648SOL     OW 5842   5.655   5.264   1.235
 1648SOL    HW1 5843   5.708   5.192   1.189
 1648SOL    HW2 5844   5.706   5.349   1.234
 1649SOL     OW 5845   3.359   0.404   4.566
 1649SOL    HW1 5846   3.280   0.398   4.504
 1649SOL    HW2 5847   3.378   0.314   4.605
 1650SOL     OW 5848   2.151   5.896   5.342
 1650SOL    HW1 5849   2.212   5.964   5.383
 1650SOL    HW2 5850   2.163   5.808   5.387
 1651SOL     OW 5851   0.390   1.487   0.988
 1651SOL    HW1 5852   0.435   1.411   0.941
 1651SOL    HW2 5853   0.295   1.492   0.959
 1652SOL     OW 5854   0.824   3.457   2.630
 1652SOL    HW1 5855   0.791   3.364   2.610
 1652SOL    HW2 5856   0.847   3.464   2.727
 1653SOL     OW 5857   1.396   0.388   1.260
 1653SOL    HW1 5858   1.368   0.305   1.308
 1653SOL    HW2 5859   1.489   0.413   1.287
 1654SOL     OW 5860   6.784   3.250   1.380
 1654SOL    HW1 5861   6.739   3.328   1.338
 1654SOL    HW2 5862   6.718   3.199   1.436
 1655SOL     OW 5863   6.537   2.888   5.329
 1655SOL    HW1 5864   6.618   2.874   5.271
 1655SOL    HW2 5865   6.455   2.887   5.272
 1656SOL     OW 5866   2.385   4.658   1.740
 1656SOL    HW1 5867   2.361   4.734   1.800
 1656SOL    HW2 5868   2.366   4.684   1.645
 1657SOL     OW 5869   6.712   0.641   3.671
 1657SOL    HW1 5870   6.648   0.706   3.630
 1657SOL    HW2 5871   6.666   0.553   3.686
 1658SOL     OW 5872   1.235   6.849   1.147
 1658SOL    HW1 5873   1.267   6.932   1.102
 1658SOL    HW2 5874   1.192   6.873   1.234
 1659SOL     OW 5875   3.797   0.443   6.330
 1659SOL    HW1 5876   3.838   0.364   6.284
 1659SOL    HW2 5877   3.789   0.425   6.428
 1660SOL     OW 5878   1.156   5.350   3.920
 1660SOL    HW1 5879   1.079   5.306   3.966
 1660SOL    HW2 5880   1.232   5.360   3.984
 1661SOL     OW 5881   2.652   1.137   1.892
 1661SOL    HW1 5882   2.734   1.192   1.874
 1661SOL    HW2 5883   2.599   1.127   1.808
 1662SOL     OW 5884   6.892   6.788   3.894
 1662SOL    HW1 5885   6.819   6.756   3.833
 1662SOL    HW2 5886   6.888   6.737   3.980
 1663SOL     OW 5887   4.102   6.748   2.806
 1663SOL    HW1 5888   4.029   6.715   2.746
 1663SOL    HW2 5889   4.069   6.825   2.860
 1664SOL     OW 5890   2.279   6.622   4.605
 1664SOL    HW1 5891   2.286   6.701   4.666
 1664SOL    HW2 5892   2.187   6.618   4.567
 1665SOL     OW 5893   0.068   1.446   3.547
 1665SOL    HW1 5894   0.105   1.519   3.605
 1665SOL    HW2 5895   0.009   1.386   3.602
 1666SOL     OW 5896   5.521   2.867   7.015
 1666SOL    HW1 5897   5.457   2.833   0.059
 1666SOL    HW2 5898   5.601   2.807   7.011
 1667SOL     OW 5899   6.526   6.776   1.546
 1667SOL    HW1 5900   6.533   6.792   1.644
 1667SOL    HW2 5901   6.560   6.856   1.496
 1668SOL     OW 5902   5.645   6.546   5.544
 1668SOL    HW1 5903   5.548   6.522   5.548
 1668SOL    HW2 5904   5.657   6.643   5.565
 1669SOL     OW 5905   0.148   5.799   6.353
 1669SOL    HW1 5906   0.129   5.874   6.290
 1669SOL    HW2 5907   0.147   5.712   6.304
 1670SOL     OW 5908   0.547   3.918   6.417
 1670SOL    HW1 5909   0.644   3.903   6.434
 1670SOL    HW2 5910   0.530   4.014   6.397
 1671SOL     OW 5911   4.688   2.154   1.076
 1671SOL    HW1 5912   4.675   2.253   1.084
 1671SOL    HW2 5913   4.706   2.115   1.167
 1672SOL     OW 5914   1.786   2.912   0.849
 1672SOL    HW1 5915   1.878   2.950   0.837
 1672SOL    HW2 5916   1.790   2.834   0.911
 1673SOL     OW 5917   0.328   2.515   3.964
 1673SOL    HW1 5918   0.403   2.496   4.028
 1673SOL    HW2 5919   0.333   2.451   3.887
 1674SOL     OW 5920   0.295   4.258   2.132
 1674SOL    HW1 5921   0.383   4.218   2.107
 1674SOL    HW2 5922   0.291   4.270   2.231
 1675SOL     OW 5923   3.964   0.881   6.315
 1675SOL    HW1 5924   4.015   0.961   6.346
 1675SOL    HW2 5925   4.029   0.812   6.282
 1676SOL     OW 5926   2.285   2.022   2.198
 1676SOL    HW1 5927   2.334   2.107   2.179
 1676SOL    HW2 5928   2.246   1.986   2.114
 1677SOL     OW 5929   3.137   2.788   5.246
 1677SOL    HW1 5930   3.069   2.828   5.307
 1677SOL    HW2 5931   3.173   2.704   5.286
 1678SOL     OW 5932   4.549   4.748   4.636
 1678SOL    HW1 5933   4.572   4.844   4.653
 1678SOL    HW2 5934   4.459   4.728   4.674
 1679SOL     OW 5935   2.567   2.406   4.764
 1679SOL    HW1 5936   2.590   2.430   4.670
 1679SOL    HW2 5937   2.496   2.467   4.798
 1680SOL     OW 5938   0.562   3.444   4.761
 1680SOL    HW1 5939   0.493   3.372   4.771
 1680SOL    HW2 5940   0.652   3.408   4.785
 1681SOL     OW 5941   6.254   5.940   0.202
 1681SOL    HW1 5942   6.275   5.849   0.168
 1681SOL    HW2 5943   6.155   5.954   0.202
 1682SOL     OW 5944   0.179   1.497   5.033
 1682SOL    HW1 5945   0.257   1.446   4.997
 1682SOL    HW2 5946   0.104   1.493   4.967
 1683SOL     OW 5947   4.230   5.594   1.267
 1683SOL    HW1 5948   4.261   5.666   1.330
 1683SOL    HW2 5949   4.169   5.634   1.199
 1684SOL     OW 5950   1.569   6.078   2.776
 1684SOL    HW1 5951   1.648   6.139   2.784
 1684SOL    HW2 5952   1.501   6.103   2.845
 1685SOL     OW 5953   2.413   1.117   5.986
 1685SOL    HW1 5954   2.424   1.107   5.887
 1685SOL    HW2 5955   2.348   1.048   6.019
 1686SOL     OW 5956   2.537   5.284   4.581
 1686SOL    HW1 5957   2.516   5.375   4.545
 1686SOL    HW2 5958   2.485   5.269   4.665
 1687SOL     OW 5959   2.455   3.510   0.923
 1687SOL    HW1 5960   2.438   3.557   0.836
 1687SOL    HW2 5961   2.377   3.523   0.984
 1688SOL     OW 5962   1.961   2.163   4.556
 1688SOL    HW1 5963   1.891   2.093   4.546
 1688SOL    HW2 5964   2.042   2.123   4.599
 1689SOL     OW 5965   5.171   1.413   2.208
 1689SOL    HW1 5966   5.205   1.473   2.135
 1689SOL    HW2 5967   5.077   1.386   2.187
 1690SOL     OW 5968   1.709   2.871   3.589
 1690SOL    HW1 5969   1.709   2.933   3.668
 1690SOL    HW2 5970   1.673   2.782   3.617
 1691SOL     OW 5971   5.782   3.962   3.457
 1691SOL    HW1 5972   5.836   4.045   3.447
 1691SOL    HW2 5973   5.695   3.973   3.409
 1692SOL     OW 5974   5.852   0.312   1.637
 1692SOL    HW1 5975   5.947   0.341   1.623
 1692SOL    HW2 5976   5.799   0.387   1.675
 1693SOL     OW 5977   0.565   2.223   1.865
 1693SOL    HW1 5978   0.610   2.299   1.910
 1693SOL    HW2 5979   0.514   2.170   1.933
 1694SOL     OW 5980   5.502   0.473   3.410
 1694SOL    HW1 5981   5.555   0.490   3.493
 1694SOL    HW2 5982   5.564   0.460   3.333
 1695SOL     OW 5983   3.272   1.774   6.462
 1695SOL    HW1 5984   3.331   1.709   6.510
 1695SOL    HW2 5985   3.215   1.822   6.528
 1696SOL     OW 5986   4.934   4.481   0.711
 1696SOL    HW1 5987   4.966   4.558   0.657
 1696SOL    HW2 5988   4.927   4.508   0.807
 1697SOL     OW 5989   5.662   6.184   1.800
 1697SOL    HW1 5990   5.701   6.126   1.871
 1697SOL    HW2 5991   5.605   6.255   1.843
 1698SOL     OW 5992   4.485   0.875   0.088
 1698SOL    HW1 5993   4.478   0.966   0.047
 1698SOL    HW2 5994   4.393   0.843   0.114
 1699SOL     OW 5995   2.663   1.185   0.793
 1699SOL    HW1 5996   2.632   1.221   0.881
 1699SOL    HW2 5997   2.688   1.261   0.733
 1700SOL     OW 5998   5.381   2.174   3.386
 1700SOL    HW1 5999   5.440   2.111   3.437
 1700SOL    HW2 6000   5.318   2.219   3.450
 1701SOL     OW 6001   5.240   4.462   5.528
 1701SOL    HW1 6002   5.336   4.487   5.535
 1701SOL    HW2 6003   5.206   4.484   5.436
 1702SOL     OW 6004   6.981   2.901   0.026
 1702SOL    HW1 6005   0.053   2.876   0.025
 1702SOL    HW2 6006   6.967   2.976   0.089
 1703SOL     OW 6007   3.480   3.171   2.308
 1703SOL    HW1 6008   3.469   3.071   2.312
 1703SOL    HW2 6009   3.413   3.209   2.244
 1704SOL     OW 6010   0.897   2.297   1.447
 1704SOL    HW1 6011   0.855   2.337   1.366
 1704SOL    HW2 6012   0.860   2.341   1.529
 1705SOL     OW 6013   3.550   2.069   1.386
 1705SOL    HW1 6014   3.494   2.151   1.390
 1705SOL    HW2 6015   3.500   1.992   1.427
 1706SOL     OW 6016   4.886   1.282   1.401
 1706SOL    HW1 6017   4.873   1.374   1.365
 1706SOL    HW2 6018   4.959   1.236   1.350
 1707SOL     OW 6019   4.976   2.053   2.680
 1707SOL    HW1 6020   4.986   2.049   2.780
 1707SOL    HW2 6021   4.885   2.021   2.655
 1708SOL     OW 6022   5.215   5.181   2.480
 1708SOL    HW1 6023   5.174   5.139   2.561
 1708SOL    HW2 6024   5.145   5.234   2.432
 1709SOL     OW 6025   2.798   5.480   1.347
 1709SOL    HW1 6026   2.719   5.503   1.402
 1709SOL    HW2 6027   2.802   5.381   1.332
 1710SOL     OW 6028   5.503   4.829   3.677
 1710SOL    HW1 6029   5.505   4.821   3.776
 1710SOL    HW2 6030   5.410   4.850   3.647
 1711SOL     OW 6031   1.392   4.769   4.516
 1711SOL    HW1 6032   1.316   4.713   4.548
 1711SOL    HW2 6033   1.363   4.864   4.510
 1712SOL     OW 6034   0.030   3.297   5.878
 1712SOL    HW1 6035   0.072   3.257   5.960
 1712SOL    HW2 6036   0.093   3.363   5.837
 1713SOL     OW 6037   4.101   2.248   1.817
 1713SOL    HW1 6038   4.011   2.215   1.789
 1713SOL    HW2 6039   4.118   2.223   1.912
 1714SOL     OW 6040   3.761   1.884   5.247
 1714SOL    HW1 6041   3.789   1.850   5.336
 1714SOL    HW2 6042   3.753   1.983   5.251
 1715SOL     OW 6043   6.802   4.259   2.709
 1715SOL    HW1 6044   6.901   4.253   2.721
 1715SOL    HW2 6045   6.766   4.330   2.770
 1716SOL     OW 6046   4.478   6.968   3.142
 1716SOL    HW1 6047   4.552   6.965   3.209
 1716SOL    HW2 6048   4.391   6.946   3.187
 1717SOL     OW 6049   2.325   5.916   6.020
 1717SOL    HW1 6050   2.257   5.844   6.028
 1717SOL    HW2 6051   2.408   5.878   5.979
 1718SOL     OW 6052   2.392   2.228   1.949
 1718SOL    HW1 6053   2.439   2.250   2.034
 1718SOL    HW2 6054   2.299   2.264   1.952
 1719SOL     OW 6055   2.111   3.921   0.727
 1719SOL    HW1 6056   2.026   3.971   0.714
 1719SOL    HW2 6057   2.092   3.830   0.762
 1720SOL     OW 6058   0.618   2.805   0.133
 1720SOL    HW1 6059   0.527   2.827   0.098
 1720SOL    HW2 6060   0.682   2.799   0.057
 1721SOL     OW 6061   1.375   6.650   1.785
 1721SOL    HW1 6062   1.460   6.604   1.811
 1721SOL    HW2 6063   1.396   6.733   1.733
 1722SOL     OW 6064   4.420   2.354   4.441
 1722SOL    HW1 6065   4.451   2.283   4.505
 1722SOL    HW2 6066   4.322   2.369   4.453
 1723SOL     OW 6067   0.046   2.771   2.156
 1723SOL    HW1 6068   0.132   2.822   2.149
 1723SOL    HW2 6069   0.003   2.767   2.066
 1724SOL     OW 6070   6.195   2.268   0.609
 1724SOL    HW1 6071   6.259   2.345   0.601
 1724SOL    HW2 6072   6.191   2.238   0.704
 1725SOL     OW 6073   2.557   4.989   6.581
 1725SOL    HW1 6074   2.581   5.082   6.553
 1725SOL    HW2 6075   2.505   4.993   6.666
 1726SOL     OW 6076   4.944   4.823   5.493
 1726SOL    HW1 6077   4.945   4.757   5.419
 1726SOL    HW2 6078   4.866   4.805   5.553
 1727SOL     OW 6079   3.850   3.310   4.506
 1727SOL    HW1 6080   3.871   3.242   4.576
 1727SOL    HW2 6081   3.751   3.310   4.489
 1728SOL     OW 6082   5.023   5.076   5.463
 1728SOL    HW1 6083   4.951   5.121   5.410
 1728SOL    HW2 6084   4.994   4.983   5.486
 1729SOL     OW 6085   2.142   3.613   3.150
 1729SOL    HW1 6086   2.153   3.700   3.102
 1729SOL    HW2 6087   2.087   3.551   3.095
 1730SOL     OW 6088   0.697   0.011   5.751
 1730SOL    HW1 6089   0.687   0.086   5.686
 1730SOL    HW2 6090   0.683   6.948   5.704
 1731SOL     OW 6091   0.007   4.335   2.117
 1731SOL    HW1 6092   6.976   4.252   2.119
 1731SOL    HW2 6093   0.104   4.310   2.121
 1732SOL     OW 6094   2.743   4.595   5.592
 1732SOL    HW1 6095   2.726   4.693   5.581
 1732SOL    HW2 6096   2.729   4.549   5.505
 1733SOL     OW 6097   1.531   4.039   2.162
 1733SOL    HW1 6098   1.483   4.007   2.081
 1733SOL    HW2 6099   1.574   4.128   2.142
 1734SOL     OW 6100   4.687   3.281   1.493
 1734SOL    HW1 6101   4.696   3.227   1.409
 1734SOL    HW2 6102   4.736   3.237   1.567
 1735SOL     OW 6103   5.239   6.011   1.706
 1735SOL    HW1 6104   5.312   6.044   1.766
 1735SOL    HW2 6105   5.166   5.971   1.761
 1736SOL     OW 6106   3.582   2.973   0.994
 1736SOL    HW1 6107   3.542   2.884   0.972
 1736SOL    HW2 6108   3.528   3.018   1.065
 1737SOL     OW 6109   2.395   1.470   4.524
 1737SOL    HW1 6110   2.388   1.557   4.574
 1737SOL    HW2 6111   2.475   1.472   4.465
 1738SOL     OW 6112   2.258   1.758   4.094
 1738SOL    HW1 6113   2.340   1.766   4.037
 1738SOL    HW2 6114   2.285   1.737   4.189
 1739SOL     OW 6115   6.229   2.302   5.375
 1739SOL    HW1 6116   6.244   2.395   5.342
 1739SOL    HW2 6117   6.259   2.237   5.305
 1740SOL     OW 6118   6.656   2.077   5.608
 1740SOL    HW1 6119   6.607   2.062   5.694
 1740SOL    HW2 6120   6.597   2.128   5.545
 1741SOL     OW 6121   1.774   0.654   3.862
 1741SOL    HW1 6122   1.777   0.672   3.960
 1741SOL    HW2 6123   1.728   0.729   3.815
 1742SOL     OW 6124   5.070   0.361   6.141
 1742SOL    HW1 6125   5.119   0.379   6.056
 1742SOL    HW2 6126   5.129   0.384   6.219
 1743SOL     OW 6127   1.280   2.887   1.883
 1743SOL    HW1 6128   1.305   2.902   1.979
 1743SOL    HW2 6129   1.204   2.947   1.859
 1744SOL     OW 6130   0.478   1.032   2.304
 1744SOL    HW1 6131   0.413   0.959   2.285
 1744SOL    HW2 6132   0.452   1.114   2.253
 1745SOL     OW 6133   5.882   7.024   3.637
 1745SOL    HW1 6134   5.807   0.031   3.579
 1745SOL    HW2 6135   5.897   6.926   3.621
 1746SOL     OW 6136   2.478   4.858   5.022
 1746SOL    HW1 6137   2.432   4.834   4.936
 1746SOL    HW2 6138   2.425   4.928   5.069
 1747SOL     OW 6139   5.661   1.903   2.868
 1747SOL    HW1 6140   5.760   1.915   2.858
 1747SOL    HW2 6141   5.618   1.904   2.778
 1748SOL     OW 6142   1.192   0.786   4.165
 1748SOL    HW1 6143   1.111   0.818   4.213
 1748SOL    HW2 6144   1.232   0.861   4.112
 1749SOL     OW 6145   2.781   0.127   4.503
 1749SOL    HW1 6146   2.867   0.174   4.482
 1749SOL    HW2 6147   2.793   0.074   4.587
 1750SOL     OW 6148   6.176   0.116   4.037
 1750SOL    HW1 6149   6.117   0.163   4.103
 1750SOL    HW2 6150   6.121   0.086   3.959
 1751SOL     OW 6151   3.924   6.123   5.037
 1751SOL    HW1 6152   3.834   6.161   5.055
 1751SOL    HW2 6153   3.981   6.193   4.993
 1752SOL     OW 6154   0.154   2.418   1.564
 1752SOL    HW1 6155   0.190   2.492   1.507
 1752SOL    HW2 6156   0.192   2.331   1.534
 1753SOL     OW 6157   0.238   1.679   0.437
 1753SOL    HW1 6158   0.306   1.632   0.380
 1753SOL    HW2 6159   0.283   1.715   0.519
 1754SOL     OW 6160   2.446   3.852   1.026
 1754SOL    HW1 6161   2.395   3.810   1.101
 1754SOL    HW2 6162   2.395   3.929   0.989
 1755SOL     OW 6163   6.238   6.362   2.060
 1755SOL    HW1 6164   6.266   6.362   1.964
 1755SOL    HW2 6165   6.295   6.426   2.111
 1756SOL     OW 6166   4.152   5.088   6.156
 1756SOL    HW1 6167   4.104   5.024   6.096
 1756SOL    HW2 6168   4.109   5.089   6.246
 1757SOL     OW 6169   2.281   4.905   4.805
 1757SOL    HW1 6170   2.347   4.976   4.782
 1757SOL    HW2 6171   2.266   4.846   4.725
 1758SOL     OW 6172   1.753   0.244   4.019
 1758SOL    HW1 6173   1.706   0.322   3.978
 1758SOL    HW2 6174   1.774   0.263   4.114
 1759SOL     OW 6175   2.155   5.504   6.388
 1759SOL    HW1 6176   2.171   5.489   6.485
 1759SOL    HW2 6177   2.153   5.417   6.340
 1760SOL     OW 6178   5.587   1.815   2.595
 1760SOL    HW1 6179   5.686   1.819   2.610
 1760SOL    HW2 6180   5.564   1.729   2.547
 1761SOL     OW 6181   0.405   0.244   0.170
 1761SOL    HW1 6182   0.426   0.222   0.074
 1761SOL    HW2 6183   0.490   0.241   0.223
 1762SOL     OW 6184   0.205   1.747   4.768
 1762SOL    HW1 6185   0.209   1.839   4.730
 1762SOL    HW2 6186   0.120   1.702   4.739
 1763SOL     OW 6187   1.381   3.360   3.952
 1763SOL    HW1 6188   1.295   3.409   3.962
 1763SOL    HW2 6189   1.370   3.265   3.981
 1764SOL     OW 6190   2.062   3.599   2.274
 1764SOL    HW1 6191   2.117   3.570   2.196
 1764SOL    HW2 6192   2.119   3.652   2.337
 1765SOL     OW 6193   4.035   1.195   0.920
 1765SOL    HW1 6194   3.965   1.126   0.938
 1765SOL    HW2 6195   4.101   1.159   0.854
 1766SOL     OW 6196   4.852   3.156   2.766
 1766SOL    HW1 6197   4.878   3.224   2.697
 1766SOL    HW2 6198   4.787   3.091   2.725
 1767SOL     OW 6199   0.348   3.424   2.729
 1767SOL    HW1 6200   0.437   3.384   2.750
 1767SOL    HW2 6201   0.286   3.411   2.807
 1768SOL     OW 6202   4.016   1.603   5.258
 1768SOL    HW1 6203   4.050   1.691   5.291
 1768SOL    HW2 6204   4.090   1.553   5.213
 1769SOL     OW 6205   4.312   2.966   5.798
 1769SOL    HW1 6206   4.283   2.896   5.734
 1769SOL    HW2 6207   4.351   3.044   5.748
 1770SOL     OW 6208   6.672   5.373   4.932
 1770SOL    HW1 6209   6.587   5.390   4.882
 1770SOL    HW2 6210   6.749   5.371   4.869
 1771SOL     OW 6211   2.623   5.348   0.169
 1771SOL    HW1 6212   2.574   5.305   0.245
 1771SOL    HW2 6213   2.658   5.277   0.108
 1772SOL     OW 6214   3.610   6.426   3.129
 1772SOL    HW1 6215   3.677   6.358   3.161
 1772SOL    HW2 6216   3.627   6.513   3.176
 1773SOL     OW 6217   2.999   4.268   6.520
 1773SOL    HW1 6218   3.073   4.314   6.569
 1773SOL    HW2 6219   2.934   4.230   6.587
 1774SOL     OW 6220   4.484   0.187   1.705
 1774SOL    HW1 6221   4.551   0.164   1.634
 1774SOL    HW2 6222   4.418   0.113   1.714
 1775SOL     OW 6223   1.390   5.254   4.072
 1775SOL    HW1 6224   1.378   5.178   4.136
 1775SOL    HW2 6225   1.391   5.218   3.979
 1776SOL     OW 6226   3.447   0.540   5.822
 1776SOL    HW1 6227   3.434   0.503   5.914
 1776SOL    HW2 6228   3.433   0.639   5.824
 1777SOL     OW 6229   3.277   5.408   5.218
 1777SOL    HW1 6230   3.191   5.391   5.266
 1777SOL    HW2 6231   3.298   5.506   5.220
 1778SOL     OW 6232   4.641   2.126   4.909
 1778SOL    HW1 6233   4.666   2.045   4.855
 1778SOL    HW2 6234   4.543   2.142   4.902
 1779SOL     OW 6235   5.125   1.961   4.054
 1779SOL    HW1 6236   5.207   1.907   4.072
 1779SOL    HW2 6237   5.132   2.049   4.102
 1780SOL     OW 6238   2.464   4.719   5.841
 1780SOL    HW1 6239   2.441   4.719   5.938
 1780SOL    HW2 6240   2.449   4.810   5.803
 1781SOL     OW 6241   4.336   5.299   3.666
 1781SOL    HW1 6242   4.283   5.217   3.689
 1781SOL    HW2 6243   4.398   5.319   3.741
 1782SOL     OW 6244   2.894   1.596   3.200
 1782SOL    HW1 6245   2.843   1.640   3.275
 1782SOL    HW2 6246   2.968   1.541   3.238
 1783SOL     OW 6247   1.872   3.628   6.606
 1783SOL    HW1 6248   1.941   3.623   6.534
 1783SOL    HW2 6249   1.820   3.542   6.607
 1784SOL     OW 6250   3.165   0.626   3.826
 1784SOL    HW1 6251   3.166   0.565   3.747
 1784SOL    HW2 6252   3.074   0.627   3.867
 1785SOL     OW 6253   5.149   5.937   3.745
 1785SOL    HW1 6254   5.167   5.840   3.764
 1785SOL    HW2 6255   5.229   5.978   3.701
 1786SOL     OW 6256   1.199   3.074   0.796
 1786SOL    HW1 6257   1.259   3.047   0.872
 1786SOL    HW2 6258   1.196   3.000   0.729
 1787SOL     OW 6259   2.247   1.040   4.571
 1787SOL    HW1 6260   2.337   1.079   4.589
 1787SOL    HW2 6261   2.227   1.047   4.474
 1788SOL     OW 6262   3.017   3.182   0.298
 1788SOL    HW1 6263   3.104   3.187   0.249
 1788SOL    HW2 6264   2.999   3.087   0.324
 1789SOL     OW 6265   6.860   2.385   1.944
 1789SOL    HW1 6266   6.784   2.331   1.979
 1789SOL    HW2 6267   6.875   2.362   1.847
 1790SOL     OW 6268   3.889   6.307   4.331
 1790SOL    HW1 6269   3.841   6.392   4.351
 1790SOL    HW2 6270   3.965   6.295   4.395
 1791SOL     OW 6271   0.239   2.212   4.551
 1791SOL    HW1 6272   0.227   2.292   4.492
 1791SOL    HW2 6273   0.334   2.183   4.550
 1792SOL     OW 6274   1.057   2.385   4.127
 1792SOL    HW1 6275   1.081   2.470   4.080
 1792SOL    HW2 6276   1.050   2.311   4.060
 1793SOL     OW 6277   6.611   0.071   3.332
 1793SOL    HW1 6278   6.604   7.019   3.268
 1793SOL    HW2 6279   6.523   0.085   3.378
 1794SOL     OW 6280   5.180   6.365   6.538
 1794SOL    HW1 6281   5.276   6.343   6.518
 1794SOL    HW2 6282   5.169   6.464   6.542
 1795SOL     OW 6283   0.492   4.027   2.080
 1795SOL    HW1 6284   0.513   3.978   2.164
 1795SOL    HW2 6285   0.575   4.038   2.025
 1796SOL     OW 6286   1.865   1.165   4.972
 1796SOL    HW1 6287   1.881   1.260   4.944
 1796SOL    HW2 6288   1.767   1.148   4.981
 1797SOL     OW 6289   1.349   1.081   6.313
 1797SOL    HW1 6290   1.266   1.026   6.302
 1797SOL    HW2 6291   1.419   1.026   6.359
 1798SOL     OW 6292   4.554   2.533   5.680
 1798SOL    HW1 6293   4.587   2.627   5.688
 1798SOL    HW2 6294   4.513   2.505   5.767
 1799SOL     OW 6295   6.597   1.862   6.132
 1799SOL    HW1 6296   6.594   1.957   6.163
 1799SOL    HW2 6297   6.689   1.826   6.145
 1800SOL     OW 6298   4.357   5.215   3.381
 1800SOL    HW1 6299   4.369   5.270   3.464
 1800SOL    HW2 6300   4.307   5.269   3.314
 1801SOL     OW 6301   1.172   1.267   2.293
 1801SOL    HW1 6302   1.219   1.232   2.212
 1801SOL    HW2 6303   1.131   1.356   2.273
 1802SOL     OW 6304   5.756   4.998   2.788
 1802SOL    HW1 6305   5.772   4.974   2.693
 1802SOL    HW2 6306   5.725   4.917   2.839
 1803SOL     OW 6307   6.783   5.738   0.862
 1803SOL    HW1 6308   6.760   5.833   0.838
 1803SOL    HW2 6309   6.809   5.688   0.780
 1804SOL     OW 6310   2.327   3.506   6.171
 1804SOL    HW1 6311   2.348   3.438   6.240
 1804SOL    HW2 6312   2.309   3.461   6.083
 1805SOL     OW 6313   0.481   4.221   5.713
 1805SOL    HW1 6314   0.481   4.121   5.712
 1805SOL    HW2 6315   0.553   4.254   5.651
 1806SOL     OW 6316   1.512   1.027   1.271
 1806SOL    HW1 6317   1.523   0.988   1.362
 1806SOL    HW2 6318   1.419   1.063   1.260
 1807SOL     OW 6319   5.239   2.145   6.233
 1807SOL    HW1 6320   5.193   2.233   6.228
 1807SOL    HW2 6321   5.221   2.102   6.322
 1808SOL     OW 6322   6.050   3.789   5.147
 1808SOL    HW1 6323   6.000   3.846   5.082
 1808SOL    HW2 6324   6.120   3.736   5.098
 1809SOL     OW 6325   2.426   2.665   4.495
 1809SOL    HW1 6326   2.402   2.703   4.585
 1809SOL    HW2 6327   2.371   2.583   4.478
 1810SOL     OW 6328   2.736   0.491   5.870
 1810SOL    HW1 6329   2.667   0.557   5.841
 1810SOL    HW2 6330   2.780   0.451   5.790
 1811SOL     OW 6331   3.914   4.830   3.335
 1811SOL    HW1 6332   3.962   4.899   3.281
 1811SOL    HW2 6333   3.919   4.742   3.288
 1812SOL     OW 6334   4.318   0.061   6.618
 1812SOL    HW1 6335   4.392   0.002   6.651
 1812SOL    HW2 6336   4.233   0.039   6.667
 1813SOL     OW 6337   4.132   4.816   1.095
 1813SOL    HW1 6338   4.182   4.903   1.097
 1813SOL    HW2 6339   4.035   4.834   1.076
 1814SOL     OW 6340   6.975   0.548   7.004
 1814SOL    HW1 6341   7.002   0.570   0.074
 1814SOL    HW2 6342   6.906   0.613   6.973
 1815SOL     OW 6343   6.726   1.879   1.720
 1815SOL    HW1 6344   6.822   1.853   1.729
 1815SOL    HW2 6345   6.706   1.902   1.624
 1816SOL     OW 6346   1.933   4.191   1.094
 1816SOL    HW1 6347   1.968   4.281   1.120
 1816SOL    HW2 6348   1.943   4.128   1.171
 1817SOL     OW 6349   3.418   6.536   2.912
 1817SOL    HW1 6350   3.459   6.532   2.821
 1817SOL    HW2 6351   3.484   6.500   2.979
 1818SOL     OW 6352   2.619   6.047   2.333
 1818SOL    HW1 6353   2.665   6.095   2.258
 1818SOL    HW2 6354   2.688   6.003   2.391
 1819SOL     OW 6355   0.628   5.407   1.132
 1819SOL    HW1 6356   0.636   5.431   1.035
 1819SOL    HW2 6357   0.717   5.380   1.167
 1820SOL     OW 6358   2.652   0.468   2.388
 1820SOL    HW1 6359   2.677   0.414   2.308
 1820SOL    HW2 6360   2.673   0.565   2.370
 1821SOL     OW 6361   2.692   0.488   1.894
 1821SOL    HW1 6362   2.714   0.569   1.840
 1821SOL    HW2 6363   2.632   0.428   1.841
 1822SOL     OW 6364   1.877   3.622   1.074
 1822SOL    HW1 6365   1.781   3.637   1.051
 1822SOL    HW2 6366   1.884   3.563   1.154
 1823SOL     OW 6367   2.664   5.554   2.559
 1823SOL    HW1 6368   2.728   5.609   2.613
 1823SOL    HW2 6369   2.577   5.602   2.553
 1824SOL     OW 6370   3.502   4.007   1.554
 1824SOL    HW1 6371   3.457   4.055   1.629
 1824SOL    HW2 6372   3.475   3.911   1.553
 1825SOL     OW 6373   1.719   2.289   4.176
 1825SOL    HW1 6374   1.800   2.232   4.186
 1825SOL    HW2 6375   1.691   2.325   4.265
 1826SOL     OW 6376   3.611   0.561   1.514
 1826SOL    HW1 6377   3.693   0.617   1.504
 1826SOL    HW2 6378   3.576   0.570   1.607
 1827SOL     OW 6379   0.097   5.697   1.570
 1827SOL    HW1 6380   0.173   5.761   1.586
 1827SOL    HW2 6381   0.120   5.638   1.493
 1828SOL     OW 6382   1.127   2.894   0.609
 1828SOL    HW1 6383   1.127   2.808   0.659
 1828SOL    HW2 6384   1.036   2.912   0.573
 1829SOL     OW 6385   2.650   0.799   3.134
 1829SOL    HW1 6386   2.709   0.826   3.058
 1829SOL    HW2 6387   2.560   0.772   3.099
 1830SOL     OW 6388   6.003   6.636   3.728
 1830SOL    HW1 6389   5.905   6.622   3.715
 1830SOL    HW2 6390   6.054   6.576   3.666
 1831SOL     OW 6391   5.851   0.486   2.029
 1831SOL    HW1 6392   5.938   0.438   2.039
 1831SOL    HW2 6393   5.776   0.420   2.037
 1832SOL     OW 6394   4.625   1.462   1.293
 1832SOL    HW1 6395   4.577   1.507   1.219
 1832SOL    HW2 6396   4.591   1.496   1.381
 1833SOL     OW 6397   5.619   1.079   0.434
 1833SOL    HW1 6398   5.662   1.112   0.350
 1833SOL    HW2 6399   5.524   1.108   0.438
 1834SOL     OW 6400   2.859   3.480   0.674
 1834SOL    HW1 6401   2.866   3.410   0.602
 1834SOL    HW2 6402   2.887   3.441   0.761
 1835SOL     OW 6403   0.253   4.692   2.031
 1835SOL    HW1 6404   0.290   4.638   2.107
 1835SOL    HW2 6405   0.272   4.646   1.945
 1836SOL     OW 6406   5.018   2.072   1.496
 1836SOL    HW1 6407   4.999   2.144   1.563
 1836SOL    HW2 6408   5.116   2.071   1.476
 1837SOL     OW 6409   0.895   0.321   4.785
 1837SOL    HW1 6410   0.843   0.383   4.844
 1837SOL    HW2 6411   0.893   0.355   4.691
 1838SOL     OW 6412   0.016   1.283   4.755
 1838SOL    HW1 6413   6.947   1.319   4.749
 1838SOL    HW2 6414   0.039   1.269   4.852
 1839SOL     OW 6415   6.178   2.520   4.936
 1839SOL    HW1 6416   6.225   2.575   5.006
 1839SOL    HW2 6417   6.081   2.512   4.959
 1840SOL     OW 6418   3.925   6.969   1.605
 1840SOL    HW1 6419   3.833   6.930   1.597
 1840SOL    HW2 6420   3.918   0.043   1.619
 1841SOL     OW 6421   2.158   1.247   3.093
 1841SOL    HW1 6422   2.065   1.217   3.074
 1841SOL    HW2 6423   2.160   1.301   3.177
 1842SOL     OW 6424   1.653   5.936   0.114
 1842SOL    HW1 6425   1.681   6.032   0.122
 1842SOL    HW2 6426   1.554   5.932   0.100
 1843SOL     OW 6427   6.234   2.080   3.109
 1843SOL    HW1 6428   6.283   2.004   3.153
 1843SOL    HW2 6429   6.182   2.131   3.178
 1844SOL     OW 6430   2.997   6.854   5.385
 1844SOL    HW1 6431   3.036   6.852   5.477
 1844SOL    HW2 6432   2.979   6.760   5.355
 1845SOL     OW 6433   3.032   0.203   4.361
 1845SOL    HW1 6434   3.076   0.113   4.354
 1845SOL    HW2 6435   3.094   0.273   4.324
 1846SOL     OW 6436   3.329   1.520   1.749
 1846SOL    HW1 6437   3.309   1.594   1.686
 1846SOL    HW2 6438   3.392   1.552   1.820
 1847SOL     OW 6439   1.584   0.914   6.855
 1847SOL    HW1 6440   1.552   0.932   6.948
 1847SOL    HW2 6441   1.509   0.928   6.790
 1848SOL     OW 6442   1.662   5.837   3.622
 1848SOL    HW1 6443   1.696   5.750   3.658
 1848SOL    HW2 6444   1.563   5.830   3.609
 1849SOL     OW 6445   3.859   2.502   1.423
 1849SOL    HW1 6446   3.917   2.432   1.382
 1849SOL    HW2 6447   3.775   2.460   1.457
 1850SOL     OW 6448   0.694   2.965   1.442
 1850SOL    HW1 6449   0.629   3.040   1.428
 1850SOL    HW2 6450   0.657   2.881   1.402
 1851SOL     OW 6451   0.406   2.530   0.345
 1851SOL    HW1 6452   0.494   2.560   0.308
 1851SOL    HW2 6453   0.381   2.590   0.422
 1852SOL     OW 6454   6.358   4.529   2.697
 1852SOL    HW1 6455   6.403   4.590   2.632
 1852SOL    HW2 6456   6.345   4.439   2.654
 1853SOL     OW 6457   0.388   2.083   2.483
 1853SOL    HW1 6458   0.314   2.149   2.472
 1853SOL    HW2 6459   0.353   1.999   2.525
 1854SOL     OW 6460   2.223   5.892   2.762
 1854SOL    HW1 6461   2.141   5.839   2.783
 1854SOL    HW2 6462   2.301   5.853   2.811
 1855SOL     OW 6463   5.075   2.719   5.516
 1855SOL    HW1 6464   5.144   2.784   5.485
 1855SOL    HW2 6465   5.056   2.733   5.613
 1856SOL     OW 6466   6.092   4.123   5.768
 1856SOL    HW1 6467   6.119   4.157   5.678
 1856SOL    HW2 6468   6.140   4.174   5.839
 1857SOL     OW 6469   4.717   2.016   5.765
 1857SOL    HW1 6470   4.721   1.977   5.673
 1857SOL    HW2 6471   4.687   1.947   5.830
 1858SOL     OW 6472   5.807   4.134   3.973
 1858SOL    HW1 6473   5.805   4.035   3.986
 1858SOL    HW2 6474   5.829   4.179   4.060
 1859SOL     OW 6475   6.011   2.644   3.722
 1859SOL    HW1 6476   5.975   2.551   3.717
 1859SOL    HW2 6477   6.083   2.656   3.653
 1860SOL     OW 6478   6.714   0.609   5.586
 1860SOL    HW1 6479   6.700   0.515   5.554
 1860SOL    HW2 6480   6.746   0.665   5.509
 1861SOL     OW 6481   6.276   6.899   2.010
 1861SOL    HW1 6482   6.196   6.896   1.950
 1861SOL    HW2 6483   6.247   6.882   2.104
 1862SOL     OW 6484   3.258   0.040   6.208
 1862SOL    HW1 6485   3.274   7.003   6.131
 1862SOL    HW2 6486   3.209   7.015   6.281
 1863SOL     OW 6487   0.933   3.078   3.820
 1863SOL    HW1 6488   0.915   3.039   3.730
 1863SOL    HW2 6489   0.882   3.027   3.889
 1864SOL     OW 6490   1.786   6.764   4.618
 1864SOL    HW1 6491   1.829   6.837   4.566
 1864SOL    HW2 6492   1.801   6.779   4.716
 1865SOL     OW 6493   3.252   6.907   6.878
 1865SOL    HW1 6494   3.307   6.906   6.962
 1865SOL    HW2 6495   3.167   6.856   6.893
 1866SOL     OW 6496   5.101   5.049   3.143
 1866SOL    HW1 6497   5.038   5.070   3.067
 1866SOL    HW2 6498   5.165   5.125   3.155
 1867SOL     OW 6499   0.913   3.845   0.473
 1867SOL    HW1 6500   0.898   3.885   0.563
 1867SOL    HW2 6501   0.883   3.909   0.402
 1868SOL     OW 6502   4.921   3.141   6.141
 1868SOL    HW1 6503   4.838   3.097   6.176
 1868SOL    HW2 6504   5.002   3.098   6.183
 1869SOL     OW 6505   5.794   3.636   5.484
 1869SOL    HW1 6506   5.713   3.657   5.428
 1869SOL    HW2 6507   5.798   3.699   5.562
 1870SOL     OW 6508   1.214   2.893   5.242
 1870SOL    HW1 6509   1.249   2.869   5.333
 1870SOL    HW2 6510   1.203   2.992   5.236
 1871SOL     OW 6511   0.616   0.366   6.470
 1871SOL    HW1 6512   0.704   0.355   6.422
 1871SOL    HW2 6513   0.632   0.413   6.557
 1872SOL     OW 6514   4.049   1.655   6.733
 1872SOL    HW1 6515   4.145   1.638   6.758
 1872SOL    HW2 6516   3.989   1.610   6.800
 1873SOL     OW 6517   5.354   1.292   6.192
 1873SOL    HW1 6518   5.270   1.306   6.140
 1873SOL    HW2 6519   5.433   1.297   6.130
 1874SOL     OW 6520   2.659   0.927   0.711
 1874SOL    HW1 6521   2.683   1.023   0.723
 1874SOL    HW2 6522   2.703   0.872   0.782
 1875SOL     OW 6523   0.120   0.239   0.210
 1875SOL    HW1 6524   0.109   0.268   0.115
 1875SOL    HW2 6525   0.215   0.249   0.237
 1876SOL     OW 6526   3.800   5.984   6.289
 1876SOL    HW1 6527   3.884   5.951   6.333
 1876SOL    HW2 6528   3.824   6.050   6.218
 1877SOL     OW 6529   0.996   1.238   3.349
 1877SOL    HW1 6530   1.053   1.312   3.383
 1877SOL    HW2 6531   1.007   1.229   3.250
 1878SOL     OW 6532   0.108   3.536   4.129
 1878SOL    HW1 6533   0.168   3.471   4.176
 1878SOL    HW2 6534   0.115   3.524   4.030
 1879SOL     OW 6535   2.071   5.161   3.595
 1879SOL    HW1 6536   1.976   5.149   3.623
 1879SOL    HW2 6537   2.075   5.222   3.516
 1880SOL     OW 6538   6.597   0.412   4.105
 1880SOL    HW1 6539   6.514   0.360   4.127
 1880SOL    HW2 6540   6.650   0.363   4.036
 1881SOL     OW 6541   6.573   3.435   2.916
 1881SOL    HW1 6542   6.653   3.376   2.907
 1881SOL    HW2 6543   6.564   3.492   2.834
 1882SOL     OW 6544   1.247   4.010   0.196
 1882SOL    HW1 6545   1.194   4.094   0.207
 1882SOL    HW2 6546   1.204   3.936   0.249
 1883SOL     OW 6547   1.346   2.449   3.876
 1883SOL    HW1 6548   1.394   2.384   3.935
 1883SOL    HW2 6549   1.373   2.542   3.899
 1884SOL     OW 6550   6.295   3.217   0.085
 1884SOL    HW1 6551   6.208   3.222   0.133
 1884SOL    HW2 6552   6.352   3.295   0.111
 1885SOL     OW 6553   0.959   1.692   5.850
 1885SOL    HW1 6554   0.938   1.780   5.893
 1885SOL    HW2 6555   1.024   1.707   5.775
 1886SOL     OW 6556   2.358   0.268   1.129
 1886SOL    HW1 6557   2.425   0.223   1.188
 1886SOL    HW2 6558   2.298   0.200   1.088
 1887SOL     OW 6559   1.916   6.037   5.357
 1887SOL    HW1 6560   1.990   5.984   5.317
 1887SOL    HW2 6561   1.951   6.124   5.391
 1888SOL     OW 6562   3.044   2.414   6.795
 1888SOL    HW1 6563   2.984   2.476   6.744
 1888SOL    HW2 6564   3.121   2.466   6.832
 1889SOL     OW 6565   6.373   3.131   6.155
 1889SOL    HW1 6566   6.316   3.184   6.218
 1889SOL    HW2 6567   6.346   3.035   6.159
 1890SOL     OW 6568   1.839   6.160   4.292
 1890SOL    HW1 6569   1.762   6.205   4.248
 1890SOL    HW2 6570   1.920   6.218   4.287
 1891SOL     OW 6571   6.099   2.655   2.932
 1891SOL    HW1 6572   6.185   2.704   2.946
 1891SOL    HW2 6573   6.066   2.619   3.019
 1892SOL     OW 6574   3.098   1.128   0.901
 1892SOL    HW1 6575   3.052   1.213   0.876
 1892SOL    HW2 6576   3.195   1.135   0.881
 1893SOL     OW 6577   3.524   2.724   0.401
 1893SOL    HW1 6578   3.426   2.735   0.388
 1893SOL    HW2 6579   3.547   2.626   0.399
 1894SOL     OW 6580   4.102   3.763   3.593
 1894SOL    HW1 6581   4.016   3.716   3.574
 1894SOL    HW2 6582   4.097   3.858   3.561
 1895SOL     OW 6583   5.484   1.057   2.215
 1895SOL    HW1 6584   5.481   1.074   2.313
 1895SOL    HW2 6585   5.546   0.981   2.196
 1896SOL     OW 6586   6.412   0.597   1.527
 1896SOL    HW1 6587   6.373   0.610   1.619
 1896SOL    HW2 6588   6.475   0.519   1.529
 1897SOL     OW 6589   1.217   4.415   2.535
 1897SOL    HW1 6590   1.201   4.499   2.483
 1897SOL    HW2 6591   1.199   4.335   2.478
 1898SOL     OW 6592   3.066   4.886   2.981
 1898SOL    HW1 6593   3.014   4.963   3.017
 1898SOL    HW2 6594   3.142   4.921   2.926
 1899SOL     OW 6595   1.078   1.537   2.246
 1899SOL    HW1 6596   1.113   1.619   2.202
 1899SOL    HW2 6597   1.005   1.497   2.190
 1900SOL     OW 6598   1.381   0.674   6.431
 1900SOL    HW1 6599   1.285   0.658   6.452
 1900SOL    HW2 6600   1.434   0.680   6.516
 1901SOL     OW 6601   2.053   2.420   1.187
 1901SOL    HW1 6602   2.000   2.366   1.252
 1901SOL    HW2 6603   2.006   2.505   1.167
 1902SOL     OW 6604   2.465   1.672   4.934
 1902SOL    HW1 6605   2.549   1.717   4.963
 1902SOL    HW2 6606   2.392   1.692   4.999
 1903SOL     OW 6607   6.697   3.580   3.168
 1903SOL    HW1 6608   6.648   3.562   3.082
 1903SOL    HW2 6609   6.632   3.583   3.243
 1904SOL     OW 6610   5.756   6.350   4.264
 1904SOL    HW1 6611   5.800   6.394   4.186
 1904SOL    HW2 6612   5.672   6.305   4.233
 1905SOL     OW 6613   1.529   0.648   4.086
 1905SOL    HW1 6614   1.573   0.730   4.122
 1905SOL    HW2 6615   1.469   0.609   4.156
 1906SOL     OW 6616   1.859   0.273   5.104
 1906SOL    HW1 6617   1.949   0.232   5.118
 1906SOL    HW2 6618   1.808   0.270   5.190
 1907SOL     OW 6619   3.230   6.618   2.622
 1907SOL    HW1 6620   3.330   6.622   2.622
 1907SOL    HW2 6621   3.198   6.584   2.711
 1908SOL     OW 6622   3.581   6.802   4.911
 1908SOL    HW1 6623   3.609   6.867   4.981
 1908SOL    HW2 6624   3.483   6.813   4.893
 1909SOL     OW 6625   0.564   4.140   2.708
 1909SOL    HW1 6626   0.484   4.199   2.703
 1909SOL    HW2 6627   0.593   4.131   2.804
 1910SOL     OW 6628   0.127   3.021   6.305
 1910SOL    HW1 6629   0.143   2.932   6.264
 1910SOL    HW2 6630   0.032   3.028   6.335
 1911SOL     OW 6631   5.753   3.387   5.291
 1911SOL    HW1 6632   5.771   3.357   5.385
 1911SOL    HW2 6633   5.673   3.340   5.256
 1912SOL     OW 6634   3.592   6.107   0.724
 1912SOL    HW1 6635   3.609   6.173   0.651
 1912SOL    HW2 6636   3.495   6.108   0.747
 1913SOL     OW 6637   1.603   5.873   4.526
 1913SOL    HW1 6638   1.632   5.850   4.433
 1913SOL    HW2 6639   1.613   5.794   4.585
 1914SOL     OW 6640   3.949   2.675   6.251
 1914SOL    HW1 6641   3.967   2.619   6.332
 1914SOL    HW2 6642   3.998   2.762   6.258
 1915SOL     OW 6643   4.362   2.370   5.253
 1915SOL    HW1 6644   4.278   2.424   5.241
 1915SOL    HW2 6645   4.343   2.274   5.232
 1916SOL     OW 6646   4.139   5.902   1.118
 1916SOL    HW1 6647   4.237   5.901   1.100
 1916SOL    HW2 6648   4.089   5.886   1.033
 1917SOL     OW 6649   2.819   3.131   5.548
 1917SOL    HW1 6650   2.791   3.080   5.629
 1917SOL    HW2 6651   2.788   3.082   5.466
 1918SOL     OW 6652   0.750   1.247   5.018
 1918SOL    HW1 6653   0.691   1.225   5.095
 1918SOL    HW2 6654   0.822   1.311   5.047
 1919SOL     OW 6655   2.063   0.454   1.526
 1919SOL    HW1 6656   2.062   0.554   1.522
 1919SOL    HW2 6657   1.970   0.420   1.533
 1920SOL     OW 6658   1.332   4.560   2.727
 1920SOL    HW1 6659   1.291   4.497   2.660
 1920SOL    HW2 6660   1.424   4.585   2.697
 1921SOL     OW 6661   1.281   4.712   6.500
 1921SOL    HW1 6662   1.251   4.706   6.405
 1921SOL    HW2 6663   1.244   4.795   6.541
 1922SOL     OW 6664   2.011   4.055   1.319
 1922SOL    HW1 6665   1.947   4.030   1.392
 1922SOL    HW2 6666   2.087   4.107   1.358
 1923SOL     OW 6667   3.256   0.571   5.404
 1923SOL    HW1 6668   3.259   0.653   5.347
 1923SOL    HW2 6669   3.243   0.491   5.346
 1924SOL     OW 6670   4.557   5.603   1.242
 1924SOL    HW1 6671   4.472   5.637   1.282
 1924SOL    HW2 6672   4.632   5.664   1.266
 1925SOL     OW 6673   2.035   4.809   0.496
 1925SOL    HW1 6674   2.098   4.829   0.571
 1925SOL    HW2 6675   1.950   4.861   0.509
 1926SOL     OW 6676   2.186   6.864   3.353
 1926SOL    HW1 6677   2.228   6.912   3.430
 1926SOL    HW2 6678   2.254   6.804   3.310
 1927SOL     OW 6679   2.697   4.628   6.294
 1927SOL    HW1 6680   2.636   4.661   6.367
 1927SOL    HW2 6681   2.696   4.528   6.293
 1928SOL     OW 6682   6.872   4.692   5.636
 1928SOL    HW1 6683   6.956   4.670   5.588
 1928SOL    HW2 6684   6.893   4.716   5.731
 1929SOL     OW 6685   1.572   5.292   1.573
 1929SOL    HW1 6686   1.646   5.301   1.506
 1929SOL    HW2 6687   1.590   5.351   1.651
 1930SOL     OW 6688   3.379   4.154   6.246
 1930SOL    HW1 6689   3.411   4.100   6.169
 1930SOL    HW2 6690   3.280   4.171   6.236
 1931SOL     OW 6691   0.858   3.916   2.181
 1931SOL    HW1 6692   0.761   3.900   2.201
 1931SOL    HW2 6693   0.897   3.978   2.249
 1932SOL     OW 6694   4.890   3.103   3.376
 1932SOL    HW1 6695   4.915   3.177   3.313
 1932SOL    HW2 6696   4.874   3.141   3.467
 1933SOL     OW 6697   2.236   3.205   0.686
 1933SOL    HW1 6698   2.188   3.234   0.604
 1933SOL    HW2 6699   2.239   3.280   0.752
 1934SOL     OW 6700   0.262   0.039   5.190
 1934SOL    HW1 6701   0.287   0.076   5.101
 1934SOL    HW2 6702   0.344   0.029   5.246
 1935SOL     OW 6703   4.153   6.346   3.712
 1935SOL    HW1 6704   4.178   6.251   3.729
 1935SOL    HW2 6705   4.119   6.388   3.796
 1936SOL     OW 6706   5.979   3.679   3.738
 1936SOL    HW1 6707   6.036   3.660   3.818
 1936SOL    HW2 6708   6.034   3.728   3.670
 1937SOL     OW 6709   4.309   6.630   1.284
 1937SOL    HW1 6710   4.282   6.725   1.297
 1937SOL    HW2 6711   4.301   6.581   1.371
 1938SOL     OW 6712   2.594   1.674   1.617
 1938SOL    HW1 6713   2.618   1.756   1.669
 1938SOL    HW2 6714   2.553   1.700   1.530
 1939SOL     OW 6715   6.461   7.004   4.416
 1939SOL    HW1 6716   6.384   6.987   4.478
 1939SOL    HW2 6717   6.464   6.932   4.347
 1940SOL     OW 6718   5.518   4.876   0.955
 1940SOL    HW1 6719   5.571   4.837   0.879
 1940SOL    HW2 6720   5.526   4.976   0.953
 1941SOL     OW 6721   0.993   3.440   4.393
 1941SOL    HW1 6722   1.092   3.452   4.384
 1941SOL    HW2 6723   0.967   3.444   4.489
 1942SOL     OW 6724   5.297   2.106   1.449
 1942SOL    HW1 6725   5.291   2.127   1.351
 1942SOL    HW2 6726   5.381   2.146   1.486
 1943SOL     OW 6727   2.391   6.143   3.845
 1943SOL    HW1 6728   2.352   6.169   3.933
 1943SOL    HW2 6729   2.450   6.217   3.812
 1944SOL     OW 6730   6.170   2.957   0.002
 1944SOL    HW1 6731   6.101   2.956   0.074
 1944SOL    HW2 6732   6.229   3.036   0.014
 1945SOL     OW 6733   3.617   5.417   0.691
 1945SOL    HW1 6734   3.641   5.320   0.692
 1945SOL    HW2 6735   3.598   5.445   0.597
 1946SOL     OW 6736   5.897   6.541   0.868
 1946SOL    HW1 6737   5.886   6.584   0.779
 1946SOL    HW2 6738   5.851   6.452   0.868
 1947SOL     OW 6739   5.084   6.362   4.307
 1947SOL    HW1 6740   5.101   6.272   4.266
 1947SOL    HW2 6741   5.136   6.370   4.392
 1948SOL     OW 6742   5.709   5.264   3.443
 1948SOL    HW1 6743   5.657   5.182   3.470
 1948SOL    HW2 6744   5.806   5.248   3.459
 1949SOL     OW 6745   3.747   3.290   6.019
 1949SOL    HW1 6746   3.693   3.316   5.939
 1949SOL    HW2 6747   3.688   3.292   6.100
 1950SOL     OW 6748   4.225   3.028   0.627
 1950SOL    HW1 6749   4.133   3.023   0.666
 1950SOL    HW2 6750   4.222   3.003   0.530
 1951SOL     OW 6751   6.083   4.473   0.018
 1951SOL    HW1 6752   6.110   4.447   0.111
 1951SOL    HW2 6753   6.004   4.533   0.022
 1952SOL     OW 6754   4.737   3.554   1.419
 1952SOL    HW1 6755   4.737   3.596   1.510
 1952SOL    HW2 6756   4.683   3.470   1.421
 1953SOL     OW 6757   6.107   1.697   5.654
 1953SOL    HW1 6758   6.091   1.703   5.752
 1953SOL    HW2 6759   6.133   1.787   5.618
 1954SOL     OW 6760   6.787   0.687   2.512
 1954SOL    HW1 6761   6.699   0.663   2.471
 1954SOL    HW2 6762   6.854   0.615   2.491
 1955SOL     OW 6763   0.700   1.099   2.725
 1955SOL    HW1 6764   0.714   1.046   2.642
 1955SOL    HW2 6765   0.647   1.046   2.791
 1956SOL     OW 6766   4.712   0.506   1.908
 1956SOL    HW1 6767   4.709   0.525   1.810
 1956SOL    HW2 6768   4.619   0.485   1.941
 1957SOL     OW 6769   5.799   4.284   4.214
 1957SOL    HW1 6770   5.849   4.365   4.182
 1957SOL    HW2 6771   5.760   4.303   4.304
 1958SOL     OW 6772   4.778   1.726   1.970
 1958SOL    HW1 6773   4.749   1.820   1.953
 1958SOL    HW2 6774   4.876   1.724   1.992
 1959SOL     OW 6775   1.362   0.350   4.073
 1959SOL    HW1 6776   1.367   0.287   4.151
 1959SOL    HW2 6777   1.454   0.365   4.037
 1960SOL     OW 6778   0.229   4.643   1.590
 1960SOL    HW1 6779   0.220   4.557   1.640
 1960SOL    HW2 6780   0.316   4.644   1.541
 1961SOL     OW 6781   5.804   4.394   4.504
 1961SOL    HW1 6782   5.771   4.338   4.580
 1961SOL    HW2 6783   5.904   4.390   4.501
 1962SOL     OW 6784   1.148   6.705   2.933
 1962SOL    HW1 6785   1.235   6.755   2.929
 1962SOL    HW2 6786   1.167   6.607   2.938
 1963SOL     OW 6787   0.999   1.701   1.268
 1963SOL    HW1 6788   1.089   1.741   1.283
 1963SOL    HW2 6789   0.933   1.742   1.332
 1964SOL     OW 6790   4.724   4.689   0.978
 1964SOL    HW1 6791   4.692   4.717   1.068
 1964SOL    HW2 6792   4.784   4.609   0.987
 1965SOL     OW 6793   1.620   2.776   4.920
 1965SOL    HW1 6794   1.692   2.808   4.859
 1965SOL    HW2 6795   1.530   2.800   4.882
 1966SOL     OW 6796   0.234   6.307   0.675
 1966SOL    HW1 6797   0.290   6.251   0.737
 1966SOL    HW2 6798   0.189   6.248   0.608
 1967SOL     OW 6799   5.711   2.960   5.384
 1967SOL    HW1 6800   5.703   2.939   5.287
 1967SOL    HW2 6801   5.807   2.958   5.411
 1968SOL     OW 6802   1.337   6.899   5.139
 1968SOL    HW1 6803   1.257   6.914   5.196
 1968SOL    HW2 6804   1.401   6.974   5.151
 1969SOL     OW 6805   2.053   2.107   0.568
 1969SOL    HW1 6806   1.994   2.033   0.599
 1969SOL    HW2 6807   2.145   2.071   0.549
 1970SOL     OW 6808   3.002   6.081   6.524
 1970SOL    HW1 6809   2.935   6.135   6.474
 1970SOL    HW2 6810   3.024   6.126   6.610
 1971SOL     OW 6811   0.568   0.431   5.956
 1971SOL    HW1 6812   0.557   0.450   6.053
 1971SOL    HW2 6813   0.495   0.370   5.925
 1972SOL     OW 6814   5.081   2.055   2.168
 1972SOL    HW1 6815   5.041   2.119   2.234
 1972SOL    HW2 6816   5.140   1.990   2.217
 1973SOL     OW 6817   3.076   2.715   0.714
 1973SOL    HW1 6818   3.126   2.790   0.758
 1973SOL    HW2 6819   3.000   2.752   0.661
 1974SOL     OW 6820   5.583   0.025   4.667
 1974SOL    HW1 6821   5.543   0.061   4.583
 1974SOL    HW2 6822   5.670   7.004   4.646
 1975SOL     OW 6823   2.003   1.643   4.423
 1975SOL    HW1 6824   1.906   1.620   4.418
 1975SOL    HW2 6825   2.020   1.725   4.369
 1976SOL     OW 6826   6.124   0.138   0.591
 1976SOL    HW1 6827   6.181   0.181   0.522
 1976SOL    HW2 6828   6.076   0.060   0.551
 1977SOL     OW 6829   1.909   3.152   4.848
 1977SOL    HW1 6830   1.995   3.192   4.817
 1977SOL    HW2 6831   1.833   3.211   4.822
 1978SOL     OW 6832   1.949   6.304   3.307
 1978SOL    HW1 6833   2.001   6.323   3.224
 1978SOL    HW2 6834   1.890   6.382   3.327
 1979SOL     OW 6835   5.724   4.431   0.310
 1979SOL    HW1 6836   5.819   4.453   0.288
 1979SOL    HW2 6837   5.710   4.332   0.302
 1980SOL     OW 6838   3.285   6.721   3.977
 1980SOL    HW1 6839   3.254   6.810   3.943
 1980SOL    HW2 6840   3.288   6.723   4.077
 1981SOL     OW 6841   6.958   3.011   1.934
 1981SOL    HW1 6842   6.875   2.960   1.913
 1981SOL    HW2 6843   0.004   2.991   1.867
 1982SOL     OW 6844   0.943   4.129   4.496
 1982SOL    HW1 6845   0.872   4.192   4.464
 1982SOL    HW2 6846   1.014   4.121   4.426
 1983SOL     OW 6847   1.268   0.844   2.291
 1983SOL    HW1 6848   1.357   0.850   2.246
 1983SOL    HW2 6849   1.238   0.935   2.318
 1984SOL     OW 6850   5.297   2.268   5.169
 1984SOL    HW1 6851   5.294   2.326   5.250
 1984SOL    HW2 6852   5.217   2.287   5.111
 1985SOL     OW 6853   1.037   6.589   2.454
 1985SOL    HW1 6854   1.091   6.564   2.374
 1985SOL    HW2 6855   1.083   6.662   2.505
 1986SOL     OW 6856   2.912   1.164   6.832
 1986SOL    HW1 6857   2.918   1.078   6.780
 1986SOL    HW2 6858   2.904   1.240   6.768
 1987SOL     OW 6859   2.007   1.770   2.850
 1987SOL    HW1 6860   2.088   1.792   2.796
 1987SOL    HW2 6861   2.030   1.701   2.918
 1988SOL     OW 6862   5.883   3.673   0.617
 1988SOL    HW1 6863   5.799   3.728   0.609
 1988SOL    HW2 6864   5.871   3.587   0.569
 1989SOL     OW 6865   2.090   5.535   4.790
 1989SOL    HW1 6866   2.034   5.521   4.871
 1989SOL    HW2 6867   2.094   5.450   4.737
 1990SOL     OW 6868   3.792   5.632   0.283
 1990SOL    HW1 6869   3.879   5.584   0.291
 1990SOL    HW2 6870   3.750   5.611   0.195
 1991SOL     OW 6871   2.895   4.774   6.411
 1991SOL    HW1 6872   2.828   4.714   6.367
 1991SOL    HW2 6873   2.945   4.722   6.481
 1992SOL     OW 6874   0.461   0.988   0.311
 1992SOL    HW1 6875   0.393   0.916   0.296
 1992SOL    HW2 6876   0.553   0.951   0.296
 1993SOL     OW 6877   3.696   2.385   5.575
 1993SOL    HW1 6878   3.770   2.451   5.568
 1993SOL    HW2 6879   3.733   2.292   5.567
 1994SOL     OW 6880   0.685   1.308   0.390
 1994SOL    HW1 6881   0.698   1.364   0.472
 1994SOL    HW2 6882   0.738   1.224   0.398
 1995SOL     OW 6883   5.545   2.656   3.714
 1995SOL    HW1 6884   5.467   2.719   3.710
 1995SOL    HW2 6885   5.524   2.575   3.659
 1996SOL     OW 6886   2.375   2.970   0.421
 1996SOL    HW1 6887   2.456   2.933   0.375
 1996SOL    HW2 6888   2.394   2.981   0.519
 1997SOL     OW 6889   2.962   2.206   4.753
 1997SOL    HW1 6890   2.945   2.108   4.745
 1997SOL    HW2 6891   3.031   2.222   4.824
 1998SOL     OW 6892   2.922   4.005   0.357
 1998SOL    HW1 6893   2.954   3.912   0.378
 1998SOL    HW2 6894   2.960   4.033   0.269
 1999SOL     OW 6895   2.129   6.150   5.962
 1999SOL    HW1 6896   2.174   6.237   5.941
 1999SOL    HW2 6897   2.195   6.087   6.004
 2000SOL     OW 6898   4.193   2.744   5.327
 2000SOL    HW1 6899   4.197   2.669   5.261
 2000SOL    HW2 6900   4.122   2.809   5.300
 2001SOL     OW 6901   2.661   6.966   1.700
 2001SOL    HW1 6902   2.563   6.981   1.686
 2001SOL    HW2 6903   2.677   6.937   1.795
 2002SOL     OW 6904   0.673   4.337   0.041
 2002SOL    HW1 6905   0.687   4.368   0.135
 2002SOL    HW2 6906   0.587   4.285   0.035
 2003SOL     OW 6907   6.292   5.621   2.668
 2003SOL    HW1 6908   6.256   5.528   2.663
 2003SOL    HW2 6909   6.218   5.686   2.652
 2004SOL     OW 6910   5.096   1.483   4.319
 2004SOL    HW1 6911   5.044   1.491   4.404
 2004SOL    HW2 6912   5.033   1.479   4.242
 2005SOL     OW 6913   0.261   4.842   0.548
 2005SOL    HW1 6914   0.296   4.891   0.468
 2005SOL    HW2 6915   0.334   4.835   0.617
 2006SOL     OW 6916   5.565   6.955   2.667
 2006SOL    HW1 6917   5.630   6.891   2.627
 2006SOL    HW2 6918   5.473   6.934   2.632
 2007SOL     OW 6919   4.693   4.568   0.564
 2007SOL    HW1 6920   4.753   4.526   0.633
 2007SOL    HW2 6921   4.618   4.506   0.543
 2008SOL     OW 6922   1.896   4.206   4.060
 2008SOL    HW1 6923   1.964   4.279   4.062
 2008SOL    HW2 6924   1.942   4.118   4.046
 2009SOL     OW 6925   5.715   0.179   2.686
 2009SOL    HW1 6926   5.664   0.248   2.738
 2009SOL    HW2 6927   5.671   0.090   2.697
 2010SOL     OW 6928   3.251   2.078   2.261
 2010SOL    HW1 6929   3.244   1.980   2.281
 2010SOL    HW2 6930   3.214   2.096   2.170
 2011SOL     OW 6931   6.911   0.427   4.973
 2011SOL    HW1 6932   6.867   0.386   4.893
 2011SOL    HW2 6933   6.843   0.476   5.027
 2012SOL     OW 6934   1.015   4.293   2.149
 2012SOL    HW1 6935   1.106   4.331   2.131
 2012SOL    HW2 6936   0.980   4.250   2.065
 2013SOL     OW 6937   6.650   2.814   2.870
 2013SOL    HW1 6938   6.680   2.907   2.851
 2013SOL    HW2 6939   6.628   2.804   2.967
 2014SOL     OW 6940   2.523   6.369   3.690
 2014SOL    HW1 6941   2.482   6.311   3.619
 2014SOL    HW2 6942   2.471   6.453   3.699
 2015SOL     OW 6943   2.097   0.404   0.186
 2015SOL    HW1 6944   2.161   0.349   0.131
 2015SOL    HW2 6945   2.142   0.488   0.216
 2016SOL     OW 6946   1.735   6.218   5.797
 2016SOL    HW1 6947   1.799   6.288   5.766
 2016SOL    HW2 6948   1.641   6.250   5.785
 2017SOL     OW 6949   3.693   0.528   3.968
 2017SOL    HW1 6950   3.647   0.451   3.924
 2017SOL    HW2 6951   3.706   0.508   4.065
 2018SOL     OW 6952   5.529   2.299   4.394
 2018SOL    HW1 6953   5.549   2.305   4.492
 2018SOL    HW2 6954   5.609   2.328   4.342
 2019SOL     OW 6955   5.180   3.850   6.047
 2019SOL    HW1 6956   5.222   3.881   5.962
 2019SOL    HW2 6957   5.212   3.908   6.123
 2020SOL     OW 6958   1.974   6.819   5.174
 2020SOL    HW1 6959   1.953   6.722   5.168
 2020SOL    HW2 6960   2.055   6.839   5.119
 2021SOL     OW 6961   0.294   6.649   4.881
 2021SOL    HW1 6962   0.290   6.749   4.873
 2021SOL    HW2 6963   0.347   6.612   4.805
 2022SOL     OW 6964   1.379   5.340   3.452
 2022SOL    HW1 6965   1.311   5.283   3.405
 2022SOL    HW2 6966   1.333   5.396   3.521
 2023SOL     OW 6967   6.979   0.772   6.415
 2023SOL    HW1 6968   7.010   0.827   6.338
 2023SOL    HW2 6969   7.007   0.677   6.403
 2024SOL     OW 6970   6.789   5.770   3.143
 2024SOL    HW1 6971   6.720   5.772   3.071
 2024SOL    HW2 6972   6.745   5.770   3.233
 2025SOL     OW 6973   3.051   1.134   4.072
 2025SOL    HW1 6974   3.082   1.039   4.063
 2025SOL    HW2 6975   2.994   1.157   3.993
 2026SOL     OW 6976   6.110   3.444   5.742
 2026SOL    HW1 6977   6.129   3.481   5.651
 2026SOL    HW2 6978   6.053   3.508   5.793
 2027SOL     OW 6979   1.131   0.210   0.069
 2027SOL    HW1 6980   1.125   0.301   0.028
 2027SOL    HW2 6981   1.038   0.175   0.084
 2028SOL     OW 6982   2.747   5.259   4.344
 2028SOL    HW1 6983   2.810   5.182   4.359
 2028SOL    HW2 6984   2.693   5.274   4.427
 2029SOL     OW 6985   6.587   1.798   0.165
 2029SOL    HW1 6986   6.507   1.829   0.216
 2029SOL    HW2 6987   6.615   1.708   0.200
 2030SOL     OW 6988   2.743   0.754   3.817
 2030SOL    HW1 6989   2.699   0.844   3.821
 2030SOL    HW2 6990   2.711   0.705   3.735
 2031SOL     OW 6991   6.777   5.753   1.526
 2031SOL    HW1 6992   6.710   5.722   1.593
 2031SOL    HW2 6993   6.848   5.805   1.573
 2032SOL     OW 6994   4.364   0.759   1.799
 2032SOL    HW1 6995   4.386   0.751   1.702
 2032SOL    HW2 6996   4.448   0.762   1.852
 2033SOL     OW 6997   3.089   2.952   6.733
 2033SOL    HW1 6998   3.132   3.042   6.731
 2033SOL    HW2 6999   2.990   2.962   6.730
 2034SOL     OW 7000   2.370   5.060   5.190
 2034SOL    HW1 7001   2.295   5.089   5.131
 2034SOL    HW2 7002   2.446   5.125   5.181
 2035SOL     OW 7003   6.361   6.504   3.624
 2035SOL    HW1 7004   6.407   6.592   3.615
 2035SOL    HW2 7005   6.316   6.499   3.713
 2036SOL     OW 7006   0.360   3.800   2.883
 2036SOL    HW1 7007   0.327   3.815   2.790
 2036SOL    HW2 7008   0.412   3.880   2.913
 2037SOL     OW 7009   6.282   3.445   5.947
 2037SOL    HW1 7010   6.316   3.352   5.960
 2037SOL    HW2 7011   6.219   3.447   5.869
 2038SOL     OW 7012   1.840   1.798   0.386
 2038SOL    HW1 7013   1.781   1.719   0.398
 2038SOL    HW2 7014   1.815   1.869   0.451
 2039SOL     OW 7015   6.862   5.755   3.434
 2039SOL    HW1 7016   6.856   5.849   3.470
 2039SOL    HW2 7017   6.771   5.717   3.426
 2040SOL     OW 7018   1.812   2.811   6.120
 2040SOL    HW1 7019   1.801   2.842   6.026
 2040SOL    HW2 7020   1.834   2.889   6.179
 2041SOL     OW 7021   0.791   6.724   5.673
 2041SOL    HW1 7022   0.873   6.763   5.715
 2041SOL    HW2 7023   0.817   6.653   5.608
 2042SOL     OW 7024   4.635   6.215   7.002
 2042SOL    HW1 7025   4.620   6.265   0.064
 2042SOL    HW2 7026   4.555   6.158   6.983
 2043SOL     OW 7027   6.336   3.786   3.508
 2043SOL    HW1 7028   6.251   3.739   3.485
 2043SOL    HW2 7029   6.364   3.763   3.601
 2044SOL     OW 7030   6.939   0.658   1.563
 2044SOL    HW1 7031   6.998   0.720   1.510
 2044SOL    HW2 7032   6.951   0.564   1.529
 2045SOL     OW 7033   1.674   5.111   4.395
 2045SOL    HW1 7034   1.653   5.206   4.417
 2045SOL    HW2 7035   1.654   5.094   4.298
 2046SOL     OW 7036   6.996   1.580   4.340
 2046SOL    HW1 7037   6.978   1.671   4.378
 2046SOL    HW2 7038   7.004   1.586   4.241
 2047SOL     OW 7039   6.918   3.215   0.567
 2047SOL    HW1 7040   6.874   3.305   0.567
 2047SOL    HW2 7041   6.873   3.155   0.501
 2048SOL     OW 7042   1.287   6.892   5.791
 2048SOL    HW1 7043   1.280   6.840   5.876
 2048SOL    HW2 7044   1.379   6.880   5.752
 2049SOL     OW 7045   5.811   1.435   3.867
 2049SOL    HW1 7046   5.774   1.348   3.898
 2049SOL    HW2 7047   5.824   1.495   3.946
 2050SOL     OW 7048   6.461   2.613   3.773
 2050SOL    HW1 7049   6.473   2.693   3.832
 2050SOL    HW2 7050   6.470   2.530   3.827
 2051SOL     OW 7051   1.161   5.993   6.477
 2051SOL    HW1 7052   1.140   5.901   6.444
 2051SOL    HW2 7053   1.257   5.997   6.507
 2052SOL     OW 7054   2.046   3.070   1.634
 2052SOL    HW1 7055   2.035   3.005   1.709
 2052SOL    HW2 7056   2.122   3.132   1.653
 2053SOL     OW 7057   6.328   5.904   4.448
 2053SOL    HW1 7058   6.345   5.992   4.493
 2053SOL    HW2 7059   6.273   5.846   4.507
 2054SOL     OW 7060   3.523   4.137   3.501
 2054SOL    HW1 7061   3.447   4.148   3.438
 2054SOL    HW2 7062   3.488   4.130   3.595
 2055SOL     OW 7063   5.513   3.355   4.252
 2055SOL    HW1 7064   5.533   3.273   4.199
 2055SOL    HW2 7065   5.423   3.347   4.294
 2056SOL     OW 7066   4.062   5.597   1.029
 2056SOL    HW1 7067   4.101   5.508   1.052
 2056SOL    HW2 7068   4.117   5.639   0.957
 2057SOL     OW 7069   5.010   4.420   5.830
 2057SOL    HW1 7070   5.102   4.400   5.795
 2057SOL    HW2 7071   5.010   4.414   5.930
 2058SOL     OW 7072   0.711   6.945   3.214
 2058SOL    HW1 7073   0.735   6.877   3.283
 2058SOL    HW2 7074   0.780   6.944   3.141
 2059SOL     OW 7075   1.629   6.015   6.222
 2059SOL    HW1 7076   1.539   6.035   6.186
 2059SOL    HW2 7077   1.699   6.049   6.160
 2060SOL     OW 7078   0.620   3.691   1.404
 2060SOL    HW1 7079   0.556   3.615   1.402
 2060SOL    HW2 7080   0.570   3.777   1.420
 2061SOL     OW 7081   1.726   1.923   1.947
 2061SOL    HW1 7082   1.795   1.970   1.891
 2061SOL    HW2 7083   1.729   1.959   2.040
 2062SOL     OW 7084   6.806   5.444   5.698
 2062SOL    HW1 7085   6.811   5.425   5.600
 2062SOL    HW2 7086   6.776   5.538   5.712
 2063SOL     OW 7087   0.931   0.029   5.175
 2063SOL    HW1 7088   0.904   6.986   5.106
 2063SOL    HW2 7089   0.961   0.113   5.129
 2064SOL     OW 7090   6.950   2.432   4.624
 2064SOL    HW1 7091   0.003   2.423   4.562
 2064SOL    HW2 7092   6.866   2.405   4.578
 2065SOL     OW 7093   5.963   2.538   5.771
 2065SOL    HW1 7094   5.929   2.529   5.864
 2065SOL    HW2 7095   5.963   2.635   5.745
 2066SOL     OW 7096   6.939   4.390   5.059
 2066SOL    HW1 7097   6.852   4.355   5.094
 2066SOL    HW2 7098   6.989   4.435   5.133
 2067SOL     OW 7099   0.055   5.001   0.611
 2067SOL    HW1 7100   0.077   5.098   0.600
 2067SOL    HW2 7101   0.138   4.947   0.605
 2068SOL     OW 7102   2.416   0.441   4.512
 2068SOL    HW1 7103   2.459   0.525   4.547
 2068SOL    HW2 7104   2.329   0.464   4.470
 2069SOL     OW 7105   6.769   2.679   4.014
 2069SOL    HW1 7106   6.706   2.699   4.089
 2069SOL    HW2 7107   6.848   2.629   4.049
 2070SOL     OW 7108   1.145   1.603   0.556
 2070SOL    HW1 7109   1.200   1.640   0.480
 2070SOL    HW2 7110   1.200   1.535   0.606
 2071SOL     OW 7111   5.782   0.572   5.836
 2071SOL    HW1 7112   5.871   0.547   5.798
 2071SOL    HW2 7113   5.752   0.500   5.900
 2072SOL     OW 7114   4.545   5.404   4.781
 2072SOL    HW1 7115   4.593   5.440   4.861
 2072SOL    HW2 7116   4.454   5.373   4.808
 2073SOL     OW 7117   4.526   6.798   4.848
 2073SOL    HW1 7118   4.515   6.778   4.751
 2073SOL    HW2 7119   4.506   6.895   4.865
 2074SOL     OW 7120   2.173   2.503   6.067
 2074SOL    HW1 7121   2.265   2.486   6.102
 2074SOL    HW2 7122   2.136   2.586   6.110
 2075SOL     OW 7123   6.911   2.775   2.863
 2075SOL    HW1 7124   6.960   2.795   2.948
 2075SOL    HW2 7125   6.820   2.740   2.884
 2076SOL     OW 7126   5.201   6.770   6.278
 2076SOL    HW1 7127   5.179   6.859   6.318
 2076SOL    HW2 7128   5.277   6.780   6.214
 2077SOL     OW 7129   7.014   1.859   1.993
 2077SOL    HW1 7130   0.014   1.799   1.917
 2077SOL    HW2 7131   7.013   1.806   2.078
 2078SOL     OW 7132   1.556   5.312   6.560
 2078SOL    HW1 7133   1.612   5.293   6.479
 2078SOL    HW2 7134   1.599   5.385   6.613
 2079SOL     OW 7135   0.083   1.718   2.913
 2079SOL    HW1 7136   0.129   1.682   2.994
 2079SOL    HW2 7137   0.016   1.787   2.941
 2080SOL     OW 7138   2.189   0.423   4.945
 2080SOL    HW1 7139   2.111   0.464   4.897
 2080SOL    HW2 7140   2.273   0.443   4.895
 2081SOL     OW 7141   0.796   6.514   4.427
 2081SOL    HW1 7142   0.798   6.607   4.461
 2081SOL    HW2 7143   0.703   6.479   4.430
 2082SOL     OW 7144   0.948   6.418   3.147
 2082SOL    HW1 7145   0.907   6.356   3.214
 2082SOL    HW2 7146   1.012   6.367   3.090
 2083SOL     OW 7147   1.174   5.539   5.404
 2083SOL    HW1 7148   1.119   5.569   5.482
 2083SOL    HW2 7149   1.251   5.602   5.391
 2084SOL     OW 7150   0.691   3.939   2.566
 2084SOL    HW1 7151   0.621   3.998   2.605
 2084SOL    HW2 7152   0.647   3.866   2.514
 2085SOL     OW 7153   4.863   0.783   1.172
 2085SOL    HW1 7154   4.778   0.734   1.152
 2085SOL    HW2 7155   4.893   0.831   1.089
 2086SOL     OW 7156   3.473   6.801   6.721
 2086SOL    HW1 7157   3.408   6.846   6.783
 2086SOL    HW2 7158   3.440   6.807   6.627
 2087SOL     OW 7159   5.207   1.356   1.644
 2087SOL    HW1 7160   5.253   1.430   1.594
 2087SOL    HW2 7161   5.119   1.389   1.678
 2088SOL     OW 7162   0.893   5.843   6.922
 2088SOL    HW1 7163   0.935   5.755   6.900
 2088SOL    HW2 7164   0.955   5.917   6.896
 2089SOL     OW 7165   4.974   2.685   6.120
 2089SOL    HW1 7166   4.876   2.670   6.108
 2089SOL    HW2 7167   4.993   2.712   6.214
 2090SOL     OW 7168   4.275   3.303   5.746
 2090SOL    HW1 7169   4.309   3.397   5.752
 2090SOL    HW2 7170   4.348   3.244   5.710
 2091SOL     OW 7171   6.637   4.759   0.908
 2091SOL    HW1 7172   6.548   4.773   0.864
 2091SOL    HW2 7173   6.646   4.663   0.933
 2092SOL     OW 7174   5.397   3.659   0.580
 2092SOL    HW1 7175   5.318   3.650   0.640
 2092SOL    HW2 7176   5.478   3.682   0.634
 2093SOL     OW 7177   3.087   2.265   1.767
 2093SOL    HW1 7178   3.172   2.252   1.819
 2093SOL    HW2 7179   3.030   2.333   1.813
 2094SOL     OW 7180   5.586   1.489   1.614
 2094SOL    HW1 7181   5.536   1.477   1.528
 2094SOL    HW2 7182   5.601   1.400   1.657
 2095SOL     OW 7183   6.249   6.456   4.795
 2095SOL    HW1 7184   6.216   6.437   4.703
 2095SOL    HW2 7185   6.328   6.397   4.815
 2096SOL     OW 7186   4.814   5.157   3.475
 2096SOL    HW1 7187   4.733   5.125   3.426
 2096SOL    HW2 7188   4.789   5.184   3.568
 2097SOL     OW 7189   3.016   2.664   6.453
 2097SOL    HW1 7190   3.047   2.759   6.450
 2097SOL    HW2 7191   2.970   2.646   6.540
 2098SOL     OW 7192   4.170   5.722   1.825
 2098SOL    HW1 7193   4.270   5.717   1.827
 2098SOL    HW2 7194   4.138   5.695   1.734
 2099SOL     OW 7195   3.491   1.430   0.329
 2099SOL    HW1 7196   3.394   1.431   0.352
 2099SOL    HW2 7197   3.512   1.348   0.274
 2100SOL     OW 7198   5.929   1.301   0.648
 2100SOL    HW1 7199   5.832   1.282   0.659
 2100SOL    HW2 7200   5.942   1.370   0.577
 2101SOL     OW 7201   0.374   6.571   0.991
 2101SOL    HW1 7202   0.368   6.473   0.972
 2101SOL    HW2 7203   0.297   6.618   0.948
 2102SOL     OW 7204   5.256   3.801   2.137
 2102SOL    HW1 7205   5.306   3.885   2.117
 2102SOL    HW2 7206   5.165   3.823   2.172
 2103SOL     OW 7207   3.171   3.250   7.021
 2103SOL    HW1 7208   3.211   3.162   6.993
 2103SOL    HW2 7209   3.202   3.322   6.959
 2104SOL     OW 7210   1.651   4.463   2.618
 2104SOL    HW1 7211   1.712   4.434   2.692
 2104SOL    HW2 7212   1.692   4.540   2.570
 2105SOL     OW 7213   4.638   4.849   6.401
 2105SOL    HW1 7214   4.653   4.799   6.316
 2105SOL    HW2 7215   4.612   4.785   6.474
 2106SOL     OW 7216   5.039   3.889   1.723
 2106SOL    HW1 7217   4.944   3.887   1.752
 2106SOL    HW2 7218   5.058   3.978   1.680
 2107SOL     OW 7219   5.957   2.352   5.584
 2107SOL    HW1 7220   6.012   2.390   5.510
 2107SOL    HW2 7221   5.959   2.414   5.662
 2108SOL     OW 7222   6.132   5.330   5.367
 2108SOL    HW1 7223   6.231   5.339   5.377
 2108SOL    HW2 7224   6.087   5.408   5.411
 2109SOL     OW 7225   3.819   6.054   2.356
 2109SOL    HW1 7226   3.781   6.031   2.445
 2109SOL    HW2 7227   3.785   5.990   2.287
 2110SOL     OW 7228   3.078   1.015   0.633
 2110SOL    HW1 7229   3.032   0.928   0.619
 2110SOL    HW2 7230   3.070   1.043   0.729
 2111SOL     OW 7231   2.078   3.574   6.449
 2111SOL    HW1 7232   2.117   3.632   6.377
 2111SOL    HW2 7233   2.153   3.538   6.506
 2112SOL     OW 7234   4.932   1.906   0.473
 2112SOL    HW1 7235   5.002   1.888   0.542
 2112SOL    HW2 7236   4.974   1.904   0.382
 2113SOL     OW 7237   2.351   1.178   5.155
 2113SOL    HW1 7238   2.256   1.158   5.180
 2113SOL    HW2 7239   2.363   1.277   5.146
 2114SOL     OW 7240   2.805   1.834   6.352
 2114SOL    HW1 7241   2.816   1.835   6.252
 2114SOL    HW2 7242   2.721   1.787   6.376
 2115SOL     OW 7243   0.599   4.373   1.988
 2115SOL    HW1 7244   0.521   4.419   1.944
 2115SOL    HW2 7245   0.618   4.288   1.941
 2116SOL     OW 7246   1.080   3.375   2.529
 2116SOL    HW1 7247   1.016   3.438   2.574
 2116SOL    HW2 7248   1.029   3.300   2.489
 2117SOL     OW 7249   5.826   4.016   1.493
 2117SOL    HW1 7250   5.864   4.102   1.526
 2117SOL    HW2 7251   5.843   4.008   1.395
 2118SOL     OW 7252   6.568   3.367   3.577
 2118SOL    HW1 7253   6.578   3.293   3.644
 2118SOL    HW2 7254   6.500   3.340   3.508
 2119SOL     OW 7255   1.985   0.398   0.522
 2119SOL    HW1 7256   1.910   0.460   0.544
 2119SOL    HW2 7257   2.013   0.348   0.604
 2120SOL     OW 7258   0.309   3.814   2.592
 2120SOL    HW1 7259   0.348   3.772   2.510
 2120SOL    HW2 7260   0.275   3.905   2.570
 2121SOL     OW 7261   1.568   2.403   5.774
 2121SOL    HW1 7262   1.513   2.353   5.841
 2121SOL    HW2 7263   1.660   2.363   5.771
 2122SOL     OW 7264   5.489   5.934   6.691
 2122SOL    HW1 7265   5.496   5.839   6.660
 2122SOL    HW2 7266   5.403   5.947   6.739
 2123SOL     OW 7267   6.581   5.841   1.361
 2123SOL    HW1 7268   6.672   5.829   1.400
 2123SOL    HW2 7269   6.572   5.934   1.326
 2124SOL     OW 7270   2.739   1.747   0.270
 2124SOL    HW1 7271   2.696   1.663   0.302
 2124SOL    HW2 7272   2.832   1.753   0.304
 2125SOL     OW 7273   1.005   5.972   1.840
 2125SOL    HW1 7274   1.034   5.965   1.935
 2125SOL    HW2 7275   1.020   5.885   1.793
 2126SOL     OW 7276   3.301   2.521   6.796
 2126SOL    HW1 7277   3.393   2.486   6.816
 2126SOL    HW2 7278   3.306   2.618   6.776
 2127SOL     OW 7279   0.844   1.442   5.297
 2127SOL    HW1 7280   0.816   1.368   5.358
 2127SOL    HW2 7281   0.944   1.442   5.288
 2128SOL     OW 7282   6.280   2.552   2.087
 2128SOL    HW1 7283   6.245   2.619   2.023
 2128SOL    HW2 7284   6.255   2.460   2.056
 2129SOL     OW 7285   4.605   4.497   4.931
 2129SOL    HW1 7286   4.513   4.531   4.953
 2129SOL    HW2 7287   4.599   4.430   4.858
 2130SOL     OW 7288   2.797   0.165   2.400
 2130SOL    HW1 7289   2.869   0.196   2.337
 2130SOL    HW2 7290   2.785   0.234   2.472
 2131SOL     OW 7291   5.117   1.202   0.740
 2131SOL    HW1 7292   5.064   1.286   0.728
 2131SOL    HW2 7293   5.084   1.132   0.677
 2132SOL     OW 7294   3.097   1.806   6.741
 2132SOL    HW1 7295   3.029   1.798   6.813
 2132SOL    HW2 7296   3.056   1.778   6.654
 2133SOL     OW 7297   3.600   2.671   0.897
 2133SOL    HW1 7298   3.640   2.686   0.988
 2133SOL    HW2 7299   3.513   2.622   0.907
 2134SOL     OW 7300   0.935   1.104   4.630
 2134SOL    HW1 7301   0.951   1.183   4.689
 2134SOL    HW2 7302   1.021   1.058   4.611
 2135SOL     OW 7303   0.825   1.455   4.572
 2135SOL    HW1 7304   0.885   1.527   4.536
 2135SOL    HW2 7305   0.823   1.378   4.508
 2136SOL     OW 7306   1.562   3.990   4.738
 2136SOL    HW1 7307   1.585   3.911   4.794
 2136SOL    HW2 7308   1.474   4.027   4.767
 2137SOL     OW 7309   0.048   6.552   4.447
 2137SOL    HW1 7310   0.123   6.521   4.389
 2137SOL    HW2 7311   0.038   6.489   4.524
 2138SOL     OW 7312   6.944   1.614   2.089
 2138SOL    HW1 7313   6.864   1.598   2.031
 2138SOL    HW2 7314   6.966   1.530   2.139
 2139SOL     OW 7315   4.118   0.689   2.760
 2139SOL    HW1 7316   4.164   0.722   2.678
 2139SOL    HW2 7317   4.019   0.700   2.750
 2140SOL     OW 7318   3.057   5.914   3.224
 2140SOL    HW1 7319   3.091   5.830   3.181
 2140SOL    HW2 7320   2.967   5.896   3.265
 2141SOL     OW 7321   0.249   3.734   1.118
 2141SOL    HW1 7322   0.157   3.762   1.146
 2141SOL    HW2 7323   0.248   3.638   1.092
 2142SOL     OW 7324   1.203   1.904   2.577
 2142SOL    HW1 7325   1.129   1.956   2.533
 2142SOL    HW2 7326   1.171   1.870   2.665
 2143SOL     OW 7327   3.547   4.946   1.229
 2143SOL    HW1 7328   3.534   4.892   1.146
 2143SOL    HW2 7329   3.477   4.921   1.297
 2144SOL     OW 7330   1.200   0.052   2.935
 2144SOL    HW1 7331   1.184   0.074   2.839
 2144SOL    HW2 7332   1.122   0.082   2.990
 2145SOL     OW 7333   3.744   5.972   3.832
 2145SOL    HW1 7334   3.646   5.987   3.822
 2145SOL    HW2 7335   3.786   6.050   3.879
 2146SOL     OW 7336   2.984   3.704   2.348
 2146SOL    HW1 7337   2.987   3.700   2.248
 2146SOL    HW2 7338   3.054   3.644   2.386
 2147SOL     OW 7339   0.050   0.307   6.960
 2147SOL    HW1 7340   0.084   0.308   6.866
 2147SOL    HW2 7341   0.022   0.400   6.986
 2148SOL     OW 7342   5.281   2.771   4.460
 2148SOL    HW1 7343   5.270   2.816   4.549
 2148SOL    HW2 7344   5.352   2.701   4.467
 2149SOL     OW 7345   3.792   0.982   1.365
 2149SOL    HW1 7346   3.880   1.029   1.370
 2149SOL    HW2 7347   3.726   1.028   1.425
 2150SOL     OW 7348   2.036   2.483   2.678
 2150SOL    HW1 7349   2.096   2.529   2.613
 2150SOL    HW2 7350   1.968   2.549   2.713
 2151SOL     OW 7351   1.898   1.565   4.034
 2151SOL    HW1 7352   1.946   1.602   3.954
 2151SOL    HW2 7353   1.802   1.549   4.011
 2152SOL     OW 7354   3.673   6.350   1.172
 2152SOL    HW1 7355   3.752   6.370   1.230
 2152SOL    HW2 7356   3.666   6.252   1.159
 2153SOL     OW 7357   3.815   0.090   2.969
 2153SOL    HW1 7358   3.793   0.089   3.066
 2153SOL    HW2 7359   3.819   0.185   2.937
 2154SOL     OW 7360   4.586   0.551   4.409
 2154SOL    HW1 7361   4.562   0.615   4.483
 2154SOL    HW2 7362   4.535   0.576   4.326
 2155SOL     OW 7363   1.715   5.641   0.077
 2155SOL    HW1 7364   1.671   5.729   0.063
 2155SOL    HW2 7365   1.774   5.620   7.023
 2156SOL     OW 7366   2.593   7.003   2.368
 2156SOL    HW1 7367   2.659   0.050   2.392
 2156SOL    HW2 7368   2.506   7.022   2.414
 2157SOL     OW 7369   6.074   1.549   3.576
 2157SOL    HW1 7370   6.114   1.507   3.657
 2157SOL    HW2 7371   5.975   1.535   3.576
 2158SOL     OW 7372   4.511   6.085   0.854
 2158SOL    HW1 7373   4.570   6.160   0.822
 2158SOL    HW2 7374   4.568   6.016   0.898
 2159SOL     OW 7375   1.698   5.609   5.275
 2159SOL    HW1 7376   1.679   5.641   5.367
 2159SOL    HW2 7377   1.697   5.509   5.273
 2160SOL     OW 7378   4.369   3.069   1.450
 2160SOL    HW1 7379   4.391   3.083   1.546
 2160SOL    HW2 7380   4.299   3.134   1.422
 2161SOL     OW 7381   5.546   2.449   3.524
 2161SOL    HW1 7382   5.622   2.392   3.491
 2161SOL    HW2 7383   5.486   2.471   3.447
 2162SOL     OW 7384   3.043   0.562   0.098
 2162SOL    HW1 7385   2.982   0.617   0.040
 2162SOL    HW2 7386   3.137   0.592   0.085
 2163SOL     OW 7387   0.165   5.549   6.207
 2163SOL    HW1 7388   0.113   5.470   6.240
 2163SOL    HW2 7389   0.252   5.518   6.169
 2164SOL     OW 7390   1.391   2.301   0.172
 2164SOL    HW1 7391   1.468   2.351   0.133
 2164SOL    HW2 7392   1.416   2.265   0.261
 2165SOL     OW 7393   0.963   1.570   2.544
 2165SOL    HW1 7394   1.057   1.543   2.524
 2165SOL    HW2 7395   0.914   1.584   2.457
 2166SOL     OW 7396   2.040   2.354   5.503
 2166SOL    HW1 7397   2.090   2.365   5.589
 2166SOL    HW2 7398   1.984   2.271   5.507
 2167SOL     OW 7399   1.887   0.940   3.603
 2167SOL    HW1 7400   1.894   0.917   3.506
 2167SOL    HW2 7401   1.975   0.972   3.637
 2168SOL     OW 7402   0.007   2.263   3.604
 2168SOL    HW1 7403   0.017   2.359   3.579
 2168SOL    HW2 7404   6.939   2.232   3.580
 2169SOL     OW 7405   5.773   2.219   5.766
 2169SOL    HW1 7406   5.768   2.198   5.864
 2169SOL    HW2 7407   5.868   2.212   5.737
 2170SOL     OW 7408   5.868   5.092   5.873
 2170SOL    HW1 7409   5.866   5.007   5.925
 2170SOL    HW2 7410   5.954   5.100   5.824
 2171SOL     OW 7411   6.112   3.315   0.681
 2171SOL    HW1 7412   6.016   3.317   0.707
 2171SOL    HW2 7413   6.169   3.308   0.763
 2172SOL     OW 7414   2.188   1.532   0.530
 2172SOL    HW1 7415   2.230   1.523   0.621
 2172SOL    HW2 7416   2.260   1.533   0.461
 2173SOL     OW 7417   3.875   7.011   5.533
 2173SOL    HW1 7418   3.956   6.955   5.548
 2173SOL    HW2 7419   3.846   0.027   5.619
 2174SOL     OW 7420   5.835   5.335   5.979
 2174SOL    HW1 7421   5.759   5.343   6.044
 2174SOL    HW2 7422   5.830   5.248   5.932
 2175SOL     OW 7423   3.379   2.156   3.354
 2175SOL    HW1 7424   3.415   2.148   3.261
 2175SOL    HW2 7425   3.429   2.094   3.414
 2176SOL     OW 7426   0.488   2.729   0.788
 2176SOL    HW1 7427   0.574   2.678   0.780
 2176SOL    HW2 7428   0.413   2.672   0.754
 2177SOL     OW 7429   6.369   0.415   2.798
 2177SOL    HW1 7430   6.377   0.489   2.732
 2177SOL    HW2 7431   6.458   0.394   2.836
 2178SOL     OW 7432   2.051   4.374   0.349
 2178SOL    HW1 7433   2.030   4.462   0.393
 2178SOL    HW2 7434   2.125   4.329   0.398
 2179SOL     OW 7435   2.337   5.213   4.821
 2179SOL    HW1 7436   2.293   5.184   4.906
 2179SOL    HW2 7437   2.267   5.243   4.755
 2180SOL     OW 7438   2.907   3.505   2.108
 2180SOL    HW1 7439   2.857   3.461   2.033
 2180SOL    HW2 7440   2.929   3.599   2.082
 2181SOL     OW 7441   5.278   4.642   5.751
 2181SOL    HW1 7442   5.298   4.580   5.826
 2181SOL    HW2 7443   5.227   4.594   5.680
 2182SOL     OW 7444   6.289   3.090   4.736
 2182SOL    HW1 7445   6.270   3.164   4.801
 2182SOL    HW2 7446   6.367   3.036   4.768
 2183SOL     OW 7447   3.607   3.786   6.464
 2183SOL    HW1 7448   3.705   3.777   6.448
 2183SOL    HW2 7449   3.592   3.843   6.545
 2184SOL     OW 7450   3.871   1.233   5.300
 2184SOL    HW1 7451   3.873   1.310   5.365
 2184SOL    HW2 7452   3.870   1.147   5.351
 2185SOL     OW 7453   1.630   2.482   1.002
 2185SOL    HW1 7454   1.553   2.544   0.987
 2185SOL    HW2 7455   1.679   2.468   0.916
 2186SOL     OW 7456   0.211   4.812   2.504
 2186SOL    HW1 7457   0.158   4.794   2.421
 2186SOL    HW2 7458   0.216   4.729   2.559
 2187SOL     OW 7459   0.761   1.819   1.518
 2187SOL    HW1 7460   0.707   1.895   1.553
 2187SOL    HW2 7461   0.708   1.768   1.450
 2188SOL     OW 7462   5.529   5.769   4.101
 2188SOL    HW1 7463   5.573   5.770   4.012
 2188SOL    HW2 7464   5.512   5.675   4.130
 2189SOL     OW 7465   1.587   6.257   6.605
 2189SOL    HW1 7466   1.650   6.288   6.534
 2189SOL    HW2 7467   1.503   6.312   6.601
 2190SOL     OW 7468   0.135   2.401   1.961
 2190SOL    HW1 7469   0.177   2.313   1.982
 2190SOL    HW2 7470   0.040   2.387   1.936
 2191SOL     OW 7471   3.026   1.702   5.946
 2191SOL    HW1 7472   3.121   1.675   5.928
 2191SOL    HW2 7473   2.972   1.621   5.969
 2192SOL     OW 7474   3.472   0.004   3.905
 2192SOL    HW1 7475   3.496   6.931   3.911
 2192SOL    HW2 7476   3.399   0.017   3.839
 2193SOL     OW 7477   6.854   6.471   6.167
 2193SOL    HW1 7478   6.765   6.432   6.142
 2193SOL    HW2 7479   6.912   6.476   6.086
 2194SOL     OW 7480   2.457   4.481   6.622
 2194SOL    HW1 7481   2.363   4.457   6.597
 2194SOL    HW2 7482   2.478   4.573   6.588
 2195SOL     OW 7483   0.789   6.619   2.708
 2195SOL    HW1 7484   0.825   6.547   2.649
 2195SOL    HW2 7485   0.864   6.657   2.763
 2196SOL     OW 7486   3.035   0.546   5.749
 2196SOL    HW1 7487   3.029   0.487   5.669
 2196SOL    HW2 7488   2.955   0.606   5.753
 2197SOL     OW 7489   4.697   3.591   1.718
 2197SOL    HW1 7490   4.765   3.562   1.784
 2197SOL    HW2 7491   4.642   3.511   1.690
 2198SOL     OW 7492   6.531   1.918   6.913
 2198SOL    HW1 7493   6.535   1.840   6.976
 2198SOL    HW2 7494   6.540   2.003   6.965
 2199SOL     OW 7495   5.534   1.009   1.698
 2199SOL    HW1 7496   5.447   1.004   1.748
 2199SOL    HW2 7497   5.571   0.917   1.686
 2200SOL     OW 7498   4.030   0.363   4.611
 2200SOL    HW1 7499   4.029   0.430   4.685
 2200SOL    HW2 7500   4.099   0.293   4.631
 2201SOL     OW 7501   6.721   2.840   1.923
 2201SOL    HW1 7502   6.716   2.878   2.015
 2201SOL    HW2 7503   6.629   2.837   1.883
 2202SOL     OW 7504   3.892   5.507   4.287
 2202SOL    HW1 7505   3.883   5.439   4.214
 2202SOL    HW2 7506   3.849   5.473   4.371
 2203SOL     OW 7507   2.152   2.306   2.020
 2203SOL    HW1 7508   2.081   2.245   2.057
 2203SOL    HW2 7509   2.127   2.401   2.038
 2204SOL     OW 7510   3.387   1.352   6.997
 2204SOL    HW1 7511   3.302   1.301   6.984
 2204SOL    HW2 7512   3.369   1.450   6.989
 2205SOL     OW 7513   1.558   0.040   6.361
 2205SOL    HW1 7514   1.639   0.062   6.415
 2205SOL    HW2 7515   1.581   0.047   6.264
 2206SOL     OW 7516   3.189   4.332   5.298
 2206SOL    HW1 7517   3.098   4.371   5.284
 2206SOL    HW2 7518   3.186   4.234   5.283
 2207SOL     OW 7519   1.909   3.975   6.371
 2207SOL    HW1 7520   1.984   3.917   6.403
 2207SOL    HW2 7521   1.832   3.917   6.342
 2208SOL     OW 7522   1.777   4.724   2.429
 2208SOL    HW1 7523   1.721   4.753   2.352
 2208SOL    HW2 7524   1.873   4.720   2.401
 2209SOL     OW 7525   1.364   5.750   5.880
 2209SOL    HW1 7526   1.273   5.790   5.879
 2209SOL    HW2 7527   1.431   5.820   5.854
 2210SOL     OW 7528   0.487   5.146   3.886
 2210SOL    HW1 7529   0.455   5.055   3.860
 2210SOL    HW2 7530   0.495   5.203   3.804
 2211SOL     OW 7531   5.511   1.312   0.001
 2211SOL    HW1 7532   5.426   1.363   7.011
 2211SOL    HW2 7533   5.491   1.215   0.009
 2212SOL     OW 7534   1.880   6.168   0.554
 2212SOL    HW1 7535   1.859   6.071   0.566
 2212SOL    HW2 7536   1.934   6.179   0.470
 2213SOL     OW 7537   4.239   2.785   5.627
 2213SOL    HW1 7538   4.265   2.782   5.530
 2213SOL    HW2 7539   4.213   2.693   5.657
 2214SOL     OW 7540   4.805   1.183   5.360
 2214SOL    HW1 7541   4.833   1.168   5.265
 2214SOL    HW2 7542   4.879   1.157   5.421
 2215SOL     OW 7543   6.550   2.019   5.870
 2215SOL    HW1 7544   6.517   2.096   5.924
 2215SOL    HW2 7545   6.506   1.934   5.902
 2216SOL     OW 7546   1.642   0.518   6.902
 2216SOL    HW1 7547   1.733   0.491   6.934
 2216SOL    HW2 7548   1.582   0.533   6.981
 2217SOL     OW 7549   3.088   6.966   1.750
 2217SOL    HW1 7550   3.080   6.973   1.850
 2217SOL    HW2 7551   3.037   6.886   1.718
 2218SOL     OW 7552   1.329   6.589   1.120
 2218SOL    HW1 7553   1.299   6.679   1.151
 2218SOL    HW2 7554   1.297   6.519   1.184
 2219SOL     OW 7555   0.875   4.124   3.453
 2219SOL    HW1 7556   0.870   4.121   3.553
 2219SOL    HW2 7557   0.796   4.075   3.415
 2220SOL     OW 7558   0.491   1.024   4.545
 2220SOL    HW1 7559   0.549   0.953   4.504
 2220SOL    HW2 7560   0.399   0.988   4.559
 2221SOL     OW 7561   6.614   0.921   6.989
 2221SOL    HW1 7562   6.653   0.829   6.994
 2221SOL    HW2 7563   6.586   0.951   0.056
 2222SOL     OW 7564   3.615   0.702   0.746
 2222SOL    HW1 7565   3.700   0.654   0.765
 2222SOL    HW2 7566   3.635   0.796   0.718
 2223SOL     OW 7567   5.270   6.744   3.764
 2223SOL    HW1 7568   5.262   6.694   3.678
 2223SOL    HW2 7569   5.219   6.830   3.758
 2224SOL     OW 7570   2.237   4.421   1.860
 2224SOL    HW1 7571   2.240   4.405   1.959
 2224SOL    HW2 7572   2.301   4.494   1.836
 2225SOL     OW 7573   6.133   5.731   2.990
 2225SOL    HW1 7574   6.066   5.677   2.938
 2225SOL    HW2 7575   6.085   5.781   3.063
 2226SOL     OW 7576   4.164   3.297   0.651
 2226SOL    HW1 7577   4.071   3.262   0.665
 2226SOL    HW2 7578   4.227   3.220   0.640
 2227SOL     OW 7579   5.923   4.661   0.188
 2227SOL    HW1 7580   5.837   4.619   0.158
 2227SOL    HW2 7581   5.904   4.749   0.232
 2228SOL     OW 7582   3.171   5.874   0.726
 2228SOL    HW1 7583   3.230   5.864   0.646
 2228SOL    HW2 7584   3.135   5.785   0.753
 2229SOL     OW 7585   4.042   1.528   4.313
 2229SOL    HW1 7586   3.967   1.555   4.373
 2229SOL    HW2 7587   4.095   1.455   4.356
 2230SOL     OW 7588   0.626   6.279   4.580
 2230SOL    HW1 7589   0.699   6.287   4.648
 2230SOL    HW2 7590   0.590   6.186   4.580
 2231SOL     OW 7591   1.869   1.675   1.541
 2231SOL    HW1 7592   1.793   1.679   1.477
 2231SOL    HW2 7593   1.930   1.600   1.516
 2232SOL     OW 7594   1.084   2.586   3.944
 2232SOL    HW1 7595   1.151   2.604   3.871
 2232SOL    HW2 7596   1.037   2.671   3.967
 2233SOL     OW 7597   2.801   4.485   0.566
 2233SOL    HW1 7598   2.757   4.501   0.477
 2233SOL    HW2 7599   2.814   4.387   0.580
 2234SOL     OW 7600   4.968   2.320   1.377
 2234SOL    HW1 7601   4.971   2.369   1.464
 2234SOL    HW2 7602   4.995   2.225   1.391
 2235SOL     OW 7603   1.518   0.299   0.222
 2235SOL    HW1 7604   1.600   0.304   0.278
 2235SOL    HW2 7605   1.533   0.237   0.145
 2236SOL     OW 7606   1.306   4.599   0.545
 2236SOL    HW1 7607   1.274   4.692   0.526
 2236SOL    HW2 7608   1.227   4.539   0.558
 2237SOL     OW 7609   5.658   4.154   4.477
 2237SOL    HW1 7610   5.562   4.179   4.490
 2237SOL    HW2 7611   5.663   4.060   4.446
 2238SOL     OW 7612   6.602   5.769   2.963
 2238SOL    HW1 7613   6.553   5.694   2.919
 2238SOL    HW2 7614   6.553   5.855   2.948
 2239SOL     OW 7615   3.730   5.149   3.727
 2239SOL    HW1 7616   3.674   5.190   3.800
 2239SOL    HW2 7617   3.805   5.210   3.703
 2240SOL     OW 7618   5.707   5.792   3.875
 2240SOL    HW1 7619   5.742   5.756   3.788
 2240SOL    HW2 7620   5.746   5.741   3.951
 2241SOL     OW 7621   0.209   6.533   2.119
 2241SOL    HW1 7622   0.179   6.525   2.024
 2241SOL    HW2 7623   0.231   6.629   2.139
 2242SOL     OW 7624   5.526   2.355   3.203
 2242SOL    HW1 7625   5.519   2.438   3.148
 2242SOL    HW2 7626   5.437   2.336   3.246
 2243SOL     OW 7627   2.825   6.212   5.253
 2243SOL    HW1 7628   2.804   6.261   5.337
 2243SOL    HW2 7629   2.769   6.248   5.178
 2244SOL     OW 7630   3.759   0.608   3.004
 2244SOL    HW1 7631   3.792   0.688   3.053
 2244SOL    HW2 7632   3.810   0.527   3.034
 2245SOL     OW 7633   0.243   2.214   1.374
 2245SOL    HW1 7634   0.203   2.243   1.287
 2245SOL    HW2 7635   0.342   2.219   1.369
 2246SOL     OW 7636   1.477   1.966   4.982
 2246SOL    HW1 7637   1.379   1.952   4.997
 2246SOL    HW2 7638   1.502   2.058   5.014
 2247SOL     OW 7639   2.146   2.633   6.386
 2247SOL    HW1 7640   2.094   2.647   6.471
 2247SOL    HW2 7641   2.186   2.719   6.357
 2248SOL     OW 7642   4.758   3.610   5.969
 2248SOL    HW1 7643   4.794   3.701   5.991
 2248SOL    HW2 7644   4.690   3.584   6.037
 2249SOL     OW 7645   5.470   6.516   2.994
 2249SOL    HW1 7646   5.418   6.482   2.916
 2249SOL    HW2 7647   5.407   6.532   3.071
 2250SOL     OW 7648   5.220   3.678   1.267
 2250SOL    HW1 7649   5.150   3.749   1.277
 2250SOL    HW2 7650   5.211   3.612   1.341
 2251SOL     OW 7651   6.049   1.456   0.122
 2251SOL    HW1 7652   6.044   1.478   0.220
 2251SOL    HW2 7653   5.968   1.492   0.076
 2252SOL     OW 7654   6.440   2.331   4.299
 2252SOL    HW1 7655   6.408   2.368   4.387
 2252SOL    HW2 7656   6.458   2.407   4.236
 2253SOL     OW 7657   1.168   3.320   6.611
 2253SOL    HW1 7658   1.093   3.285   6.555
 2253SOL    HW2 7659   1.140   3.319   6.707
 2254SOL     OW 7660   2.520   3.015   5.681
 2254SOL    HW1 7661   2.530   3.104   5.637
 2254SOL    HW2 7662   2.433   2.973   5.652
 2255SOL     OW 7663   6.577   2.424   0.672
 2255SOL    HW1 7664   6.510   2.436   0.746
 2255SOL    HW2 7665   6.533   2.445   0.584
 2256SOL     OW 7666   4.366   5.791   1.403
 2256SOL    HW1 7667   4.355   5.861   1.473
 2256SOL    HW2 7668   4.418   5.828   1.326
 2257SOL     OW 7669   0.519   3.010   4.473
 2257SOL    HW1 7670   0.614   2.988   4.495
 2257SOL    HW2 7671   0.464   3.009   4.557
 2258SOL     OW 7672   1.175   6.024   4.913
 2258SOL    HW1 7673   1.148   6.051   4.821
 2258SOL    HW2 7674   1.200   6.105   4.966
 2259SOL     OW 7675   4.541   3.461   6.106
 2259SOL    HW1 7676   4.516   3.558   6.113
 2259SOL    HW2 7677   4.463   3.409   6.072
 2260SOL     OW 7678   4.501   4.491   3.044
 2260SOL    HW1 7679   4.460   4.497   3.135
 2260SOL    HW2 7680   4.591   4.535   3.045
 2261SOL     OW 7681   6.051   6.758   0.944
 2261SOL    HW1 7682   6.015   6.778   1.035
 2261SOL    HW2 7683   6.011   6.673   0.911
 2262SOL     OW 7684   5.979   2.883   2.535
 2262SOL    HW1 7685   5.977   2.786   2.511
 2262SOL    HW2 7686   5.912   2.932   2.480
 2263SOL     OW 7687   2.673   5.624   6.140
 2263SOL    HW1 7688   2.752   5.623   6.200
 2263SOL    HW2 7689   2.602   5.682   6.178
 2264SOL     OW 7690   3.264   4.046   2.713
 2264SOL    HW1 7691   3.179   3.999   2.735
 2264SOL    HW2 7692   3.304   4.006   2.631
 2265SOL     OW 7693   0.015   0.520   3.357
 2265SOL    HW1 7694   0.003   0.619   3.359
 2265SOL    HW2 7695   6.950   0.476   3.360
 2266SOL     OW 7696   6.592   1.389   1.051
 2266SOL    HW1 7697   6.642   1.353   0.973
 2266SOL    HW2 7698   6.494   1.380   1.035
 2267SOL     OW 7699   5.675   2.516   4.962
 2267SOL    HW1 7700   5.708   2.598   4.915
 2267SOL    HW2 7701   5.661   2.537   5.059
 2268SOL     OW 7702   6.519   4.719   0.364
 2268SOL    HW1 7703   6.453   4.774   0.416
 2268SOL    HW2 7704   6.495   4.721   0.267
 2269SOL     OW 7705   6.020   5.799   5.469
 2269SOL    HW1 7706   6.005   5.871   5.402
 2269SOL    HW2 7707   6.038   5.840   5.558
 2270SOL     OW 7708   4.032   3.764   0.049
 2270SOL    HW1 7709   4.029   3.813   6.986
 2270SOL    HW2 7710   4.100   3.808   0.109
 2271SOL     OW 7711   6.211   3.986   1.375
 2271SOL    HW1 7712   6.186   3.954   1.466
 2271SOL    HW2 7713   6.130   3.992   1.318
 2272SOL     OW 7714   6.318   2.017   4.812
 2272SOL    HW1 7715   6.410   2.043   4.782
 2272SOL    HW2 7716   6.263   2.099   4.824
 2273SOL     OW 7717   1.665   1.592   1.763
 2273SOL    HW1 7718   1.574   1.622   1.733
 2273SOL    HW2 7719   1.734   1.626   1.700
 2274SOL     OW 7720   0.908   3.217   5.717
 2274SOL    HW1 7721   0.976   3.144   5.725
 2274SOL    HW2 7722   0.909   3.273   5.800
 2275SOL     OW 7723   5.200   0.007   4.881
 2275SOL    HW1 7724   5.157   7.000   4.966
 2275SOL    HW2 7725   5.157   6.987   4.803
 2276SOL     OW 7726   3.238   5.250   1.513
 2276SOL    HW1 7727   3.176   5.320   1.478
 2276SOL    HW2 7728   3.185   5.171   1.545
 2277SOL     OW 7729   2.922   3.715   4.743
 2277SOL    HW1 7730   2.930   3.632   4.798
 2277SOL    HW2 7731   2.970   3.702   4.656
 2278SOL     OW 7732   4.760   6.659   3.941
 2278SOL    HW1 7733   4.814   6.655   3.857
 2278SOL    HW2 7734   4.810   6.615   4.016
 2279SOL     OW 7735   5.413   5.253   4.296
 2279SOL    HW1 7736   5.504   5.227   4.327
 2279SOL    HW2 7737   5.371   5.316   4.362
 2280SOL     OW 7738   6.154   6.234   5.082
 2280SOL    HW1 7739   6.213   6.251   5.003
 2280SOL    HW2 7740   6.130   6.137   5.084
 2281SOL     OW 7741   3.920   1.118   1.874
 2281SOL    HW1 7742   3.891   1.136   1.780
 2281SOL    HW2 7743   4.011   1.077   1.873
 2282SOL     OW 7744   5.523   6.506   5.074
 2282SOL    HW1 7745   5.565   6.582   5.024
 2282SOL    HW2 7746   5.587   6.430   5.078
 2283SOL     OW 7747   6.683   4.225   1.152
 2283SOL    HW1 7748   6.677   4.218   1.053
 2283SOL    HW2 7749   6.779   4.229   1.180
 2284SOL     OW 7750   2.029   1.745   0.586
 2284SOL    HW1 7751   2.085   1.670   0.551
 2284SOL    HW2 7752   1.964   1.774   0.515
 2285SOL     OW 7753   2.208   3.471   6.848
 2285SOL    HW1 7754   2.135   3.404   6.861
 2285SOL    HW2 7755   2.202   3.541   6.919
 2286SOL     OW 7756   6.442   6.582   4.495
 2286SOL    HW1 7757   6.397   6.669   4.476
 2286SOL    HW2 7758   6.535   6.599   4.527
 2287SOL     OW 7759   2.391   2.554   1.960
 2287SOL    HW1 7760   2.412   2.461   1.990
 2287SOL    HW2 7761   2.296   2.575   1.981
 2288SOL     OW 7762   6.738   5.417   4.260
 2288SOL    HW1 7763   6.714   5.513   4.273
 2288SOL    HW2 7764   6.681   5.378   4.188
 2289SOL     OW 7765   6.238   3.686   2.659
 2289SOL    HW1 7766   6.157   3.709   2.605
 2289SOL    HW2 7767   6.269   3.766   2.709
 2290SOL     OW 7768   2.211   3.833   2.059
 2290SOL    HW1 7769   2.143   3.860   1.991
 2290SOL    HW2 7770   2.222   3.733   2.058
 2291SOL     OW 7771   2.106   2.301   0.360
 2291SOL    HW1 7772   2.095   2.240   0.439
 2291SOL    HW2 7773   2.130   2.247   0.279
 2292SOL     OW 7774   5.040   2.928   3.656
 2292SOL    HW1 7775   5.097   3.009   3.670
 2292SOL    HW2 7776   4.951   2.957   3.619
 2293SOL     OW 7777   6.389   0.348   1.006
 2293SOL    HW1 7778   6.306   0.303   1.039
 2293SOL    HW2 7779   6.380   0.447   1.017
 2294SOL     OW 7780   3.311   1.719   5.867
 2294SOL    HW1 7781   3.379   1.651   5.894
 2294SOL    HW2 7782   3.320   1.738   5.769
 2295SOL     OW 7783   0.043   1.122   2.928
 2295SOL    HW1 7784   0.100   1.116   2.846
 2295SOL    HW2 7785   0.058   1.041   2.985
 2296SOL     OW 7786   2.650   5.117   3.142
 2296SOL    HW1 7787   2.647   5.210   3.104
 2296SOL    HW2 7788   2.745   5.086   3.145
 2297SOL     OW 7789   4.868   4.584   6.162
 2297SOL    HW1 7790   4.957   4.549   6.132
 2297SOL    HW2 7791   4.864   4.682   6.145
 2298SOL     OW 7792   3.582   3.744   3.228
 2298SOL    HW1 7793   3.632   3.658   3.216
 2298SOL    HW2 7794   3.564   3.786   3.138
 2299SOL     OW 7795   4.829   4.129   4.939
 2299SOL    HW1 7796   4.916   4.105   4.981
 2299SOL    HW2 7797   4.784   4.200   4.994
 2300SOL     OW 7798   3.171   6.752   3.436
 2300SOL    HW1 7799   3.224   6.694   3.374
 2300SOL    HW2 7800   3.134   6.696   3.510
 2301SOL     OW 7801   3.593   2.902   3.773
 2301SOL    HW1 7802   3.531   2.912   3.851
 2301SOL    HW2 7803   3.688   2.902   3.806
 2302SOL     OW 7804   3.305   0.197   1.492
 2302SOL    HW1 7805   3.301   0.098   1.478
 2302SOL    HW2 7806   3.350   0.240   1.414
 2303SOL     OW 7807   2.396   3.275   1.252
 2303SOL    HW1 7808   2.369   3.360   1.296
 2303SOL    HW2 7809   2.370   3.198   1.309
 2304SOL     OW 7810   5.481   5.542   4.228
 2304SOL    HW1 7811   5.420   5.511   4.300
 2304SOL    HW2 7812   5.472   5.481   4.149
 2305SOL     OW 7813   1.955   0.527   3.726
 2305SOL    HW1 7814   1.868   0.549   3.771
 2305SOL    HW2 7815   2.024   0.595   3.753
 2306SOL     OW 7816   1.676   5.298   2.027
 2306SOL    HW1 7817   1.625   5.286   2.112
 2306SOL    HW2 7818   1.760   5.244   2.031
 2307SOL     OW 7819   0.576   3.297   5.632
 2307SOL    HW1 7820   0.596   3.391   5.605
 2307SOL    HW2 7821   0.580   3.237   5.552
 2308SOL     OW 7822   2.686   4.759   0.999
 2308SOL    HW1 7823   2.683   4.680   0.937
 2308SOL    HW2 7824   2.689   4.727   1.094
 2309SOL     OW 7825   1.862   0.793   4.537
 2309SOL    HW1 7826   1.788   0.812   4.601
 2309SOL    HW2 7827   1.867   0.694   4.521
 2310SOL     OW 7828   5.609   6.047   2.696
 2310SOL    HW1 7829   5.687   6.109   2.685
 2310SOL    HW2 7830   5.525   6.101   2.703
 2311SOL     OW 7831   2.854   5.870   6.878
 2311SOL    HW1 7832   2.786   5.841   6.945
 2311SOL    HW2 7833   2.896   5.789   6.836
 2312SOL     OW 7834   4.427   5.829   3.365
 2312SOL    HW1 7835   4.386   5.828   3.273
 2312SOL    HW2 7836   4.403   5.914   3.411
 2313SOL     OW 7837   5.049   5.030   2.243
 2313SOL    HW1 7838   5.053   5.099   2.170
 2313SOL    HW2 7839   5.117   4.959   2.225
 2314SOL     OW 7840   4.046   6.965   2.933
 2314SOL    HW1 7841   3.964   7.021   2.924
 2314SOL    HW2 7842   4.126   7.024   2.945
 2315SOL     OW 7843   5.137   3.556   5.758
 2315SOL    HW1 7844   5.223   3.608   5.763
 2315SOL    HW2 7845   5.157   3.459   5.769
 2316SOL     OW 7846   4.974   2.175   3.785
 2316SOL    HW1 7847   5.023   2.194   3.869
 2316SOL    HW2 7848   5.034   2.127   3.721
 2317SOL     OW 7849   0.055   5.378   3.446
 2317SOL    HW1 7850   0.029   5.327   3.527
 2317SOL    HW2 7851   0.094   5.466   3.473
 2318SOL     OW 7852   0.421   2.669   3.488
 2318SOL    HW1 7853   0.441   2.760   3.452
 2318SOL    HW2 7854   0.336   2.635   3.447
 2319SOL     OW 7855   1.478   4.704   4.932
 2319SOL    HW1 7856   1.417   4.782   4.944
 2319SOL    HW2 7857   1.493   4.658   5.019
 2320SOL     OW 7858   0.976   2.631   4.516
 2320SOL    HW1 7859   0.921   2.550   4.492
 2320SOL    HW2 7860   0.940   2.672   4.600
 2321SOL     OW 7861   3.535   0.887   5.193
 2321SOL    HW1 7862   3.591   0.816   5.237
 2321SOL    HW2 7863   3.533   0.870   5.094
 2322SOL     OW 7864   2.147   1.847   5.498
 2322SOL    HW1 7865   2.123   1.753   5.518
 2322SOL    HW2 7866   2.076   1.889   5.443
 2323SOL     OW 7867   2.459   4.479   2.546
 2323SOL    HW1 7868   2.444   4.566   2.593
 2323SOL    HW2 7869   2.492   4.411   2.611
 2324SOL     OW 7870   0.393   6.017   2.885
 2324SOL    HW1 7871   0.443   6.034   2.800
 2324SOL    HW2 7872   0.451   5.963   2.947
 2325SOL     OW 7873   1.285   3.839   1.781
 2325SOL    HW1 7874   1.279   3.741   1.762
 2325SOL    HW2 7875   1.234   3.889   1.710
 2326SOL     OW 7876   2.732   3.949   6.323
 2326SOL    HW1 7877   2.736   3.986   6.416
 2326SOL    HW2 7878   2.649   3.980   6.278
 2327SOL     OW 7879   5.089   2.618   4.703
 2327SOL    HW1 7880   5.179   2.594   4.740
 2327SOL    HW2 7881   5.093   2.708   4.660
 2328SOL     OW 7882   4.994   1.626   4.087
 2328SOL    HW1 7883   5.091   1.636   4.107
 2328SOL    HW2 7884   4.970   1.679   4.006
 2329SOL     OW 7885   1.469   5.375   4.715
 2329SOL    HW1 7886   1.431   5.397   4.625
 2329SOL    HW2 7887   1.511   5.284   4.711
 2330SOL     OW 7888   0.340   4.500   1.850
 2330SOL    HW1 7889   0.331   4.421   1.790
 2330SOL    HW2 7890   0.423   4.549   1.828
 2331SOL     OW 7891   6.027   5.056   6.642
 2331SOL    HW1 7892   6.089   5.047   6.720
 2331SOL    HW2 7893   6.081   5.068   6.558
 2332SOL     OW 7894   4.925   2.069   5.258
 2332SOL    HW1 7895   4.945   2.148   5.316
 2332SOL    HW2 7896   4.999   2.001   5.268
 2333SOL     OW 7897   0.343   4.660   2.975
 2333SOL    HW1 7898   0.427   4.685   2.925
 2333SOL    HW2 7899   0.367   4.615   3.061
 2334SOL     OW 7900   2.729   6.721   6.960
 2334SOL    HW1 7901   2.636   6.736   6.992
 2334SOL    HW2 7902   2.773   6.653   7.019
 2335SOL     OW 7903   6.110   1.368   3.358
 2335SOL    HW1 7904   6.083   1.430   3.431
 2335SOL    HW2 7905   6.204   1.387   3.330
 2336SOL     OW 7906   4.672   1.467   5.279
 2336SOL    HW1 7907   4.741   1.402   5.313
 2336SOL    HW2 7908   4.612   1.421   5.215
 2337SOL     OW 7909   5.036   1.018   3.360
 2337SOL    HW1 7910   4.941   0.993   3.377
 2337SOL    HW2 7911   5.039   1.097   3.298
 2338SOL     OW 7912   1.130   0.351   6.411
 2338SOL    HW1 7913   1.087   0.275   6.460
 2338SOL    HW2 7914   1.223   0.324   6.383
 2339SOL     OW 7915   3.243   3.839   5.413
 2339SOL    HW1 7916   3.239   3.919   5.472
 2339SOL    HW2 7917   3.208   3.862   5.322
 2340SOL     OW 7918   4.709   6.713   5.661
 2340SOL    HW1 7919   4.646   6.791   5.659
 2340SOL    HW2 7920   4.670   6.638   5.608
 2341SOL     OW 7921   5.518   4.026   0.731
 2341SOL    HW1 7922   5.431   4.037   0.683
 2341SOL    HW2 7923   5.524   4.093   0.805
 2342SOL     OW 7924   0.115   6.137   5.440
 2342SOL    HW1 7925   0.207   6.106   5.461
 2342SOL    HW2 7926   0.062   6.061   5.401
 2343SOL     OW 7927   1.780   6.913   1.211
 2343SOL    HW1 7928   1.817   6.828   1.173
 2343SOL    HW2 7929   1.683   6.900   1.234
 2344SOL     OW 7930   2.366   1.521   1.651
 2344SOL    HW1 7931   2.353   1.451   1.721
 2344SOL    HW2 7932   2.445   1.578   1.675
 2345SOL     OW 7933   1.710   6.850   5.219
 2345SOL    HW1 7934   1.701   6.760   5.176
 2345SOL    HW2 7935   1.799   6.889   5.196
 2346SOL     OW 7936   4.703   2.914   5.268
 2346SOL    HW1 7937   4.684   2.920   5.170
 2346SOL    HW2 7938   4.802   2.921   5.283
 2347SOL     OW 7939   1.583   4.319   2.367
 2347SOL    HW1 7940   1.599   4.388   2.438
 2347SOL    HW2 7941   1.504   4.263   2.394
 2348SOL     OW 7942   2.314   5.838   3.342
 2348SOL    HW1 7943   2.263   5.907   3.395
 2348SOL    HW2 7944   2.278   5.747   3.363
 2349SOL     OW 7945   0.979   6.199   7.006
 2349SOL    HW1 7946   0.974   6.293   0.015
 2349SOL    HW2 7947   1.053   6.191   6.939
 2350SOL     OW 7948   3.806   6.822   5.744
 2350SOL    HW1 7949   3.770   6.914   5.762
 2350SOL    HW2 7950   3.901   6.828   5.714
 2351SOL     OW 7951   3.377   5.145   3.643
 2351SOL    HW1 7952   3.277   5.152   3.640
 2351SOL    HW2 7953   3.409   5.149   3.737
 2352SOL     OW 7954   0.305   4.284   3.101
 2352SOL    HW1 7955   0.284   4.209   3.164
 2352SOL    HW2 7956   0.220   4.331   3.076
 2353SOL     OW 7957   2.495   4.492   4.738
 2353SOL    HW1 7958   2.586   4.466   4.707
 2353SOL    HW2 7959   2.500   4.526   4.832
 2354SOL     OW 7960   3.849   2.210   6.587
 2354SOL    HW1 7961   3.819   2.129   6.535
 2354SOL    HW2 7962   3.809   2.207   6.678
 2355SOL     OW 7963   0.249   6.330   0.354
 2355SOL    HW1 7964   0.312   6.277   0.411
 2355SOL    HW2 7965   0.200   6.270   0.292
 2356SOL     OW 7966   2.417   4.087   1.697
 2356SOL    HW1 7967   2.494   4.151   1.687
 2356SOL    HW2 7968   2.333   4.131   1.665
 2357SOL     OW 7969   4.265   5.245   4.128
 2357SOL    HW1 7970   4.273   5.202   4.038
 2357SOL    HW2 7971   4.171   5.238   4.161
 2358SOL     OW 7972   3.201   6.534   3.777
 2358SOL    HW1 7973   3.276   6.470   3.760
 2358SOL    HW2 7974   3.212   6.575   3.868
 2359SOL     OW 7975   2.214   1.001   6.163
 2359SOL    HW1 7976   2.160   1.084   6.176
 2359SOL    HW2 7977   2.283   0.995   6.236
 2360SOL     OW 7978   4.357   4.648   6.764
 2360SOL    HW1 7979   4.390   4.644   6.858
 2360SOL    HW2 7980   4.360   4.743   6.732
 2361SOL     OW 7981   2.755   6.850   3.773
 2361SOL    HW1 7982   2.672   6.905   3.780
 2361SOL    HW2 7983   2.766   6.817   3.680
 2362SOL     OW 7984   4.469   6.559   5.279
 2362SOL    HW1 7985   4.411   6.481   5.254
 2362SOL    HW2 7986   4.513   6.595   5.197
 2363SOL     OW 7987   4.893   2.540   5.353
 2363SOL    HW1 7988   4.838   2.498   5.425
 2363SOL    HW2 7989   4.962   2.600   5.395
 2364SOL     OW 7990   5.746   1.962   2.185
 2364SOL    HW1 7991   5.831   1.965   2.238
 2364SOL    HW2 7992   5.766   1.933   2.092
 2365SOL     OW 7993   5.688   4.536   5.809
 2365SOL    HW1 7994   5.761   4.541   5.742
 2365SOL    HW2 7995   5.726   4.513   5.899
 2366SOL     OW 7996   0.852   4.050   5.766
 2366SOL    HW1 7997   0.950   4.035   5.782
 2366SOL    HW2 7998   0.805   3.962   5.759
 2367SOL     OW 7999   0.776   3.126   6.032
 2367SOL    HW1 8000   0.808   3.033   6.053
 2367SOL    HW2 8001   0.700   3.120   5.967
 2368SOL     OW 8002   4.305   1.192   5.384
 2368SOL    HW1 8003   4.360   1.253   5.442
 2368SOL    HW2 8004   4.366   1.141   5.323
 2369SOL     OW 8005   2.424   1.814   3.874
 2369SOL    HW1 8006   2.400   1.907   3.903
 2369SOL    HW2 8007   2.495   1.818   3.803
 2370SOL     OW 8008   4.721   2.983   0.582
 2370SOL    HW1 8009   4.705   2.986   0.483
 2370SOL    HW2 8010   4.648   3.032   0.629
 2371SOL     OW 8011   1.278   5.931   2.455
 2371SOL    HW1 8012   1.363   5.975   2.482
 2371SOL    HW2 8013   1.297   5.858   2.389
 2372SOL     OW 8014   6.880   1.186   6.916
 2372SOL    HW1 8015   6.895   1.222   6.824
 2372SOL    HW2 8016   6.859   1.088   6.911
 2373SOL     OW 8017   6.493   1.134   6.061
 2373SOL    HW1 8018   6.489   1.037   6.036
 2373SOL    HW2 8019   6.447   1.148   6.149
 2374SOL     OW 8020   6.157   6.008   3.328
 2374SOL    HW1 8021   6.127   6.066   3.404
 2374SOL    HW2 8022   6.251   5.977   3.344
 2375SOL     OW 8023   0.740   0.435   4.211
 2375SOL    HW1 8024   0.644   0.436   4.183
 2375SOL    HW2 8025   0.799   0.453   4.132
 2376SOL     OW 8026   6.377   2.700   2.942
 2376SOL    HW1 8027   6.343   2.641   2.869
 2376SOL    HW2 8028   6.454   2.655   2.987
 2377SOL     OW 8029   3.219   3.617   4.600
 2377SOL    HW1 8030   3.286   3.552   4.635
 2377SOL    HW2 8031   3.145   3.567   4.554
 2378SOL     OW 8032   5.390   1.887   7.009
 2378SOL    HW1 8033   5.365   1.933   0.070
 2378SOL    HW2 8034   5.489   1.896   6.995
 2379SOL     OW 8035   6.460   3.912   6.942
 2379SOL    HW1 8036   6.380   3.871   6.986
 2379SOL    HW2 8037   6.528   3.842   6.924
 2380SOL     OW 8038   5.957   1.118   5.415
 2380SOL    HW1 8039   5.874   1.092   5.464
 2380SOL    HW2 8040   6.024   1.155   5.479
 2381SOL     OW 8041   1.544   4.309   5.489
 2381SOL    HW1 8042   1.606   4.241   5.527
 2381SOL    HW2 8043   1.513   4.370   5.562
 2382SOL     OW 8044   2.416   5.709   2.501
 2382SOL    HW1 8045   2.414   5.809   2.494
 2382SOL    HW2 8046   2.332   5.677   2.545
 2383SOL     OW 8047   5.473   6.215   6.531
 2383SOL    HW1 8048   5.524   6.158   6.595
 2383SOL    HW2 8049   5.532   6.289   6.498
 2384SOL     OW 8050   1.027   2.734   1.080
 2384SOL    HW1 8051   1.082   2.789   1.143
 2384SOL    HW2 8052   1.071   2.734   0.990
 2385SOL     OW 8053   0.688   0.833   0.328
 2385SOL    HW1 8054   0.693   0.763   0.399
 2385SOL    HW2 8055   0.685   0.789   0.238
 2386SOL     OW 8056   3.456   5.459   4.284
 2386SOL    HW1 8057   3.479   5.399   4.360
 2386SOL    HW2 8058   3.499   5.549   4.297
 2387SOL     OW 8059   0.061   3.787   4.431
 2387SOL    HW1 8060   7.004   3.730   4.443
 2387SOL    HW2 8061   0.070   3.812   4.334
 2388SOL     OW 8062   0.552   1.468   5.632
 2388SOL    HW1 8063   0.471   1.514   5.670
 2388SOL    HW2 8064   0.635   1.511   5.667
 2389SOL     OW 8065   4.253   4.665   3.626
 2389SOL    HW1 8066   4.201   4.740   3.584
 2389SOL    HW2 8067   4.308   4.620   3.556
 2390SOL     OW 8068   3.749   3.817   4.685
 2390SOL    HW1 8069   3.674   3.825   4.619
 2390SOL    HW2 8070   3.818   3.754   4.650
 2391SOL     OW 8071   3.784   3.883   6.084
 2391SOL    HW1 8072   3.751   3.841   5.999
 2391SOL    HW2 8073   3.734   3.843   6.161
 2392SOL     OW 8074   2.901   3.942   6.670
 2392SOL    HW1 8075   2.956   3.882   6.611
 2392SOL    HW2 8076   2.805   3.913   6.667
 2393SOL     OW 8077   3.908   5.146   1.226
 2393SOL    HW1 8078   3.906   5.097   1.313
 2393SOL    HW2 8079   3.830   5.208   1.220
 2394SOL     OW 8080   0.855   3.820   4.267
 2394SOL    HW1 8081   0.826   3.916   4.261
 2394SOL    HW2 8082   0.946   3.810   4.228
 2395SOL     OW 8083   6.972   2.953   6.621
 2395SOL    HW1 8084   0.040   2.987   6.602
 2395SOL    HW2 8085   6.955   2.872   6.564
 2396SOL     OW 8086   5.814   6.269   0.797
 2396SOL    HW1 8087   5.739   6.298   0.737
 2396SOL    HW2 8088   5.778   6.250   0.889
 2397SOL     OW 8089   6.756   4.652   0.537
 2397SOL    HW1 8090   6.784   4.746   0.515
 2397SOL    HW2 8091   6.659   4.641   0.516
 2398SOL     OW 8092   2.913   4.816   4.897
 2398SOL    HW1 8093   3.002   4.857   4.876
 2398SOL    HW2 8094   2.924   4.747   4.969
 2399SOL     OW 8095   3.700   2.086   3.373
 2399SOL    HW1 8096   3.673   2.086   3.469
 2399SOL    HW2 8097   3.774   2.152   3.359
 2400SOL     OW 8098   2.827   3.924   0.707
 2400SOL    HW1 8099   2.790   3.843   0.662
 2400SOL    HW2 8100   2.857   3.899   0.799
 2401SOL     OW 8101   3.473   0.378   4.295
 2401SOL    HW1 8102   3.411   0.394   4.371
 2401SOL    HW2 8103   3.459   0.286   4.258
 2402SOL     OW 8104   7.017   1.548   3.964
 2402SOL    HW1 8105   0.002   1.577   3.869
 2402SOL    HW2 8106   0.083   1.530   4.003
 2403SOL     OW 8107   3.267   3.156   0.961
 2403SOL    HW1 8108   3.295   3.089   0.893
 2403SOL    HW2 8109   3.179   3.129   1.001
 2404SOL     OW 8110   5.739   2.084   1.665
 2404SOL    HW1 8111   5.835   2.102   1.687
 2404SOL    HW2 8112   5.713   1.995   1.702
 2405SOL     OW 8113   3.458   4.279   5.870
 2405SOL    HW1 8114   3.367   4.255   5.903
 2405SOL    HW2 8115   3.490   4.209   5.806
 2406SOL     OW 8116   2.032   0.197   4.325
 2406SOL    HW1 8117   2.089   0.128   4.368
 2406SOL    HW2 8118   2.001   0.164   4.235
 2407SOL     OW 8119   4.310   2.301   2.886
 2407SOL    HW1 8120   4.288   2.378   2.825
 2407SOL    HW2 8121   4.405   2.308   2.916
 2408SOL     OW 8122   2.953   4.818   3.255
 2408SOL    HW1 8123   3.029   4.788   3.197
 2408SOL    HW2 8124   2.872   4.765   3.233
 2409SOL     OW 8125   2.614   2.892   1.148
 2409SOL    HW1 8126   2.609   2.961   1.220
 2409SOL    HW2 8127   2.621   2.937   1.059
 2410SOL     OW 8128   6.079   3.556   5.505
 2410SOL    HW1 8129   6.118   3.648   5.502
 2410SOL    HW2 8130   5.980   3.561   5.493
 2411SOL     OW 8131   2.988   3.593   5.699
 2411SOL    HW1 8132   3.009   3.589   5.797
 2411SOL    HW2 8133   2.980   3.500   5.663
 2412SOL     OW 8134   2.816   2.854   0.655
 2412SOL    HW1 8135   2.753   2.812   0.720
 2412SOL    HW2 8136   2.853   2.938   0.695
 2413SOL     OW 8137   5.522   3.782   6.075
 2413SOL    HW1 8138   5.467   3.703   6.103
 2413SOL    HW2 8139   5.506   3.858   6.138
 2414SOL     OW 8140   5.509   3.449   3.515
 2414SOL    HW1 8141   5.439   3.378   3.523
 2414SOL    HW2 8142   5.546   3.470   3.606
 2415SOL     OW 8143   2.027   0.075   1.561
 2415SOL    HW1 8144   1.955   0.119   1.507
 2415SOL    HW2 8145   2.022   0.107   1.655
 2416SOL     OW 8146   1.673   2.198   4.764
 2416SOL    HW1 8147   1.739   2.131   4.731
 2416SOL    HW2 8148   1.590   2.194   4.707
 2417SOL     OW 8149   5.200   2.124   0.492
 2417SOL    HW1 8150   5.133   2.162   0.428
 2417SOL    HW2 8151   5.176   2.029   0.514
 2418SOL     OW 8152   3.388   3.174   4.849
 2418SOL    HW1 8153   3.451   3.198   4.922
 2418SOL    HW2 8154   3.311   3.122   4.886
 2419SOL     OW 8155   1.583   0.083   4.506
 2419SOL    HW1 8156   1.527   0.001   4.515
 2419SOL    HW2 8157   1.637   0.078   4.423
 2420SOL     OW 8158   3.751   6.163   1.771
 2420SOL    HW1 8159   3.753   6.201   1.678
 2420SOL    HW2 8160   3.663   6.118   1.787
 2421SOL     OW 8161   3.655   6.843   3.698
 2421SOL    HW1 8162   3.657   6.818   3.795
 2421SOL    HW2 8163   3.561   6.843   3.665
 2422SOL     OW 8164   4.766   7.023   0.793
 2422SOL    HW1 8165   4.754   7.004   0.890
 2422SOL    HW2 8166   4.682   0.038   0.756
 2423SOL     OW 8167   1.888   5.295   1.593
 2423SOL    HW1 8168   1.946   5.351   1.652
 2423SOL    HW2 8169   1.916   5.307   1.498
 2424SOL     OW 8170   5.618   6.746   6.895
 2424SOL    HW1 8171   5.702   6.798   6.906
 2424SOL    HW2 8172   5.619   6.699   6.807
 2425SOL     OW 8173   5.976   6.759   6.019
 2425SOL    HW1 8174   6.012   6.705   6.095
 2425SOL    HW2 8175   5.962   6.854   6.048
 2426SOL     OW 8176   1.329   5.437   4.459
 2426SOL    HW1 8177   1.383   5.448   4.376
 2426SOL    HW2 8178   1.254   5.373   4.442
 2427SOL     OW 8179   4.965   5.804   0.534
 2427SOL    HW1 8180   4.953   5.733   0.603
 2427SOL    HW2 8181   5.045   5.783   0.477
 2428SOL     OW 8182   0.450   0.648   2.956
 2428SOL    HW1 8183   0.545   0.656   2.988
 2428SOL    HW2 8184   0.408   0.567   2.997
 2429SOL     OW 8185   5.975   5.038   3.328
 2429SOL    HW1 8186   6.064   5.010   3.293
 2429SOL    HW2 8187   5.975   5.034   3.428
 2430SOL     OW 8188   5.497   3.258   0.101
 2430SOL    HW1 8189   5.457   3.212   0.022
 2430SOL    HW2 8190   5.433   3.328   0.135
 2431SOL     OW 8191   4.675   1.078   0.786
 2431SOL    HW1 8192   4.696   1.140   0.862
 2431SOL    HW2 8193   4.631   0.996   0.822
 2432SOL     OW 8194   2.921   6.618   2.407
 2432SOL    HW1 8195   2.956   6.560   2.333
 2432SOL    HW2 8196   2.962   6.709   2.400
 2433SOL     OW 8197   1.676   6.720   0.236
 2433SOL    HW1 8198   1.697   6.683   0.327
 2433SOL    HW2 8199   1.719   6.663   0.166
 2434SOL     OW 8200   5.567   1.965   3.116
 2434SOL    HW1 8201   5.575   1.915   3.030
 2434SOL    HW2 8202   5.494   1.926   3.171
 2435SOL     OW 8203   5.319   5.150   0.226
 2435SOL    HW1 8204   5.354   5.096   0.149
 2435SOL    HW2 8205   5.353   5.244   0.218
 2436SOL     OW 8206   1.743   6.913   1.556
 2436SOL    HW1 8207   1.761   7.008   1.531
 2436SOL    HW2 8208   1.704   6.864   1.478
 2437SOL     OW 8209   4.836   6.677   1.507
 2437SOL    HW1 8210   4.896   6.603   1.476
 2437SOL    HW2 8211   4.765   6.693   1.439
 2438SOL     OW 8212   3.829   1.193   4.074
 2438SOL    HW1 8213   3.787   1.269   4.123
 2438SOL    HW2 8214   3.871   1.130   4.140
 2439SOL     OW 8215   0.805   4.213   0.758
 2439SOL    HW1 8216   0.905   4.213   0.752
 2439SOL    HW2 8217   0.773   4.119   0.775
 2440SOL     OW 8218   4.045   6.680   5.991
 2440SOL    HW1 8219   4.145   6.686   5.993
 2440SOL    HW2 8220   4.014   6.679   5.896
 2441SOL     OW 8221   6.146   1.301   6.948
 2441SOL    HW1 8222   6.125   1.382   7.003
 2441SOL    HW2 8223   6.060   1.259   6.918
 2442SOL     OW 8224   5.231   5.554   3.062
 2442SOL    HW1 8225   5.274   5.525   3.147
 2442SOL    HW2 8226   5.278   5.635   3.026
 2443SOL     OW 8227   3.282   0.317   6.780
 2443SOL    HW1 8228   3.337   0.354   6.705
 2443SOL    HW2 8229   3.343   0.271   6.846
 2444SOL     OW 8230   4.032   3.354   0.311
 2444SOL    HW1 8231   4.003   3.321   0.400
 2444SOL    HW2 8232   3.953   3.391   0.262
 2445SOL     OW 8233   6.351   1.647   1.753
 2445SOL    HW1 8234   6.383   1.736   1.719
 2445SOL    HW2 8235   6.403   1.622   1.835
 2446SOL     OW 8236   0.960   2.979   4.891
 2446SOL    HW1 8237   0.884   2.962   4.954
 2446SOL    HW2 8238   1.024   3.042   4.933
 2447SOL     OW 8239   2.681   1.256   1.246
 2447SOL    HW1 8240   2.625   1.174   1.238
 2447SOL    HW2 8241   2.767   1.234   1.293
 2448SOL     OW 8242   6.638   0.828   4.176
 2448SOL    HW1 8243   6.617   0.925   4.189
 2448SOL    HW2 8244   6.732   0.810   4.205
 2449SOL     OW 8245   1.048   3.628   1.919
 2449SOL    HW1 8246   1.075   3.702   1.980
 2449SOL    HW2 8247   1.130   3.580   1.888
 2450SOL     OW 8248   3.786   4.622   6.085
 2450SOL    HW1 8249   3.703   4.568   6.073
 2450SOL    HW2 8250   3.821   4.651   5.996
 2451SOL     OW 8251   1.670   0.094   3.829
 2451SOL    HW1 8252   1.702   0.131   3.916
 2451SOL    HW2 8253   1.724   0.131   3.755
 2452SOL     OW 8254   3.084   1.930   4.020
 2452SOL    HW1 8255   3.069   1.878   3.936
 2452SOL    HW2 8256   3.023   2.009   4.022
 2453SOL     OW 8257   0.641   3.693   0.681
 2453SOL    HW1 8258   0.641   3.724   0.586
 2453SOL    HW2 8259   0.674   3.599   0.685
 2454SOL     OW 8260   2.869   0.231   0.317
 2454SOL    HW1 8261   2.947   0.288   0.288
 2454SOL    HW2 8262   2.898   0.136   0.321
 2455SOL     OW 8263   3.709   0.431   0.407
 2455SOL    HW1 8264   3.611   0.419   0.392
 2455SOL    HW2 8265   3.743   0.363   0.471
 2456SOL     OW 8266   6.714   2.631   6.735
 2456SOL    HW1 8267   6.633   2.668   6.690
 2456SOL    HW2 8268   6.748   2.697   6.802
 2457SOL     OW 8269   6.649   0.680   6.427
 2457SOL    HW1 8270   6.692   0.590   6.424
 2457SOL    HW2 8271   6.628   0.704   6.522
 2458SOL     OW 8272   1.579   6.366   3.875
 2458SOL    HW1 8273   1.568   6.457   3.915
 2458SOL    HW2 8274   1.539   6.364   3.784
 2459SOL     OW 8275   2.900   6.294   5.548
 2459SOL    HW1 8276   2.834   6.242   5.601
 2459SOL    HW2 8277   2.875   6.391   5.550
 2460SOL     OW 8278   1.465   1.486   1.166
 2460SOL    HW1 8279   1.457   1.430   1.084
 2460SOL    HW2 8280   1.494   1.429   1.243
 2461SOL     OW 8281   5.269   0.640   3.381
 2461SOL    HW1 8282   5.347   0.581   3.363
 2461SOL    HW2 8283   5.192   0.612   3.323
 2462SOL     OW 8284   2.217   5.388   6.958
 2462SOL    HW1 8285   2.168   5.302   6.970
 2462SOL    HW2 8286   2.293   5.392   7.024
 2463SOL     OW 8287   5.951   2.071   6.664
 2463SOL    HW1 8288   5.913   1.979   6.676
 2463SOL    HW2 8289   5.960   2.091   6.567
 2464SOL     OW 8290   1.954   4.142   2.717
 2464SOL    HW1 8291   2.025   4.190   2.666
 2464SOL    HW2 8292   1.926   4.197   2.796
 2465SOL     OW 8293   1.002   6.719   6.758
 2465SOL    HW1 8294   0.908   6.734   6.729
 2465SOL    HW2 8295   1.025   6.780   6.833
 2466SOL     OW 8296   2.599   1.747   3.112
 2466SOL    HW1 8297   2.590   1.650   3.136
 2466SOL    HW2 8298   2.557   1.803   3.183
 2467SOL     OW 8299   5.258   1.688   4.669
 2467SOL    HW1 8300   5.223   1.723   4.757
 2467SOL    HW2 8301   5.202   1.725   4.595
 2468SOL     OW 8302   4.577   6.503   1.557
 2468SOL    HW1 8303   4.481   6.528   1.560
 2468SOL    HW2 8304   4.634   6.584   1.571
 2469SOL     OW 8305   4.099   3.741   5.069
 2469SOL    HW1 8306   4.162   3.789   5.006
 2469SOL    HW2 8307   4.007   3.741   5.030
 2470SOL     OW 8308   4.461   4.516   6.088
 2470SOL    HW1 8309   4.397   4.490   6.161
 2470SOL    HW2 8310   4.479   4.437   6.030
 2471SOL     OW 8311   3.053   6.124   0.712
 2471SOL    HW1 8312   3.090   6.031   0.705
 2471SOL    HW2 8313   2.985   6.128   0.785
 2472SOL     OW 8314   4.387   2.073   3.237
 2472SOL    HW1 8315   4.363   2.168   3.260
 2472SOL    HW2 8316   4.413   2.067   3.141
 2473SOL     OW 8317   1.672   3.820   4.952
 2473SOL    HW1 8318   1.732   3.750   4.913
 2473SOL    HW2 8319   1.725   3.899   4.979
 2474SOL     OW 8320   0.308   5.858   1.593
 2474SOL    HW1 8321   0.327   5.916   1.514
 2474SOL    HW2 8322   0.392   5.812   1.621
 2475SOL     OW 8323   3.808   0.337   2.616
 2475SOL    HW1 8324   3.814   0.402   2.692
 2475SOL    HW2 8325   3.828   0.245   2.648
 2476SOL     OW 8326   6.551   1.365   2.754
 2476SOL    HW1 8327   6.508   1.283   2.718
 2476SOL    HW2 8328   6.521   1.445   2.702
 2477SOL     OW 8329   4.708   1.182   2.501
 2477SOL    HW1 8330   4.676   1.136   2.418
 2477SOL    HW2 8331   4.672   1.134   2.581
 2478SOL     OW 8332   6.195   1.152   1.957
 2478SOL    HW1 8333   6.175   1.074   2.016
 2478SOL    HW2 8334   6.278   1.198   1.990
 2479SOL     OW 8335   0.853   3.333   2.126
 2479SOL    HW1 8336   0.855   3.429   2.154
 2479SOL    HW2 8337   0.853   3.275   2.208
 2480SOL     OW 8338   4.852   3.839   0.429
 2480SOL    HW1 8339   4.838   3.742   0.408
 2480SOL    HW2 8340   4.809   3.860   0.518
 2481SOL     OW 8341   3.782   6.406   0.152
 2481SOL    HW1 8342   3.806   6.391   0.057
 2481SOL    HW2 8343   3.700   6.464   0.157
 2482SOL     OW 8344   5.293   4.191   6.024
 2482SOL    HW1 8345   5.378   4.140   6.020
 2482SOL    HW2 8346   5.265   4.203   6.120
 2483SOL     OW 8347   1.639   1.246   0.407
 2483SOL    HW1 8348   1.713   1.304   0.441
 2483SOL    HW2 8349   1.670   1.196   0.325
 2484SOL     OW 8350   3.000   1.001   0.008
 2484SOL    HW1 8351   2.957   1.078   6.985
 2484SOL    HW2 8352   3.083   1.033   0.053
 2485SOL     OW 8353   6.376   3.284   1.212
 2485SOL    HW1 8354   6.375   3.276   1.113
 2485SOL    HW2 8355   6.464   3.322   1.242
 2486SOL     OW 8356   2.011   4.749   4.398
 2486SOL    HW1 8357   2.020   4.848   4.391
 2486SOL    HW2 8358   2.003   4.723   4.495
 2487SOL     OW 8359   4.005   6.182   0.556
 2487SOL    HW1 8360   4.040   6.099   0.512
 2487SOL    HW2 8361   3.960   6.158   0.642
 2488SOL     OW 8362   1.767   4.749   2.690
 2488SOL    HW1 8363   1.826   4.823   2.719
 2488SOL    HW2 8364   1.775   4.736   2.591
 2489SOL     OW 8365   1.392   5.845   3.609
 2489SOL    HW1 8366   1.399   5.923   3.670
 2489SOL    HW2 8367   1.307   5.796   3.626
 2490SOL     OW 8368   6.818   4.945   1.281
 2490SOL    HW1 8369   6.825   4.947   1.381
 2490SOL    HW2 8370   6.847   4.855   1.247
 2491SOL     OW 8371   2.274   5.349   0.582
 2491SOL    HW1 8372   2.338   5.409   0.631
 2491SOL    HW2 8373   2.216   5.404   0.523
 2492SOL     OW 8374   4.602   2.928   0.890
 2492SOL    HW1 8375   4.545   2.970   0.820
 2492SOL    HW2 8376   4.572   2.834   0.905
 2493SOL     OW 8377   5.838   0.585   1.753
 2493SOL    HW1 8378   5.866   0.571   1.848
 2493SOL    HW2 8379   5.912   0.630   1.703
 2494SOL     OW 8380   5.314   4.051   2.853
 2494SOL    HW1 8381   5.319   3.952   2.860
 2494SOL    HW2 8382   5.225   4.078   2.818
 2495SOL     OW 8383   5.040   0.306   4.484
 2495SOL    HW1 8384   5.080   0.299   4.575
 2495SOL    HW2 8385   4.943   0.330   4.492
 2496SOL     OW 8386   6.804   3.402   5.900
 2496SOL    HW1 8387   6.901   3.379   5.900
 2496SOL    HW2 8388   6.783   3.456   5.818
 2497SOL     OW 8389   0.399   0.415   0.656
 2497SOL    HW1 8390   0.366   0.504   0.625
 2497SOL    HW2 8391   0.449   0.426   0.742
 2498SOL     OW 8392   2.613   1.733   4.285
 2498SOL    HW1 8393   2.631   1.763   4.191
 2498SOL    HW2 8394   2.699   1.708   4.329
 2499SOL     OW 8395   6.209   2.674   1.838
 2499SOL    HW1 8396   6.110   2.659   1.843
 2499SOL    HW2 8397   6.239   2.670   1.743
 2500SOL     OW 8398   4.296   3.166   6.831
 2500SOL    HW1 8399   4.206   3.121   6.833
 2500SOL    HW2 8400   4.288   3.253   6.783
 2501SOL     OW 8401   5.801   4.993   0.857
 2501SOL    HW1 8402   5.760   4.985   0.766
 2501SOL    HW2 8403   5.898   5.014   0.848
 2502SOL     OW 8404   1.217   6.162   3.517
 2502SOL    HW1 8405   1.277   6.152   3.597
 2502SOL    HW2 8406   1.155   6.084   3.512
 2503SOL     OW 8407   2.627   6.074   4.265
 2503SOL    HW1 8408   2.690   6.151   4.278
 2503SOL    HW2 8409   2.680   5.992   4.243
 2504SOL     OW 8410   3.897   5.701   4.502
 2504SOL    HW1 8411   3.914   5.663   4.411
 2504SOL    HW2 8412   3.931   5.796   4.505
 2505SOL     OW 8413   1.204   6.229   2.968
 2505SOL    HW1 8414   1.136   6.183   3.025
 2505SOL    HW2 8415   1.288   6.241   3.020
 2506SOL     OW 8416   6.153   4.097   5.050
 2506SOL    HW1 8417   6.165   4.171   4.984
 2506SOL    HW2 8418   6.058   4.066   5.050
 2507SOL     OW 8419   1.140   4.194   0.655
 2507SOL    HW1 8420   1.143   4.172   0.752
 2507SOL    HW2 8421   1.182   4.120   0.603
 2508SOL     OW 8422   2.415   1.420   2.575
 2508SOL    HW1 8423   2.326   1.462   2.593
 2508SOL    HW2 8424   2.429   1.411   2.477
 2509SOL     OW 8425   6.742   2.761   1.292
 2509SOL    HW1 8426   6.748   2.720   1.383
 2509SOL    HW2 8427   6.834   2.785   1.260
 2510SOL     OW 8428   2.975   4.434   1.429
 2510SOL    HW1 8429   3.018   4.522   1.408
 2510SOL    HW2 8430   2.959   4.428   1.528
 2511SOL     OW 8431   2.899   2.167   4.322
 2511SOL    HW1 8432   2.866   2.228   4.393
 2511SOL    HW2 8433   2.931   2.082   4.363
 2512SOL     OW 8434   5.442   4.368   5.293
 2512SOL    HW1 8435   5.490   4.421   5.363
 2512SOL    HW2 8436   5.435   4.422   5.209
 2513SOL     OW 8437   1.352   4.064   5.429
 2513SOL    HW1 8438   1.401   4.001   5.490
 2513SOL    HW2 8439   1.387   4.157   5.443
 2514SOL     OW 8440   6.282   3.305   4.907
 2514SOL    HW1 8441   6.276   3.376   4.836
 2514SOL    HW2 8442   6.216   3.324   4.979
 2515SOL     OW 8443   2.256   6.731   0.379
 2515SOL    HW1 8444   2.270   6.817   0.427
 2515SOL    HW2 8445   2.180   6.681   0.422
 2516SOL     OW 8446   6.170   1.461   2.794
 2516SOL    HW1 8447   6.184   1.453   2.892
 2516SOL    HW2 8448   6.208   1.547   2.761
 2517SOL     OW 8449   1.044   5.999   5.590
 2517SOL    HW1 8450   1.071   5.914   5.636
 2517SOL    HW2 8451   1.059   6.076   5.651
 2518SOL     OW 8452   1.114   4.642   0.126
 2518SOL    HW1 8453   1.073   4.601   0.045
 2518SOL    HW2 8454   1.213   4.626   0.126
 2519SOL     OW 8455   4.427   6.493   3.089
 2519SOL    HW1 8456   4.389   6.502   3.181
 2519SOL    HW2 8457   4.411   6.400   3.056
 2520SOL     OW 8458   2.467   2.306   0.357
 2520SOL    HW1 8459   2.384   2.291   0.411
 2520SOL    HW2 8460   2.501   2.398   0.373
 2521SOL     OW 8461   1.310   0.609   5.223
 2521SOL    HW1 8462   1.343   0.673   5.154
 2521SOL    HW2 8463   1.381   0.542   5.244
 2522SOL     OW 8464   0.677   3.911   5.139
 2522SOL    HW1 8465   0.678   3.813   5.124
 2522SOL    HW2 8466   0.724   3.957   5.063
 2523SOL     OW 8467   6.922   2.996   1.281
 2523SOL    HW1 8468   7.015   3.029   1.267
 2523SOL    HW2 8469   6.874   3.057   1.344
 2524SOL     OW 8470   0.980   6.562   4.921
 2524SOL    HW1 8471   1.048   6.510   4.973
 2524SOL    HW2 8472   1.022   6.600   4.839
 2525SOL     OW 8473   1.236   2.027   5.416
 2525SOL    HW1 8474   1.318   2.061   5.370
 2525SOL    HW2 8475   1.241   2.047   5.514
 2526SOL     OW 8476   1.497   4.213   5.912
 2526SOL    HW1 8477   1.473   4.305   5.941
 2526SOL    HW2 8478   1.463   4.147   5.978
 2527SOL     OW 8479   5.094   5.964   4.989
 2527SOL    HW1 8480   5.126   6.002   5.076
 2527SOL    HW2 8481   5.132   5.873   4.976
 2528SOL     OW 8482   5.544   4.963   1.363
 2528SOL    HW1 8483   5.559   5.049   1.316
 2528SOL    HW2 8484   5.478   4.908   1.311
 2529SOL     OW 8485   6.815   6.744   6.118
 2529SOL    HW1 8486   6.719   6.772   6.119
 2529SOL    HW2 8487   6.820   6.644   6.128
 2530SOL     OW 8488   2.393   6.938   5.606
 2530SOL    HW1 8489   2.468   7.004   5.597
 2530SOL    HW2 8490   2.409   6.880   5.686
 2531SOL     OW 8491   4.903   5.878   4.426
 2531SOL    HW1 8492   4.903   5.860   4.524
 2531SOL    HW2 8493   4.953   5.805   4.378
 2532SOL     OW 8494   0.596   6.664   1.260
 2532SOL    HW1 8495   0.496   6.657   1.262
 2532SOL    HW2 8496   0.624   6.718   1.180
 2533SOL     OW 8497   3.468   6.575   3.456
 2533SOL    HW1 8498   3.561   6.561   3.490
 2533SOL    HW2 8499   3.462   6.664   3.411
 2534SOL     OW 8500   3.428   0.536   3.224
 2534SOL    HW1 8501   3.439   0.533   3.125
 2534SOL    HW2 8502   3.341   0.581   3.247
 2535SOL     OW 8503   3.403   1.895   5.086
 2535SOL    HW1 8504   3.496   1.875   5.117
 2535SOL    HW2 8505   3.389   1.994   5.084
 2536SOL     OW 8506   0.726   1.998   4.812
 2536SOL    HW1 8507   0.688   1.909   4.784
 2536SOL    HW2 8508   0.790   2.030   4.742
 2537SOL     OW 8509   3.706   0.340   6.582
 2537SOL    HW1 8510   3.711   0.242   6.567
 2537SOL    HW2 8511   3.775   0.367   6.649
 2538SOL     OW 8512   1.058   4.985   5.195
 2538SOL    HW1 8513   1.065   5.062   5.258
 2538SOL    HW2 8514   1.137   4.925   5.207
 2539SOL     OW 8515   5.182   0.986   5.280
 2539SOL    HW1 8516   5.183   1.020   5.186
 2539SOL    HW2 8517   5.275   0.993   5.319
 2540SOL     OW 8518   4.175   0.830   2.536
 2540SOL    HW1 8519   4.117   0.907   2.562
 2540SOL    HW2 8520   4.264   0.864   2.505
 2541SOL     OW 8521   2.299   6.794   5.134
 2541SOL    HW1 8522   2.282   6.804   5.035
 2541SOL    HW2 8523   2.361   6.866   5.165
 2542SOL     OW 8524   4.578   1.814   6.258
 2542SOL    HW1 8525   4.486   1.798   6.294
 2542SOL    HW2 8526   4.641   1.831   6.334
 2543SOL     OW 8527   1.056   1.344   2.907
 2543SOL    HW1 8528   1.151   1.372   2.891
 2543SOL    HW2 8529   1.000   1.425   2.925
 2544SOL     OW 8530   0.151   5.924   0.999
 2544SOL    HW1 8531   0.146   5.937   1.098
 2544SOL    HW2 8532   0.109   5.836   0.974
 2545SOL     OW 8533   2.269   0.750   1.191
 2545SOL    HW1 8534   2.325   0.711   1.264
 2545SOL    HW2 8535   2.267   0.850   1.200
 2546SOL     OW 8536   0.012   1.453   1.047
 2546SOL    HW1 8537   6.942   1.486   1.044
 2546SOL    HW2 8538   0.014   1.360   1.082
 2547SOL     OW 8539   6.201   4.172   0.528
 2547SOL    HW1 8540   6.140   4.238   0.485
 2547SOL    HW2 8541   6.233   4.208   0.616
 2548SOL     OW 8542   2.237   6.422   5.945
 2548SOL    HW1 8543   2.268   6.392   5.855
 2548SOL    HW2 8544   2.303   6.489   5.982
 2549SOL     OW 8545   2.058   1.009   0.905
 2549SOL    HW1 8546   2.022   1.091   0.859
 2549SOL    HW2 8547   2.152   1.027   0.936
 2550SOL     OW 8548   6.888   0.255   6.061
 2550SOL    HW1 8549   6.923   0.278   5.970
 2550SOL    HW2 8550   6.921   0.165   6.088
 2551SOL     OW 8551   3.572   4.878   0.729
 2551SOL    HW1 8552   3.480   4.901   0.698
 2551SOL    HW2 8553   3.627   4.850   0.651
 2552SOL     OW 8554   1.910   5.837   5.935
 2552SOL    HW1 8555   1.886   5.902   6.006
 2552SOL    HW2 8556   1.910   5.883   5.846
 2553SOL     OW 8557   4.266   3.040   6.113
 2553SOL    HW1 8558   4.239   3.018   6.020
 2553SOL    HW2 8559   4.216   2.981   6.177
 2554SOL     OW 8560   2.095   6.178   0.929
 2554SOL    HW1 8561   2.058   6.091   0.960
 2554SOL    HW2 8562   2.094   6.243   1.005
 2555SOL     OW 8563   5.784   6.805   6.552
 2555SOL    HW1 8564   5.760   6.815   6.455
 2555SOL    HW2 8565   5.801   6.895   6.591
 2556SOL     OW 8566   4.666   5.696   0.377
 2556SOL    HW1 8567   4.760   5.676   0.404
 2556SOL    HW2 8568   4.658   5.794   0.357
 2557SOL     OW 8569   2.761   3.382   6.249
 2557SOL    HW1 8570   2.705   3.451   6.203
 2557SOL    HW2 8571   2.833   3.351   6.187
 2558SOL     OW 8572   4.688   2.460   5.949
 2558SOL    HW1 8573   4.768   2.402   5.931
 2558SOL    HW2 8574   4.714   2.556   5.940
 2559SOL     OW 8575   6.497   4.364   3.922
 2559SOL    HW1 8576   6.508   4.308   3.840
 2559SOL    HW2 8577   6.446   4.447   3.899
 2560SOL     OW 8578   6.043   3.470   4.213
 2560SOL    HW1 8579   5.947   3.482   4.238
 2560SOL    HW2 8580   6.061   3.373   4.195
 2561SOL     OW 8581   2.851   6.448   4.821
 2561SOL    HW1 8582   2.814   6.482   4.735
 2561SOL    HW2 8583   2.948   6.426   4.810
 2562SOL     OW 8584   0.882   5.296   2.001
 2562SOL    HW1 8585   0.933   5.210   1.999
 2562SOL    HW2 8586   0.839   5.311   1.912
 2563SOL     OW 8587   3.954   1.996   0.806
 2563SOL    HW1 8588   3.946   1.906   0.849
 2563SOL    HW2 8589   3.942   1.987   0.707
 2564SOL     OW 8590   1.822   6.093   6.040
 2564SOL    HW1 8591   1.920   6.109   6.043
 2564SOL    HW2 8592   1.779   6.158   5.977
 2565SOL     OW 8593   0.360   6.979   6.993
 2565SOL    HW1 8594   0.278   0.011   6.982
 2565SOL    HW2 8595   0.386   6.941   6.904
 2566SOL     OW 8596   2.195   0.035   0.769
 2566SOL    HW1 8597   2.130   0.110   0.774
 2566SOL    HW2 8598   2.146   6.973   0.756
 2567SOL     OW 8599   0.744   1.431   1.129
 2567SOL    HW1 8600   0.797   1.516   1.138
 2567SOL    HW2 8601   0.783   1.375   1.056
 2568SOL     OW 8602   3.244   6.624   0.342
 2568SOL    HW1 8603   3.335   6.640   0.380
 2568SOL    HW2 8604   3.244   6.648   0.245
 2569SOL     OW 8605   2.966   1.362   1.873
 2569SOL    HW1 8606   2.875   1.397   1.850
 2569SOL    HW2 8607   2.965   1.262   1.867
 2570SOL     OW 8608   5.625   0.086   6.095
 2570SOL    HW1 8609   5.532   0.110   6.124
 2570SOL    HW2 8610   5.638   0.117   6.001
 2571SOL     OW 8611   2.333   4.585   5.066
 2571SOL    HW1 8612   2.284   4.528   5.132
 2571SOL    HW2 8613   2.430   4.586   5.087
 2572SOL     OW 8614   2.287   5.655   0.163
 2572SOL    HW1 8615   2.336   5.699   0.238
 2572SOL    HW2 8616   2.351   5.604   0.106
 2573SOL     OW 8617   6.517   2.448   1.521
 2573SOL    HW1 8618   6.592   2.509   1.545
 2573SOL    HW2 8619   6.550   2.380   1.455
 2574SOL     OW 8620   6.189   3.966   7.024
 2574SOL    HW1 8621   6.177   4.043   6.961
 2574SOL    HW2 8622   6.188   3.999   0.094
 2575SOL     OW 8623   5.289   5.611   0.428
 2575SOL    HW1 8624   5.319   5.579   0.518
 2575SOL    HW2 8625   5.322   5.704   0.413
 2576SOL     OW 8626   3.514   7.009   4.314
 2576SOL    HW1 8627   3.448   0.043   4.266
 2576SOL    HW2 8628   3.604   0.028   4.313
 2577SOL     OW 8629   3.314   6.840   1.670
 2577SOL    HW1 8630   3.385   6.861   1.738
 2577SOL    HW2 8631   3.231   6.892   1.691
 2578SOL     OW 8632   4.442   1.458   3.920
 2578SOL    HW1 8633   4.514   1.397   3.887
 2578SOL    HW2 8634   4.450   1.546   3.874
 2579SOL     OW 8635   1.309   6.257   2.433
 2579SOL    HW1 8636   1.394   6.204   2.422
 2579SOL    HW2 8637   1.259   6.223   2.512
 2580SOL     OW 8638   2.621   2.720   6.548
 2580SOL    HW1 8639   2.661   2.638   6.509
 2580SOL    HW2 8640   2.627   2.795   6.482
 2581SOL     OW 8641   0.819   4.787   0.867
 2581SOL    HW1 8642   0.755   4.839   0.810
 2581SOL    HW2 8643   0.907   4.779   0.820
 2582SOL     OW 8644   0.648   4.681   2.170
 2582SOL    HW1 8645   0.709   4.602   2.177
 2582SOL    HW2 8646   0.647   4.713   2.075
 2583SOL     OW 8647   1.058   0.991   0.383
 2583SOL    HW1 8648   1.046   0.903   0.429
 2583SOL    HW2 8649   1.129   0.983   0.313
 2584SOL     OW 8650   3.998   5.886   0.111
 2584SOL    HW1 8651   3.902   5.910   0.093
 2584SOL    HW2 8652   4.033   5.832   0.035
 2585SOL     OW 8653   4.999   2.449   0.676
 2585SOL    HW1 8654   5.088   2.416   0.645
 2585SOL    HW2 8655   4.932   2.435   0.604
 2586SOL     OW 8656   3.372   1.193   3.670
 2586SOL    HW1 8657   3.315   1.231   3.597
 2586SOL    HW2 8658   3.363   1.249   3.752
 2587SOL     OW 8659   0.294   0.868   3.601
 2587SOL    HW1 8660   0.203   0.862   3.560
 2587SOL    HW2 8661   0.318   0.779   3.639
 2588SOL     OW 8662   4.278   0.957   6.615
 2588SOL    HW1 8663   4.292   1.049   6.579
 2588SOL    HW2 8664   4.180   0.939   6.623
 2589SOL     OW 8665   0.273   5.936   6.542
 2589SOL    HW1 8666   0.223   5.877   6.478
 2589SOL    HW2 8667   0.318   5.881   6.611
 2590SOL     OW 8668   3.673   5.847   0.710
 2590SOL    HW1 8669   3.639   5.941   0.712
 2590SOL    HW2 8670   3.737   5.836   0.633
 2591SOL     OW 8671   6.985   5.230   2.604
 2591SOL    HW1 8672   0.049   5.264   2.572
 2591SOL    HW2 8673   6.917   5.304   2.599
 2592SOL     OW 8674   3.364   4.975   0.547
 2592SOL    HW1 8675   3.367   5.068   0.510
 2592SOL    HW2 8676   3.288   4.968   0.611
 2593SOL     OW 8677   3.321   5.229   0.403
 2593SOL    HW1 8678   3.301   5.303   0.466
 2593SOL    HW2 8679   3.240   5.209   0.348
 2594SOL     OW 8680   1.127   5.182   6.271
 2594SOL    HW1 8681   1.127   5.200   6.172
 2594SOL    HW2 8682   1.085   5.094   6.289
 2595SOL     OW 8683   6.466   1.149   3.998
 2595SOL    HW1 8684   6.403   1.073   4.013
 2595SOL    HW2 8685   6.548   1.137   4.054
 2596SOL     OW 8686   3.059   1.593   1.928
 2596SOL    HW1 8687   3.023   1.505   1.899
 2596SOL    HW2 8688   3.014   1.666   1.875
 2597SOL     OW 8689   1.415   5.016   5.867
 2597SOL    HW1 8690   1.493   5.061   5.911
 2597SOL    HW2 8691   1.430   5.010   5.769
 2598SOL     OW 8692   6.793   1.150   2.782
 2598SOL    HW1 8693   6.869   1.138   2.847
 2598SOL    HW2 8694   6.747   1.237   2.801
 2599SOL     OW 8695   2.095   6.552   0.965
 2599SOL    HW1 8696   2.069   6.542   0.869
 2599SOL    HW2 8697   2.184   6.598   0.971
 2600SOL     OW 8698   5.501   3.242   5.184
 2600SOL    HW1 8699   5.418   3.297   5.169
 2600SOL    HW2 8700   5.517   3.183   5.105
 2601SOL     OW 8701   2.659   1.286   1.589
 2601SOL    HW1 8702   2.681   1.366   1.644
 2601SOL    HW2 8703   2.661   1.311   1.492
 2602SOL     OW 8704   1.331   4.113   4.750
 2602SOL    HW1 8705   1.286   4.186   4.699
 2602SOL    HW2 8706   1.288   4.102   4.839
 2603SOL     OW 8707   2.441   1.197   3.911
 2603SOL    HW1 8708   2.356   1.145   3.921
 2603SOL    HW2 8709   2.430   1.287   3.954
 2604SOL     OW 8710   4.287   1.503   2.753
 2604SOL    HW1 8711   4.244   1.479   2.840
 2604SOL    HW2 8712   4.217   1.529   2.686
 2605SOL     OW 8713   1.868   2.989   3.168
 2605SOL    HW1 8714   1.883   3.087   3.176
 2605SOL    HW2 8715   1.902   2.957   3.080
 2606SOL     OW 8716   5.287   4.289   2.303
 2606SOL    HW1 8717   5.363   4.351   2.281
 2606SOL    HW2 8718   5.224   4.285   2.225
 2607SOL     OW 8719   1.599   1.712   1.114
 2607SOL    HW1 8720   1.551   1.798   1.099
 2607SOL    HW2 8721   1.533   1.638   1.123
 2608SOL     OW 8722   4.741   5.359   1.315
 2608SOL    HW1 8723   4.680   5.289   1.277
 2608SOL    HW2 8724   4.698   5.449   1.307
 2609SOL     OW 8725   6.510   1.135   1.587
 2609SOL    HW1 8726   6.533   1.215   1.531
 2609SOL    HW2 8727   6.493   1.057   1.527
 2610SOL     OW 8728   1.097   4.635   4.958
 2610SOL    HW1 8729   1.140   4.673   5.039
 2610SOL    HW2 8730   1.135   4.679   4.876
 2611SOL     OW 8731   4.484   6.864   1.109
 2611SOL    HW1 8732   4.393   6.871   1.149
 2611SOL    HW2 8733   4.485   6.792   1.040
 2612SOL     OW 8734   6.361   0.196   5.988
 2612SOL    HW1 8735   6.460   0.184   6.002
 2612SOL    HW2 8736   6.342   0.212   5.891
 2613SOL     OW 8737   3.103   5.792   6.153
 2613SOL    HW1 8738   3.048   5.815   6.233
 2613SOL    HW2 8739   3.076   5.702   6.119
 2614SOL     OW 8740   6.411   1.238   5.815
 2614SOL    HW1 8741   6.476   1.258   5.741
 2614SOL    HW2 8742   6.455   1.181   5.884
 2615SOL     OW 8743   0.161   3.092   2.167
 2615SOL    HW1 8744   0.178   3.091   2.266
 2615SOL    HW2 8745   0.064   3.109   2.151
 2616SOL     OW 8746   3.281   2.824   5.908
 2616SOL    HW1 8747   3.351   2.807   5.978
 2616SOL    HW2 8748   3.277   2.746   5.845
 2617SOL     OW 8749   3.934   6.715   0.331
 2617SOL    HW1 8750   3.973   6.667   0.409
 2617SOL    HW2 8751   3.994   6.703   0.252
 2618SOL     OW 8752   6.717   0.278   3.859
 2618SOL    HW1 8753   6.750   0.288   3.765
 2618SOL    HW2 8754   6.782   0.221   3.910
 2619SOL     OW 8755   3.677   1.915   3.150
 2619SOL    HW1 8756   3.616   1.970   3.092
 2619SOL    HW2 8757   3.711   1.971   3.225
 2620SOL     OW 8758   6.761   6.665   3.691
 2620SOL    HW1 8759   6.723   6.573   3.678
 2620SOL    HW2 8760   6.814   6.691   3.610
 2621SOL     OW 8761   0.739   5.123   2.560
 2621SOL    HW1 8762   0.651   5.165   2.538
 2621SOL    HW2 8763   0.774   5.077   2.478
 2622SOL     OW 8764   1.675   3.447   5.064
 2622SOL    HW1 8765   1.761   3.465   5.017
 2622SOL    HW2 8766   1.603   3.428   4.997
 2623SOL     OW 8767   0.904   1.073   5.830
 2623SOL    HW1 8768   0.893   0.987   5.781
 2623SOL    HW2 8769   0.999   1.082   5.861
 2624SOL     OW 8770   6.763   1.075   5.377
 2624SOL    HW1 8771   6.667   1.047   5.378
 2624SOL    HW2 8772   6.810   1.032   5.301
 2625SOL     OW 8773   2.503   3.337   5.727
 2625SOL    HW1 8774   2.449   3.349   5.644
 2625SOL    HW2 8775   2.564   3.415   5.739
 2626SOL     OW 8776   0.341   0.673   5.838
 2626SOL    HW1 8777   0.439   0.688   5.851
 2626SOL    HW2 8778   0.302   0.638   5.924
 2627SOL     OW 8779   0.643   1.085   6.146
 2627SOL    HW1 8780   0.660   1.168   6.199
 2627SOL    HW2 8781   0.565   1.099   6.086
 2628SOL     OW 8782   2.062   4.764   5.792
 2628SOL    HW1 8783   2.059   4.733   5.887
 2628SOL    HW2 8784   2.086   4.687   5.732
 2629SOL     OW 8785   3.583   3.311   2.512
 2629SOL    HW1 8786   3.519   3.361   2.571
 2629SOL    HW2 8787   3.533   3.270   2.436
 2630SOL     OW 8788   3.196   1.827   2.643
 2630SOL    HW1 8789   3.263   1.900   2.653
 2630SOL    HW2 8790   3.113   1.862   2.600
 2631SOL     OW 8791   5.196   0.766   5.932
 2631SOL    HW1 8792   5.115   0.810   5.891
 2631SOL    HW2 8793   5.215   0.808   6.021
 2632SOL     OW 8794   5.244   3.253   6.460
 2632SOL    HW1 8795   5.164   3.287   6.511
 2632SOL    HW2 8796   5.325   3.304   6.488
 2633SOL     OW 8797   0.516   2.201   4.293
 2633SOL    HW1 8798   0.518   2.209   4.393
 2633SOL    HW2 8799   0.580   2.130   4.264
 2634SOL     OW 8800   0.639   4.590   3.514
 2634SOL    HW1 8801   0.680   4.662   3.570
 2634SOL    HW2 8802   0.569   4.629   3.455
 2635SOL     OW 8803   6.641   6.047   5.413
 2635SOL    HW1 8804   6.673   6.131   5.370
 2635SOL    HW2 8805   6.716   6.005   5.464
 2636SOL     OW 8806   3.764   0.631   5.034
 2636SOL    HW1 8807   3.803   0.640   4.942
 2636SOL    HW2 8808   3.818   0.685   5.098
 2637SOL     OW 8809   5.640   1.653   3.245
 2637SOL    HW1 8810   5.650   1.598   3.328
 2637SOL    HW2 8811   5.545   1.685   3.237
 2638SOL     OW 8812   0.065   6.967   3.813
 2638SOL    HW1 8813   0.005   6.888   3.828
 2638SOL    HW2 8814   0.129   6.945   3.739
 2639SOL     OW 8815   0.826   5.941   0.615
 2639SOL    HW1 8816   0.843   5.865   0.552
 2639SOL    HW2 8817   0.902   6.005   0.611
 2640SOL     OW 8818   0.362   6.073   5.526
 2640SOL    HW1 8819   0.450   6.121   5.528
 2640SOL    HW2 8820   0.328   6.062   5.620
 2641SOL     OW 8821   5.973   3.185   2.117
 2641SOL    HW1 8822   5.981   3.242   2.198
 2641SOL    HW2 8823   5.951   3.243   2.038
 2642SOL     OW 8824   5.123   0.671   3.630
 2642SOL    HW1 8825   5.103   0.769   3.625
 2642SOL    HW2 8826   5.187   0.647   3.557
 2643SOL     OW 8827   0.580   3.699   3.264
 2643SOL    HW1 8828   0.512   3.758   3.308
 2643SOL    HW2 8829   0.537   3.649   3.188
 2644SOL     OW 8830   5.307   5.901   5.298
 2644SOL    HW1 8831   5.223   5.872   5.343
 2644SOL    HW2 8832   5.292   5.988   5.251
 2645SOL     OW 8833   4.076   5.698   3.712
 2645SOL    HW1 8834   4.107   5.622   3.655
 2645SOL    HW2 8835   4.019   5.663   3.786
 2646SOL     OW 8836   6.392   1.538   6.973
 2646SOL    HW1 8837   6.490   1.541   6.953
 2646SOL    HW2 8838   6.378   1.508   0.043
 2647SOL     OW 8839   6.641   0.290   1.907
 2647SOL    HW1 8840   6.607   0.203   1.870
 2647SOL    HW2 8841   6.686   0.342   1.835
 2648SOL     OW 8842   0.831   6.784   3.420
 2648SOL    HW1 8843   0.856   6.845   3.495
 2648SOL    HW2 8844   0.808   6.694   3.457
 2649SOL     OW 8845   6.796   3.442   0.241
 2649SOL    HW1 8846   6.767   3.537   0.231
 2649SOL    HW2 8847   6.735   3.384   0.188
 2650SOL     OW 8848   0.724   4.612   3.836
 2650SOL    HW1 8849   0.724   4.513   3.819
 2650SOL    HW2 8850   0.767   4.630   3.925
 2651SOL     OW 8851   2.361   1.551   1.043
 2651SOL    HW1 8852   2.336   1.576   1.137
 2651SOL    HW2 8853   2.452   1.587   1.022
 2652SOL     OW 8854   4.226   3.321   5.368
 2652SOL    HW1 8855   4.222   3.414   5.331
 2652SOL    HW2 8856   4.321   3.290   5.370
 2653SOL     OW 8857   4.748   6.762   5.933
 2653SOL    HW1 8858   4.766   6.722   6.023
 2653SOL    HW2 8859   4.695   6.698   5.878
 2654SOL     OW 8860   4.594   0.148   2.017
 2654SOL    HW1 8861   4.552   0.225   2.064
 2654SOL    HW2 8862   4.590   0.161   1.918
 2655SOL     OW 8863   5.480   6.979   4.317
 2655SOL    HW1 8864   5.426   0.016   4.258
 2655SOL    HW2 8865   5.418   6.920   4.368
 2656SOL     OW 8866   3.659   5.179   4.690
 2656SOL    HW1 8867   3.671   5.101   4.628
 2656SOL    HW2 8868   3.724   5.172   4.765
 2657SOL     OW 8869   1.019   4.266   0.159
 2657SOL    HW1 8870   0.990   4.173   0.136
 2657SOL    HW2 8871   1.073   4.264   0.243
 2658SOL     OW 8872   5.022   4.705   0.554
 2658SOL    HW1 8873   5.016   4.756   0.640
 2658SOL    HW2 8874   5.107   4.730   0.507
 2659SOL     OW 8875   5.306   2.820   4.978
 2659SOL    HW1 8876   5.316   2.919   4.974
 2659SOL    HW2 8877   5.211   2.795   4.962
 2660SOL     OW 8878   1.835   6.771   1.785
 2660SOL    HW1 8879   1.812   6.823   1.703
 2660SOL    HW2 8880   1.810   6.675   1.772
 2661SOL     OW 8881   2.391   7.002   1.670
 2661SOL    HW1 8882   2.364   0.018   1.583
 2661SOL    HW2 8883   2.312   6.960   1.714
 2662SOL     OW 8884   4.243   6.518   5.482
 2662SOL    HW1 8885   4.322   6.519   5.420
 2662SOL    HW2 8886   4.245   6.435   5.537
 2663SOL     OW 8887   3.550   4.282   6.436
 2663SOL    HW1 8888   3.484   4.240   6.375
 2663SOL    HW2 8889   3.635   4.229   6.435
 2664SOL     OW 8890   4.738   3.325   5.195
 2664SOL    HW1 8891   4.727   3.422   5.172
 2664SOL    HW2 8892   4.650   3.288   5.225
 2665SOL     OW 8893   2.764   2.944   5.315
 2665SOL    HW1 8894   2.679   2.957   5.265
 2665SOL    HW2 8895   2.795   2.850   5.304
 2666SOL     OW 8896   0.145   5.344   1.547
 2666SOL    HW1 8897   0.241   5.320   1.532
 2666SOL    HW2 8898   0.104   5.376   1.462
 2667SOL     OW 8899   0.933   5.469   4.539
 2667SOL    HW1 8900   0.979   5.557   4.526
 2667SOL    HW2 8901   0.890   5.467   4.629
 2668SOL     OW 8902   0.436   3.091   5.125
 2668SOL    HW1 8903   0.517   3.076   5.070
 2668SOL    HW2 8904   0.373   3.152   5.077
 2669SOL     OW 8905   2.910   4.752   6.002
 2669SOL    HW1 8906   2.964   4.743   6.086
 2669SOL    HW2 8907   2.971   4.761   5.924
 2670SOL     OW 8908   5.505   3.958   5.689
 2670SOL    HW1 8909   5.514   4.056   5.671
 2670SOL    HW2 8910   5.440   3.917   5.624
 2671SOL     OW 8911   4.329   5.505   6.776
 2671SOL    HW1 8912   4.251   5.549   6.732
 2671SOL    HW2 8913   4.375   5.570   6.837
 2672SOL     OW 8914   2.120   4.886   0.747
 2672SOL    HW1 8915   2.165   4.969   0.713
 2672SOL    HW2 8916   2.052   4.912   0.817
 2673SOL     OW 8917   6.669   1.339   1.864
 2673SOL    HW1 8918   6.714   1.258   1.825
 2673SOL    HW2 8919   6.702   1.421   1.817
 2674SOL     OW 8920   1.411   4.898   3.824
 2674SOL    HW1 8921   1.446   4.865   3.911
 2674SOL    HW2 8922   1.327   4.850   3.800
 2675SOL     OW 8923   6.020   5.404   3.931
 2675SOL    HW1 8924   5.921   5.408   3.945
 2675SOL    HW2 8925   6.063   5.486   3.970
 2676SOL     OW 8926   3.890   2.760   1.244
 2676SOL    HW1 8927   3.814   2.786   1.184
 2676SOL    HW2 8928   3.868   2.675   1.291
 2677SOL     OW 8929   2.842   4.050   0.024
 2677SOL    HW1 8930   2.783   4.034   0.103
 2677SOL    HW2 8931   2.863   4.148   0.017
 2678SOL     OW 8932   0.172   2.683   1.761
 2678SOL    HW1 8933   0.105   2.693   1.835
 2678SOL    HW2 8934   0.199   2.587   1.754
 2679SOL     OW 8935   1.953   4.774   1.914
 2679SOL    HW1 8936   1.988   4.721   1.991
 2679SOL    HW2 8937   1.892   4.845   1.946
 2680SOL     OW 8938   0.939   1.645   1.004
 2680SOL    HW1 8939   1.022   1.599   0.973
 2680SOL    HW2 8940   0.956   1.687   1.093
 2681SOL     OW 8941   1.718   2.226   5.318
 2681SOL    HW1 8942   1.635   2.265   5.357
 2681SOL    HW2 8943   1.727   2.253   5.223
 2682SOL     OW 8944   4.739   4.331   3.355
 2682SOL    HW1 8945   4.693   4.316   3.267
 2682SOL    HW2 8946   4.805   4.406   3.345
 2683SOL     OW 8947   2.927   5.475   1.634
 2683SOL    HW1 8948   2.892   5.391   1.675
 2683SOL    HW2 8949   2.881   5.491   1.547
 2684SOL     OW 8950   4.924   6.096   1.621
 2684SOL    HW1 8951   4.874   6.182   1.605
 2684SOL    HW2 8952   5.021   6.111   1.605
 2685SOL     OW 8953   5.975   6.243   6.233
 2685SOL    HW1 8954   5.915   6.166   6.252
 2685SOL    HW2 8955   5.949   6.285   6.146
 2686SOL     OW 8956   2.082   1.243   6.156
 2686SOL    HW1 8957   2.095   1.216   6.061
 2686SOL    HW2 8958   2.086   1.343   6.164
 2687SOL     OW 8959   5.207   5.420   1.344
 2687SOL    HW1 8960   5.188   5.347   1.410
 2687SOL    HW2 8961   5.285   5.474   1.377
 2688SOL     OW 8962   3.465   3.740   0.460
 2688SOL    HW1 8963   3.366   3.729   0.471
 2688SOL    HW2 8964   3.490   3.720   0.365
 2689SOL     OW 8965   1.122   4.127   2.738
 2689SOL    HW1 8966   1.131   4.028   2.726
 2689SOL    HW2 8967   1.026   4.153   2.727
 2690SOL     OW 8968   3.471   3.237   5.111
 2690SOL    HW1 8969   3.448   3.332   5.131
 2690SOL    HW2 8970   3.420   3.177   5.172
 2691SOL     OW 8971   1.110   5.142   3.705
 2691SOL    HW1 8972   1.175   5.209   3.740
 2691SOL    HW2 8973   1.097   5.070   3.773
 2692SOL     OW 8974   2.671   5.942   3.133
 2692SOL    HW1 8975   2.722   5.888   3.200
 2692SOL    HW2 8976   2.726   6.020   3.104
 2693SOL     OW 8977   2.104   4.888   3.486
 2693SOL    HW1 8978   2.045   4.964   3.512
 2693SOL    HW2 8979   2.165   4.917   3.412
 2694SOL     OW 8980   4.063   6.281   2.914
 2694SOL    HW1 8981   4.095   6.359   2.968
 2694SOL    HW2 8982   4.115   6.278   2.828
 2695SOL     OW 8983   5.981   1.475   2.375
 2695SOL    HW1 8984   5.922   1.395   2.382
 2695SOL    HW2 8985   5.963   1.522   2.289
 2696SOL     OW 8986   3.507   3.231   5.818
 2696SOL    HW1 8987   3.468   3.194   5.903
 2696SOL    HW2 8988   3.435   3.279   5.767
 2697SOL     OW 8989   3.236   1.040   3.351
 2697SOL    HW1 8990   3.256   1.135   3.375
 2697SOL    HW2 8991   3.322   0.989   3.341
 2698SOL     OW 8992   2.216   4.638   0.778
 2698SOL    HW1 8993   2.169   4.726   0.771
 2698SOL    HW2 8994   2.159   4.574   0.829
 2699SOL     OW 8995   2.510   5.715   0.803
 2699SOL    HW1 8996   2.601   5.742   0.770
 2699SOL    HW2 8997   2.450   5.795   0.804
 2700SOL     OW 8998   2.803   3.067   6.762
 2700SOL    HW1 8999   2.800   3.163   6.789
 2700SOL    HW2 9000   2.753   3.012   6.829
 2701SOL     OW 9001   5.410   1.647   5.786
 2701SOL    HW1 9002   5.510   1.641   5.782
 2701SOL    HW2 9003   5.378   1.617   5.876
 2702SOL     OW 9004   0.463   2.941   3.449
 2702SOL    HW1 9005   0.381   2.971   3.401
 2702SOL    HW2 9006   0.544   2.972   3.400
 2703SOL     OW 9007   0.886   7.007   1.025
 2703SOL    HW1 9008   0.917   0.069   1.066
 2703SOL    HW2 9009   0.947   6.982   0.950
 2704SOL     OW 9010   6.588   5.645   2.177
 2704SOL    HW1 9011   6.646   5.717   2.216
 2704SOL    HW2 9012   6.524   5.613   2.246
 2705SOL     OW 9013   6.800   6.680   4.504
 2705SOL    HW1 9014   6.743   6.715   4.430
 2705SOL    HW2 9015   6.894   6.668   4.471
 2706SOL     OW 9016   6.507   5.003   2.807
 2706SOL    HW1 9017   6.549   4.956   2.729
 2706SOL    HW2 9018   6.516   5.102   2.794
 2707SOL     OW 9019   3.895   0.746   4.327
 2707SOL    HW1 9020   3.912   0.702   4.415
 2707SOL    HW2 9021   3.959   0.710   4.259
 2708SOL     OW 9022   0.074   2.676   1.065
 2708SOL    HW1 9023   0.062   2.762   1.015
 2708SOL    HW2 9024   0.171   2.652   1.068
 2709SOL     OW 9025   4.785   0.351   0.248
 2709SOL    HW1 9026   4.789   0.448   0.270
 2709SOL    HW2 9027   4.815   0.336   0.154
 2710SOL     OW 9028   1.157   2.934   4.379
 2710SOL    HW1 9029   1.237   2.974   4.423
 2710SOL    HW2 9030   1.076   2.946   4.436
 2711SOL     OW 9031   2.441   0.616   3.800
 2711SOL    HW1 9032   2.482   0.596   3.889
 2711SOL    HW2 9033   2.512   0.611   3.729
 2712SOL     OW 9034   2.688   4.402   1.441
 2712SOL    HW1 9035   2.658   4.495   1.423
 2712SOL    HW2 9036   2.787   4.396   1.427
 2713SOL     OW 9037   2.316   2.661   5.399
 2713SOL    HW1 9038   2.232   2.634   5.352
 2713SOL    HW2 9039   2.382   2.696   5.333
 2714SOL     OW 9040   4.077   2.551   0.121
 2714SOL    HW1 9041   4.035   2.609   0.190
 2714SOL    HW2 9042   4.020   2.471   0.105
 2715SOL     OW 9043   5.140   2.347   1.006
 2715SOL    HW1 9044   5.046   2.312   1.006
 2715SOL    HW2 9045   5.156   2.399   0.923
 2716SOL     OW 9046   5.409   3.113   3.155
 2716SOL    HW1 9047   5.489   3.159   3.194
 2716SOL    HW2 9048   5.415   3.015   3.170
 2717SOL     OW 9049   0.226   0.228   2.775
 2717SOL    HW1 9050   0.292   0.162   2.740
 2717SOL    HW2 9051   0.258   0.321   2.755
 2718SOL     OW 9052   1.494   1.159   4.752
 2718SOL    HW1 9053   1.550   1.147   4.835
 2718SOL    HW2 9054   1.416   1.218   4.774
 2719SOL     OW 9055   0.371   5.164   1.520
 2719SOL    HW1 9056   0.298   5.096   1.531
 2719SOL    HW2 9057   0.422   5.145   1.436
 2720SOL     OW 9058   1.943   6.030   2.039
 2720SOL    HW1 9059   2.034   5.989   2.040
 2720SOL    HW2 9060   1.889   5.993   2.115
 2721SOL     OW 9061   3.390   6.292   3.201
 2721SOL    HW1 9062   3.331   6.299   3.282
 2721SOL    HW2 9063   3.457   6.366   3.203
 2722SOL     OW 9064   6.393   4.854   0.577
 2722SOL    HW1 9065   6.421   4.949   0.565
 2722SOL    HW2 9066   6.336   4.845   0.659
 2723SOL     OW 9067   0.748   5.819   6.213
 2723SOL    HW1 9068   0.743   5.899   6.272
 2723SOL    HW2 9069   0.844   5.792   6.201
 2724SOL     OW 9070   1.743   5.825   6.886
 2724SOL    HW1 9071   1.708   5.817   6.793
 2724SOL    HW2 9072   1.695   5.899   6.934
 2725SOL     OW 9073   5.015   4.871   5.002
 2725SOL    HW1 9074   5.011   4.811   4.922
 2725SOL    HW2 9075   5.077   4.948   4.982
 2726SOL     OW 9076   7.020   1.853   1.203
 2726SOL    HW1 9077   7.016   1.876   1.106
 2726SOL    HW2 9078   0.089   1.827   1.227
 2727SOL     OW 9079   1.097   4.538   3.757
 2727SOL    HW1 9080   1.007   4.565   3.791
 2727SOL    HW2 9081   1.100   4.439   3.746
 2728SOL     OW 9082   4.778   6.677   5.282
 2728SOL    HW1 9083   4.742   6.620   5.355
 2728SOL    HW2 9084   4.876   6.658   5.271
 2729SOL     OW 9085   0.104   6.016   0.614
 2729SOL    HW1 9086   0.027   6.022   0.550
 2729SOL    HW2 9087   0.071   6.035   0.707
 2730SOL     OW 9088   2.097   5.484   1.608
 2730SOL    HW1 9089   2.110   5.490   1.707
 2730SOL    HW2 9090   2.179   5.518   1.561
 2731SOL     OW 9091   3.185   3.474   3.362
 2731SOL    HW1 9092   3.212   3.568   3.382
 2731SOL    HW2 9093   3.105   3.474   3.302
 2732SOL     OW 9094   5.223   2.833   1.921
 2732SOL    HW1 9095   5.134   2.798   1.892
 2732SOL    HW2 9096   5.295   2.774   1.884
 2733SOL     OW 9097   6.463   2.262   4.695
 2733SOL    HW1 9098   6.500   2.336   4.751
 2733SOL    HW2 9099   6.364   2.258   4.706
 2734SOL     OW 9100   3.448   5.662   0.688
 2734SOL    HW1 9101   3.483   5.570   0.675
 2734SOL    HW2 9102   3.524   5.725   0.701
 2735SOL     OW 9103   1.873   3.283   1.595
 2735SOL    HW1 9104   1.778   3.266   1.570
 2735SOL    HW2 9105   1.927   3.199   1.582
 2736SOL     OW 9106   5.745   5.995   4.777
 2736SOL    HW1 9107   5.737   5.951   4.866
 2736SOL    HW2 9108   5.841   6.005   4.753
 2737SOL     OW 9109   2.819   4.195   5.272
 2737SOL    HW1 9110   2.850   4.281   5.231
 2737SOL    HW2 9111   2.720   4.199   5.284
 2738SOL     OW 9112   5.020   5.908   1.851
 2738SOL    HW1 9113   4.947   5.975   1.843
 2738SOL    HW2 9114   4.987   5.829   1.903
 2739SOL     OW 9115   1.218   4.607   1.393
 2739SOL    HW1 9116   1.195   4.627   1.298
 2739SOL    HW2 9117   1.216   4.691   1.446
 2740SOL     OW 9118   6.643   4.150   2.263
 2740SOL    HW1 9119   6.718   4.134   2.199
 2740SOL    HW2 9120   6.558   4.115   2.224
 2741SOL     OW 9121   6.484   0.539   4.654
 2741SOL    HW1 9122   6.449   0.472   4.720
 2741SOL    HW2 9123   6.496   0.627   4.700
 2742SOL     OW 9124   1.959   5.248   0.148
 2742SOL    HW1 9125   1.873   5.291   0.121
 2742SOL    HW2 9126   2.022   5.318   0.180
 2743SOL     OW 9127   6.286   4.685   2.314
 2743SOL    HW1 9128   6.349   4.737   2.372
 2743SOL    HW2 9129   6.282   4.727   2.223
 2744SOL     OW 9130   4.569   2.325   0.652
 2744SOL    HW1 9131   4.534   2.233   0.634
 2744SOL    HW2 9132   4.559   2.346   0.749
 2745SOL     OW 9133   6.887   0.663   5.329
 2745SOL    HW1 9134   6.930   0.585   5.375
 2745SOL    HW2 9135   6.826   0.630   5.257
 2746SOL     OW 9136   1.629   2.483   4.744
 2746SOL    HW1 9137   1.535   2.502   4.770
 2746SOL    HW2 9138   1.640   2.386   4.724
 2747SOL     OW 9139   4.769   4.488   6.400
 2747SOL    HW1 9140   4.696   4.421   6.390
 2747SOL    HW2 9141   4.799   4.519   6.310
 2748SOL     OW 9142   4.644   1.340   2.103
 2748SOL    HW1 9143   4.628   1.249   2.065
 2748SOL    HW2 9144   4.658   1.405   2.028
 2749SOL     OW 9145   0.126   4.439   1.293
 2749SOL    HW1 9146   0.159   4.532   1.310
 2749SOL    HW2 9147   0.190   4.392   1.232
 2750SOL     OW 9148   1.377   3.770   1.112
 2750SOL    HW1 9149   1.302   3.743   1.051
 2750SOL    HW2 9150   1.382   3.870   1.115
 2751SOL     OW 9151   1.184   3.286   1.675
 2751SOL    HW1 9152   1.257   3.230   1.711
 2751SOL    HW2 9153   1.111   3.295   1.743
 2752SOL     OW 9154   3.872   5.189   5.251
 2752SOL    HW1 9155   3.911   5.197   5.343
 2752SOL    HW2 9156   3.835   5.278   5.223
 2753SOL     OW 9157   0.390   6.490   5.303
 2753SOL    HW1 9158   0.326   6.548   5.353
 2753SOL    HW2 9159   0.340   6.426   5.245
 2754SOL     OW 9160   0.946   0.663   1.672
 2754SOL    HW1 9161   0.907   0.708   1.593
 2754SOL    HW2 9162   0.873   0.633   1.734
 2755SOL     OW 9163   2.151   0.043   2.472
 2755SOL    HW1 9164   2.076   0.064   2.533
 2755SOL    HW2 9165   2.116   0.027   2.380
 2756SOL     OW 9166   5.937   5.155   6.987
 2756SOL    HW1 9167   5.841   5.180   6.991
 2756SOL    HW2 9168   5.960   5.099   0.043
 2757SOL     OW 9169   2.462   0.140   6.779
 2757SOL    HW1 9170   2.521   0.108   6.853
 2757SOL    HW2 9171   2.391   0.199   6.817
 2758SOL     OW 9172   3.678   6.448   3.937
 2758SOL    HW1 9173   3.703   6.515   4.007
 2758SOL    HW2 9174   3.655   6.361   3.980
 2759SOL     OW 9175   5.194   0.082   5.780
 2759SOL    HW1 9176   5.247   0.138   5.716
 2759SOL    HW2 9177   5.099   0.077   5.750
 2760SOL     OW 9178   0.627   5.846   2.136
 2760SOL    HW1 9179   0.590   5.786   2.065
 2760SOL    HW2 9180   0.723   5.821   2.154
 2761SOL     OW 9181   2.158   5.763   4.617
 2761SOL    HW1 9182   2.098   5.840   4.637
 2761SOL    HW2 9183   2.125   5.681   4.664
 2762SOL     OW 9184   1.403   1.425   5.063
 2762SOL    HW1 9185   1.501   1.434   5.047
 2762SOL    HW2 9186   1.375   1.488   5.137
 2763SOL     OW 9187   4.975   1.635   3.194
 2763SOL    HW1 9188   4.904   1.705   3.190
 2763SOL    HW2 9189   4.976   1.594   3.286
 2764SOL     OW 9190   5.728   1.253   0.980
 2764SOL    HW1 9191   5.697   1.239   0.885
 2764SOL    HW2 9192   5.746   1.350   0.995
 2765SOL     OW 9193   5.764   0.151   1.180
 2765SOL    HW1 9194   5.741   0.247   1.196
 2765SOL    HW2 9195   5.776   0.136   1.082
 2766SOL     OW 9196   5.373   2.163   0.704
 2766SOL    HW1 9197   5.293   2.158   0.645
 2766SOL    HW2 9198   5.379   2.255   0.744
 2767SOL     OW 9199   6.663   5.504   0.024
 2767SOL    HW1 9200   6.587   5.513   6.983
 2767SOL    HW2 9201   6.630   5.459   0.106
 2768SOL     OW 9202   4.527   0.837   1.147
 2768SOL    HW1 9203   4.466   0.854   1.224
 2768SOL    HW2 9204   4.474   0.830   1.062
 2769SOL     OW 9205   2.036   4.161   4.559
 2769SOL    HW1 9206   2.061   4.248   4.517
 2769SOL    HW2 9207   2.117   4.119   4.600
 2770SOL     OW 9208   4.729   6.084   5.877
 2770SOL    HW1 9209   4.657   6.092   5.945
 2770SOL    HW2 9210   4.782   6.169   5.874
 2771SOL     OW 9211   6.864   0.714   3.875
 2771SOL    HW1 9212   6.808   0.789   3.911
 2771SOL    HW2 9213   6.815   0.670   3.799
 2772SOL     OW 9214   4.189   1.036   0.677
 2772SOL    HW1 9215   4.286   1.011   0.677
 2772SOL    HW2 9216   4.147   1.006   0.591
 2773SOL     OW 9217   5.903   2.185   5.024
 2773SOL    HW1 9218   5.881   2.183   5.122
 2773SOL    HW2 9219   5.923   2.092   4.992
 2774SOL     OW 9220   5.592   3.216   2.956
 2774SOL    HW1 9221   5.501   3.212   2.999
 2774SOL    HW2 9222   5.641   3.296   2.989
 2775SOL     OW 9223   6.936   5.643   6.105
 2775SOL    HW1 9224   7.022   5.618   6.149
 2775SOL    HW2 9225   6.930   5.743   6.097
 2776SOL     OW 9226   4.009   5.167   5.509
 2776SOL    HW1 9227   4.015   5.227   5.588
 2776SOL    HW2 9228   4.065   5.085   5.525
 2777SOL     OW 9229   2.875   0.937   2.325
 2777SOL    HW1 9230   2.948   0.919   2.391
 2777SOL    HW2 9231   2.910   0.995   2.252
 2778SOL     OW 9232   1.543   0.057   5.288
 2778SOL    HW1 9233   1.612   0.125   5.313
 2778SOL    HW2 9234   1.586   6.992   5.278
 2779SOL     OW 9235   5.014   6.470   1.438
 2779SOL    HW1 9236   5.068   6.392   1.469
 2779SOL    HW2 9237   5.036   6.492   1.343
 2780SOL     OW 9238   6.307   6.465   6.957
 2780SOL    HW1 9239   6.400   6.472   6.919
 2780SOL    HW2 9240   6.257   6.393   6.910
 2781SOL     OW 9241   5.512   6.438   2.187
 2781SOL    HW1 9242   5.424   6.463   2.227
 2781SOL    HW2 9243   5.566   6.521   2.171
 2782SOL     OW 9244   4.345   2.438   6.565
 2782SOL    HW1 9245   4.420   2.377   6.539
 2782SOL    HW2 9246   4.335   2.510   6.496
 2783SOL     OW 9247   5.337   4.100   3.835
 2783SOL    HW1 9248   5.314   4.099   3.738
 2783SOL    HW2 9249   5.333   4.007   3.871
 2784SOL     OW 9250   3.174   1.085   2.463
 2784SOL    HW1 9251   3.230   1.050   2.388
 2784SOL    HW2 9252   3.092   1.130   2.426
 2785SOL     OW 9253   4.911   1.428   0.643
 2785SOL    HW1 9254   4.897   1.491   0.720
 2785SOL    HW2 9255   4.823   1.389   0.616
 2786SOL     OW 9256   4.904   0.231   1.905
 2786SOL    HW1 9257   4.823   0.288   1.918
 2786SOL    HW2 9258   4.927   0.185   1.991
 2787SOL     OW 9259   4.872   1.558   6.178
 2787SOL    HW1 9260   4.936   1.482   6.174
 2787SOL    HW2 9261   4.922   1.644   6.192
 2788SOL     OW 9262   2.000   5.406   5.983
 2788SOL    HW1 9263   1.977   5.465   5.906
 2788SOL    HW2 9264   1.942   5.429   6.061
 2789SOL     OW 9265   1.619   2.078   3.866
 2789SOL    HW1 9266   1.695   2.033   3.913
 2789SOL    HW2 9267   1.575   2.142   3.929
 2790SOL     OW 9268   3.302   5.736   2.230
 2790SOL    HW1 9269   3.264   5.828   2.239
 2790SOL    HW2 9270   3.236   5.678   2.181
 2791SOL     OW 9271   0.859   2.970   3.569
 2791SOL    HW1 9272   0.789   2.954   3.499
 2791SOL    HW2 9273   0.927   3.034   3.534
 2792SOL     OW 9274   2.113   6.788   3.882
 2792SOL    HW1 9275   2.060   6.825   3.805
 2792SOL    HW2 9276   2.051   6.741   3.945
 2793SOL     OW 9277   5.683   3.999   2.676
 2793SOL    HW1 9278   5.634   3.958   2.599
 2793SOL    HW2 9279   5.724   3.926   2.732
 2794SOL     OW 9280   0.243   2.672   6.453
 2794SOL    HW1 9281   0.258   2.763   6.491
 2794SOL    HW2 9282   0.152   2.639   6.481
 2795SOL     OW 9283   1.203   3.481   0.543
 2795SOL    HW1 9284   1.188   3.580   0.543
 2795SOL    HW2 9285   1.177   3.443   0.454
 2796SOL     OW 9286   6.874   6.333   3.137
 2796SOL    HW1 9287   6.885   6.369   3.045
 2796SOL    HW2 9288   6.958   6.287   3.166
 2797SOL     OW 9289   5.083   5.366   4.310
 2797SOL    HW1 9290   5.176   5.359   4.345
 2797SOL    HW2 9291   5.082   5.347   4.212
 2798SOL     OW 9292   0.242   5.103   2.040
 2798SOL    HW1 9293   0.306   5.032   2.068
 2798SOL    HW2 9294   0.207   5.151   2.121
 2799SOL     OW 9295   6.057   5.573   6.700
 2799SOL    HW1 9296   6.020   5.496   6.751
 2799SOL    HW2 9297   6.124   5.622   6.756
 2800SOL     OW 9298   4.907   6.284   0.313
 2800SOL    HW1 9299   4.966   6.350   0.266
 2800SOL    HW2 9300   4.812   6.300   0.287
 2801SOL     OW 9301   6.453   5.722   6.390
 2801SOL    HW1 9302   6.358   5.747   6.411
 2801SOL    HW2 9303   6.455   5.631   6.350
 2802SOL     OW 9304   5.120   1.288   5.234
 2802SOL    HW1 9305   5.135   1.247   5.323
 2802SOL    HW2 9306   5.030   1.262   5.200
 2803SOL     OW 9307   4.148   5.645   6.636
 2803SOL    HW1 9308   4.082   5.571   6.620
 2803SOL    HW2 9309   4.154   5.703   6.555
 2804SOL     OW 9310   0.179   5.114   5.326
 2804SOL    HW1 9311   0.177   5.209   5.295
 2804SOL    HW2 9312   0.097   5.095   5.381
 2805SOL     OW 9313   5.611   3.345   1.592
 2805SOL    HW1 9314   5.586   3.430   1.637
 2805SOL    HW2 9315   5.623   3.362   1.494
 2806SOL     OW 9316   6.897   4.737   5.905
 2806SOL    HW1 9317   6.933   4.827   5.930
 2806SOL    HW2 9318   6.829   4.709   5.972
 2807SOL     OW 9319   4.747   6.384   4.604
 2807SOL    HW1 9320   4.827   6.357   4.658
 2807SOL    HW2 9321   4.715   6.305   4.551
 2808SOL     OW 9322   5.781   4.568   2.015
 2808SOL    HW1 9323   5.736   4.605   1.934
 2808SOL    HW2 9324   5.827   4.641   2.064
 2809SOL     OW 9325   5.833   2.925   0.992
 2809SOL    HW1 9326   5.852   3.018   1.025
 2809SOL    HW2 9327   5.735   2.908   0.996
 2810SOL     OW 9328   3.486   4.886   3.807
 2810SOL    HW1 9329   3.481   4.873   3.708
 2810SOL    HW2 9330   3.582   4.877   3.837
 2811SOL     OW 9331   1.165   2.001   3.260
 2811SOL    HW1 9332   1.173   2.002   3.160
 2811SOL    HW2 9333   1.068   1.993   3.285
 2812SOL     OW 9334   5.221   3.831   6.650
 2812SOL    HW1 9335   5.196   3.803   6.557
 2812SOL    HW2 9336   5.190   3.761   6.715
 2813SOL     OW 9337   7.000   0.156   6.511
 2813SOL    HW1 9338   0.043   0.082   6.518
 2813SOL    HW2 9339   6.942   0.156   6.592
 2814SOL     OW 9340   4.224   3.570   5.257
 2814SOL    HW1 9341   4.188   3.605   5.171
 2814SOL    HW2 9342   4.181   3.617   5.333
 2815SOL     OW 9343   6.051   0.095   5.545
 2815SOL    HW1 9344   6.058   0.194   5.555
 2815SOL    HW2 9345   6.000   0.058   5.623
 2816SOL     OW 9346   6.601   5.674   3.413
 2816SOL    HW1 9347   6.549   5.641   3.334
 2816SOL    HW2 9348   6.538   5.696   3.487
 2817SOL     OW 9349   2.694   7.024   1.416
 2817SOL    HW1 9350   2.670   6.938   1.371
 2817SOL    HW2 9351   2.673   7.019   1.513
 2818SOL     OW 9352   0.486   0.340   0.918
 2818SOL    HW1 9353   0.481   0.243   0.896
 2818SOL    HW2 9354   0.438   0.357   1.004
 2819SOL     OW 9355   0.830   1.088   1.170
 2819SOL    HW1 9356   0.823   1.117   1.074
 2819SOL    HW2 9357   0.883   1.156   1.221
 2820SOL     OW 9358   0.860   2.631   3.242
 2820SOL    HW1 9359   0.842   2.664   3.335
 2820SOL    HW2 9360   0.794   2.559   3.220
 2821SOL     OW 9361   4.065   3.468   6.984
 2821SOL    HW1 9362   4.107   3.545   0.008
 2821SOL    HW2 9363   4.123   3.387   6.995
 2822SOL     OW 9364   3.799   1.619   0.207
 2822SOL    HW1 9365   3.836   1.694   0.153
 2822SOL    HW2 9366   3.853   1.608   0.291
 2823SOL     OW 9367   4.528   0.537   0.262
 2823SOL    HW1 9368   4.455   0.546   0.195
 2823SOL    HW2 9369   4.601   0.603   0.242
 2824SOL     OW 9370   2.412   1.051   3.654
 2824SOL    HW1 9371   2.445   1.130   3.704
 2824SOL    HW2 9372   2.362   1.081   3.573
 2825SOL     OW 9373   5.767   0.308   6.624
 2825SOL    HW1 9374   5.716   0.315   6.538
 2825SOL    HW2 9375   5.852   0.361   6.616
 2826SOL     OW 9376   4.841   1.124   6.437
 2826SOL    HW1 9377   4.856   1.029   6.463
 2826SOL    HW2 9378   4.744   1.138   6.416
 2827SOL     OW 9379   0.109   0.929   5.568
 2827SOL    HW1 9380   0.141   0.926   5.663
 2827SOL    HW2 9381   0.172   0.878   5.510
 2828SOL     OW 9382   2.454   1.153   0.242
 2828SOL    HW1 9383   2.481   1.093   0.166
 2828SOL    HW2 9384   2.430   1.098   0.321
 2829SOL     OW 9385   3.348   3.714   5.035
 2829SOL    HW1 9386   3.277   3.656   4.995
 2829SOL    HW2 9387   3.417   3.735   4.965
 2830SOL     OW 9388   1.512   2.736   6.045
 2830SOL    HW1 9389   1.481   2.734   5.950
 2830SOL    HW2 9390   1.587   2.672   6.057
 2831SOL     OW 9391   0.762   4.810   3.635
 2831SOL    HW1 9392   0.745   4.766   3.723
 2831SOL    HW2 9393   0.857   4.794   3.607
 2832SOL     OW 9394   0.753   2.808   2.089
 2832SOL    HW1 9395   0.665   2.840   2.055
 2832SOL    HW2 9396   0.739   2.749   2.169
 2833SOL     OW 9397   3.394   2.014   2.537
 2833SOL    HW1 9398   3.485   2.053   2.529
 2833SOL    HW2 9399   3.326   2.085   2.519
 2834SOL     OW 9400   3.969   5.491   5.903
 2834SOL    HW1 9401   4.041   5.559   5.895
 2834SOL    HW2 9402   3.887   5.523   5.855
 2835SOL     OW 9403   0.448   6.925   2.147
 2835SOL    HW1 9404   0.401   7.004   2.187
 2835SOL    HW2 9405   0.526   6.901   2.204
 2836SOL     OW 9406   6.643   6.816   2.502
 2836SOL    HW1 9407   6.724   6.873   2.488
 2836SOL    HW2 9408   6.671   6.720   2.511
 2837SOL     OW 9409   5.550   4.663   2.383
 2837SOL    HW1 9410   5.504   4.592   2.437
 2837SOL    HW2 9411   5.634   4.691   2.430
 2838SOL     OW 9412   2.689   3.949   1.175
 2838SOL    HW1 9413   2.727   4.034   1.138
 2838SOL    HW2 9414   2.600   3.932   1.133
 2839SOL     OW 9415   6.822   2.033   2.237
 2839SOL    HW1 9416   6.795   2.013   2.143
 2839SOL    HW2 9417   6.878   2.115   2.240
 2840SOL     OW 9418   1.517   0.351   3.002
 2840SOL    HW1 9419   1.425   0.329   2.969
 2840SOL    HW2 9420   1.513   0.371   3.100
 2841SOL     OW 9421   0.557   0.843   6.320
 2841SOL    HW1 9422   0.591   0.921   6.268
 2841SOL    HW2 9423   0.457   0.849   6.329
 2842SOL     OW 9424   0.449   4.335   4.174
 2842SOL    HW1 9425   0.414   4.414   4.124
 2842SOL    HW2 9426   0.414   4.336   4.268
 2843SOL     OW 9427   2.266   2.319   2.799
 2843SOL    HW1 9428   2.259   2.236   2.854
 2843SOL    HW2 9429   2.176   2.362   2.791
 2844SOL     OW 9430   6.853   4.907   0.490
 2844SOL    HW1 9431   6.930   4.958   0.526
 2844SOL    HW2 9432   6.779   4.970   0.466
 2845SOL     OW 9433   6.141   2.858   1.006
 2845SOL    HW1 9434   6.059   2.855   0.950
 2845SOL    HW2 9435   6.119   2.899   1.095
 2846SOL     OW 9436   3.842   1.184   0.403
 2846SOL    HW1 9437   3.769   1.248   0.429
 2846SOL    HW2 9438   3.921   1.235   0.370
 2847SOL     OW 9439   4.955   3.404   3.595
 2847SOL    HW1 9440   4.893   3.456   3.536
 2847SOL    HW2 9441   5.038   3.381   3.544
 2848SOL     OW 9442   1.974   2.464   5.101
 2848SOL    HW1 9443   1.883   2.430   5.125
 2848SOL    HW2 9444   2.027   2.479   5.184
 2849SOL     OW 9445   4.503   6.411   0.823
 2849SOL    HW1 9446   4.559   6.363   0.755
 2849SOL    HW2 9447   4.411   6.372   0.825
 2850SOL     OW 9448   1.662   0.109   2.618
 2850SOL    HW1 9449   1.750   0.062   2.624
 2850SOL    HW2 9450   1.674   0.205   2.645
 2851SOL     OW 9451   6.217   1.361   6.170
 2851SOL    HW1 9452   6.279   1.297   6.216
 2851SOL    HW2 9453   6.154   1.400   6.237
 2852SOL     OW 9454   5.892   4.485   6.777
 2852SOL    HW1 9455   5.822   4.468   6.709
 2852SOL    HW2 9456   5.975   4.434   6.754
 2853SOL     OW 9457   1.642   1.771   6.386
 2853SOL    HW1 9458   1.601   1.857   6.418
 2853SOL    HW2 9459   1.694   1.730   6.461
 2854SOL     OW 9460   4.180   1.469   4.738
 2854SOL    HW1 9461   4.159   1.415   4.820
 2854SOL    HW2 9462   4.252   1.536   4.760
 2855SOL     OW 9463   2.278   1.288   6.788
 2855SOL    HW1 9464   2.342   1.364   6.800
 2855SOL    HW2 9465   2.200   1.318   6.733
 2856SOL     OW 9466   0.846   2.555   5.675
 2856SOL    HW1 9467   0.827   2.609   5.757
 2856SOL    HW2 9468   0.919   2.598   5.622
 2857SOL     OW 9469   2.231   2.178   2.553
 2857SOL    HW1 9470   2.314   2.128   2.528
 2857SOL    HW2 9471   2.251   2.240   2.629
 2858SOL     OW 9472   4.723   4.255   2.198
 2858SOL    HW1 9473   4.643   4.221   2.149
 2858SOL    HW2 9474   4.767   4.327   2.144
 2859SOL     OW 9475   5.787   0.975   6.716
 2859SOL    HW1 9476   5.805   0.885   6.757
 2859SOL    HW2 9477   5.874   1.015   6.686
 2860SOL     OW 9478   2.952   1.081   1.892
 2860SOL    HW1 9479   2.941   0.995   1.943
 2860SOL    HW2 9480   3.047   1.090   1.862
 2861SOL     OW 9481   3.808   3.841   5.505
 2861SOL    HW1 9482   3.864   3.924   5.512
 2861SOL    HW2 9483   3.745   3.850   5.428
 2862SOL     OW 9484   5.861   1.730   2.604
 2862SOL    HW1 9485   5.839   1.641   2.642
 2862SOL    HW2 9486   5.954   1.730   2.568
 2863SOL     OW 9487   4.797   1.339   6.601
 2863SOL    HW1 9488   4.829   1.267   6.539
 2863SOL    HW2 9489   4.813   1.311   6.696
 2864SOL     OW 9490   4.408   1.480   1.809
 2864SOL    HW1 9491   4.349   1.528   1.874
 2864SOL    HW2 9492   4.357   1.404   1.767
 2865SOL     OW 9493   3.983   4.404   6.546
 2865SOL    HW1 9494   3.885   4.405   6.565
 2865SOL    HW2 9495   3.998   4.425   6.449
 2866SOL     OW 9496   6.478   5.477   0.306
 2866SOL    HW1 9497   6.531   5.502   0.387
 2866SOL    HW2 9498   6.432   5.389   0.322
 2867SOL     OW 9499   6.954   5.521   2.991
 2867SOL    HW1 9500   7.016   5.546   2.917
 2867SOL    HW2 9501   6.990   5.556   3.078
 2868SOL     OW 9502   0.846   1.707   5.368
 2868SOL    HW1 9503   0.777   1.751   5.425
 2868SOL    HW2 9504   0.827   1.609   5.363
 2869SOL     OW 9505   6.681   1.223   3.840
 2869SOL    HW1 9506   6.629   1.287   3.784
 2869SOL    HW2 9507   6.618   1.159   3.884
 2870SOL     OW 9508   0.404   1.555   4.622
 2870SOL    HW1 9509   0.388   1.643   4.667
 2870SOL    HW2 9510   0.476   1.505   4.670
 2871SOL     OW 9511   0.402   2.334   6.763
 2871SOL    HW1 9512   0.395   2.421   6.812
 2871SOL    HW2 9513   0.490   2.291   6.783
 2872SOL     OW 9514   2.483   2.099   2.572
 2872SOL    HW1 9515   2.546   2.048   2.513
 2872SOL    HW2 9516   2.470   2.050   2.658
 2873SOL     OW 9517   0.123   5.275   2.906
 2873SOL    HW1 9518   0.030   5.290   2.940
 2873SOL    HW2 9519   0.122   5.280   2.806
 2874SOL     OW 9520   4.125   6.512   3.090
 2874SOL    HW1 9521   4.196   6.559   3.037
 2874SOL    HW2 9522   4.090   6.573   3.161
 2875SOL     OW 9523   4.443   6.962   0.569
 2875SOL    HW1 9524   4.533   6.955   0.525
 2875SOL    HW2 9525   4.450   7.021   0.649
 2876SOL     OW 9526   1.778   0.866   2.002
 2876SOL    HW1 9527   1.814   0.816   2.081
 2876SOL    HW2 9528   1.822   0.833   1.919
 2877SOL     OW 9529   3.230   2.542   5.324
 2877SOL    HW1 9530   3.193   2.461   5.278
 2877SOL    HW2 9531   3.197   2.545   5.418
 2878SOL     OW 9532   3.579   5.201   5.077
 2878SOL    HW1 9533   3.600   5.127   5.140
 2878SOL    HW2 9534   3.480   5.207   5.063
 2879SOL     OW 9535   5.596   4.970   0.402
 2879SOL    HW1 9536   5.530   5.039   0.432
 2879SOL    HW2 9537   5.568   4.933   0.313
 2880SOL     OW 9538   0.036   0.535   1.965
 2880SOL    HW1 9539   0.021   0.468   2.037
 2880SOL    HW2 9540   6.982   0.597   1.960
 2881SOL     OW 9541   5.314   6.017   0.017
 2881SOL    HW1 9542   5.269   6.022   6.953
 2881SOL    HW2 9543   5.325   5.921   0.044
 2882SOL     OW 9544   0.642   4.733   2.467
 2882SOL    HW1 9545   0.639   4.706   2.371
 2882SOL    HW2 9546   0.582   4.812   2.481
 2883SOL     OW 9547   5.560   0.152   3.231
 2883SOL    HW1 9548   5.591   0.091   3.159
 2883SOL    HW2 9549   5.464   0.177   3.215
 2884SOL     OW 9550   1.109   0.130   2.681
 2884SOL    HW1 9551   1.048   0.051   2.684
 2884SOL    HW2 9552   1.134   0.149   2.586
 2885SOL     OW 9553   1.048   3.413   3.514
 2885SOL    HW1 9554   0.986   3.426   3.592
 2885SOL    HW2 9555   0.996   3.416   3.429
 2886SOL     OW 9556   1.759   4.208   5.973
 2886SOL    HW1 9557   1.662   4.194   5.955
 2886SOL    HW2 9558   1.774   4.303   6.003
 2887SOL     OW 9559   0.244   0.716   5.175
 2887SOL    HW1 9560   0.219   0.634   5.123
 2887SOL    HW2 9561   0.205   0.797   5.132
 2888SOL     OW 9562   0.612   4.271   0.333
 2888SOL    HW1 9563   0.635   4.317   0.418
 2888SOL    HW2 9564   0.538   4.207   0.348
 2889SOL     OW 9565   1.968   6.347   2.346
 2889SOL    HW1 9566   1.995   6.251   2.347
 2889SOL    HW2 9567   2.045   6.403   2.313
 2890SOL     OW 9568   2.176   6.086   0.552
 2890SOL    HW1 9569   2.193   6.165   0.610
 2890SOL    HW2 9570   2.112   6.024   0.598
 2891SOL     OW 9571   1.095   4.232   3.753
 2891SOL    HW1 9572   1.077   4.173   3.832
 2891SOL    HW2 9573   1.016   4.231   3.692
 2892SOL     OW 9574   5.416   3.067   6.869
 2892SOL    HW1 9575   5.317   3.057   6.882
 2892SOL    HW2 9576   5.463   2.996   6.922
 2893SOL     OW 9577   6.968   6.392   4.860
 2893SOL    HW1 9578   6.993   6.376   4.765
 2893SOL    HW2 9579   6.982   6.488   4.882
 2894SOL     OW 9580   0.829   3.101   2.293
 2894SOL    HW1 9581   0.748   3.093   2.235
 2894SOL    HW2 9582   0.911   3.092   2.237
 2895SOL     OW 9583   4.920   2.637   5.788
 2895SOL    HW1 9584   4.988   2.592   5.845
 2895SOL    HW2 9585   4.868   2.568   5.737
 2896SOL     OW 9586   4.777   5.595   6.396
 2896SOL    HW1 9587   4.740   5.536   6.324
 2896SOL    HW2 9588   4.704   5.622   6.458
 2897SOL     OW 9589   4.086   4.993   2.936
 2897SOL    HW1 9590   3.988   5.012   2.936
 2897SOL    HW2 9591   4.136   5.073   2.968
 2898SOL     OW 9592   4.539   5.020   4.703
 2898SOL    HW1 9593   4.542   5.061   4.611
 2898SOL    HW2 9594   4.467   5.064   4.756
 2899SOL     OW 9595   1.265   1.560   0.289
 2899SOL    HW1 9596   1.289   1.552   0.192
 2899SOL    HW2 9597   1.334   1.514   0.344
 2900SOL     OW 9598   1.841   4.107   5.731
 2900SOL    HW1 9599   1.811   4.126   5.825
 2900SOL    HW2 9600   1.878   4.014   5.726
 2901SOL     OW 9601   2.771   5.493   3.655
 2901SOL    HW1 9602   2.683   5.462   3.692
 2901SOL    HW2 9603   2.843   5.431   3.685
 2902SOL     OW 9604   4.892   6.989   3.015
 2902SOL    HW1 9605   4.809   0.008   3.050
 2902SOL    HW2 9606   4.953   0.036   2.979
 2903SOL     OW 9607   3.135   0.649   0.827
 2903SOL    HW1 9608   3.165   0.653   0.922
 2903SOL    HW2 9609   3.211   0.674   0.767
 2904SOL     OW 9610   2.182   3.754   4.916
 2904SOL    HW1 9611   2.161   3.694   4.994
 2904SOL    HW2 9612   2.238   3.831   4.948
 2905SOL     OW 9613   1.723   2.615   4.503
 2905SOL    HW1 9614   1.686   2.579   4.589
 2905SOL    HW2 9615   1.823   2.613   4.506
 2906SOL     OW 9616   4.043   5.399   1.506
 2906SOL    HW1 9617   3.969   5.339   1.537
 2906SOL    HW2 9618   4.020   5.437   1.416
 2907SOL     OW 9619   0.599   1.200   3.483
 2907SOL    HW1 9620   0.617   1.297   3.467
 2907SOL    HW2 9621   0.652   1.145   3.419
 2908SOL     OW 9622   5.036   6.093   3.961
 2908SOL    HW1 9623   5.059   6.027   3.890
 2908SOL    HW2 9624   5.070   6.183   3.936
 2909SOL     OW 9625   1.471   5.582   3.799
 2909SOL    HW1 9626   1.566   5.590   3.770
 2909SOL    HW2 9627   1.442   5.666   3.843
 2910SOL     OW 9628   4.745   0.296   4.176
 2910SOL    HW1 9629   4.729   0.315   4.273
 2910SOL    HW2 9630   4.671   0.337   4.122
 2911SOL     OW 9631   0.776   5.310   3.613
 2911SOL    HW1 9632   0.776   5.372   3.534
 2911SOL    HW2 9633   0.737   5.222   3.586
 2912SOL     OW 9634   4.696   0.702   0.029
 2912SOL    HW1 9635   4.700   0.671   6.958
 2912SOL    HW2 9636   4.630   0.776   0.037
 2913SOL     OW 9637   2.838   4.738   2.840
 2913SOL    HW1 9638   2.822   4.686   2.923
 2913SOL    HW2 9639   2.924   4.788   2.848
 2914SOL     OW 9640   6.443   6.400   0.190
 2914SOL    HW1 9641   6.462   6.395   0.092
 2914SOL    HW2 9642   6.395   6.317   0.219
 2915SOL     OW 9643   5.398   2.058   3.664
 2915SOL    HW1 9644   5.305   2.032   3.638
 2915SOL    HW2 9645   5.404   2.157   3.673
 2916SOL     OW 9646   1.474   6.515   0.213
 2916SOL    HW1 9647   1.388   6.523   0.263
 2916SOL    HW2 9648   1.518   6.604   0.207
 2917SOL     OW 9649   2.978   6.933   3.415
 2917SOL    HW1 9650   3.043   6.857   3.414
 2917SOL    HW2 9651   2.894   6.907   3.367
 2918SOL     OW 9652   6.225   5.375   4.902
 2918SOL    HW1 9653   6.226   5.275   4.912
 2918SOL    HW2 9654   6.307   5.413   4.945
 2919SOL     OW 9655   6.821   0.935   2.279
 2919SOL    HW1 9656   6.920   0.930   2.266
 2919SOL    HW2 9657   6.802   0.966   2.372
 2920SOL     OW 9658   2.744   1.491   1.795
 2920SOL    HW1 9659   2.718   1.548   1.717
 2920SOL    HW2 9660   2.697   1.523   1.877
 2921SOL     OW 9661   0.803   0.145   3.948
 2921SOL    HW1 9662   0.710   0.115   3.966
 2921SOL    HW2 9663   0.867   0.084   3.994
 2922SOL     OW 9664   4.984   1.018   0.573
 2922SOL    HW1 9665   4.980   0.977   0.482
 2922SOL    HW2 9666   4.905   0.988   0.627
 2923SOL     OW 9667   6.464   5.075   2.221
 2923SOL    HW1 9668   6.435   5.143   2.154
 2923SOL    HW2 9669   6.528   5.011   2.178
 2924SOL     OW 9670   6.623   2.279   5.274
 2924SOL    HW1 9671   6.594   2.373   5.254
 2924SOL    HW2 9672   6.544   2.226   5.305
 2925SOL     OW 9673   4.643   0.988   2.304
 2925SOL    HW1 9674   4.741   0.979   2.287
 2925SOL    HW2 9675   4.592   0.926   2.244
 2926SOL     OW 9676   6.664   1.696   4.200
 2926SOL    HW1 9677   6.671   1.605   4.160
 2926SOL    HW2 9678   6.725   1.758   4.152
 2927SOL     OW 9679   1.074   3.037   1.844
 2927SOL    HW1 9680   1.025   2.977   1.780
 2927SOL    HW2 9681   1.022   3.122   1.856
 2928SOL     OW 9682   0.022   1.664   6.165
 2928SOL    HW1 9683   0.000   1.576   6.123
 2928SOL    HW2 9684   0.043   1.731   6.094
 2929SOL     OW 9685   7.002   2.280   6.831
 2929SOL    HW1 9686   7.000   2.230   6.744
 2929SOL    HW2 9687   0.027   2.366   6.818
 2930SOL     OW 9688   4.350   0.601   4.815
 2930SOL    HW1 9689   4.411   0.524   4.797
 2930SOL    HW2 9690   4.354   0.665   4.739
 2931SOL     OW 9691   5.247   4.898   0.640
 2931SOL    HW1 9692   5.217   4.887   0.735
 2931SOL    HW2 9693   5.234   4.993   0.612
 2932SOL     OW 9694   0.842   5.261   1.283
 2932SOL    HW1 9695   0.936   5.277   1.255
 2932SOL    HW2 9696   0.840   5.224   1.376
 2933SOL     OW 9697   6.960   4.782   2.988
 2933SOL    HW1 9698   6.914   4.862   2.948
 2933SOL    HW2 9699   0.007   4.813   3.051
 2934SOL     OW 9700   4.752   1.101   0.050
 2934SOL    HW1 9701   4.665   1.137   0.015
 2934SOL    HW2 9702   4.787   1.031   7.012
 2935SOL     OW 9703   6.073   3.294   0.255
 2935SOL    HW1 9704   5.985   3.324   0.220
 2935SOL    HW2 9705   6.059   3.238   0.337
 2936SOL     OW 9706   4.218   6.399   1.160
 2936SOL    HW1 9707   4.230   6.390   1.061
 2936SOL    HW2 9708   4.252   6.488   1.191
 2937SOL     OW 9709   4.697   4.843   0.548
 2937SOL    HW1 9710   4.669   4.750   0.571
 2937SOL    HW2 9711   4.656   4.870   0.461
 2938SOL     OW 9712   4.574   5.094   6.933
 2938SOL    HW1 9713   4.493   5.142   6.899
 2938SOL    HW2 9714   4.656   5.145   6.908
 2939SOL     OW 9715   0.994   1.131   3.091
 2939SOL    HW1 9716   0.904   1.119   3.050
 2939SOL    HW2 9717   1.042   1.206   3.046
 2940SOL     OW 9718   5.648   5.337   6.385
 2940SOL    HW1 9719   5.642   5.360   6.288
 2940SOL    HW2 9720   5.559   5.351   6.428
 2941SOL     OW 9721   2.038   2.698   4.650
 2941SOL    HW1 9722   2.015   2.607   4.617
 2941SOL    HW2 9723   2.067   2.755   4.573
 2942SOL     OW 9724   3.021   2.644   0.991
 2942SOL    HW1 9725   3.033   2.636   0.892
 2942SOL    HW2 9726   2.924   2.636   1.013
 2943SOL     OW 9727   4.424   4.611   3.365
 2943SOL    HW1 9728   4.507   4.649   3.406
 2943SOL    HW2 9729   4.392   4.673   3.293
 2944SOL     OW 9730   2.936   6.375   4.406
 2944SOL    HW1 9731   2.982   6.424   4.333
 2944SOL    HW2 9732   2.837   6.374   4.390
 2945SOL     OW 9733   3.640   4.149   3.936
 2945SOL    HW1 9734   3.559   4.121   3.988
 2945SOL    HW2 9735   3.716   4.167   3.999
 2946SOL     OW 9736   0.658   5.011   5.996
 2946SOL    HW1 9737   0.624   5.012   5.903
 2946SOL    HW2 9738   0.674   5.105   6.027
 2947SOL     OW 9739   0.300   3.701   0.650
 2947SOL    HW1 9740   0.345   3.718   0.737
 2947SOL    HW2 9741   0.295   3.603   0.633
 2948SOL     OW 9742   0.967   4.401   5.832
 2948SOL    HW1 9743   1.001   4.413   5.926
 2948SOL    HW2 9744   0.949   4.304   5.816
 2949SOL     OW 9745   3.138   5.245   1.017
 2949SOL    HW1 9746   3.136   5.340   1.049
 2949SOL    HW2 9747   3.216   5.231   0.957
 2950SOL     OW 9748   5.055   3.961   4.278
 2950SOL    HW1 9749   4.965   4.000   4.260
 2950SOL    HW2 9750   5.048   3.895   4.353
 2951SOL     OW 9751   5.797   1.543   0.949
 2951SOL    HW1 9752   5.701   1.559   0.926
 2951SOL    HW2 9753   5.854   1.609   0.901
 2952SOL     OW 9754   0.906   5.295   5.206
 2952SOL    HW1 9755   0.819   5.343   5.198
 2952SOL    HW2 9756   0.917   5.234   5.128
 2953SOL     OW 9757   5.297   3.007   2.526
 2953SOL    HW1 9758   5.311   3.095   2.572
 2953SOL    HW2 9759   5.251   2.944   2.589
 2954SOL     OW 9760   0.152   5.466   1.913
 2954SOL    HW1 9761   0.195   5.549   1.951
 2954SOL    HW2 9762   0.127   5.483   1.817
 2955SOL     OW 9763   0.824   3.971   1.688
 2955SOL    HW1 9764   0.849   3.874   1.694
 2955SOL    HW2 9765   0.880   4.015   1.618
 2956SOL     OW 9766   5.670   6.290   3.467
 2956SOL    HW1 9767   5.680   6.201   3.513
 2956SOL    HW2 9768   5.746   6.303   3.403
 2957SOL     OW 9769   6.077   3.020   1.530
 2957SOL    HW1 9770   6.005   2.951   1.538
 2957SOL    HW2 9771   6.083   3.073   1.615
 2958SOL     OW 9772   2.259   5.097   3.788
 2958SOL    HW1 9773   2.271   5.008   3.832
 2958SOL    HW2 9774   2.175   5.097   3.733
 2959SOL     OW 9775   4.909   4.263   0.537
 2959SOL    HW1 9776   4.920   4.340   0.599
 2959SOL    HW2 9777   4.957   4.282   0.451
 2960SOL     OW 9778   3.415   0.807   6.772
 2960SOL    HW1 9779   3.502   0.763   6.747
 2960SOL    HW2 9780   3.348   0.738   6.797
 2961SOL     OW 9781   4.908   3.297   3.183
 2961SOL    HW1 9782   4.909   3.321   3.086
 2961SOL    HW2 9783   4.901   3.380   3.238
 2962SOL     OW 9784   4.504   0.593   3.272
 2962SOL    HW1 9785   4.425   0.623   3.326
 2962SOL    HW2 9786   4.495   0.495   3.252
 2963SOL     OW 9787   2.082   0.375   6.464
 2963SOL    HW1 9788   2.044   0.442   6.529
 2963SOL    HW2 9789   2.040   0.388   6.374
 2964SOL     OW 9790   0.803   0.788   2.928
 2964SOL    HW1 9791   0.768   0.880   2.911
 2964SOL    HW2 9792   0.804   0.770   3.027
 2965SOL     OW 9793   6.656   2.081   4.625
 2965SOL    HW1 9794   6.587   2.152   4.643
 2965SOL    HW2 9795   6.718   2.075   4.704
 2966SOL     OW 9796   5.530   6.235   4.177
 2966SOL    HW1 9797   5.490   6.179   4.104
 2966SOL    HW2 9798   5.468   6.235   4.256
 2967SOL     OW 9799   6.163   0.542   4.776
 2967SOL    HW1 9800   6.154   0.597   4.859
 2967SOL    HW2 9801   6.242   0.481   4.784
 2968SOL     OW 9802   1.039   3.507   6.132
 2968SOL    HW1 9803   0.967   3.559   6.177
 2968SOL    HW2 9804   1.066   3.430   6.190
 2969SOL     OW 9805   5.496   1.614   3.883
 2969SOL    HW1 9806   5.551   1.689   3.920
 2969SOL    HW2 9807   5.420   1.594   3.947
 2970SOL     OW 9808   1.884   5.080   6.149
 2970SOL    HW1 9809   1.855   4.984   6.155
 2970SOL    HW2 9810   1.902   5.103   6.053
 2971SOL     OW 9811   4.888   4.050   0.250
 2971SOL    HW1 9812   4.954   4.119   0.280
 2971SOL    HW2 9813   4.868   3.988   0.325
 2972SOL     OW 9814   6.335   4.766   6.376
 2972SOL    HW1 9815   6.293   4.683   6.413
 2972SOL    HW2 9816   6.263   4.825   6.339
 2973SOL     OW 9817   5.386   6.951   2.900
 2973SOL    HW1 9818   5.374   0.025   2.915
 2973SOL    HW2 9819   5.426   6.936   2.810
 2974SOL     OW 9820   0.598   4.677   2.858
 2974SOL    HW1 9821   0.663   4.742   2.819
 2974SOL    HW2 9822   0.647   4.608   2.911
 2975SOL     OW 9823   5.920   3.357   4.617
 2975SOL    HW1 9824   5.980   3.285   4.581
 2975SOL    HW2 9825   5.862   3.392   4.544
 2976SOL     OW 9826   3.907   2.140   3.628
 2976SOL    HW1 9827   3.810   2.117   3.635
 2976SOL    HW2 9828   3.933   2.150   3.532
 2977SOL     OW 9829   2.626   6.528   3.344
 2977SOL    HW1 9830   2.552   6.594   3.329
 2977SOL    HW2 9831   2.687   6.528   3.265
 2978SOL     OW 9832   5.010   4.299   0.284
 2978SOL    HW1 9833   5.101   4.301   0.242
 2978SOL    HW2 9834   4.975   4.393   0.290
 2979SOL     OW 9835   3.871   0.856   4.025
 2979SOL    HW1 9836   3.830   0.904   4.103
 2979SOL    HW2 9837   3.814   0.778   4.000
 2980SOL     OW 9838   1.356   6.156   4.081
 2980SOL    HW1 9839   1.319   6.248   4.077
 2980SOL    HW2 9840   1.296   6.098   4.137
 2981SOL     OW 9841   2.170   0.792   6.008
 2981SOL    HW1 9842   2.145   0.813   5.913
 2981SOL    HW2 9843   2.175   0.877   6.060
 2982SOL     OW 9844   4.017   5.277   3.009
 2982SOL    HW1 9845   4.010   5.289   3.108
 2982SOL    HW2 9846   4.110   5.302   2.979
 2983SOL     OW 9847   0.734   1.483   3.169
 2983SOL    HW1 9848   0.822   1.525   3.191
 2983SOL    HW2 9849   0.665   1.554   3.159
 2984SOL     OW 9850   5.428   5.459   1.512
 2984SOL    HW1 9851   5.390   5.448   1.604
 2984SOL    HW2 9852   5.497   5.389   1.495
 2985SOL     OW 9853   1.202   2.432   5.960
 2985SOL    HW1 9854   1.299   2.449   5.978
 2985SOL    HW2 9855   1.189   2.414   5.862
 2986SOL     OW 9856   3.194   3.962   4.964
 2986SOL    HW1 9857   3.219   3.867   4.983
 2986SOL    HW2 9858   3.095   3.972   4.971
 2987SOL     OW 9859   6.242   1.430   4.159
 2987SOL    HW1 9860   6.304   1.498   4.120
 2987SOL    HW2 9861   6.295   1.354   4.195
 2988SOL     OW 9862   0.948   5.983   2.915
 2988SOL    HW1 9863   1.037   5.980   2.868
 2988SOL    HW2 9864   0.956   6.039   2.997
 2989SOL     OW 9865   6.485   6.099   6.487
 2989SOL    HW1 9866   6.527   6.160   6.554
 2989SOL    HW2 9867   6.412   6.147   6.439
 2990SOL     OW 9868   3.938   1.935   4.557
 2990SOL    HW1 9869   3.992   1.852   4.546
 2990SOL    HW2 9870   3.885   1.930   4.641
 2991SOL     OW 9871   6.685   4.503   5.560
 2991SOL    HW1 9872   6.726   4.584   5.603
 2991SOL    HW2 9873   6.640   4.447   5.630
 2992SOL     OW 9874   2.900   5.983   4.923
 2992SOL    HW1 9875   2.880   5.891   4.889
 2992SOL    HW2 9876   2.923   6.042   4.845
 2993SOL     OW 9877   0.267   5.435   0.963
 2993SOL    HW1 9878   0.264   5.498   0.885
 2993SOL    HW2 9879   0.207   5.468   1.035
 2994SOL     OW 9880   4.114   6.921   0.011
 2994SOL    HW1 9881   4.169   6.917   0.095
 2994SOL    HW2 9882   4.034   6.862   0.020
 2995SOL     OW 9883   2.804   2.519   6.122
 2995SOL    HW1 9884   2.864   2.598   6.108
 2995SOL    HW2 9885   2.770   2.519   6.216
 2996SOL     OW 9886   1.856   0.929   3.319
 2996SOL    HW1 9887   1.918   0.964   3.249
 2996SOL    HW2 9888   1.769   0.979   3.315
 2997SOL     OW 9889   5.729   0.620   2.702
 2997SOL    HW1 9890   5.794   0.663   2.764
 2997SOL    HW2 9891   5.718   0.677   2.621
 2998SOL     OW 9892   4.217   0.270   4.238
 2998SOL    HW1 9893   4.270   0.194   4.278
 2998SOL    HW2 9894   4.194   0.248   4.144
 2999SOL     OW 9895   3.235   4.867   4.869
 2999SOL    HW1 9896   3.276   4.939   4.813
 2999SOL    HW2 9897   3.252   4.778   4.826
 3000SOL     OW 9898   2.732   3.571   6.712
 3000SOL    HW1 9899   2.793   3.560   6.634
 3000SOL    HW2 9900   2.637   3.574   6.680
 3001SOL     OW 9901   5.457   0.008   6.441
 3001SOL    HW1 9902   5.358   0.008   6.427
 3001SOL    HW2 9903   5.477   0.009   6.539
 3002SOL     OW 9904   3.748   0.967   0.257
 3002SOL    HW1 9905   3.713   0.907   0.329
 3002SOL    HW2 9906   3.768   1.057   0.296
 3003SOL     OW 9907   1.729   6.169   0.177
 3003SOL    HW1 9908   1.655   6.197   0.238
 3003SOL    HW2 9909   1.817   6.184   0.223
 3004SOL     OW 9910   1.052   4.497   3.088
 3004SOL    HW1 9911   1.030   4.445   3.171
 3004SOL    HW2 9912   1.104   4.579   3.112
 3005SOL     OW 9913   3.276   2.109   0.284
 3005SOL    HW1 9914   3.373   2.133   0.279
 3005SOL    HW2 9915   3.221   2.189   0.258
 3006SOL     OW 9916   5.185   1.546   5.557
 3006SOL    HW1 9917   5.163   1.642   5.543
 3006SOL    HW2 9918   5.285   1.534   5.557
 3007SOL     OW 9919   5.801   5.049   1.611
 3007SOL    HW1 9920   5.779   4.973   1.550
 3007SOL    HW2 9921   5.900   5.058   1.618
 3008SOL     OW 9922   3.917   2.052   6.128
 3008SOL    HW1 9923   3.964   2.133   6.092
 3008SOL    HW2 9924   3.863   2.079   6.208
 3009SOL     OW 9925   0.416   1.467   2.611
 3009SOL    HW1 9926   0.338   1.505   2.660
 3009SOL    HW2 9927   0.436   1.375   2.645
 3010SOL     OW 9928   3.979   5.668   3.173
 3010SOL    HW1 9929   3.989   5.766   3.160
 3010SOL    HW2 9930   3.966   5.649   3.271
 3011SOL     OW 9931   5.708   1.772   1.352
 3011SOL    HW1 9932   5.684   1.685   1.310
 3011SOL    HW2 9933   5.789   1.761   1.409
 3012SOL     OW 9934   1.200   3.848   5.923
 3012SOL    HW1 9935   1.164   3.810   5.838
 3012SOL    HW2 9936   1.187   3.947   5.924
 3013SOL     OW 9937   5.754   6.175   5.150
 3013SOL    HW1 9938   5.823   6.244   5.129
 3013SOL    HW2 9939   5.689   6.212   5.216
 3014SOL     OW 9940   4.926   2.429   4.580
 3014SOL    HW1 9941   4.980   2.499   4.627
 3014SOL    HW2 9942   4.835   2.465   4.561
 3015SOL     OW 9943   3.280   1.789   0.717
 3015SOL    HW1 9944   3.193   1.832   0.741
 3015SOL    HW2 9945   3.288   1.780   0.618
 3016SOL     OW 9946   2.283   5.730   3.996
 3016SOL    HW1 9947   2.230   5.803   4.039
 3016SOL    HW2 9948   2.291   5.748   3.898
 3017SOL     OW 9949   6.438   4.889   2.434
 3017SOL    HW1 9950   6.528   4.873   2.475
 3017SOL    HW2 9951   6.450   4.930   2.344
 3018SOL     OW 9952   3.305   6.056   5.889
 3018SOL    HW1 9953   3.317   6.008   5.802
 3018SOL    HW2 9954   3.213   6.095   5.893
 3019SOL     OW 9955   0.534   6.937   6.609
 3019SOL    HW1 9956   0.454   6.901   6.657
 3019SOL    HW2 9957   0.506   7.019   6.558
 3020SOL     OW 9958   4.133   3.051   1.694
 3020SOL    HW1 9959   4.114   2.958   1.662
 3020SOL    HW2 9960   4.231   3.069   1.690
 3021SOL     OW 9961   3.102   6.426   6.834
 3021SOL    HW1 9962   3.114   6.327   6.847
 3021SOL    HW2 9963   3.073   6.468   6.920
 3022SOL     OW 9964   3.698   5.440   4.088
 3022SOL    HW1 9965   3.665   5.476   4.001
 3022SOL    HW2 9966   3.632   5.461   4.160
 3023SOL     OW 9967   4.203   0.476   3.032
 3023SOL    HW1 9968   4.143   0.508   2.960
 3023SOL    HW2 9969   4.189   0.530   3.114
 3024SOL     OW 9970   4.442   6.805   5.405
 3024SOL    HW1 9971   4.531   6.842   5.432
 3024SOL    HW2 9972   4.452   6.709   5.381
 3025SOL     OW 9973   3.124   1.200   0.384
 3025SOL    HW1 9974   3.031   1.198   0.349
 3025SOL    HW2 9975   3.130   1.146   0.468
 3026SOL     OW 9976   1.343   0.444   0.723
 3026SOL    HW1 9977   1.360   0.533   0.681
 3026SOL    HW2 9978   1.362   0.372   0.656
 3027SOL     OW 9979   3.922   0.340   2.996
 3027SOL    HW1 9980   3.938   0.282   3.076
 3027SOL    HW2 9981   3.958   0.295   2.915
 3028SOL     OW 9982   1.100   4.032   5.361
 3028SOL    HW1 9983   1.192   4.055   5.392
 3028SOL    HW2 9984   1.100   4.021   5.262
 3029SOL     OW 9985   0.238   2.777   4.557
 3029SOL    HW1 9986   0.221   2.681   4.579
 3029SOL    HW2 9987   0.245   2.830   4.641
 3030SOL     OW 9988   0.432   3.293   6.485
 3030SOL    HW1 9989   0.412   3.259   6.576
 3030SOL    HW2 9990   0.479   3.381   6.492
 3031SOL     OW 9991   0.416   3.714   0.389
 3031SOL    HW1 9992   0.396   3.757   0.477
 3031SOL    HW2 9993   0.396   3.778   0.315
 3032SOL     OW 9994   3.642   7.017   1.339
 3032SOL    HW1 9995   3.691   0.080   1.338
 3032SOL    HW2 9996   3.665   6.968   1.423
 3033SOL     OW 9997   6.189   1.934   1.898
 3033SOL    HW1 9998   6.183   1.860   1.965
 3033SOL    HW2 9999   6.270   1.921   1.841
 3034SOL     OW10000   1.339   5.875   2.928
 3034SOL    HW110001   1.405   5.940   2.964
 3034SOL    HW210002   1.313   5.810   3.000
 3035SOL     OW10003   0.796   3.404   6.857
 3035SOL    HW110004   0.801   3.362   6.767
 3035SOL    HW210005   0.885   3.398   6.902
 3036SOL     OW10006   1.841   1.644   6.526
 3036SOL    HW110007   1.803   1.551   6.524
 3036SOL    HW210008   1.937   1.642   6.498
 3037SOL     OW10009   6.419   5.303   5.727
 3037SOL    HW110010   6.502   5.315   5.782
 3037SOL    HW210011   6.403   5.386   5.673
 3038SOL     OW10012   5.706   6.374   6.415
 3038SOL    HW110013   5.780   6.440   6.430
 3038SOL    HW210014   5.682   6.372   6.318
 3039SOL     OW10015   0.133   3.845   0.831
 3039SOL    HW110016   0.191   3.774   0.791
 3039SOL    HW210017   0.111   3.821   0.926
 3040SOL     OW10018   3.878   3.423   6.311
 3040SOL    HW110019   3.955   3.389   6.257
 3040SOL    HW210020   3.866   3.521   6.295
 3041SOL     OW10021   2.370   2.756   4.116
 3041SOL    HW110022   2.302   2.684   4.128
 3041SOL    HW210023   2.361   2.823   4.190
 3042SOL     OW10024   4.127   5.878   2.054
 3042SOL    HW110025   4.172   5.824   1.983
 3042SOL    HW210026   4.046   5.923   2.016
 3043SOL     OW10027   2.395   5.079   1.362
 3043SOL    HW110028   2.348   5.140   1.425
 3043SOL    HW210029   2.328   5.031   1.305
 3044SOL     OW10030   3.761   3.756   5.842
 3044SOL    HW110031   3.795   3.759   5.748
 3044SOL    HW210032   3.801   3.679   5.890
 3045SOL     OW10033   4.824   0.691   2.986
 3045SOL    HW110034   4.783   0.602   3.006
 3045SOL    HW210035   4.794   0.758   3.054
 3046SOL     OW10036   2.000   0.931   6.590
 3046SOL    HW110037   2.030   0.915   6.497
 3046SOL    HW210038   1.906   0.897   6.602
 3047SOL     OW10039   5.640   0.830   2.109
 3047SOL    HW110040   5.726   0.792   2.144
 3047SOL    HW210041   5.656   0.875   2.022
 3048SOL     OW10042   3.856   2.202   1.729
 3048SOL    HW110043   3.800   2.271   1.774
 3048SOL    HW210044   3.813   2.175   1.643
 3049SOL     OW10045   1.188   6.506   2.225
 3049SOL    HW110046   1.135   6.525   2.143
 3049SOL    HW210047   1.184   6.409   2.246
 3050SOL     OW10048   3.208   1.162   1.792
 3050SOL    HW110049   3.246   1.225   1.860
 3050SOL    HW210050   3.279   1.137   1.727
 3051SOL     OW10051   2.282   3.976   0.111
 3051SOL    HW110052   2.190   4.016   0.113
 3051SOL    HW210053   2.338   4.026   0.045
 3052SOL     OW10054   5.621   6.921   1.634
 3052SOL    HW110055   5.552   6.974   1.586
 3052SOL    HW210056   5.581   6.836   1.668
 3053SOL     OW10057   6.947   1.671   6.834
 3053SOL    HW110058   6.959   1.769   6.824
 3053SOL    HW210059   6.979   1.624   6.751
 3054SOL     OW10060   6.538   2.078   0.411
 3054SOL    HW110061   6.489   1.992   0.420
 3054SOL    HW210062   6.629   2.061   0.374
 3055SOL     OW10063   5.000   0.270   4.101
 3055SOL    HW110064   5.076   0.291   4.163
 3055SOL    HW210065   4.915   0.310   4.136
 3056SOL     OW10066   5.893   0.303   4.631
 3056SOL    HW110067   5.875   0.223   4.688
 3056SOL    HW210068   5.882   0.387   4.684
 3057SOL     OW10069   4.027   5.942   2.652
 3057SOL    HW110070   4.016   5.970   2.748
 3057SOL    HW210071   4.115   5.975   2.618
 3058SOL     OW10072   0.408   5.184   1.013
 3058SOL    HW110073   0.342   5.259   1.020
 3058SOL    HW210074   0.479   5.207   0.946
 3059SOL     OW10075   2.566   2.255   4.302
 3059SOL    HW110076   2.662   2.258   4.274
 3059SOL    HW210077   2.508   2.290   4.229
 3060SOL     OW10078   0.621   5.477   0.160
 3060SOL    HW110079   0.591   5.381   0.157
 3060SOL    HW210080   0.625   5.513   0.067
 3061SOL     OW10081   0.076   7.012   5.391
 3061SOL    HW110082   0.116   6.963   5.313
 3061SOL    HW210083   0.008   6.953   5.435
 3062SOL     OW10084   1.560   0.193   7.005
 3062SOL    HW110085   1.533   0.108   6.959
 3062SOL    HW210086   1.501   0.268   6.975
 3063SOL     OW10087   2.733   5.032   2.047
 3063SOL    HW110088   2.708   4.961   1.982
 3063SOL    HW210089   2.650   5.070   2.089
 3064SOL     OW10090   5.694   4.295   3.169
 3064SOL    HW110091   5.728   4.365   3.231
 3064SOL    HW210092   5.768   4.264   3.109
 3065SOL     OW10093   2.433   0.772   0.588
 3065SOL    HW110094   2.461   0.831   0.663
 3065SOL    HW210095   2.357   0.713   0.617
 3066SOL     OW10096   5.284   5.323   0.909
 3066SOL    HW110097   5.344   5.327   0.989
 3066SOL    HW210098   5.265   5.228   0.886
 3067SOL     OW10099   3.819   2.277   5.212
 3067SOL    HW110100   3.833   2.232   5.124
 3067SOL    HW210101   3.750   2.226   5.265
 3068SOL     OW10102   6.292   6.964   1.389
 3068SOL    HW110103   6.216   6.902   1.411
 3068SOL    HW210104   6.351   6.920   1.321
 3069SOL     OW10105   6.527   6.275   1.703
 3069SOL    HW110106   6.510   6.242   1.610
 3069SOL    HW210107   6.502   6.203   1.768
 3070SOL     OW10108   2.005   1.901   0.788
 3070SOL    HW110109   2.047   1.842   0.719
 3070SOL    HW210110   2.065   1.904   0.869
 3071SOL     OW10111   5.818   6.341   3.259
 3071SOL    HW110112   5.824   6.429   3.305
 3071SOL    HW210113   5.881   6.339   3.182
 3072SOL     OW10114   1.557   6.286   0.345
 3072SOL    HW110115   1.558   6.369   0.289
 3072SOL    HW210116   1.600   6.305   0.433
 3073SOL     OW10117   6.393   3.104   4.109
 3073SOL    HW110118   6.484   3.115   4.069
 3073SOL    HW210119   6.395   3.129   4.205
 3074SOL     OW10120   6.149   3.525   1.198
 3074SOL    HW110121   6.180   3.430   1.199
 3074SOL    HW210122   6.049   3.528   1.194
 3075SOL     OW10123   2.811   6.112   1.887
 3075SOL    HW110124   2.833   6.145   1.979
 3075SOL    HW210125   2.712   6.108   1.876
 3076SOL     OW10126   6.632   0.077   4.662
 3076SOL    HW110127   6.565   0.085   4.588
 3076SOL    HW210128   6.585   0.054   4.747
 3077SOL     OW10129   4.743   5.806   2.145
 3077SOL    HW110130   4.752   5.752   2.229
 3077SOL    HW210131   4.647   5.808   2.117
 3078SOL     OW10132   0.472   2.792   2.079
 3078SOL    HW110133   0.467   2.703   2.033
 3078SOL    HW210134   0.460   2.779   2.177
 3079SOL     OW10135   2.329   2.562   3.757
 3079SOL    HW110136   2.387   2.517   3.689
 3079SOL    HW210137   2.375   2.561   3.846
 3080SOL     OW10138   4.825   3.802   3.204
 3080SOL    HW110139   4.798   3.898   3.216
 3080SOL    HW210140   4.863   3.789   3.113
 3081SOL     OW10141   0.314   2.526   5.892
 3081SOL    HW110142   0.383   2.455   5.901
 3081SOL    HW210143   0.357   2.611   5.861
 3082SOL     OW10144   2.868   6.168   3.862
 3082SOL    HW110145   2.814   6.085   3.872
 3082SOL    HW210146   2.832   6.223   3.787
 3083SOL     OW10147   3.841   5.897   3.474
 3083SOL    HW110148   3.902   5.896   3.554
 3083SOL    HW210149   3.762   5.838   3.492
 3084SOL     OW10150   6.085   4.102   4.604
 3084SOL    HW110151   6.169   4.107   4.658
 3084SOL    HW210152   6.108   4.102   4.507
 3085SOL     OW10153   6.373   4.124   1.220
 3085SOL    HW110154   6.471   4.105   1.230
 3085SOL    HW210155   6.324   4.090   1.301
 3086SOL     OW10156   4.615   1.468   1.602
 3086SOL    HW110157   4.526   1.480   1.646
 3086SOL    HW210158   4.626   1.372   1.574
 3087SOL     OW10159   0.262   5.414   3.773
 3087SOL    HW110160   0.330   5.351   3.736
 3087SOL    HW210161   0.181   5.362   3.803
 3088SOL     OW10162   1.474   4.582   5.187
 3088SOL    HW110163   1.526   4.653   5.235
 3088SOL    HW210164   1.520   4.494   5.198
 3089SOL     OW10165   1.328   3.558   6.848
 3089SOL    HW110166   1.356   3.504   6.768
 3089SOL    HW210167   1.317   3.654   6.821
 3090SOL     OW10168   2.383   1.961   1.791
 3090SOL    HW110169   2.386   2.038   1.854
 3090SOL    HW210170   2.338   1.989   1.706
 3091SOL     OW10171   1.780   1.139   0.658
 3091SOL    HW110172   1.850   1.206   0.685
 3091SOL    HW210173   1.692   1.184   0.648
 3092SOL     OW10174   4.803   0.635   0.245
 3092SOL    HW110175   4.771   0.659   0.153
 3092SOL    HW210176   4.882   0.691   0.268
 3093SOL     OW10177   5.724   6.754   5.792
 3093SOL    HW110178   5.735   6.803   5.705
 3093SOL    HW210179   5.791   6.787   5.858
 3094SOL     OW10180   2.075   6.699   4.199
 3094SOL    HW110181   1.987   6.699   4.247
 3094SOL    HW210182   2.073   6.631   4.126
 3095SOL     OW10183   1.845   5.112   5.383
 3095SOL    HW110184   1.885   5.055   5.310
 3095SOL    HW210185   1.791   5.185   5.342
 3096SOL     OW10186   1.528   6.124   5.047
 3096SOL    HW110187   1.548   6.094   4.953
 3096SOL    HW210188   1.609   6.168   5.086
 3097SOL     OW10189   6.212   2.221   6.974
 3097SOL    HW110190   6.204   2.226   6.874
 3097SOL    HW210191   6.158   2.145   7.008
 3098SOL     OW10192   2.917   3.355   0.917
 3098SOL    HW110193   2.857   3.312   0.985
 3098SOL    HW210194   3.004   3.377   0.960
 3099SOL     OW10195   0.752   6.638   3.103
 3099SOL    HW110196   0.656   6.612   3.098
 3099SOL    HW210197   0.809   6.557   3.117
 3100SOL     OW10198   6.454   6.337   4.284
 3100SOL    HW110199   6.485   6.320   4.377
 3100SOL    HW210200   6.381   6.405   4.285
 3101SOL     OW10201   5.492   6.809   6.263
 3101SOL    HW110202   5.488   6.902   6.302
 3101SOL    HW210203   5.588   6.780   6.258
 3102SOL     OW10204   0.006   5.079   1.928
 3102SOL    HW110205   0.001   5.111   1.834
 3102SOL    HW210206   0.094   5.104   1.968
 3103SOL     OW10207   4.125   0.291   2.461
 3103SOL    HW110208   4.115   0.389   2.477
 3103SOL    HW210209   4.081   0.267   2.375
 3104SOL     OW10210   5.080   0.377   4.838
 3104SOL    HW110211   5.134   0.303   4.798
 3104SOL    HW210212   5.137   0.430   4.901
 3105SOL     OW10213   6.016   4.845   1.681
 3105SOL    HW110214   6.102   4.801   1.704
 3105SOL    HW210215   5.961   4.784   1.623
 3106SOL     OW10216   6.625   1.578   3.061
 3106SOL    HW110217   6.638   1.569   3.159
 3106SOL    HW210218   6.707   1.546   3.013
 3107SOL     OW10219   4.374   1.195   4.913
 3107SOL    HW110220   4.285   1.239   4.927
 3107SOL    HW210221   4.361   1.096   4.906
 3108SOL     OW10222   1.208   6.356   4.336
 3108SOL    HW110223   1.200   6.398   4.245
 3108SOL    HW210224   1.302   6.323   4.348
 3109SOL     OW10225   5.912   6.137   2.961
 3109SOL    HW110226   5.871   6.092   3.040
 3109SOL    HW210227   5.845   6.197   2.918
 3110SOL     OW10228   1.741   2.130   2.974
 3110SOL    HW110229   1.778   2.043   3.007
 3110SOL    HW210230   1.796   2.162   2.896
 3111SOL     OW10231   6.497   5.493   3.673
 3111SOL    HW110232   6.566   5.544   3.725
 3111SOL    HW210233   6.525   5.398   3.665
 3112SOL     OW10234   5.346   2.405   6.745
 3112SOL    HW110235   5.427   2.463   6.734
 3112SOL    HW210236   5.264   2.462   6.746
 3113SOL     OW10237   2.549   5.940   3.479
 3113SOL    HW110238   2.509   5.910   3.565
 3113SOL    HW210239   2.510   5.887   3.404
 3114SOL     OW10240   4.206   1.671   1.137
 3114SOL    HW110241   4.191   1.608   1.061
 3114SOL    HW210242   4.132   1.661   1.204
 3115SOL     OW10243   4.055   3.448   6.574
 3115SOL    HW110244   4.010   3.519   6.628
 3115SOL    HW210245   3.986   3.391   6.529
 3116SOL     OW10246   0.897   3.024   6.682
 3116SOL    HW110247   0.845   2.942   6.658
 3116SOL    HW210248   0.896   3.037   6.781
 3117SOL     OW10249   4.489   3.669   5.318
 3117SOL    HW110250   4.419   3.598   5.308
 3117SOL    HW210251   4.567   3.647   5.260
 3118SOL     OW10252   0.426   5.399   1.905
 3118SOL    HW110253   0.327   5.388   1.892
 3118SOL    HW210254   0.473   5.322   1.861
 3119SOL     OW10255   1.726   3.469   5.869
 3119SOL    HW110256   1.750   3.403   5.940
 3119SOL    HW210257   1.803   3.481   5.806
 3120SOL     OW10258   3.148   6.661   4.610
 3120SOL    HW110259   3.096   6.683   4.527
 3120SOL    HW210260   3.100   6.697   4.690
 3121SOL     OW10261   0.145   1.196   3.783
 3121SOL    HW110262   0.171   1.105   3.750
 3121SOL    HW210263   0.059   1.223   3.740
 3122SOL     OW10264   3.635   6.723   5.935
 3122SOL    HW110265   3.691   6.774   5.869
 3122SOL    HW210266   3.635   6.626   5.910
 3123SOL     OW10267   3.318   1.375   3.997
 3123SOL    HW110268   3.372   1.300   3.959
 3123SOL    HW210269   3.367   1.461   3.985
 3124SOL     OW10270   3.688   0.023   4.572
 3124SOL    HW110271   3.707   0.121   4.563
 3124SOL    HW210272   3.597   0.009   4.610
 3125SOL     OW10273   6.732   2.735   4.830
 3125SOL    HW110274   6.711   2.639   4.811
 3125SOL    HW210275   6.787   2.773   4.756
 3126SOL     OW10276   5.343   5.087   5.662
 3126SOL    HW110277   5.302   4.997   5.645
 3126SOL    HW210278   5.270   5.157   5.662
 3127SOL     OW10279   1.406   3.211   4.322
 3127SOL    HW110280   1.402   3.129   4.379
 3127SOL    HW210281   1.409   3.185   4.225
 3128SOL     OW10282   2.652   0.539   6.482
 3128SOL    HW110283   2.681   0.473   6.552
 3128SOL    HW210284   2.651   0.494   6.392
 3129SOL     OW10285   6.515   3.931   6.347
 3129SOL    HW110286   6.458   3.859   6.308
 3129SOL    HW210287   6.517   3.923   6.446
 3130SOL     OW10288   1.971   3.996   1.598
 3130SOL    HW110289   1.926   3.956   1.678
 3130SOL    HW210290   2.041   4.061   1.628
 3131SOL     OW10291   6.895   2.146   1.188
 3131SOL    HW110292   6.965   2.215   1.207
 3131SOL    HW210293   6.930   2.055   1.212
 3132SOL     OW10294   4.293   5.466   6.025
 3132SOL    HW110295   4.376   5.510   6.057
 3132SOL    HW210296   4.304   5.366   6.027
 3133SOL     OW10297   3.478   1.708   4.497
 3133SOL    HW110298   3.455   1.611   4.492
 3133SOL    HW210299   3.568   1.723   4.456
 3134SOL     OW10300   4.804   3.955   1.483
 3134SOL    HW110301   4.811   4.012   1.565
 3134SOL    HW210302   4.708   3.946   1.458
 3135SOL     OW10303   4.884   0.656   5.820
 3135SOL    HW110304   4.936   0.594   5.760
 3135SOL    HW210305   4.854   0.606   5.902
 3136SOL     OW10306   5.466   0.863   0.675
 3136SOL    HW110307   5.535   0.879   0.605
 3136SOL    HW210308   5.400   0.794   0.643
 3137SOL     OW10309   6.554   0.855   3.279
 3137SOL    HW110310   6.486   0.806   3.224
 3137SOL    HW210311   6.585   0.935   3.229
 3138SOL     OW10312   6.406   3.836   4.181
 3138SOL    HW110313   6.430   3.745   4.145
 3138SOL    HW210314   6.367   3.891   4.108
 3139SOL     OW10315   5.164   6.461   0.458
 3139SOL    HW110316   5.141   6.532   0.524
 3139SOL    HW210317   5.092   6.456   0.388
 3140SOL     OW10318   5.710   0.243   6.899
 3140SOL    HW110319   5.750   0.267   6.810
 3140SOL    HW210320   5.760   0.165   6.937
 3141SOL     OW10321   0.009   6.190   6.813
 3141SOL    HW110322   0.032   6.212   6.718
 3141SOL    HW210323   0.088   6.211   6.871
 3142SOL     OW10324   3.189   6.624   1.941
 3142SOL    HW110325   3.183   6.609   1.842
 3142SOL    HW210326   3.279   6.595   1.973
 3143SOL     OW10327   6.797   1.633   6.546
 3143SOL    HW110328   6.738   1.650   6.625
 3143SOL    HW210329   6.867   1.566   6.571
 3144SOL     OW10330   4.569   3.970   1.703
 3144SOL    HW110331   4.547   4.050   1.758
 3144SOL    HW210332   4.528   3.979   1.613
 3145SOL     OW10333   2.478   5.865   1.390
 3145SOL    HW110334   2.387   5.878   1.431
 3145SOL    HW210335   2.511   5.952   1.354
 3146SOL     OW10336   1.184   6.910   3.198
 3146SOL    HW110337   1.185   6.958   3.110
 3146SOL    HW210338   1.136   6.823   3.189
 3147SOL     OW10339   3.634   5.163   0.803
 3147SOL    HW110340   3.717   5.174   0.857
 3147SOL    HW210341   3.636   5.075   0.756
 3148SOL     OW10342   5.215   5.688   4.921
 3148SOL    HW110343   5.161   5.604   4.932
 3148SOL    HW210344   5.288   5.689   4.990
 3149SOL     OW10345   2.731   0.990   6.008
 3149SOL    HW110346   2.783   0.964   6.089
 3149SOL    HW210347   2.637   1.011   6.033
 3150SOL     OW10348   5.748   6.039   3.934
 3150SOL    HW110349   5.731   5.942   3.921
 3150SOL    HW210350   5.663   6.085   3.958
 3151SOL     OW10351   5.335   1.202   5.742
 3151SOL    HW110352   5.253   1.225   5.795
 3151SOL    HW210353   5.309   1.154   5.659
 3152SOL     OW10354   1.325   5.837   0.099
 3152SOL    HW110355   1.269   5.832   0.181
 3152SOL    HW210356   1.308   5.757   0.041
 3153SOL     OW10357   6.122   5.039   2.170
 3153SOL    HW110358   6.058   5.081   2.106
 3153SOL    HW210359   6.175   4.968   2.123
 3154SOL     OW10360   5.956   1.065   6.477
 3154SOL    HW110361   5.945   0.966   6.489
 3154SOL    HW210362   5.866   1.107   6.463
 3155SOL     OW10363   5.988   4.526   1.587
 3155SOL    HW110364   5.979   4.427   1.580
 3155SOL    HW210365   6.078   4.550   1.621
 3156SOL     OW10366   3.185   3.035   3.517
 3156SOL    HW110367   3.274   2.990   3.506
 3156SOL    HW210368   3.128   2.980   3.578
 3157SOL     OW10369   2.698   2.192   4.871
 3157SOL    HW110370   2.660   2.284   4.855
 3157SOL    HW210371   2.796   2.193   4.852
 3158SOL     OW10372   4.390   0.326   2.892
 3158SOL    HW110373   4.450   0.295   2.966
 3158SOL    HW210374   4.327   0.396   2.927
 3159SOL     OW10375   5.326   1.575   6.771
 3159SOL    HW110376   5.283   1.508   6.831
 3159SOL    HW210377   5.298   1.667   6.797
 3160SOL     OW10378   0.409   6.533   5.689
 3160SOL    HW110379   0.475   6.578   5.750
 3160SOL    HW210380   0.458   6.481   5.620
 3161SOL     OW10381   1.640   1.646   3.057
 3161SOL    HW110382   1.605   1.557   3.086
 3161SOL    HW210383   1.702   1.633   2.979
 3162SOL     OW10384   1.304   6.361   1.851
 3162SOL    HW110385   1.219   6.361   1.903
 3162SOL    HW210386   1.325   6.454   1.821
 3163SOL     OW10387   4.456   2.180   6.249
 3163SOL    HW110388   4.367   2.165   6.293
 3163SOL    HW210389   4.459   2.128   6.163
 3164SOL     OW10390   4.736   4.277   1.152
 3164SOL    HW110391   4.754   4.240   1.062
 3164SOL    HW210392   4.639   4.268   1.174
 3165SOL     OW10393   0.608   6.070   0.720
 3165SOL    HW110394   0.686   6.022   0.680
 3165SOL    HW210395   0.634   6.165   0.738
 3166SOL     OW10396   4.635   2.103   5.372
 3166SOL    HW110397   4.725   2.119   5.331
 3166SOL    HW210398   4.609   2.181   5.428
 3167SOL     OW10399   6.565   3.546   1.348
 3167SOL    HW110400   6.617   3.617   1.397
 3167SOL    HW210401   6.467   3.562   1.361
 3168SOL     OW10402   4.543   2.231   7.005
 3168SOL    HW110403   4.622   2.173   7.022
 3168SOL    HW210404   4.484   2.233   0.062
 3169SOL     OW10405   1.418   3.831   5.036
 3169SOL    HW110406   1.514   3.813   5.013
 3169SOL    HW210407   1.365   3.746   5.026
 3170SOL     OW10408   3.823   0.717   1.022
 3170SOL    HW110409   3.836   0.688   0.927
 3170SOL    HW210410   3.862   0.648   1.083
 3171SOL     OW10411   0.316   6.826   1.508
 3171SOL    HW110412   0.382   6.901   1.497
 3171SOL    HW210413   0.223   6.862   1.498
 3172SOL     OW10414   0.323   5.046   6.964
 3172SOL    HW110415   0.376   5.010   6.887
 3172SOL    HW210416   0.326   5.146   6.964
 3173SOL     OW10417   2.986   2.279   0.426
 3173SOL    HW110418   3.066   2.236   0.469
 3173SOL    HW210419   2.915   2.210   0.413
 3174SOL     OW10420   2.960   2.724   6.161
 3174SOL    HW110421   2.986   2.681   6.248
 3174SOL    HW210422   3.032   2.788   6.133
 3175SOL     OW10423   7.008   0.502   0.494
 3175SOL    HW110424   7.009   0.402   0.485
 3175SOL    HW210425   6.923   0.530   0.538
 3176SOL     OW10426   1.285   4.895   4.992
 3176SOL    HW110427   1.325   4.981   5.024
 3176SOL    HW210428   1.264   4.837   5.070
 3177SOL     OW10429   4.584   4.421   4.071
 3177SOL    HW110430   4.514   4.453   4.008
 3177SOL    HW210431   4.565   4.454   4.164
 3178SOL     OW10432   6.372   1.825   0.376
 3178SOL    HW110433   6.299   1.779   0.325
 3178SOL    HW210434   6.362   1.806   0.474
 3179SOL     OW10435   1.763   3.131   2.230
 3179SOL    HW110436   1.732   3.135   2.325
 3179SOL    HW210437   1.846   3.077   2.224
 3180SOL     OW10438   3.905   1.492   6.933
 3180SOL    HW110439   3.810   1.477   6.960
 3180SOL    HW210440   3.963   1.493   7.015
 3181SOL     OW10441   0.788   1.334   2.581
 3181SOL    HW110442   0.778   1.268   2.655
 3181SOL    HW210443   0.861   1.399   2.604
 3182SOL     OW10444   2.445   1.437   5.186
 3182SOL    HW110445   2.488   1.524   5.211
 3182SOL    HW210446   2.425   1.437   5.088
 3183SOL     OW10447   4.387   4.165   1.583
 3183SOL    HW110448   4.335   4.249   1.564
 3183SOL    HW210449   4.423   4.169   1.676
 3184SOL     OW10450   1.342   2.391   2.595
 3184SOL    HW110451   1.346   2.291   2.593
 3184SOL    HW210452   1.397   2.428   2.520
 3185SOL     OW10453   6.084   5.623   0.291
 3185SOL    HW110454   6.149   5.664   0.227
 3185SOL    HW210455   6.131   5.558   0.350
 3186SOL     OW10456   3.833   1.757   2.051
 3186SOL    HW110457   3.867   1.673   2.093
 3186SOL    HW210458   3.737   1.772   2.077
 3187SOL     OW10459   4.835   3.614   0.707
 3187SOL    HW110460   4.818   3.523   0.744
 3187SOL    HW210461   4.758   3.643   0.651
 3188SOL     OW10462   3.793   6.373   4.636
 3188SOL    HW110463   3.795   6.421   4.724
 3188SOL    HW210464   3.698   6.368   4.603
 3189SOL     OW10465   1.948   1.718   1.930
 3189SOL    HW110466   1.950   1.644   1.864
 3189SOL    HW210467   1.863   1.770   1.919
 3190SOL     OW10468   0.093   6.528   0.727
 3190SOL    HW110469   0.151   6.448   0.717
 3190SOL    HW210470   0.002   6.509   0.690
 3191SOL     OW10471   4.386   6.751   0.411
 3191SOL    HW110472   4.401   6.838   0.459
 3191SOL    HW210473   4.453   6.684   0.442
 3192SOL     OW10474   0.288   2.700   0.545
 3192SOL    HW110475   0.286   2.624   0.610
 3192SOL    HW210476   0.212   2.691   0.480
 3193SOL     OW10477   4.132   1.829   6.108
 3193SOL    HW110478   4.057   1.765   6.091
 3193SOL    HW210479   4.114   1.915   6.060
 3194SOL     OW10480   0.304   3.273   5.706
 3194SOL    HW110481   0.270   3.362   5.736
 3194SOL    HW210482   0.392   3.285   5.659
 3195SOL     OW10483   2.826   2.280   3.477
 3195SOL    HW110484   2.911   2.234   3.452
 3195SOL    HW210485   2.825   2.297   3.575
 3196SOL     OW10486   0.483   0.612   5.499
 3196SOL    HW110487   0.487   0.532   5.439
 3196SOL    HW210488   0.545   0.599   5.576
 3197SOL     OW10489   1.408   6.072   3.834
 3197SOL    HW110490   1.443   6.136   3.766
 3197SOL    HW210491   1.389   6.120   3.919
 3198SOL     OW10492   6.257   2.179   5.622
 3198SOL    HW110493   6.235   2.231   5.540
 3198SOL    HW210494   6.222   2.228   5.702
 3199SOL     OW10495   4.850   2.799   1.904
 3199SOL    HW110496   4.811   2.710   1.927
 3199SOL    HW210497   4.799   2.871   1.949
 3200SOL     OW10498   6.712   2.628   1.640
 3200SOL    HW110499   6.651   2.602   1.714
 3200SOL    HW210500   6.791   2.568   1.639
 3201SOL     OW10501   4.813   4.135   4.353
 3201SOL    HW110502   4.887   4.131   4.421
 3201SOL    HW210503   4.753   4.212   4.374
 3202SOL     OW10504   1.280   4.501   1.643
 3202SOL    HW110505   1.274   4.403   1.625
 3202SOL    HW210506   1.279   4.551   1.557
 3203SOL     OW10507   6.183   2.700   6.362
 3203SOL    HW110508   6.233   2.726   6.444
 3203SOL    HW210509   6.126   2.776   6.331
 3204SOL     OW10510   4.428   6.433   2.244
 3204SOL    HW110511   4.519   6.470   2.231
 3204SOL    HW210512   4.426   6.338   2.211
 3205SOL     OW10513   7.006   3.595   0.014
 3205SOL    HW110514   6.954   3.671   7.000
 3205SOL    HW210515   7.015   3.522   6.970
 3206SOL     OW10516   0.201   6.977   5.938
 3206SOL    HW110517   0.184   6.942   6.031
 3206SOL    HW210518   0.300   6.974   5.920
 3207SOL     OW10519   0.715   1.264   5.860
 3207SOL    HW110520   0.623   1.227   5.856
 3207SOL    HW210521   0.781   1.193   5.835
 3208SOL     OW10522   5.027   6.555   5.278
 3208SOL    HW110523   5.115   6.580   5.316
 3208SOL    HW210524   5.026   6.574   5.179
 3209SOL     OW10525   4.103   5.341   3.262
 3209SOL    HW110526   4.184   5.385   3.223
 3209SOL    HW210527   4.053   5.408   3.317
 3210SOL     OW10528   0.604   4.078   1.323
 3210SOL    HW110529   0.559   4.152   1.373
 3210SOL    HW210530   0.538   4.005   1.306
 3211SOL     OW10531   2.103   3.089   0.990
 3211SOL    HW110532   2.104   3.035   0.905
 3211SOL    HW210533   2.131   3.183   0.969
 3212SOL     OW10534   2.855   1.231   0.272
 3212SOL    HW110535   2.783   1.236   0.202
 3212SOL    HW210536   2.846   1.145   0.323
 3213SOL     OW10537   6.488   5.862   2.640
 3213SOL    HW110538   6.539   5.777   2.628
 3213SOL    HW210539   6.444   5.861   2.730
 3214SOL     OW10540   4.675   5.654   0.839
 3214SOL    HW110541   4.761   5.637   0.792
 3214SOL    HW210542   4.626   5.567   0.853
 3215SOL     OW10543   0.328   3.283   0.842
 3215SOL    HW110544   0.230   3.283   0.825
 3215SOL    HW210545   0.377   3.291   0.755
 3216SOL     OW10546   5.642   5.567   1.775
 3216SOL    HW110547   5.573   5.551   1.845
 3216SOL    HW210548   5.608   5.636   1.710
 3217SOL     OW10549   0.518   5.469   2.753
 3217SOL    HW110550   0.462   5.402   2.704
 3217SOL    HW210551   0.461   5.526   2.811
 3218SOL     OW10552   4.182   6.886   4.174
 3218SOL    HW110553   4.105   6.903   4.112
 3218SOL    HW210554   4.258   6.946   4.149
 3219SOL     OW10555   0.060   2.111   3.240
 3219SOL    HW110556   0.107   2.068   3.317
 3219SOL    HW210557   0.028   2.201   3.267
 3220SOL     OW10558   6.450   6.222   5.858
 3220SOL    HW110559   6.436   6.321   5.866
 3220SOL    HW210560   6.511   6.203   5.781
 3221SOL     OW10561   2.883   6.781   1.593
 3221SOL    HW110562   2.903   6.775   1.495
 3221SOL    HW210563   2.809   6.848   1.607
 3222SOL     OW10564   4.191   1.456   3.038
 3222SOL    HW110565   4.107   1.419   2.997
 3222SOL    HW210566   4.206   1.414   3.127
 3223SOL     OW10567   1.941   5.539   6.985
 3223SOL    HW110568   2.024   5.589   6.960
 3223SOL    HW210569   1.943   5.448   6.944
 3224SOL     OW10570   4.298   3.908   6.335
 3224SOL    HW110571   4.218   3.855   6.307
 3224SOL    HW210572   4.377   3.848   6.341
 3225SOL     OW10573   4.511   3.244   5.349
 3225SOL    HW110574   4.485   3.151   5.373
 3225SOL    HW210575   4.582   3.276   5.412
 3226SOL     OW10576   1.572   1.871   4.429
 3226SOL    HW110577   1.519   1.908   4.353
 3226SOL    HW210578   1.561   1.772   4.432
 3227SOL     OW10579   2.886   2.219   6.245
 3227SOL    HW110580   2.803   2.202   6.192
 3227SOL    HW210581   2.887   2.314   6.275
 3228SOL     OW10582   5.687   3.977   3.125
 3228SOL    HW110583   5.641   4.010   3.042
 3228SOL    HW210584   5.669   4.040   3.201
 3229SOL     OW10585   3.198   1.718   5.157
 3229SOL    HW110586   3.267   1.782   5.125
 3229SOL    HW210587   3.216   1.628   5.119
 3230SOL     OW10588   1.550   2.977   3.933
 3230SOL    HW110589   1.605   3.014   3.858
 3230SOL    HW210590   1.455   3.007   3.923
 3231SOL     OW10591   2.225   0.385   1.864
 3231SOL    HW110592   2.165   0.456   1.903
 3231SOL    HW210593   2.189   0.295   1.888
 3232SOL     OW10594   4.126   5.590   4.732
 3232SOL    HW110595   4.121   5.637   4.644
 3232SOL    HW210596   4.034   5.565   4.762
 3233SOL     OW10597   1.116   2.690   1.512
 3233SOL    HW110598   1.138   2.659   1.604
 3233SOL    HW210599   1.191   2.745   1.476
 3234SOL     OW10600   6.860   1.736   0.500
 3234SOL    HW110601   6.866   1.648   0.547
 3234SOL    HW210602   6.952   1.767   0.477
 3235SOL     OW10603   4.868   0.626   1.508
 3235SOL    HW110604   4.934   0.692   1.544
 3235SOL    HW210605   4.910   0.573   1.434
 3236SOL     OW10606   1.691   3.394   0.331
 3236SOL    HW110607   1.703   3.484   0.289
 3236SOL    HW210608   1.763   3.332   0.299
 3237SOL     OW10609   5.681   1.223   3.295
 3237SOL    HW110610   5.620   1.293   3.332
 3237SOL    HW210611   5.633   1.170   3.226
 3238SOL     OW10612   0.296   4.728   1.005
 3238SOL    HW110613   0.355   4.808   0.999
 3238SOL    HW210614   0.203   4.753   0.975
 3239SOL     OW10615   5.967   1.453   0.437
 3239SOL    HW110616   6.056   1.476   0.477
 3239SOL    HW210617   5.936   1.528   0.379
 3240SOL     OW10618   1.194   6.030   5.347
 3240SOL    HW110619   1.207   5.945   5.295
 3240SOL    HW210620   1.134   6.012   5.424
 3241SOL     OW10621   4.586   1.345   4.227
 3241SOL    HW110622   4.622   1.428   4.184
 3241SOL    HW210623   4.651   1.271   4.217
 3242SOL     OW10624   3.219   4.758   1.196
 3242SOL    HW110625   3.133   4.744   1.245
 3242SOL    HW210626   3.200   4.768   1.098
 3243SOL     OW10627   5.572   4.856   0.151
 3243SOL    HW110628   5.634   4.809   0.088
 3243SOL    HW210629   5.524   4.930   0.103
 3244SOL     OW10630   5.157   5.897   0.741
 3244SOL    HW110631   5.125   5.885   0.647
 3244SOL    HW210632   5.188   5.809   0.778
 3245SOL     OW10633   5.342   2.412   5.673
 3245SOL    HW110634   5.331   2.313   5.679
 3245SOL    HW210635   5.439   2.436   5.682
 3246SOL     OW10636   6.044   1.123   3.090
 3246SOL    HW110637   6.138   1.111   3.056
 3246SOL    HW210638   6.016   1.218   3.076
 3247SOL     OW10639   6.651   4.545   3.368
 3247SOL    HW110640   6.735   4.596   3.349
 3247SOL    HW210641   6.613   4.575   3.455
 3248SOL     OW10642   6.181   3.141   1.805
 3248SOL    HW110643   6.097   3.194   1.792
 3248SOL    HW210644   6.168   3.075   1.879
 3249SOL     OW10645   3.179   3.558   4.897
 3249SOL    HW110646   3.085   3.523   4.891
 3249SOL    HW210647   3.231   3.528   4.817
 3250SOL     OW10648   5.353   0.096   2.483
 3250SOL    HW110649   5.280   0.099   2.414
 3250SOL    HW210650   5.436   0.136   2.443
 3251SOL     OW10651   3.751   0.877   2.334
 3251SOL    HW110652   3.816   0.840   2.401
 3251SOL    HW210653   3.672   0.915   2.382
 3252SOL     OW10654   2.698   1.872   2.133
 3252SOL    HW110655   2.611   1.890   2.179
 3252SOL    HW210656   2.733   1.957   2.094
 3253SOL     OW10657   6.017   2.996   2.790
 3253SOL    HW110658   5.994   2.971   2.696
 3253SOL    HW210659   6.114   2.980   2.806
 3254SOL     OW10660   4.729   5.777   6.050
 3254SOL    HW110661   4.719   5.855   5.989
 3254SOL    HW210662   4.822   5.740   6.042
 3255SOL     OW10663   5.090   6.381   1.878
 3255SOL    HW110664   5.159   6.342   1.818
 3255SOL    HW210665   5.052   6.464   1.836
 3256SOL     OW10666   5.174   0.338   0.142
 3256SOL    HW110667   5.255   0.354   0.085
 3256SOL    HW210668   5.114   0.272   0.098
 3257SOL     OW10669   1.385   2.391   1.206
 3257SOL    HW110670   1.303   2.423   1.253
 3257SOL    HW210671   1.466   2.419   1.258
 3258SOL     OW10672   3.874   4.911   1.957
 3258SOL    HW110673   3.799   4.845   1.960
 3258SOL    HW210674   3.915   4.920   2.048
 3259SOL     OW10675   4.487   5.943   3.894
 3259SOL    HW110676   4.505   6.016   3.960
 3259SOL    HW210677   4.517   5.972   3.803
 3260SOL     OW10678   2.043   1.820   1.313
 3260SOL    HW110679   2.011   1.878   1.387
 3260SOL    HW210680   1.976   1.819   1.239
 3261SOL     OW10681   4.716   6.248   0.715
 3261SOL    HW110682   4.733   6.154   0.685
 3261SOL    HW210683   4.802   6.299   0.713
 3262SOL     OW10684   3.554   2.085   2.753
 3262SOL    HW110685   3.608   2.032   2.819
 3262SOL    HW210686   3.603   2.088   2.666
 3263SOL     OW10687   3.687   1.366   4.217
 3263SOL    HW110688   3.590   1.377   4.192
 3263SOL    HW210689   3.697   1.380   4.315
 3264SOL     OW10690   1.232   4.380   1.023
 3264SOL    HW110691   1.315   4.403   0.973
 3264SOL    HW210692   1.212   4.282   1.011
 3265SOL     OW10693   4.656   1.905   5.545
 3265SOL    HW110694   4.588   1.831   5.538
 3265SOL    HW210695   4.630   1.980   5.484
 3266SOL     OW10696   0.668   2.766   0.405
 3266SOL    HW110697   0.639   2.776   0.310
 3266SOL    HW210698   0.768   2.765   0.410
 3267SOL     OW10699   4.080   1.307   0.379
 3267SOL    HW110700   4.145   1.314   0.455
 3267SOL    HW210701   4.079   1.394   0.329
 3268SOL     OW10702   1.639   4.595   0.299
 3268SOL    HW110703   1.707   4.591   0.371
 3268SOL    HW210704   1.568   4.662   0.322
 3269SOL     OW10705   4.290   4.932   1.429
 3269SOL    HW110706   4.240   4.945   1.344
 3269SOL    HW210707   4.269   5.008   1.492
 3270SOL     OW10708   1.533   4.989   5.597
 3270SOL    HW110709   1.519   4.956   5.504
 3270SOL    HW210710   1.631   4.998   5.616
 3271SOL     OW10711   5.629   3.706   3.133
 3271SOL    HW110712   5.621   3.798   3.172
 3271SOL    HW210713   5.725   3.678   3.134
 3272SOL     OW10714   3.596   3.690   0.025
 3272SOL    HW110715   3.525   3.759   0.040
 3272SOL    HW210716   3.647   3.714   6.966
 3273SOL     OW10717   0.663   6.238   2.192
 3273SOL    HW110718   0.614   6.188   2.121
 3273SOL    HW210719   0.641   6.335   2.187
 3274SOL     OW10720   3.598   1.341   1.016
 3274SOL    HW110721   3.632   1.295   0.934
 3274SOL    HW210722   3.628   1.437   1.016
 3275SOL     OW10723   1.100   0.814   6.697
 3275SOL    HW110724   1.080   0.726   6.653
 3275SOL    HW210725   1.022   0.875   6.685
 3276SOL     OW10726   3.415   5.334   6.624
 3276SOL    HW110727   3.392   5.242   6.657
 3276SOL    HW210728   3.340   5.369   6.569
 3277SOL     OW10729   5.230   0.134   6.802
 3277SOL    HW110730   5.322   0.105   6.774
 3277SOL    HW210731   5.209   0.098   6.892
 3278SOL     OW10732   7.002   0.930   5.921
 3278SOL    HW110733   6.953   1.013   5.951
 3278SOL    HW210734   6.984   0.914   5.824
 3279SOL     OW10735   6.972   0.813   0.781
 3279SOL    HW110736   7.016   0.857   0.702
 3279SOL    HW210737   6.893   0.762   0.750
 3280SOL     OW10738   3.573   4.921   5.597
 3280SOL    HW110739   3.606   5.002   5.549
 3280SOL    HW210740   3.529   4.859   5.532
 3281SOL     OW10741   2.033   5.871   0.644
 3281SOL    HW110742   1.936   5.883   0.664
 3281SOL    HW210743   2.044   5.815   0.562
 3282SOL     OW10744   2.120   5.307   4.649
 3282SOL    HW110745   2.077   5.218   4.634
 3282SOL    HW210746   2.150   5.345   4.561
 3283SOL     OW10747   3.151   1.412   1.310
 3283SOL    HW110748   3.168   1.346   1.383
 3283SOL    HW210749   3.230   1.415   1.249
 3284SOL     OW10750   6.025   6.205   0.313
 3284SOL    HW110751   6.124   6.209   0.309
 3284SOL    HW210752   5.990   6.282   0.368
 3285SOL     OW10753   5.853   2.809   3.159
 3285SOL    HW110754   5.828   2.861   3.077
 3285SOL    HW210755   5.772   2.800   3.218
 3286SOL     OW10756   4.105   3.605   2.909
 3286SOL    HW110757   4.033   3.658   2.953
 3286SOL    HW210758   4.192   3.620   2.956
 3287SOL     OW10759   1.398   5.858   0.372
 3287SOL    HW110760   1.298   5.855   0.381
 3287SOL    HW210761   1.428   5.784   0.312
 3288SOL     OW10762   0.761   5.293   6.582
 3288SOL    HW110763   0.772   5.329   6.674
 3288SOL    HW210764   0.843   5.315   6.528
 3289SOL     OW10765   2.229   6.636   5.370
 3289SOL    HW110766   2.212   6.690   5.287
 3289SOL    HW210767   2.256   6.697   5.445
 3290SOL     OW10768   0.188   6.575   1.814
 3290SOL    HW110769   0.286   6.596   1.822
 3290SOL    HW210770   0.164   6.564   1.718
 3291SOL     OW10771   0.705   5.821   0.089
 3291SOL    HW110772   0.743   5.807   7.022
 3291SOL    HW210773   0.605   5.810   0.085
 3292SOL     OW10774   0.526   0.852   6.783
 3292SOL    HW110775   0.466   0.801   6.722
 3292SOL    HW210776   0.476   0.877   6.866
 3293SOL     OW10777   6.935   3.525   3.296
 3293SOL    HW110778   6.933   3.444   3.353
 3293SOL    HW210779   6.848   3.533   3.247
 3294SOL     OW10780   0.437   1.301   6.226
 3294SOL    HW110781   0.529   1.313   6.264
 3294SOL    HW210782   0.384   1.240   6.285
 3295SOL     OW10783   1.578   3.075   2.037
 3295SOL    HW110784   1.637   3.135   1.983
 3295SOL    HW210785   1.585   3.099   2.134
 3296SOL     OW10786   2.033   5.956   1.691
 3296SOL    HW110787   1.981   6.026   1.741
 3296SOL    HW210788   2.122   5.944   1.734
 3297SOL     OW10789   2.769   0.141   5.003
 3297SOL    HW110790   2.801   0.234   4.984
 3297SOL    HW210791   2.844   0.087   5.041
 3298SOL     OW10792   6.288   1.751   3.790
 3298SOL    HW110793   6.268   1.822   3.723
 3298SOL    HW210794   6.210   1.689   3.798
 3299SOL     OW10795   2.143   6.525   4.002
 3299SOL    HW110796   2.109   6.520   3.909
 3299SOL    HW210797   2.237   6.561   4.002
 3300SOL     OW10798   0.590   0.794   5.910
 3300SOL    HW110799   0.623   0.745   5.990
 3300SOL    HW210800   0.652   0.778   5.833
 3301SOL     OW10801   2.090   3.306   3.781
 3301SOL    HW110802   2.117   3.312   3.877
 3301SOL    HW210803   2.143   3.370   3.727
 3302SOL     OW10804   1.393   5.675   5.437
 3302SOL    HW110805   1.446   5.760   5.439
 3302SOL    HW210806   1.447   5.602   5.480
 3303SOL     OW10807   3.753   2.987   1.636
 3303SOL    HW110808   3.786   2.898   1.604
 3303SOL    HW210809   3.659   2.977   1.669
 3304SOL     OW10810   1.679   5.180   3.977
 3304SOL    HW110811   1.607   5.195   3.911
 3304SOL    HW210812   1.699   5.265   4.025
 3305SOL     OW10813   2.399   1.017   3.027
 3305SOL    HW110814   2.407   1.097   3.087
 3305SOL    HW210815   2.353   0.944   3.077
 3306SOL     OW10816   2.268   5.502   3.567
 3306SOL    HW110817   2.350   5.558   3.581
 3306SOL    HW210818   2.249   5.449   3.650
 3307SOL     OW10819   6.984   5.839   6.555
 3307SOL    HW110820   6.898   5.858   6.508
 3307SOL    HW210821   0.033   5.827   6.487
 3308SOL     OW10822   4.724   6.497   6.783
 3308SOL    HW110823   4.785   6.421   6.762
 3308SOL    HW210824   4.703   6.496   6.881
 3309SOL     OW10825   0.653   5.195   2.171
 3309SOL    HW110826   0.729   5.255   2.149
 3309SOL    HW210827   0.641   5.127   2.098
 3310SOL     OW10828   6.324   4.291   4.662
 3310SOL    HW110829   6.288   4.369   4.611
 3310SOL    HW210830   6.369   4.228   4.598
 3311SOL     OW10831   2.398   4.278   2.137
 3311SOL    HW110832   2.367   4.220   2.062
 3311SOL    HW210833   2.496   4.269   2.149
 3312SOL     OW10834   3.812   4.270   6.022
 3312SOL    HW110835   3.730   4.325   6.035
 3312SOL    HW210836   3.892   4.330   6.013
 3313SOL     OW10837   7.019   5.519   2.359
 3313SOL    HW110838   0.003   5.551   2.453
 3313SOL    HW210839   0.076   5.546   2.307
 3314SOL     OW10840   1.794   1.667   4.716
 3314SOL    HW110841   1.811   1.708   4.805
 3314SOL    HW210842   1.852   1.586   4.704
 3315SOL     OW10843   6.454   3.591   4.062
 3315SOL    HW110844   6.415   3.517   4.117
 3315SOL    HW210845   6.528   3.555   4.006
 3316SOL     OW10846   3.534   1.759   6.262
 3316SOL    HW110847   3.537   1.761   6.162
 3316SOL    HW210848   3.443   1.728   6.292
 3317SOL     OW10849   4.829   3.103   1.698
 3317SOL    HW110850   4.889   3.025   1.715
 3317SOL    HW210851   4.746   3.094   1.753
 3318SOL     OW10852   2.966   0.257   0.642
 3318SOL    HW110853   2.966   0.306   0.555
 3318SOL    HW210854   2.907   0.305   0.708
 3319SOL     OW10855   6.304   7.001   4.636
 3319SOL    HW110856   6.234   0.025   4.688
 3319SOL    HW210857   6.319   6.911   4.676
 3320SOL     OW10858   5.399   0.900   5.422
 3320SOL    HW110859   5.466   0.960   5.379
 3320SOL    HW210860   5.424   0.884   5.517
 3321SOL     OW10861   3.424   2.237   1.793
 3321SOL    HW110862   3.405   2.157   1.851
 3321SOL    HW210863   3.520   2.264   1.806
 3322SOL     OW10864   5.100   3.319   1.670
 3322SOL    HW110865   5.068   3.308   1.576
 3322SOL    HW210866   5.135   3.232   1.704
 3323SOL     OW10867   2.345   4.182   6.386
 3323SOL    HW110868   2.428   4.143   6.425
 3323SOL    HW210869   2.343   4.164   6.288
 3324SOL     OW10870   1.005   4.138   6.440
 3324SOL    HW110871   1.052   4.217   6.480
 3324SOL    HW210872   0.995   4.153   6.341
 3325SOL     OW10873   2.052   2.745   6.655
 3325SOL    HW110874   2.133   2.736   6.713
 3325SOL    HW210875   2.005   2.831   6.676
 3326SOL     OW10876   5.605   1.584   2.205
 3326SOL    HW110877   5.622   1.682   2.214
 3326SOL    HW210878   5.590   1.562   2.108
 3327SOL     OW10879   3.275   6.270   1.717
 3327SOL    HW110880   3.255   6.220   1.802
 3327SOL    HW210881   3.359   6.235   1.678
 3328SOL     OW10882   4.045   1.931   2.546
 3328SOL    HW110883   4.047   2.015   2.601
 3328SOL    HW210884   4.123   1.930   2.483
 3329SOL     OW10885   4.917   0.887   5.016
 3329SOL    HW110886   4.979   0.854   5.088
 3329SOL    HW210887   4.924   0.826   4.937
 3330SOL     OW10888   6.028   6.335   1.500
 3330SOL    HW110889   6.059   6.367   1.589
 3330SOL    HW210890   6.040   6.407   1.432
 3331SOL     OW10891   0.524   3.630   2.009
 3331SOL    HW110892   0.588   3.625   1.933
 3331SOL    HW210893   0.461   3.707   1.995
 3332SOL     OW10894   6.194   4.339   0.245
 3332SOL    HW110895   6.119   4.343   0.311
 3332SOL    HW210896   6.273   4.388   0.281
 3333SOL     OW10897   3.260   3.747   6.766
 3333SOL    HW110898   3.160   3.750   6.769
 3333SOL    HW210899   3.296   3.838   6.788
 3334SOL     OW10900   1.935   3.506   2.494
 3334SOL    HW110901   1.952   3.539   2.401
 3334SOL    HW210902   2.022   3.486   2.538
 3335SOL     OW10903   4.802   6.749   6.439
 3335SOL    HW110904   4.844   6.768   6.528
 3335SOL    HW210905   4.732   6.679   6.450
 3336SOL     OW10906   2.000   6.582   4.577
 3336SOL    HW110907   1.955   6.668   4.552
 3336SOL    HW210908   1.938   6.528   4.635
 3337SOL     OW10909   2.543   4.168   1.400
 3337SOL    HW110910   2.586   4.249   1.361
 3337SOL    HW210911   2.613   4.107   1.438
 3338SOL     OW10912   0.139   2.608   1.309
 3338SOL    HW110913   0.119   2.636   1.215
 3338SOL    HW210914   0.120   2.684   1.371
 3339SOL     OW10915   1.216   6.933   6.501
 3339SOL    HW110916   1.228   6.963   6.596
 3339SOL    HW210917   1.268   6.849   6.486
 3340SOL     OW10918   3.262   0.954   3.763
 3340SOL    HW110919   3.333   0.885   3.778
 3340SOL    HW210920   3.305   1.041   3.739
 3341SOL     OW10921   2.101   4.383   4.071
 3341SOL    HW110922   2.164   4.309   4.048
 3341SOL    HW210923   2.132   4.467   4.026
 3342SOL     OW10924   1.268   0.258   3.598
 3342SOL    HW110925   1.184   0.299   3.632
 3342SOL    HW210926   1.246   0.187   3.531
 3343SOL     OW10927   5.380   4.564   6.542
 3343SOL    HW110928   5.407   4.529   6.452
 3343SOL    HW210929   5.458   4.607   6.587
 3344SOL     OW10930   5.924   3.961   4.330
 3344SOL    HW110931   5.859   4.000   4.264
 3344SOL    HW210932   5.957   4.033   4.391
 3345SOL     OW10933   1.059   4.431   6.422
 3345SOL    HW110934   1.006   4.428   6.506
 3345SOL    HW210935   1.156   4.418   6.443
 3346SOL     OW10936   0.699   0.723   0.083
 3346SOL    HW110937   0.686   0.627   0.057
 3346SOL    HW210938   0.678   0.781   0.004
 3347SOL     OW10939   0.931   3.340   5.945
 3347SOL    HW110940   0.991   3.394   6.004
 3347SOL    HW210941   0.862   3.294   6.001
 3348SOL     OW10942   4.147   3.468   4.844
 3348SOL    HW110943   4.073   3.451   4.908
 3348SOL    HW210944   4.233   3.477   4.893
 3349SOL     OW10945   2.129   5.274   2.781
 3349SOL    HW110946   2.051   5.296   2.723
 3349SOL    HW210947   2.097   5.260   2.875
 3350SOL     OW10948   0.319   2.987   5.827
 3350SOL    HW110949   0.228   2.954   5.802
 3350SOL    HW210950   0.336   3.075   5.784
 3351SOL     OW10951   4.763   1.468   1.892
 3351SOL    HW110952   4.715   1.481   1.805
 3351SOL    HW210953   4.794   1.557   1.926
 3352SOL     OW10954   5.934   2.568   0.839
 3352SOL    HW110955   5.895   2.656   0.810
 3352SOL    HW210956   6.003   2.539   0.772
 3353SOL     OW10957   3.154   5.910   1.485
 3353SOL    HW110958   3.211   5.930   1.565
 3353SOL    HW210959   3.152   5.811   1.470
 3354SOL     OW10960   4.478   2.736   5.263
 3354SOL    HW110961   4.557   2.786   5.296
 3354SOL    HW210962   4.394   2.787   5.286
 3355SOL     OW10963   1.912   1.880   5.941
 3355SOL    HW110964   1.896   1.873   6.040
 3355SOL    HW210965   1.928   1.788   5.904
 3356SOL     OW10966   0.796   5.893   5.939
 3356SOL    HW110967   0.722   5.930   5.883
 3356SOL    HW210968   0.762   5.815   5.992
 3357SOL     OW10969   3.314   3.543   2.204
 3357SOL    HW110970   3.403   3.566   2.165
 3357SOL    HW210971   3.294   3.605   2.280
 3358SOL     OW10972   4.562   1.514   2.781
 3358SOL    HW110973   4.594   1.477   2.693
 3358SOL    HW210974   4.462   1.511   2.784
 3359SOL     OW10975   6.973   5.879   2.984
 3359SOL    HW110976   7.005   5.805   2.925
 3359SOL    HW210977   6.880   5.860   3.014
 3360SOL     OW10978   0.530   1.740   6.322
 3360SOL    HW110979   0.453   1.683   6.291
 3360SOL    HW210980   0.616   1.696   6.297
 3361SOL     OW10981   7.002   5.628   4.691
 3361SOL    HW110982   0.002   5.601   4.598
 3361SOL    HW210983   6.937   5.561   4.729
 3362SOL     OW10984   3.449   1.743   2.496
 3362SOL    HW110985   3.416   1.835   2.515
 3362SOL    HW210986   3.370   1.682   2.482
 3363SOL     OW10987   6.658   2.246   1.678
 3363SOL    HW110988   6.571   2.215   1.638
 3363SOL    HW210989   6.652   2.344   1.698
 3364SOL     OW10990   2.242   4.567   3.732
 3364SOL    HW110991   2.329   4.518   3.743
 3364SOL    HW210992   2.261   4.661   3.705
 3365SOL     OW10993   6.858   3.128   5.201
 3365SOL    HW110994   6.862   3.107   5.103
 3365SOL    HW210995   6.943   3.098   5.245
 3366SOL     OW10996   5.301   4.794   4.136
 3366SOL    HW110997   5.229   4.728   4.155
 3366SOL    HW210998   5.266   4.887   4.147
 3367SOL     OW10999   4.008   3.800   3.059
 3367SOL    HW111000   4.033   3.762   3.148
 3367SOL    HW211001   3.950   3.880   3.073
 3368SOL     OW11002   0.431   5.695   6.461
 3368SOL    HW111003   0.451   5.597   6.464
 3368SOL    HW211004   0.446   5.735   6.551
 3369SOL     OW11005   3.915   1.771   0.947
 3369SOL    HW111006   3.944   1.798   1.039
 3369SOL    HW211007   3.989   1.723   0.901
 3370SOL     OW11008   6.677   6.457   1.377
 3370SOL    HW111009   6.685   6.357   1.381
 3370SOL    HW211010   6.663   6.493   1.469
 3371SOL     OW11011   2.243   3.268   1.668
 3371SOL    HW111012   2.291   3.329   1.732
 3371SOL    HW211013   2.309   3.216   1.615
 3372SOL     OW11014   6.838   1.955   0.021
 3372SOL    HW111015   6.915   1.909   0.066
 3372SOL    HW211016   6.752   1.926   0.063
 3373SOL     OW11017   0.187   2.341   4.147
 3373SOL    HW111018   0.184   2.437   4.173
 3373SOL    HW211019   0.231   2.332   4.058
 3374SOL     OW11020   0.802   6.741   3.945
 3374SOL    HW111021   0.748   6.773   4.023
 3374SOL    HW211022   0.872   6.677   3.976
 3375SOL     OW11023   0.057   4.662   0.486
 3375SOL    HW111024   7.000   4.710   0.455
 3375SOL    HW211025   0.126   4.729   0.516
 3376SOL     OW11026   3.642   2.823   4.837
 3376SOL    HW111027   3.684   2.733   4.824
 3376SOL    HW211028   3.623   2.838   4.934
 3377SOL     OW11029   0.217   5.289   6.000
 3377SOL    HW111030   0.136   5.307   5.944
 3377SOL    HW211031   0.193   5.227   6.075
 3378SOL     OW11032   1.371   6.139   0.241
 3378SOL    HW111033   1.371   6.045   0.275
 3378SOL    HW211034   1.443   6.191   0.287
 3379SOL     OW11035   0.772   1.734   4.720
 3379SOL    HW111036   0.765   1.635   4.704
 3379SOL    HW211037   0.737   1.783   4.640
 3380SOL     OW11038   5.037   6.262   5.372
 3380SOL    HW111039   5.012   6.353   5.338
 3380SOL    HW211040   4.965   6.229   5.434
 3381SOL     OW11041   6.609   2.815   0.966
 3381SOL    HW111042   6.535   2.753   0.940
 3381SOL    HW211043   6.596   2.845   1.061
 3382SOL     OW11044   0.585   2.670   6.376
 3382SOL    HW111045   0.544   2.752   6.335
 3382SOL    HW211046   0.643   2.625   6.309
 3383SOL     OW11047   3.345   5.240   0.829
 3383SOL    HW111048   3.351   5.292   0.743
 3383SOL    HW211049   3.431   5.192   0.845
 3384SOL     OW11050   2.008   3.675   0.822
 3384SOL    HW111051   1.975   3.663   0.915
 3384SOL    HW211052   1.959   3.613   0.761
 3385SOL     OW11053   0.098   3.692   4.723
 3385SOL    HW111054   0.126   3.714   4.630
 3385SOL    HW211055   7.023   3.701   4.732
 3386SOL     OW11056   5.479   3.968   6.631
 3386SOL    HW111057   5.387   3.930   6.623
 3386SOL    HW211058   5.474   4.059   6.672
 3387SOL     OW11059   5.029   0.281   3.384
 3387SOL    HW111060   5.037   0.331   3.470
 3387SOL    HW211061   4.992   0.341   3.313
 3388SOL     OW11062   5.723   3.243   2.484
 3388SOL    HW111063   5.765   3.161   2.446
 3388SOL    HW211064   5.664   3.218   2.561
 3389SOL     OW11065   6.247   6.002   5.938
 3389SOL    HW111066   6.298   6.077   5.896
 3389SOL    HW211067   6.255   6.008   6.038
 3390SOL     OW11068   5.049   0.099   6.185
 3390SOL    HW111069   4.983   0.050   6.128
 3390SOL    HW211070   5.053   0.195   6.156
 3391SOL     OW11071   4.986   2.423   3.690
 3391SOL    HW111072   4.994   2.329   3.724
 3391SOL    HW211073   4.955   2.422   3.596
 3392SOL     OW11074   3.493   6.548   4.391
 3392SOL    HW111075   3.492   6.458   4.434
 3392SOL    HW211076   3.556   6.608   4.441
 3393SOL     OW11077   5.936   5.964   0.716
 3393SOL    HW111078   6.001   6.035   0.740
 3393SOL    HW211079   5.957   5.928   0.625
 3394SOL     OW11080   4.867   3.840   0.868
 3394SOL    HW111081   4.825   3.907   0.807
 3394SOL    HW211082   4.859   3.749   0.828
 3395SOL     OW11083   5.088   2.178   3.037
 3395SOL    HW111084   5.107   2.131   2.951
 3395SOL    HW211085   5.109   2.118   3.114
 3396SOL     OW11086   5.810   0.942   3.878
 3396SOL    HW111087   5.870   0.862   3.871
 3396SOL    HW211088   5.839   1.011   3.811
 3397SOL     OW11089   3.540   4.878   6.578
 3397SOL    HW111090   3.574   4.806   6.518
 3397SOL    HW211091   3.455   4.847   6.622
 3398SOL     OW11092   1.423   0.346   5.295
 3398SOL    HW111093   1.506   0.401   5.303
 3398SOL    HW211094   1.442   0.252   5.322
 3399SOL     OW11095   5.632   5.437   3.134
 3399SOL    HW111096   5.644   5.531   3.099
 3399SOL    HW211097   5.574   5.439   3.215
 3400SOL     OW11098   5.366   3.404   6.818
 3400SOL    HW111099   5.366   3.479   6.885
 3400SOL    HW211100   5.292   3.340   6.840
 3401SOL     OW11101   6.145   4.235   6.936
 3401SOL    HW111102   6.102   4.239   6.846
 3401SOL    HW211103   6.117   4.315   6.989
 3402SOL     OW11104   5.780   5.760   6.565
 3402SOL    HW111105   5.781   5.673   6.613
 3402SOL    HW211106   5.802   5.834   6.629
 3403SOL     OW11107   5.156   5.257   6.852
 3403SOL    HW111108   5.079   5.304   6.809
 3403SOL    HW211109   5.129   5.164   6.877
 3404SOL     OW11110   5.335   2.454   0.546
 3404SOL    HW111111   5.324   2.460   0.645
 3404SOL    HW211112   5.432   2.449   0.523
 3405SOL     OW11113   5.716   4.437   6.571
 3405SOL    HW111114   5.771   4.411   6.492
 3405SOL    HW211115   5.664   4.358   6.604
 3406SOL     OW11116   0.724   3.186   2.580
 3406SOL    HW111117   0.803   3.138   2.540
 3406SOL    HW211118   0.643   3.169   2.524
 3407SOL     OW11119   1.853   4.419   0.159
 3407SOL    HW111120   1.917   4.398   0.233
 3407SOL    HW211121   1.766   4.450   0.197
 3408SOL     OW11122   5.191   2.897   4.695
 3408SOL    HW111123   5.133   2.941   4.627
 3408SOL    HW211124   5.217   2.963   4.765
 3409SOL     OW11125   4.013   6.311   0.302
 3409SOL    HW111126   4.002   6.318   0.401
 3409SOL    HW211127   3.936   6.358   0.258
 3410SOL     OW11128   6.713   6.452   1.947
 3410SOL    HW111129   6.790   6.515   1.940
 3410SOL    HW211130   6.744   6.359   1.925
 3411SOL     OW11131   0.436   2.898   0.429
 3411SOL    HW111132   0.518   2.844   0.413
 3411SOL    HW211133   0.371   2.847   0.485
 3412SOL     OW11134   5.075   3.620   1.656
 3412SOL    HW111135   5.002   3.583   1.713
 3412SOL    HW211136   5.074   3.720   1.662
 3413SOL     OW11137   6.347   1.264   0.534
 3413SOL    HW111138   6.307   1.174   0.552
 3413SOL    HW211139   6.399   1.260   0.449
 3414SOL     OW11140   3.579   1.770   5.540
 3414SOL    HW111141   3.571   1.684   5.591
 3414SOL    HW211142   3.655   1.764   5.476
 3415SOL     OW11143   2.251   2.117   3.975
 3415SOL    HW111144   2.255   2.068   4.062
 3415SOL    HW211145   2.160   2.105   3.935
 3416SOL     OW11146   5.257   0.480   0.394
 3416SOL    HW111147   5.346   0.478   0.348
 3416SOL    HW211148   5.190   0.430   0.339
 3417SOL     OW11149   0.465   6.608   4.411
 3417SOL    HW111150   0.511   6.639   4.328
 3417SOL    HW211151   0.368   6.590   4.391
 3418SOL     OW11152   3.935   5.948   3.225
 3418SOL    HW111153   3.858   6.004   3.193
 3418SOL    HW211154   3.933   5.943   3.325
 3419SOL     OW11155   3.436   5.095   5.848
 3419SOL    HW111156   3.361   5.095   5.782
 3419SOL    HW211157   3.509   5.154   5.814
 3420SOL     OW11158   5.681   3.479   3.736
 3420SOL    HW111159   5.741   3.425   3.677
 3420SOL    HW211160   5.682   3.441   3.828
 3421SOL     OW11161   5.152   2.052   3.544
 3421SOL    HW111162   5.168   1.955   3.527
 3421SOL    HW211163   5.139   2.100   3.457
 3422SOL     OW11164   2.391   0.287   0.158
 3422SOL    HW111165   2.477   0.238   0.173
 3422SOL    HW211166   2.342   0.295   0.244
 3423SOL     OW11167   0.090   4.671   6.317
 3423SOL    HW111168   0.042   4.756   6.339
 3423SOL    HW211169   0.094   4.659   6.218
 3424SOL     OW11170   3.183   6.730   1.074
 3424SOL    HW111171   3.168   6.827   1.091
 3424SOL    HW211172   3.264   6.717   1.017
 3425SOL     OW11173   5.107   4.435   2.590
 3425SOL    HW111174   5.101   4.529   2.556
 3425SOL    HW211175   5.079   4.433   2.686
 3426SOL     OW11176   5.189   2.556   1.297
 3426SOL    HW111177   5.149   2.542   1.207
 3426SOL    HW211178   5.120   2.541   1.367
 3427SOL     OW11179   0.955   2.011   1.461
 3427SOL    HW111180   0.892   1.939   1.433
 3427SOL    HW211181   0.908   2.099   1.460
 3428SOL     OW11182   3.817   4.635   0.133
 3428SOL    HW111183   3.808   4.539   0.161
 3428SOL    HW211184   3.849   4.639   0.038
 3429SOL     OW11185   0.541   1.709   1.044
 3429SOL    HW111186   0.543   1.753   0.955
 3429SOL    HW211187   0.509   1.615   1.034
 3430SOL     OW11188   2.412   5.445   5.331
 3430SOL    HW111189   2.402   5.464   5.428
 3430SOL    HW211190   2.328   5.405   5.295
 3431SOL     OW11191   1.405   5.823   1.476
 3431SOL    HW111192   1.403   5.820   1.576
 3431SOL    HW211193   1.436   5.735   1.440
 3432SOL     OW11194   2.716   4.589   5.902
 3432SOL    HW111195   2.787   4.653   5.934
 3432SOL    HW211196   2.687   4.614   5.810
 3433SOL     OW11197   1.178   1.018   4.872
 3433SOL    HW111198   1.196   1.117   4.872
 3433SOL    HW211199   1.159   0.987   4.779
 3434SOL     OW11200   3.575   1.704   1.637
 3434SOL    HW111201   3.643   1.758   1.687
 3434SOL    HW211202   3.526   1.763   1.573
 3435SOL     OW11203   2.217   1.296   0.895
 3435SOL    HW111204   2.271   1.271   0.976
 3435SOL    HW211205   2.271   1.278   0.813
 3436SOL     OW11206   3.519   5.886   0.003
 3436SOL    HW111207   3.535   5.819   6.955
 3436SOL    HW211208   3.458   5.847   0.071
 3437SOL     OW11209   2.568   5.993   5.470
 3437SOL    HW111210   2.597   5.912   5.419
 3437SOL    HW211211   2.521   5.965   5.554
 3438SOL     OW11212   0.854   3.802   1.340
 3438SOL    HW111213   0.925   3.782   1.407
 3438SOL    HW211214   0.768   3.759   1.369
 3439SOL     OW11215   3.384   6.188   3.922
 3439SOL    HW111216   3.303   6.129   3.933
 3439SOL    HW211217   3.376   6.240   3.838
 3440SOL     OW11218   3.854   2.953   2.286
 3440SOL    HW111219   3.763   2.919   2.262
 3440SOL    HW211220   3.903   2.883   2.337
 3441SOL     OW11221   6.703   5.838   6.464
 3441SOL    HW111222   6.707   5.938   6.460
 3441SOL    HW211223   6.611   5.808   6.438
 3442SOL     OW11224   2.519   3.774   1.430
 3442SOL    HW111225   2.529   3.816   1.520
 3442SOL    HW211226   2.449   3.822   1.378
 3443SOL     OW11227   3.656   6.327   2.035
 3443SOL    HW111228   3.711   6.299   2.114
 3443SOL    HW211229   3.716   6.347   1.958
 3444SOL     OW11230   4.685   5.224   0.150
 3444SOL    HW111231   4.775   5.255   0.120
 3444SOL    HW211232   4.652   5.152   0.089
 3445SOL     OW11233   6.294   5.254   2.895
 3445SOL    HW111234   6.221   5.289   2.954
 3445SOL    HW211235   6.373   5.315   2.901
 3446SOL     OW11236   6.104   0.425   1.649
 3446SOL    HW111237   6.196   0.388   1.665
 3446SOL    HW211238   6.108   0.525   1.650
 3447SOL     OW11239   4.901   6.593   0.758
 3447SOL    HW111240   4.987   6.641   0.745
 3447SOL    HW211241   4.905   6.505   0.711
 3448SOL     OW11242   3.491   6.707   6.163
 3448SOL    HW111243   3.545   6.720   6.080
 3448SOL    HW211244   3.542   6.740   6.242
 3449SOL     OW11245   5.834   5.023   4.995
 3449SOL    HW111246   5.905   5.085   5.027
 3449SOL    HW211247   5.875   4.936   4.966
 3450SOL     OW11248   0.967   1.720   6.478
 3450SOL    HW111249   0.929   1.813   6.473
 3450SOL    HW211250   1.051   1.716   6.425
 3451SOL     OW11251   2.403   6.124   0.123
 3451SOL    HW111252   2.480   6.071   0.159
 3451SOL    HW211253   2.423   6.153   0.030
 3452SOL     OW11254   5.385   0.586   6.722
 3452SOL    HW111255   5.393   0.567   6.625
 3452SOL    HW211256   5.299   0.549   6.757
 3453SOL     OW11257   5.593   5.493   6.757
 3453SOL    HW111258   5.669   5.546   6.793
 3453SOL    HW211259   5.626   5.404   6.725
 3454SOL     OW11260   0.980   3.807   5.098
 3454SOL    HW111261   0.950   3.774   5.187
 3454SOL    HW211262   0.900   3.831   5.043
 3455SOL     OW11263   2.765   1.761   4.019
 3455SOL    HW111264   2.815   1.778   3.934
 3455SOL    HW211265   2.821   1.789   4.096
 3456SOL     OW11266   5.266   4.762   2.336
 3456SOL    HW111267   5.185   4.721   2.376
 3456SOL    HW211268   5.343   4.698   2.343
 3457SOL     OW11269   4.709   5.747   4.168
 3457SOL    HW111270   4.640   5.749   4.241
 3457SOL    HW211271   4.788   5.800   4.197
 3458SOL     OW11272   4.180   1.526   2.257
 3458SOL    HW111273   4.092   1.504   2.299
 3458SOL    HW211274   4.172   1.518   2.158
 3459SOL     OW11275   4.760   2.280   3.313
 3459SOL    HW111276   4.691   2.286   3.240
 3459SOL    HW211277   4.826   2.208   3.291
 3460SOL     OW11278   2.992   1.719   6.512
 3460SOL    HW111279   2.918   1.749   6.452
 3460SOL    HW211280   3.080   1.738   6.468
 3461SOL     OW11281   4.789   3.764   6.851
 3461SOL    HW111282   4.856   3.812   6.909
 3461SOL    HW211283   4.796   3.666   6.866
 3462SOL     OW11284   1.215   3.975   5.098
 3462SOL    HW111285   1.135   3.924   5.068
 3462SOL    HW211286   1.298   3.931   5.065
 3463SOL     OW11287   0.763   4.193   1.152
 3463SOL    HW111288   0.702   4.136   1.207
 3463SOL    HW211289   0.731   4.287   1.152
 3464SOL     OW11290   0.110   4.313   6.772
 3464SOL    HW111291   0.118   4.326   6.673
 3464SOL    HW211292   0.180   4.367   6.818
 3465SOL     OW11293   1.810   2.615   1.957
 3465SOL    HW111294   1.768   2.703   1.933
 3465SOL    HW211295   1.794   2.549   1.884
 3466SOL     OW11296   6.833   5.272   6.330
 3466SOL    HW111297   6.883   5.216   6.265
 3466SOL    HW211298   6.811   5.360   6.289
 3467SOL     OW11299   1.514   2.984   6.485
 3467SOL    HW111300   1.469   2.921   6.422
 3467SOL    HW211301   1.608   2.953   6.501
 3468SOL     OW11302   4.266   6.363   2.762
 3468SOL    HW111303   4.341   6.318   2.714
 3468SOL    HW211304   4.293   6.457   2.784
 3469SOL     OW11305   6.295   1.672   2.655
 3469SOL    HW111306   6.305   1.767   2.685
 3469SOL    HW211307   6.234   1.669   2.575
 3470SOL     OW11308   6.819   4.456   0.736
 3470SOL    HW111309   6.786   4.530   0.678
 3470SOL    HW211310   6.768   4.372   0.716
 3471SOL     OW11311   4.245   5.365   4.865
 3471SOL    HW111312   4.203   5.437   4.811
 3471SOL    HW211313   4.194   5.352   4.950
 3472SOL     OW11314   2.250   0.472   2.740
 3472SOL    HW111315   2.303   0.394   2.707
 3472SOL    HW211316   2.291   0.557   2.708
 3473SOL     OW11317   6.599   1.437   6.507
 3473SOL    HW111318   6.535   1.445   6.584
 3473SOL    HW211319   6.636   1.527   6.484
 3474SOL     OW11320   3.238   5.251   2.182
 3474SOL    HW111321   3.310   5.305   2.140
 3474SOL    HW211322   3.269   5.157   2.195
 3475SOL     OW11323   0.965   6.257   4.471
 3475SOL    HW111324   1.040   6.296   4.418
 3475SOL    HW211325   0.883   6.314   4.461
 3476SOL     OW11326   3.122   1.425   3.216
 3476SOL    HW111327   3.170   1.459   3.135
 3476SOL    HW211328   3.064   1.348   3.190
 3477SOL     OW11329   3.170   5.641   1.507
 3477SOL    HW111330   3.184   5.616   1.603
 3477SOL    HW211331   3.153   5.558   1.454
 3478SOL     OW11332   2.771   5.502   5.692
 3478SOL    HW111333   2.706   5.538   5.626
 3478SOL    HW211334   2.847   5.457   5.644
 3479SOL     OW11335   0.709   0.543   3.443
 3479SOL    HW111336   0.642   0.538   3.369
 3479SOL    HW211337   0.666   0.520   3.530
 3480SOL     OW11338   6.721   0.316   4.779
 3480SOL    HW111339   6.736   0.396   4.721
 3480SOL    HW211340   6.674   0.244   4.726
 3481SOL     OW11341   4.570   0.251   0.105
 3481SOL    HW111342   4.474   0.275   0.112
 3481SOL    HW211343   4.621   0.293   0.180
 3482SOL     OW11344   5.681   1.628   0.529
 3482SOL    HW111345   5.752   1.643   0.460
 3482SOL    HW211346   5.623   1.551   0.501
 3483SOL     OW11347   3.735   0.918   1.705
 3483SOL    HW111348   3.720   0.858   1.626
 3483SOL    HW211349   3.647   0.940   1.748
 3484SOL     OW11350   2.986   3.777   2.068
 3484SOL    HW111351   3.028   3.770   1.977
 3484SOL    HW211352   3.025   3.856   2.117
 3485SOL     OW11353   1.150   0.473   4.760
 3485SOL    HW111354   1.096   0.391   4.778
 3485SOL    HW211355   1.212   0.489   4.837
 3486SOL     OW11356   3.034   1.381   2.559
 3486SOL    HW111357   3.011   1.284   2.563
 3486SOL    HW211358   2.960   1.431   2.514
 3487SOL     OW11359   6.242   2.011   5.996
 3487SOL    HW111360   6.294   1.928   5.974
 3487SOL    HW211361   6.298   2.091   5.976
 3488SOL     OW11362   5.775   2.938   4.097
 3488SOL    HW111363   5.807   3.032   4.107
 3488SOL    HW211364   5.833   2.890   4.031
 3489SOL     OW11365   2.763   6.470   0.755
 3489SOL    HW111366   2.790   6.420   0.673
 3489SOL    HW211367   2.842   6.480   0.816
 3490SOL     OW11368   4.597   4.270   6.415
 3490SOL    HW111369   4.544   4.304   6.493
 3490SOL    HW211370   4.634   4.179   6.437
 3491SOL     OW11371   6.207   2.859   4.026
 3491SOL    HW111372   6.201   2.899   4.117
 3491SOL    HW211373   6.175   2.925   3.958
 3492SOL     OW11374   1.109   5.848   1.012
 3492SOL    HW111375   1.207   5.868   1.015
 3492SOL    HW211376   1.057   5.933   1.020
 3493SOL     OW11377   6.421   5.520   6.896
 3493SOL    HW111378   6.335   5.481   6.928
 3493SOL    HW211379   6.418   5.531   6.796
 3494SOL     OW11380   4.036   0.105   1.229
 3494SOL    HW111381   4.000   0.087   1.137
 3494SOL    HW211382   3.967   0.154   1.282
 3495SOL     OW11383   4.309   4.657   2.345
 3495SOL    HW111384   4.340   4.591   2.277
 3495SOL    HW211385   4.386   4.684   2.403
 3496SOL     OW11386   0.492   3.164   1.348
 3496SOL    HW111387   0.493   3.143   1.250
 3496SOL    HW211388   0.537   3.252   1.363
 3497SOL     OW11389   4.269   0.075   2.987
 3497SOL    HW111390   4.360   0.034   2.997
 3497SOL    HW211391   4.278   0.168   2.950
 3498SOL     OW11392   2.617   2.549   0.346
 3498SOL    HW111393   2.697   2.571   0.289
 3498SOL    HW211394   2.637   2.575   0.441
 3499SOL     OW11395   5.427   2.535   4.562
 3499SOL    HW111396   5.483   2.514   4.483
 3499SOL    HW211397   5.453   2.476   4.639
 3500SOL     OW11398   0.295   4.242   5.501
 3500SOL    HW111399   0.359   4.237   5.425
 3500SOL    HW211400   0.345   4.253   5.587
 3501SOL     OW11401   0.662   5.067   4.067
 3501SOL    HW111402   0.605   5.116   4.001
 3501SOL    HW211403   0.604   5.009   4.125
 3502SOL     OW11404   6.960   2.518   2.208
 3502SOL    HW111405   7.017   2.600   2.199
 3502SOL    HW211406   6.927   2.490   2.118
 3503SOL     OW11407   5.535   6.298   5.339
 3503SOL    HW111408   5.535   6.396   5.318
 3503SOL    HW211409   5.447   6.273   5.378
 3504SOL     OW11410   2.753   2.873   1.536
 3504SOL    HW111411   2.682   2.894   1.603
 3504SOL    HW211412   2.773   2.775   1.538
 3505SOL     OW11413   5.516   5.192   5.162
 3505SOL    HW111414   5.536   5.284   5.195
 3505SOL    HW211415   5.440   5.154   5.214
 3506SOL     OW11416   4.617   5.834   5.368
 3506SOL    HW111417   4.635   5.738   5.346
 3506SOL    HW211418   4.534   5.840   5.422
 3507SOL     OW11419   1.929   0.592   6.965
 3507SOL    HW111420   2.023   0.561   6.954
 3507SOL    HW211421   1.904   0.588   0.037
 3508SOL     OW11422   3.736   2.598   6.017
 3508SOL    HW111423   3.786   2.653   6.084
 3508SOL    HW211424   3.723   2.652   5.934
 3509SOL     OW11425   5.124   6.637   6.533
 3509SOL    HW111426   5.150   6.670   6.443
 3509SOL    HW211427   5.055   6.697   6.573
 3510SOL     OW11428   1.907   2.581   1.613
 3510SOL    HW111429   1.964   2.517   1.561
 3510SOL    HW211430   1.852   2.636   1.550
 3511SOL     OW11431   1.668   4.673   0.030
 3511SOL    HW111432   1.761   4.708   0.019
 3511SOL    HW211433   1.660   4.624   0.116
 3512SOL     OW11434   0.695   4.378   0.566
 3512SOL    HW111435   0.732   4.321   0.639
 3512SOL    HW211436   0.770   4.427   0.521
 3513SOL     OW11437   5.774   4.469   0.836
 3513SOL    HW111438   5.776   4.533   0.912
 3513SOL    HW211439   5.714   4.504   0.764
 3514SOL     OW11440   0.537   0.814   1.990
 3514SOL    HW111441   0.616   0.875   2.002
 3514SOL    HW211442   0.519   0.801   1.893
 3515SOL     OW11443   3.940   6.524   2.385
 3515SOL    HW111444   3.948   6.538   2.286
 3515SOL    HW211445   3.986   6.440   2.411
 3516SOL     OW11446   4.393   0.827   0.909
 3516SOL    HW111447   4.353   0.736   0.922
 3516SOL    HW211448   4.426   0.836   0.815
 3517SOL     OW11449   0.599   2.096   6.798
 3517SOL    HW111450   0.550   2.022   6.843
 3517SOL    HW211451   0.697   2.085   6.813
 3518SOL     OW11452   5.009   4.032   5.153
 3518SOL    HW111453   4.961   3.945   5.168
 3518SOL    HW211454   5.060   4.056   5.236
 3519SOL     OW11455   1.854   0.329   6.709
 3519SOL    HW111456   1.897   0.420   6.706
 3519SOL    HW211457   1.755   0.339   6.696
 3520SOL     OW11458   3.332   4.595   0.927
 3520SOL    HW111459   3.424   4.628   0.951
 3520SOL    HW211460   3.269   4.673   0.924
 3521SOL     OW11461   5.302   3.272   1.250
 3521SOL    HW111462   5.342   3.244   1.337
 3521SOL    HW211463   5.262   3.363   1.258
 3522SOL     OW11464   3.683   5.565   1.953
 3522SOL    HW111465   3.720   5.619   1.878
 3522SOL    HW211466   3.647   5.626   2.024
 3523SOL     OW11467   3.223   4.382   5.572
 3523SOL    HW111468   3.238   4.346   5.480
 3523SOL    HW211469   3.306   4.427   5.605
 3524SOL     OW11470   2.648   0.747   1.115
 3524SOL    HW111471   2.584   0.670   1.113
 3524SOL    HW211472   2.741   0.712   1.114
 3525SOL     OW11473   0.452   3.334   2.100
 3525SOL    HW111474   0.473   3.431   2.100
 3525SOL    HW211475   0.368   3.318   2.048
 3526SOL     OW11476   1.375   0.043   3.798
 3526SOL    HW111477   1.467   0.081   3.794
 3526SOL    HW211478   1.313   0.108   3.842
 3527SOL     OW11479   5.572   3.190   5.691
 3527SOL    HW111480   5.493   3.249   5.677
 3527SOL    HW211481   5.549   3.096   5.665
 3528SOL     OW11482   1.156   5.720   3.637
 3528SOL    HW111483   1.128   5.680   3.725
 3528SOL    HW211484   1.087   5.699   3.568
 3529SOL     OW11485   4.088   6.670   5.712
 3529SOL    HW111486   4.100   6.749   5.652
 3529SOL    HW211487   4.178   6.632   5.735
 3530SOL     OW11488   2.227   4.877   2.526
 3530SOL    HW111489   2.256   4.973   2.535
 3530SOL    HW211490   2.308   4.818   2.526
 3531SOL     OW11491   4.825   4.937   1.326
 3531SOL    HW111492   4.779   4.902   1.407
 3531SOL    HW211493   4.791   4.890   1.245
 3532SOL     OW11494   3.149   0.465   0.537
 3532SOL    HW111495   3.168   0.563   0.533
 3532SOL    HW211496   3.213   0.421   0.599
 3533SOL     OW11497   1.215   2.243   3.455
 3533SOL    HW111498   1.185   2.310   3.386
 3533SOL    HW211499   1.187   2.152   3.427
 3534SOL     OW11500   5.751   0.763   5.365
 3534SOL    HW111501   5.838   0.715   5.351
 3534SOL    HW211502   5.713   0.738   5.454
 3535SOL     OW11503   6.872   5.685   0.608
 3535SOL    HW111504   6.879   5.585   0.600
 3535SOL    HW211505   6.939   5.728   0.547
 3536SOL     OW11506   2.136   3.030   3.897
 3536SOL    HW111507   2.203   2.979   3.843
 3536SOL    HW211508   2.100   3.105   3.842
 3537SOL     OW11509   2.926   4.516   0.235
 3537SOL    HW111510   2.868   4.439   0.260
 3537SOL    HW211511   2.870   4.599   0.228
 3538SOL     OW11512   2.558   0.720   4.054
 3538SOL    HW111513   2.464   0.752   4.042
 3538SOL    HW211514   2.612   0.746   3.974
 3539SOL     OW11515   5.987   3.630   5.911
 3539SOL    HW111516   6.027   3.618   6.001
 3539SOL    HW211517   6.019   3.716   5.871
 3540SOL     OW11518   2.239   1.732   6.090
 3540SOL    HW111519   2.266   1.827   6.107
 3540SOL    HW211520   2.250   1.711   5.993
 3541SOL     OW11521   2.618   2.868   6.826
 3541SOL    HW111522   2.610   2.809   6.746
 3541SOL    HW211523   2.567   2.827   6.902
 3542SOL     OW11524   6.144   2.563   0.669
 3542SOL    HW111525   6.183   2.651   0.696
 3542SOL    HW211526   6.148   2.554   0.570
 3543SOL     OW11527   1.664   3.110   3.732
 3543SOL    HW111528   1.608   3.193   3.728
 3543SOL    HW211529   1.747   3.123   3.679
 3544SOL     OW11530   1.927   4.756   6.351
 3544SOL    HW111531   1.881   4.772   6.439
 3544SOL    HW211532   2.009   4.813   6.346
 3545SOL     OW11533   3.820   4.902   0.275
 3545SOL    HW111534   3.789   4.822   0.223
 3545SOL    HW211535   3.779   4.985   0.237
 3546SOL     OW11536   6.870   5.011   2.891
 3546SOL    HW111537   6.827   5.100   2.901
 3546SOL    HW211538   6.886   4.992   2.794
 3547SOL     OW11539   6.674   4.282   5.093
 3547SOL    HW111540   6.624   4.309   5.175
 3547SOL    HW211541   6.709   4.189   5.104
 3548SOL     OW11542   5.815   0.471   4.832
 3548SOL    HW111543   5.749   0.399   4.853
 3548SOL    HW211544   5.893   0.463   4.893
 3549SOL     OW11545   2.168   4.722   5.510
 3549SOL    HW111546   2.265   4.700   5.519
 3549SOL    HW211547   2.154   4.778   5.428
 3550SOL     OW11548   5.598   2.608   4.319
 3550SOL    HW111549   5.613   2.706   4.330
 3550SOL    HW211550   5.563   2.590   4.226
 3551SOL     OW11551   3.274   1.791   4.837
 3551SOL    HW111552   3.287   1.879   4.883
 3551SOL    HW211553   3.263   1.807   4.739
 3552SOL     OW11554   5.769   5.715   2.289
 3552SOL    HW111555   5.848   5.773   2.312
 3552SOL    HW211556   5.768   5.634   2.348
 3553SOL     OW11557   3.592   5.333   6.412
 3553SOL    HW111558   3.580   5.411   6.351
 3553SOL    HW211559   3.561   5.356   6.504
 3554SOL     OW11560   5.099   2.691   0.560
 3554SOL    HW111561   5.069   2.780   0.595
 3554SOL    HW211562   5.052   2.618   0.610
 3555SOL     OW11563   1.334   1.647   4.059
 3555SOL    HW111564   1.236   1.634   4.044
 3555SOL    HW211565   1.361   1.736   4.022
 3556SOL     OW11566   3.440   0.823   3.304
 3556SOL    HW111567   3.527   0.828   3.256
 3556SOL    HW211568   3.456   0.794   3.399
 3557SOL     OW11569   1.291   6.651   3.789
 3557SOL    HW111570   1.345   6.670   3.870
 3557SOL    HW211571   1.288   6.732   3.730
 3558SOL     OW11572   2.742   4.559   1.185
 3558SOL    HW111573   2.766   4.482   1.127
 3558SOL    HW211574   2.645   4.557   1.206
 3559SOL     OW11575   1.772   5.836   4.283
 3559SOL    HW111576   1.820   5.847   4.196
 3559SOL    HW211577   1.767   5.924   4.330
 3560SOL     OW11578   1.989   4.736   3.312
 3560SOL    HW111579   1.992   4.768   3.217
 3560SOL    HW211580   2.049   4.793   3.368
 3561SOL     OW11581   5.068   4.243   5.538
 3561SOL    HW111582   5.053   4.193   5.624
 3561SOL    HW211583   5.133   4.318   5.554
 3562SOL     OW11584   3.488   1.985   4.255
 3562SOL    HW111585   3.516   1.899   4.214
 3562SOL    HW211586   3.557   2.055   4.237
 3563SOL     OW11587   5.986   2.056   5.878
 3563SOL    HW111588   6.076   2.057   5.921
 3563SOL    HW211589   5.918   2.091   5.942
 3564SOL     OW11590   0.481   4.729   3.327
 3564SOL    HW111591   0.390   4.770   3.336
 3564SOL    HW211592   0.484   4.670   3.247
 3565SOL     OW11593   3.635   5.358   3.097
 3565SOL    HW111594   3.625   5.259   3.086
 3565SOL    HW211595   3.650   5.399   3.007
 3566SOL     OW11596   6.232   0.959   5.878
 3566SOL    HW111597   6.290   0.989   5.802
 3566SOL    HW211598   6.280   0.891   5.932
 3567SOL     OW11599   0.620   2.182   5.976
 3567SOL    HW111600   0.671   2.149   6.056
 3567SOL    HW211601   0.627   2.282   5.971
 3568SOL     OW11602   6.381   3.914   4.700
 3568SOL    HW111603   6.372   3.920   4.800
 3568SOL    HW211604   6.306   3.859   4.663
 3569SOL     OW11605   3.250   1.882   5.381
 3569SOL    HW111606   3.234   1.814   5.309
 3569SOL    HW211607   3.238   1.973   5.343
 3570SOL     OW11608   4.644   0.719   6.231
 3570SOL    HW111609   4.623   0.637   6.284
 3570SOL    HW211610   4.734   0.709   6.187
 3571SOL     OW11611   0.570   5.200   0.120
 3571SOL    HW111612   0.588   5.172   0.026
 3571SOL    HW211613   0.479   5.168   0.148
 3572SOL     OW11614   5.282   4.005   3.576
 3572SOL    HW111615   5.214   3.933   3.569
 3572SOL    HW211616   5.290   4.053   3.488
 3573SOL     OW11617   0.507   4.752   3.894
 3573SOL    HW111618   0.583   4.693   3.864
 3573SOL    HW211619   0.439   4.757   3.821
 3574SOL     OW11620   0.243   4.462   0.367
 3574SOL    HW111621   0.209   4.547   0.327
 3574SOL    HW211622   0.334   4.478   0.405
 3575SOL     OW11623   5.505   4.642   2.966
 3575SOL    HW111624   5.595   4.669   2.999
 3575SOL    HW211625   5.503   4.543   2.952
 3576SOL     OW11626   2.119   1.579   5.578
 3576SOL    HW111627   2.136   1.538   5.667
 3576SOL    HW211628   2.169   1.529   5.508
 3577SOL     OW11629   0.852   3.570   5.805
 3577SOL    HW111630   0.862   3.489   5.864
 3577SOL    HW211631   0.845   3.540   5.710
 3578SOL     OW11632   3.474   2.416   0.624
 3578SOL    HW111633   3.438   2.469   0.700
 3578SOL    HW211634   3.399   2.386   0.565
 3579SOL     OW11635   6.413   4.100   4.501
 3579SOL    HW111636   6.399   4.058   4.591
 3579SOL    HW211637   6.475   4.044   4.447
 3580SOL     OW11638   5.715   2.320   1.060
 3580SOL    HW111639   5.686   2.311   1.156
 3580SOL    HW211640   5.799   2.373   1.056
 3581SOL     OW11641   6.641   0.034   4.141
 3581SOL    HW111642   6.578   0.098   4.185
 3581SOL    HW211643   6.590   6.995   4.084
 3582SOL     OW11644   0.779   1.611   5.673
 3582SOL    HW111645   0.837   1.624   5.754
 3582SOL    HW211646   0.778   1.696   5.620
 3583SOL     OW11647   1.343   4.015   6.377
 3583SOL    HW111648   1.440   4.000   6.398
 3583SOL    HW211649   1.289   3.938   6.413
 3584SOL     OW11650   5.884   5.522   0.434
 3584SOL    HW111651   5.829   5.602   0.459
 3584SOL    HW211652   5.959   5.551   0.376
 3585SOL     OW11653   4.004   5.855   5.190
 3585SOL    HW111654   4.016   5.768   5.143
 3585SOL    HW211655   3.963   5.921   5.127
 3586SOL     OW11656   0.134   2.359   5.062
 3586SOL    HW111657   0.112   2.452   5.094
 3586SOL    HW211658   0.072   2.334   4.989
 3587SOL     OW11659   2.974   5.049   6.136
 3587SOL    HW111660   2.887   5.017   6.101
 3587SOL    HW211661   3.033   4.971   6.157
 3588SOL     OW11662   1.222   2.737   4.602
 3588SOL    HW111663   1.140   2.725   4.547
 3588SOL    HW211664   1.302   2.709   4.549
 3589SOL     OW11665   4.206   1.809   4.051
 3589SOL    HW111666   4.228   1.883   4.115
 3589SOL    HW211667   4.137   1.840   3.986
 3590SOL     OW11668   0.502   3.485   5.916
 3590SOL    HW111669   0.498   3.510   6.013
 3590SOL    HW211670   0.514   3.386   5.907
 3591SOL     OW11671   5.024   3.631   6.090
 3591SOL    HW111672   4.957   3.631   6.016
 3591SOL    HW211673   5.097   3.695   6.069
 3592SOL     OW11674   6.357   4.296   2.568
 3592SOL    HW111675   6.289   4.225   2.588
 3592SOL    HW211676   6.331   4.344   2.485
 3593SOL     OW11677   2.037   5.832   3.590
 3593SOL    HW111678   1.961   5.860   3.650
 3593SOL    HW211679   2.108   5.902   3.592
 3594SOL     OW11680   4.298   0.703   3.415
 3594SOL    HW111681   4.277   0.779   3.476
 3594SOL    HW211682   4.274   0.617   3.460
 3595SOL     OW11683   2.556   5.248   6.516
 3595SOL    HW111684   2.554   5.258   6.616
 3595SOL    HW211685   2.597   5.330   6.476
 3596SOL     OW11686   6.328   2.469   2.790
 3596SOL    HW111687   6.295   2.381   2.821
 3596SOL    HW211688   6.344   2.466   2.691
 3597SOL     OW11689   1.745   0.220   5.349
 3597SOL    HW111690   1.823   0.161   5.371
 3597SOL    HW211691   1.755   0.308   5.397
 3598SOL     OW11692   1.180   6.101   6.021
 3598SOL    HW111693   1.084   6.126   6.033
 3598SOL    HW211694   1.205   6.112   5.925
 3599SOL     OW11695   0.691   1.844   5.540
 3599SOL    HW111696   0.669   1.911   5.610
 3599SOL    HW211697   0.608   1.815   5.493
 3600SOL     OW11698   1.397   3.622   0.238
 3600SOL    HW111699   1.420   3.549   0.173
 3600SOL    HW211700   1.329   3.683   0.198
 3601SOL     OW11701   6.031   4.372   0.444
 3601SOL    HW111702   5.941   4.338   0.473
 3601SOL    HW211703   6.045   4.464   0.481
 3602SOL     OW11704   1.466   1.934   0.785
 3602SOL    HW111705   1.367   1.948   0.783
 3602SOL    HW211706   1.512   2.021   0.769
 3603SOL     OW11707   3.435   6.439   3.744
 3603SOL    HW111708   3.474   6.404   3.659
 3603SOL    HW211709   3.504   6.435   3.817
 3604SOL     OW11710   0.200   5.093   4.038
 3604SOL    HW111711   0.293   5.100   4.002
 3604SOL    HW211712   0.202   5.089   4.138
 3605SOL     OW11713   5.335   4.183   5.114
 3605SOL    HW111714   5.256   4.153   5.168
 3605SOL    HW211715   5.381   4.258   5.161
 3606SOL     OW11716   6.941   6.406   5.648
 3606SOL    HW111717   6.895   6.386   5.561
 3606SOL    HW211718   6.996   6.488   5.638
 3607SOL     OW11719   5.331   6.328   1.287
 3607SOL    HW111720   5.245   6.335   1.237
 3607SOL    HW211721   5.378   6.243   1.262
 3608SOL     OW11722   7.001   2.093   2.695
 3608SOL    HW111723   6.982   2.055   2.786
 3608SOL    HW211724   6.922   2.144   2.663
 3609SOL     OW11725   0.511   0.306   4.066
 3609SOL    HW111726   0.540   0.252   4.145
 3609SOL    HW211727   0.490   0.245   3.990
 3610SOL     OW11728   1.215   0.112   5.513
 3610SOL    HW111729   1.305   0.138   5.549
 3610SOL    HW211730   1.162   0.193   5.491
 3611SOL     OW11731   4.232   6.353   5.948
 3611SOL    HW111732   4.239   6.396   6.038
 3611SOL    HW211733   4.138   6.360   5.914
 3612SOL     OW11734   5.881   0.314   6.232
 3612SOL    HW111735   5.816   0.363   6.174
 3612SOL    HW211736   5.969   0.307   6.185
 3613SOL     OW11737   4.333   4.942   1.848
 3613SOL    HW111738   4.270   4.882   1.896
 3613SOL    HW211739   4.421   4.942   1.896
 3614SOL     OW11740   3.474   3.753   2.776
 3614SOL    HW111741   3.548   3.737   2.711
 3614SOL    HW211742   3.386   3.745   2.730
 3615SOL     OW11743   5.325   6.259   0.156
 3615SOL    HW111744   5.249   6.258   0.222
 3615SOL    HW211745   5.331   6.169   0.112
 3616SOL     OW11746   0.088   2.849   5.715
 3616SOL    HW111747   0.020   2.918   5.688
 3616SOL    HW211748   0.054   2.798   5.794
 3617SOL     OW11749   4.236   0.651   6.816
 3617SOL    HW111750   4.138   0.634   6.825
 3617SOL    HW211751   4.255   0.746   6.840
 3618SOL     OW11752   2.036   2.060   4.898
 3618SOL    HW111753   1.945   2.046   4.859
 3618SOL    HW211754   2.105   2.026   4.834
 3619SOL     OW11755   6.026   3.205   4.137
 3619SOL    HW111756   6.106   3.150   4.162
 3619SOL    HW211757   5.980   3.163   4.059
 3620SOL     OW11758   6.305   6.255   6.367
 3620SOL    HW111759   6.227   6.273   6.426
 3620SOL    HW211760   6.286   6.291   6.275
 3621SOL     OW11761   3.302   2.558   5.823
 3621SOL    HW111762   3.399   2.532   5.820
 3621SOL    HW211763   3.252   2.494   5.882
 3622SOL     OW11764   1.935   2.139   4.190
 3622SOL    HW111765   1.941   2.070   4.118
 3622SOL    HW211766   2.027   2.162   4.222
 3623SOL     OW11767   6.088   5.375   4.343
 3623SOL    HW111768   6.024   5.305   4.313
 3623SOL    HW211769   6.143   5.405   4.266
 3624SOL     OW11770   1.776   6.685   2.177
 3624SOL    HW111771   1.830   6.736   2.110
 3624SOL    HW211772   1.828   6.607   2.211
 3625SOL     OW11773   5.477   3.914   6.951
 3625SOL    HW111774   5.405   3.959   7.003
 3625SOL    HW211775   5.442   3.889   6.861
 3626SOL     OW11776   1.624   3.732   5.919
 3626SOL    HW111777   1.657   3.793   5.848
 3626SOL    HW211778   1.665   3.641   5.906
 3627SOL     OW11779   3.447   2.887   3.513
 3627SOL    HW111780   3.499   2.851   3.436
 3627SOL    HW211781   3.499   2.876   3.597
 3628SOL     OW11782   1.297   0.276   1.962
 3628SOL    HW111783   1.262   0.369   1.970
 3628SOL    HW211784   1.381   0.267   2.017
 3629SOL     OW11785   6.817   2.058   4.157
 3629SOL    HW111786   6.738   2.098   4.203
 3629SOL    HW211787   6.788   1.983   4.098
 3630SOL     OW11788   4.972   2.718   3.444
 3630SOL    HW111789   4.943   2.622   3.437
 3630SOL    HW211790   4.893   2.775   3.467
 3631SOL     OW11791   1.816   0.163   3.589
 3631SOL    HW111792   1.861   0.106   3.520
 3631SOL    HW211793   1.717   0.162   3.574
 3632SOL     OW11794   4.917   6.726   1.231
 3632SOL    HW111795   4.858   6.672   1.171
 3632SOL    HW211796   4.861   6.794   1.280
 3633SOL     OW11797   3.298   1.690   5.601
 3633SOL    HW111798   3.347   1.756   5.543
 3633SOL    HW211799   3.202   1.686   5.573
 3634SOL     OW11800   0.333   5.343   4.540
 3634SOL    HW111801   0.307   5.390   4.625
 3634SOL    HW211802   0.354   5.248   4.560
 3635SOL     OW11803   2.820   6.265   6.463
 3635SOL    HW111804   2.789   6.219   6.380
 3635SOL    HW211805   2.754   6.335   6.489
 3636SOL     OW11806   0.156   5.645   6.701
 3636SOL    HW111807   0.164   5.618   6.797
 3636SOL    HW211808   0.123   5.739   6.696
 3637SOL     OW11809   6.186   1.701   1.474
 3637SOL    HW111810   6.190   1.613   1.520
 3637SOL    HW211811   6.275   1.721   1.433
 3638SOL     OW11812   0.424   4.758   4.609
 3638SOL    HW111813   0.387   4.674   4.649
 3638SOL    HW211814   0.438   4.826   4.681
 3639SOL     OW11815   3.264   4.327   1.578
 3639SOL    HW111816   3.283   4.299   1.484
 3639SOL    HW211817   3.168   4.308   1.599
 3640SOL     OW11818   3.157   0.733   0.366
 3640SOL    HW111819   3.206   0.787   0.433
 3640SOL    HW211820   3.085   0.789   0.324
 3641SOL     OW11821   5.405   2.871   4.195
 3641SOL    HW111822   5.338   2.847   4.265
 3641SOL    HW211823   5.413   2.796   4.129
 3642SOL     OW11824   4.709   0.759   0.722
 3642SOL    HW111825   4.698   0.778   0.624
 3642SOL    HW211826   4.793   0.801   0.755
 3643SOL     OW11827   3.160   5.968   4.780
 3643SOL    HW111828   3.233   5.927   4.725
 3643SOL    HW211829   3.174   5.945   4.877
 3644SOL     OW11830   6.748   1.575   1.744
 3644SOL    HW111831   6.835   1.622   1.758
 3644SOL    HW211832   6.695   1.622   1.673
 3645SOL     OW11833   0.046   3.241   3.623
 3645SOL    HW111834   6.999   3.254   3.554
 3645SOL    HW211835   0.112   3.315   3.618
 3646SOL     OW11836   6.405   4.359   6.906
 3646SOL    HW111837   6.441   4.382   6.997
 3646SOL    HW211838   6.313   4.320   6.916
 3647SOL     OW11839   2.290   3.101   0.012
 3647SOL    HW111840   2.297   3.179   0.073
 3647SOL    HW211841   2.226   3.034   0.050
 3648SOL     OW11842   3.266   5.000   2.840
 3648SOL    HW111843   3.300   5.057   2.914
 3648SOL    HW211844   3.296   5.038   2.752
 3649SOL     OW11845   4.905   3.394   2.224
 3649SOL    HW111846   4.806   3.393   2.236
 3649SOL    HW211847   4.927   3.376   2.128
 3650SOL     OW11848   0.265   5.040   0.807
 3650SOL    HW111849   0.305   5.107   0.870
 3650SOL    HW211850   0.176   5.072   0.776
 3651SOL     OW11851   0.409   6.857   3.872
 3651SOL    HW111852   0.412   6.955   3.893
 3651SOL    HW211853   0.342   6.841   3.799
 3652SOL     OW11854   5.752   6.026   3.198
 3652SOL    HW111855   5.750   6.038   3.297
 3652SOL    HW211856   5.659   6.033   3.162
 3653SOL     OW11857   0.711   1.570   4.325
 3653SOL    HW111858   0.792   1.568   4.384
 3653SOL    HW211859   0.631   1.592   4.380
 3654SOL     OW11860   2.258   5.594   0.850
 3654SOL    HW111861   2.217   5.672   0.898
 3654SOL    HW211862   2.343   5.623   0.807
 3655SOL     OW11863   1.886   6.993   3.389
 3655SOL    HW111864   1.841   6.990   3.300
 3655SOL    HW211865   1.900   6.900   3.423
 3656SOL     OW11866   1.078   3.514   2.228
 3656SOL    HW111867   1.002   3.537   2.289
 3656SOL    HW211868   1.107   3.420   2.246
 3657SOL     OW11869   4.963   4.719   6.420
 3657SOL    HW111870   5.018   4.726   6.502
 3657SOL    HW211871   4.914   4.632   6.419
 3658SOL     OW11872   1.669   5.901   4.916
 3658SOL    HW111873   1.676   5.884   5.014
 3658SOL    HW211874   1.646   5.815   4.869
 3659SOL     OW11875   1.810   3.357   5.312
 3659SOL    HW111876   1.747   3.392   5.243
 3659SOL    HW211877   1.887   3.311   5.266
 3660SOL     OW11878   4.862   0.409   3.188
 3660SOL    HW111879   4.764   0.396   3.168
 3660SOL    HW211880   4.914   0.404   3.103
 3661SOL     OW11881   5.549   1.325   5.978
 3661SOL    HW111882   5.608   1.394   6.021
 3661SOL    HW211883   5.533   1.350   5.882
 3662SOL     OW11884   4.251   0.435   3.976
 3662SOL    HW111885   4.247   0.530   3.944
 3662SOL    HW211886   4.159   0.399   3.984
 3663SOL     OW11887   1.571   2.793   0.697
 3663SOL    HW111888   1.627   2.825   0.774
 3663SOL    HW211889   1.629   2.743   0.633
 3664SOL     OW11890   5.355   2.004   2.229
 3664SOL    HW111891   5.398   2.018   2.318
 3664SOL    HW211892   5.418   2.030   2.157
 3665SOL     OW11893   2.198   5.632   5.479
 3665SOL    HW111894   2.260   5.623   5.556
 3665SOL    HW211895   2.105   5.609   5.509
 3666SOL     OW11896   0.830   3.824   3.606
 3666SOL    HW111897   0.781   3.905   3.638
 3666SOL    HW211898   0.927   3.834   3.626
 3667SOL     OW11899   0.221   1.141   1.951
 3667SOL    HW111900   0.179   1.053   1.927
 3667SOL    HW211901   0.204   1.206   1.877
 3668SOL     OW11902   1.816   1.376   2.161
 3668SOL    HW111903   1.738   1.418   2.115
 3668SOL    HW211904   1.852   1.438   2.230
 3669SOL     OW11905   5.490   1.478   3.028
 3669SOL    HW111906   5.455   1.472   3.121
 3669SOL    HW211907   5.584   1.512   3.030
 3670SOL     OW11908   2.671   4.709   0.317
 3670SOL    HW111909   2.685   4.692   0.220
 3670SOL    HW211910   2.573   4.719   0.335
 3671SOL     OW11911   6.003   0.745   3.826
 3671SOL    HW111912   6.098   0.726   3.803
 3671SOL    HW211913   5.943   0.686   3.772
 3672SOL     OW11914   5.588   2.138   1.435
 3672SOL    HW111915   5.624   2.094   1.353
 3672SOL    HW211916   5.622   2.090   1.516
 3673SOL     OW11917   4.242   6.379   6.494
 3673SOL    HW111918   4.339   6.355   6.489
 3673SOL    HW211919   4.217   6.397   6.589
 3674SOL     OW11920   0.775   7.014   5.399
 3674SOL    HW111921   0.818   7.008   5.309
 3674SOL    HW211922   0.845   0.008   5.468
 3675SOL     OW11923   2.159   3.223   4.743
 3675SOL    HW111924   2.132   3.225   4.647
 3675SOL    HW211925   2.246   3.176   4.752
 3676SOL     OW11926   5.552   4.515   4.172
 3676SOL    HW111927   5.500   4.430   4.164
 3676SOL    HW211928   5.611   4.510   4.253
 3677SOL     OW11929   1.769   6.084   3.289
 3677SOL    HW111930   1.710   6.075   3.209
 3677SOL    HW211931   1.846   6.144   3.267
 3678SOL     OW11932   0.081   2.615   5.275
 3678SOL    HW111933   0.112   2.689   5.216
 3678SOL    HW211934   7.008   2.627   5.295
 3679SOL     OW11935   1.621   0.654   2.612
 3679SOL    HW111936   1.611   0.555   2.598
 3679SOL    HW211937   1.626   0.673   2.710
 3680SOL     OW11938   5.380   2.333   3.720
 3680SOL    HW111939   5.402   2.400   3.649
 3680SOL    HW211940   5.333   2.379   3.795
 3681SOL     OW11941   0.403   0.295   5.797
 3681SOL    HW111942   0.326   0.241   5.829
 3681SOL    HW211943   0.370   0.375   5.747
 3682SOL     OW11944   6.170   2.219   6.662
 3682SOL    HW111945   6.158   2.261   6.572
 3682SOL    HW211946   6.094   2.156   6.680
 3683SOL     OW11947   0.197   6.903   2.818
 3683SOL    HW111948   0.236   6.820   2.779
 3683SOL    HW211949   0.270   6.957   2.861
 3684SOL     OW11950   1.947   4.833   7.022
 3684SOL    HW111951   1.986   4.776   0.070
 3684SOL    HW211952   1.893   4.907   0.039
 3685SOL     OW11953   6.650   6.610   6.507
 3685SOL    HW111954   6.561   6.572   6.481
 3685SOL    HW211955   6.652   6.622   6.607
 3686SOL     OW11956   5.434   6.063   3.992
 3686SOL    HW111957   5.417   6.038   3.897
 3686SOL    HW211958   5.413   5.986   4.052
 3687SOL     OW11959   3.627   5.893   5.054
 3687SOL    HW111960   3.554   5.835   5.018
 3687SOL    HW211961   3.709   5.837   5.070
 3688SOL     OW11962   6.500   3.893   6.613
 3688SOL    HW111963   6.438   3.869   6.688
 3688SOL    HW211964   6.594   3.894   6.647
 3689SOL     OW11965   2.348   0.452   6.440
 3689SOL    HW111966   2.256   0.417   6.457
 3689SOL    HW211967   2.414   0.395   6.489
 3690SOL     OW11968   5.017   6.093   0.469
 3690SOL    HW111969   4.980   6.157   0.402
 3690SOL    HW211970   5.028   6.003   0.428
 3691SOL     OW11971   2.796   3.311   6.863
 3691SOL    HW111972   2.741   3.386   6.825
 3691SOL    HW211973   2.804   3.324   6.962
 3692SOL     OW11974   0.097   5.922   5.217
 3692SOL    HW111975   0.022   5.977   5.180
 3692SOL    HW211976   0.180   5.938   5.165
 3693SOL     OW11977   2.154   2.869   2.674
 3693SOL    HW111978   2.158   2.784   2.623
 3693SOL    HW211979   2.215   2.864   2.753
 3694SOL     OW11980   1.167   5.480   3.170
 3694SOL    HW111981   1.110   5.473   3.252
 3694SOL    HW211982   1.172   5.392   3.125
 3695SOL     OW11983   6.627   3.072   1.569
 3695SOL    HW111984   6.637   3.140   1.642
 3695SOL    HW211985   6.680   2.990   1.592
 3696SOL     OW11986   3.834   5.697   5.347
 3696SOL    HW111987   3.915   5.741   5.309
 3696SOL    HW211988   3.767   5.768   5.371
 3697SOL     OW11989   0.312   6.288   2.924
 3697SOL    HW111990   0.303   6.295   2.824
 3697SOL    HW211991   0.344   6.196   2.948
 3698SOL     OW11992   2.253   0.676   5.209
 3698SOL    HW111993   2.340   0.689   5.161
 3698SOL    HW211994   2.235   0.579   5.221
 3699SOL     OW11995   0.892   2.799   4.061
 3699SOL    HW111996   0.868   2.763   4.151
 3699SOL    HW211997   0.808   2.818   4.009
 3700SOL     OW11998   0.271   0.145   4.948
 3700SOL    HW111999   0.178   0.161   4.912
 3700SOL    HW212000   0.324   0.230   4.942
 3701SOL     OW12001   1.580   0.434   3.930
 3701SOL    HW112002   1.574   0.517   3.985
 3701SOL    HW212003   1.530   0.448   3.844
 3702SOL     OW12004   5.454   6.592   2.518
 3702SOL    HW112005   5.434   6.548   2.430
 3702SOL    HW212006   5.493   6.682   2.502
 3703SOL     OW12007   5.124   1.425   6.127
 3703SOL    HW112008   5.054   1.362   6.161
 3703SOL    HW212009   5.119   1.431   6.028
 3704SOL     OW12010   3.393   1.301   1.576
 3704SOL    HW112011   3.395   1.377   1.640
 3704SOL    HW212012   3.299   1.282   1.548
 3705SOL     OW12013   4.645   5.489   3.648
 3705SOL    HW112014   4.665   5.391   3.648
 3705SOL    HW212015   4.727   5.539   3.676
 3706SOL     OW12016   1.473   3.619   6.328
 3706SOL    HW112017   1.561   3.587   6.363
 3706SOL    HW212018   1.487   3.702   6.274
 3707SOL     OW12019   5.258   3.957   4.987
 3707SOL    HW112020   5.308   4.036   5.024
 3707SOL    HW212021   5.161   3.967   5.008
 3708SOL     OW12022   6.783   0.735   6.162
 3708SOL    HW112023   6.741   0.808   6.216
 3708SOL    HW212024   6.835   0.774   6.087
 3709SOL     OW12025   3.428   0.569   1.279
 3709SOL    HW112026   3.485   0.587   1.199
 3709SOL    HW212027   3.486   0.546   1.357
 3710SOL     OW12028   6.474   5.517   6.622
 3710SOL    HW112029   6.416   5.511   6.541
 3710SOL    HW212030   6.526   5.432   6.632
 3711SOL     OW12031   0.537   0.002   3.589
 3711SOL    HW112032   0.512   0.042   3.501
 3711SOL    HW212033   0.593   6.945   3.575
 3712SOL     OW12034   6.927   6.022   0.055
 3712SOL    HW112035   6.887   5.931   0.067
 3712SOL    HW212036   6.906   6.056   6.987
 3713SOL     OW12037   1.178   6.452   5.094
 3713SOL    HW112038   1.259   6.478   5.041
 3713SOL    HW212039   1.182   6.354   5.115
 3714SOL     OW12040   5.168   5.604   5.973
 3714SOL    HW112041   5.134   5.696   5.995
 3714SOL    HW212042   5.244   5.612   5.909
 3715SOL     OW12043   6.201   4.099   2.619
 3715SOL    HW112044   6.107   4.127   2.638
 3715SOL    HW212045   6.221   4.015   2.670
 3716SOL     OW12046   6.368   6.747   5.285
 3716SOL    HW112047   6.282   6.719   5.243
 3716SOL    HW212048   6.350   6.804   5.365
 3717SOL     OW12049   5.900   5.986   6.849
 3717SOL    HW112050   5.913   6.063   6.912
 3717SOL    HW212051   5.924   5.901   6.896
 3718SOL     OW12052   1.823   0.637   0.219
 3718SOL    HW112053   1.736   0.682   0.239
 3718SOL    HW212054   1.813   0.539   0.231
 3719SOL     OW12055   5.164   5.034   1.262
 3719SOL    HW112056   5.125   4.962   1.320
 3719SOL    HW212057   5.216   5.098   1.319
 3720SOL     OW12058   6.084   2.279   6.075
 3720SOL    HW112059   5.989   2.251   6.065
 3720SOL    HW212060   6.090   2.358   6.136
 3721SOL     OW12061   5.528   4.417   1.837
 3721SOL    HW112062   5.539   4.325   1.798
 3721SOL    HW212063   5.445   4.421   1.892
 3722SOL     OW12064   6.613   6.080   1.217
 3722SOL    HW112065   6.690   6.074   1.153
 3722SOL    HW212066   6.542   6.139   1.179
 3723SOL     OW12067   6.407   6.110   1.936
 3723SOL    HW112068   6.339   6.167   1.983
 3723SOL    HW212069   6.362   6.058   1.864
 3724SOL     OW12070   1.970   3.939   5.054
 3724SOL    HW112071   1.981   4.036   5.032
 3724SOL    HW212072   1.988   3.884   4.972
 3725SOL     OW12073   6.163   4.714   1.115
 3725SOL    HW112074   6.262   4.708   1.103
 3725SOL    HW212075   6.127   4.623   1.139
 3726SOL     OW12076   5.999   4.314   0.847
 3726SOL    HW112077   5.912   4.352   0.815
 3726SOL    HW212078   5.984   4.266   0.934
 3727SOL     OW12079   6.622   2.066   5.102
 3727SOL    HW112080   6.605   1.988   5.161
 3727SOL    HW212081   6.662   2.141   5.155
 3728SOL     OW12082   1.145   3.976   6.848
 3728SOL    HW112083   1.154   4.052   6.785
 3728SOL    HW212084   1.160   3.890   6.800
 3729SOL     OW12085   1.128   2.349   3.711
 3729SOL    HW112086   1.162   2.342   3.617
 3729SOL    HW212087   1.203   2.376   3.772
 3730SOL     OW12088   2.736   4.952   6.053
 3730SOL    HW112089   2.784   4.872   6.016
 3730SOL    HW212090   2.662   4.922   6.113
 3731SOL     OW12091   6.073   0.350   0.860
 3731SOL    HW112092   6.102   0.363   0.954
 3731SOL    HW212093   6.096   0.257   0.830
 3732SOL     OW12094   2.852   1.865   6.085
 3732SOL    HW112095   2.841   1.955   6.042
 3732SOL    HW212096   2.929   1.818   6.044
 3733SOL     OW12097   1.333   3.647   2.311
 3733SOL    HW112098   1.381   3.686   2.233
 3733SOL    HW212099   1.235   3.640   2.290
 3734SOL     OW12100   4.935   1.417   1.638
 3734SOL    HW112101   4.916   1.515   1.631
 3734SOL    HW212102   4.909   1.371   1.553
 3735SOL     OW12103   2.215   0.647   3.637
 3735SOL    HW112104   2.282   0.598   3.693
 3735SOL    HW212105   2.245   0.645   3.541
 3736SOL     OW12106   6.918   2.387   0.128
 3736SOL    HW112107   6.876   2.348   0.045
 3736SOL    HW212108   6.930   2.314   0.196
 3737SOL     OW12109   4.770   0.648   3.286
 3737SOL    HW112110   4.825   0.567   3.300
 3737SOL    HW212111   4.676   0.621   3.264
 3738SOL     OW12112   0.122   5.909   2.124
 3738SOL    HW112113   0.039   5.872   2.083
 3738SOL    HW212114   0.097   5.976   2.194
 3739SOL     OW12115   2.862   4.682   1.655
 3739SOL    HW112116   2.886   4.644   1.745
 3739SOL    HW212117   2.784   4.632   1.618
 3740SOL     OW12118   5.884   0.936   0.452
 3740SOL    HW112119   5.795   0.971   0.483
 3740SOL    HW212120   5.948   1.012   0.442
 3741SOL     OW12121   5.638   3.404   1.295
 3741SOL    HW112122   5.613   3.348   1.216
 3741SOL    HW212123   5.560   3.462   1.320
 3742SOL     OW12124   2.269   2.023   6.798
 3742SOL    HW112125   2.276   1.996   6.702
 3742SOL    HW212126   2.188   2.080   6.811
 3743SOL     OW12127   4.975   3.056   1.169
 3743SOL    HW112128   4.932   2.986   1.111
 3743SOL    HW212129   4.964   3.031   1.265
 3744SOL     OW12130   0.873   5.749   3.279
 3744SOL    HW112131   0.848   5.659   3.315
 3744SOL    HW212132   0.847   5.755   3.183
 3745SOL     OW12133   3.706   4.961   1.666
 3745SOL    HW112134   3.713   4.861   1.657
 3745SOL    HW212135   3.622   4.984   1.714
 3746SOL     OW12136   5.639   0.802   2.977
 3746SOL    HW112137   5.617   0.898   2.994
 3746SOL    HW212138   5.737   0.793   2.960
 3747SOL     OW12139   2.484   6.560   5.583
 3747SOL    HW112140   2.468   6.515   5.495
 3747SOL    HW212141   2.401   6.609   5.611
 3748SOL     OW12142   6.182   0.815   1.161
 3748SOL    HW112143   6.183   0.892   1.096
 3748SOL    HW212144   6.130   0.739   1.121
 3749SOL     OW12145   1.692   5.971   4.012
 3749SOL    HW112146   1.765   5.976   4.081
 3749SOL    HW212147   1.611   6.020   4.045
 3750SOL     OW12148   1.335   3.905   0.813
 3750SOL    HW112149   1.328   3.933   0.717
 3750SOL    HW212150   1.354   3.807   0.817
 3751SOL     OW12151   6.966   3.772   1.634
 3751SOL    HW112152   6.899   3.706   1.669
 3751SOL    HW212153   0.015   3.723   1.586
 3752SOL     OW12154   5.340   0.672   0.093
 3752SOL    HW112155   5.354   0.621   0.177
 3752SOL    HW212156   5.244   0.666   0.066
 3753SOL     OW12157   6.688   0.634   5.865
 3753SOL    HW112158   6.764   0.586   5.909
 3753SOL    HW212159   6.706   0.645   5.768
 3754SOL     OW12160   2.471   0.570   1.054
 3754SOL    HW112161   2.405   0.644   1.066
 3754SOL    HW212162   2.423   0.482   1.061
 3755SOL     OW12163   4.778   4.753   4.979
 3755SOL    HW112164   4.802   4.666   4.938
 3755SOL    HW212165   4.856   4.790   5.029
 3756SOL     OW12166   2.906   5.315   6.141
 3756SOL    HW112167   2.920   5.349   6.048
 3756SOL    HW212168   2.922   5.217   6.144
 3757SOL     OW12169   6.165   5.073   1.675
 3757SOL    HW112170   6.230   5.008   1.636
 3757SOL    HW212171   6.076   5.030   1.683
 3758SOL     OW12172   2.407   1.401   4.914
 3758SOL    HW112173   2.322   1.382   4.866
 3758SOL    HW212174   2.434   1.496   4.898
 3759SOL     OW12175   4.216   0.274   5.998
 3759SOL    HW112176   4.301   0.289   5.948
 3759SOL    HW212177   4.216   0.327   6.083
 3760SOL     OW12178   1.539   1.266   3.958
 3760SOL    HW112179   1.477   1.256   4.035
 3760SOL    HW212180   1.562   1.363   3.945
 3761SOL     OW12181   0.065   1.147   5.417
 3761SOL    HW112182   6.994   1.175   5.432
 3761SOL    HW212183   0.089   1.076   5.483
 3762SOL     OW12184   2.058   4.435   0.857
 3762SOL    HW112185   2.039   4.363   0.790
 3762SOL    HW212186   1.973   4.470   0.895
 3763SOL     OW12187   0.521   3.357   6.938
 3763SOL    HW112188   0.530   3.286   7.008
 3763SOL    HW212189   0.606   3.409   6.932
 3764SOL     OW12190   1.405   6.869   2.400
 3764SOL    HW112191   1.366   6.867   2.307
 3764SOL    HW212192   1.405   6.962   2.434
 3765SOL     OW12193   5.419   1.789   0.899
 3765SOL    HW112194   5.345   1.791   0.967
 3765SOL    HW212195   5.463   1.699   0.901
 3766SOL     OW12196   1.833   1.929   4.467
 3766SOL    HW112197   1.891   1.890   4.395
 3766SOL    HW212198   1.737   1.912   4.446
 3767SOL     OW12199   3.221   4.396   6.671
 3767SOL    HW112200   3.286   4.322   6.689
 3767SOL    HW212201   3.155   4.401   6.745
 3768SOL     OW12202   0.633   6.997   4.604
 3768SOL    HW112203   0.543   6.953   4.603
 3768SOL    HW212204   0.667   7.006   4.511
 3769SOL     OW12205   6.072   5.143   5.135
 3769SOL    HW112206   6.105   5.189   5.217
 3769SOL    HW212207   6.150   5.115   5.078
 3770SOL     OW12208   1.121   0.447   6.982
 3770SOL    HW112209   1.087   0.534   7.018
 3770SOL    HW212210   1.060   0.416   6.908
 3771SOL     OW12211   5.278   4.083   0.584
 3771SOL    HW112212   5.211   4.104   0.655
 3771SOL    HW212213   5.245   4.007   0.529
 3772SOL     OW12214   0.415   0.494   0.304
 3772SOL    HW112215   0.488   0.475   0.370
 3772SOL    HW212216   0.380   0.407   0.267
 3773SOL     OW12217   5.630   3.748   5.257
 3773SOL    HW112218   5.723   3.720   5.234
 3773SOL    HW212219   5.578   3.668   5.287
 3774SOL     OW12220   5.889   5.678   1.745
 3774SOL    HW112221   5.804   5.628   1.762
 3774SOL    HW212222   5.868   5.773   1.721
 3775SOL     OW12223   4.540   5.324   2.512
 3775SOL    HW112224   4.593   5.286   2.436
 3775SOL    HW212225   4.597   5.388   2.564
 3776SOL     OW12226   4.129   2.221   6.597
 3776SOL    HW112227   4.030   2.218   6.590
 3776SOL    HW212228   4.156   2.269   6.680
 3777SOL     OW12229   3.151   4.884   3.643
 3777SOL    HW112230   3.244   4.863   3.614
 3777SOL    HW212231   3.128   4.977   3.615
 3778SOL     OW12232   2.601   5.108   2.590
 3778SOL    HW112233   2.637   5.044   2.522
 3778SOL    HW212234   2.503   5.094   2.601
 3779SOL     OW12235   0.836   5.148   0.873
 3779SOL    HW112236   0.740   5.159   0.849
 3779SOL    HW212237   0.856   5.051   0.888
 3780SOL     OW12238   6.141   4.675   4.773
 3780SOL    HW112239   6.093   4.762   4.785
 3780SOL    HW212240   6.127   4.642   4.679
 3781SOL     OW12241   0.139   6.552   3.287
 3781SOL    HW112242   0.082   6.524   3.363
 3781SOL    HW212243   0.220   6.493   3.283
 3782SOL     OW12244   2.551   0.556   2.741
 3782SOL    HW112245   2.506   0.467   2.741
 3782SOL    HW212246   2.625   0.557   2.808
 3783SOL     OW12247   5.728   5.389   3.946
 3783SOL    HW112248   5.700   5.302   3.988
 3783SOL    HW212249   5.667   5.409   3.869
 3784SOL     OW12250   5.540   2.884   2.411
 3784SOL    HW112251   5.475   2.909   2.482
 3784SOL    HW212252   5.511   2.922   2.324
 3785SOL     OW12253   1.532   3.409   5.619
 3785SOL    HW112254   1.596   3.434   5.690
 3785SOL    HW212255   1.508   3.490   5.565
 3786SOL     OW12256   2.311   4.327   3.447
 3786SOL    HW112257   2.237   4.394   3.438
 3786SOL    HW212258   2.371   4.333   3.367
 3787SOL     OW12259   5.910   1.177   2.287
 3787SOL    HW112260   5.849   1.210   2.359
 3787SOL    HW212261   5.941   1.085   2.309
 3788SOL     OW12262   0.274   4.524   4.663
 3788SOL    HW112263   0.300   4.427   4.662
 3788SOL    HW212264   0.205   4.539   4.733
 3789SOL     OW12265   0.771   3.963   4.632
 3789SOL    HW112266   0.852   3.985   4.576
 3789SOL    HW212267   0.739   3.871   4.610
 3790SOL     OW12268   1.107   4.566   5.682
 3790SOL    HW112269   1.134   4.641   5.743
 3790SOL    HW212270   1.066   4.492   5.735
 3791SOL     OW12271   5.171   1.570   6.547
 3791SOL    HW112272   5.208   1.483   6.513
 3791SOL    HW212273   5.208   1.588   6.638
 3792SOL     OW12274   1.476   2.039   3.221
 3792SOL    HW112275   1.384   2.004   3.239
 3792SOL    HW212276   1.471   2.111   3.151
 3793SOL     OW12277   4.641   0.026   2.451
 3793SOL    HW112278   4.642   0.120   2.483
 3793SOL    HW212279   4.631   6.988   2.528
 3794SOL     OW12280   2.537   2.643   1.773
 3794SOL    HW112281   2.476   2.688   1.708
 3794SOL    HW212282   2.485   2.616   1.854
 3795SOL     OW12283   4.982   6.097   1.271
 3795SOL    HW112284   4.986   6.132   1.364
 3795SOL    HW212285   5.050   6.024   1.260
 3796SOL     OW12286   3.954   1.856   2.791
 3796SOL    HW112287   3.988   1.889   2.703
 3796SOL    HW212288   4.022   1.874   2.862
 3797SOL     OW12289   0.556   3.299   2.881
 3797SOL    HW112290   0.649   3.282   2.851
 3797SOL    HW212291   0.538   3.249   2.966
 3798SOL     OW12292   2.412   5.605   2.820
 3798SOL    HW112293   2.488   5.541   2.825
 3798SOL    HW212294   2.444   5.697   2.840
 3799SOL     OW12295   6.561   3.064   3.707
 3799SOL    HW112296   6.572   2.998   3.632
 3799SOL    HW212297   6.626   3.041   3.780
 3800SOL     OW12298   5.197   1.816   3.799
 3800SOL    HW112299   5.114   1.766   3.825
 3800SOL    HW212300   5.232   1.866   3.878
 3801SOL     OW12301   6.151   6.881   1.765
 3801SOL    HW112302   6.094   6.935   1.703
 3801SOL    HW212303   6.200   6.811   1.713
 3802SOL     OW12304   1.453   2.196   1.452
 3802SOL    HW112305   1.523   2.132   1.483
 3802SOL    HW212306   1.364   2.151   1.450
 3803SOL     OW12307   4.141   3.570   2.492
 3803SOL    HW112308   4.140   3.598   2.396
 3803SOL    HW212309   4.151   3.651   2.550
 3804SOL     OW12310   4.225   0.947   3.150
 3804SOL    HW112311   4.178   0.969   3.065
 3804SOL    HW212312   4.310   0.899   3.130
 3805SOL     OW12313   2.114   2.747   1.680
 3805SOL    HW112314   2.042   2.685   1.650
 3805SOL    HW212315   2.080   2.804   1.755
 3806SOL     OW12316   4.085   3.708   6.182
 3806SOL    HW112317   4.029   3.651   6.123
 3806SOL    HW212318   4.147   3.763   6.126
 3807SOL     OW12319   1.952   5.567   2.460
 3807SOL    HW112320   2.035   5.573   2.515
 3807SOL    HW212321   1.872   5.584   2.519
 3808SOL     OW12322   4.306   0.819   0.434
 3808SOL    HW112323   4.263   0.749   0.491
 3808SOL    HW212324   4.251   0.834   0.352
 3809SOL     OW12325   5.433   2.474   1.763
 3809SOL    HW112326   5.469   2.380   1.767
 3809SOL    HW212327   5.498   2.532   1.715
 3810SOL     OW12328   5.641   2.752   3.331
 3810SOL    HW112329   5.674   2.723   3.421
 3810SOL    HW212330   5.543   2.774   3.337
 3811SOL     OW12331   6.727   6.076   4.614
 3811SOL    HW112332   6.691   5.985   4.633
 3811SOL    HW212333   6.722   6.132   4.697
 3812SOL     OW12334   4.292   5.385   5.570
 3812SOL    HW112335   4.302   5.327   5.489
 3812SOL    HW212336   4.269   5.478   5.542
 3813SOL     OW12337   4.840   3.534   0.259
 3813SOL    HW112338   4.782   3.473   0.313
 3813SOL    HW212339   4.927   3.548   0.307
 3814SOL     OW12340   6.310   0.039   5.666
 3814SOL    HW112341   6.345   0.128   5.696
 3814SOL    HW212342   6.242   0.053   5.594
 3815SOL     OW12343   3.604   1.688   1.107
 3815SOL    HW112344   3.574   1.696   1.012
 3815SOL    HW212345   3.641   1.775   1.138
 3816SOL     OW12346   0.986   5.356   6.446
 3816SOL    HW112347   1.039   5.309   6.375
 3816SOL    HW212348   1.020   5.328   6.536
 3817SOL     OW12349   5.160   3.840   2.499
 3817SOL    HW112350   5.128   3.810   2.410
 3817SOL    HW212351   5.082   3.851   2.561
 3818SOL     OW12352   6.807   0.829   0.174
 3818SOL    HW112353   6.747   0.905   0.200
 3818SOL    HW212354   6.792   0.752   0.236
 3819SOL     OW12355   5.770   5.672   2.712
 3819SOL    HW112356   5.792   5.626   2.798
 3819SOL    HW212357   5.690   5.730   2.725
 3820SOL     OW12358   5.228   0.342   4.288
 3820SOL    HW112359   5.157   0.332   4.359
 3820SOL    HW212360   5.266   0.252   4.266
 3821SOL     OW12361   2.085   1.083   1.451
 3821SOL    HW112362   2.134   1.040   1.375
 3821SOL    HW212363   2.133   1.063   1.536
 3822SOL     OW12364   2.294   6.976   0.520
 3822SOL    HW112365   2.379   7.022   0.497
 3822SOL    HW212366   2.275   6.986   0.617
 3823SOL     OW12367   2.829   3.743   6.136
 3823SOL    HW112368   2.767   3.672   6.103
 3823SOL    HW212369   2.777   3.817   6.179
 3824SOL     OW12370   0.718   3.393   0.288
 3824SOL    HW112371   0.768   3.465   0.335
 3824SOL    HW212372   0.620   3.415   0.287
 3825SOL     OW12373   0.455   5.258   0.484
 3825SOL    HW112374   0.459   5.159   0.472
 3825SOL    HW212375   0.361   5.289   0.473
 3826SOL     OW12376   1.245   3.973   0.544
 3826SOL    HW112377   1.327   3.936   0.500
 3826SOL    HW212378   1.163   3.934   0.500
 3827SOL     OW12379   1.786   1.291   1.843
 3827SOL    HW112380   1.842   1.374   1.846
 3827SOL    HW212381   1.711   1.299   1.908
 3828SOL     OW12382   3.683   3.295   3.371
 3828SOL    HW112383   3.745   3.219   3.350
 3828SOL    HW212384   3.702   3.372   3.311
 3829SOL     OW12385   1.004   4.813   2.234
 3829SOL    HW112386   0.924   4.873   2.241
 3829SOL    HW212387   1.012   4.778   2.141
 3830SOL     OW12388   0.784   0.326   5.345
 3830SOL    HW112389   0.799   0.425   5.344
 3830SOL    HW212390   0.723   0.302   5.270
 3831SOL     OW12391   4.732   2.282   2.733
 3831SOL    HW112392   4.655   2.226   2.703
 3831SOL    HW212393   4.760   2.254   2.825
 3832SOL     OW12394   0.411   0.720   3.300
 3832SOL    HW112395   0.354   0.798   3.273
 3832SOL    HW212396   0.353   0.639   3.311
 3833SOL     OW12397   6.957   5.848   6.818
 3833SOL    HW112398   0.027   5.866   6.845
 3833SOL    HW212399   6.951   5.843   6.718
 3834SOL     OW12400   4.027   4.081   0.980
 3834SOL    HW112401   3.967   4.024   1.038
 3834SOL    HW212402   4.040   4.036   0.892
 3835SOL     OW12403   3.662   6.127   4.396
 3835SOL    HW112404   3.752   6.170   4.397
 3835SOL    HW212405   3.602   6.175   4.460
 3836SOL     OW12406   0.296   4.743   5.686
 3836SOL    HW112407   0.355   4.759   5.607
 3836SOL    HW212408   0.314   4.652   5.723
 3837SOL     OW12409   4.324   4.042   6.579
 3837SOL    HW112410   4.304   3.985   6.499
 3837SOL    HW212411   4.412   4.087   6.567
 3838SOL     OW12412   0.772   3.379   3.985
 3838SOL    HW112413   0.762   3.411   3.891
 3838SOL    HW212414   0.862   3.335   3.996
 3839SOL     OW12415   5.773   1.685   3.005
 3839SOL    HW112416   5.717   1.746   2.948
 3839SOL    HW212417   5.726   1.667   3.091
 3840SOL     OW12418   2.753   1.602   6.636
 3840SOL    HW112419   2.845   1.623   6.604
 3840SOL    HW212420   2.740   1.503   6.640
 3841SOL     OW12421   0.521   3.413   5.095
 3841SOL    HW112422   0.423   3.406   5.112
 3841SOL    HW212423   0.569   3.344   5.149
 3842SOL     OW12424   2.115   2.590   2.002
 3842SOL    HW112425   2.017   2.593   1.980
 3842SOL    HW212426   2.152   2.683   1.999
 3843SOL     OW12427   5.454   4.985   2.962
 3843SOL    HW112428   5.468   4.908   2.899
 3843SOL    HW212429   5.528   4.987   3.029
 3844SOL     OW12430   0.981   2.469   5.355
 3844SOL    HW112431   0.966   2.566   5.338
 3844SOL    HW212432   1.079   2.449   5.349
 3845SOL     OW12433   3.462   4.115   5.369
 3845SOL    HW112434   3.417   4.101   5.281
 3845SOL    HW212435   3.470   4.213   5.386
 3846SOL     OW12436   7.009   5.148   3.220
 3846SOL    HW112437   6.938   5.189   3.163
 3846SOL    HW212438   0.041   5.221   3.261
 3847SOL     OW12439   5.496   2.620   4.057
 3847SOL    HW112440   5.568   2.648   3.994
 3847SOL    HW212441   5.427   2.567   4.007
 3848SOL     OW12442   4.294   5.243   2.629
 3848SOL    HW112443   4.224   5.240   2.558
 3848SOL    HW212444   4.384   5.253   2.586
 3849SOL     OW12445   0.708   1.303   6.304
 3849SOL    HW112446   0.785   1.307   6.368
 3849SOL    HW212447   0.733   1.348   6.219
 3850SOL     OW12448   2.748   3.418   1.892
 3850SOL    HW112449   2.724   3.489   1.826
 3850SOL    HW212450   2.667   3.390   1.942
 3851SOL     OW12451   0.791   4.359   2.437
 3851SOL    HW112452   0.773   4.402   2.349
 3851SOL    HW212453   0.829   4.426   2.500
 3852SOL     OW12454   4.157   6.581   3.966
 3852SOL    HW112455   4.093   6.542   4.032
 3852SOL    HW212456   4.251   6.565   3.997
 3853SOL     OW12457   0.572   4.312   3.568
 3853SOL    HW112458   0.562   4.334   3.665
 3853SOL    HW212459   0.614   4.389   3.521
 3854SOL     OW12460   1.845   2.680   2.834
 3854SOL    HW112461   1.784   2.618   2.884
 3854SOL    HW212462   1.931   2.689   2.885
 3855SOL     OW12463   5.413   6.623   6.486
 3855SOL    HW112464   5.369   6.698   6.437
 3855SOL    HW212465   5.416   6.542   6.428
 3856SOL     OW12466   6.759   0.409   6.469
 3856SOL    HW112467   6.739   0.311   6.473
 3856SOL    HW212468   6.818   0.427   6.390
 3857SOL     OW12469   0.341   6.517   0.191
 3857SOL    HW112470   0.330   6.610   0.227
 3857SOL    HW212471   0.336   6.451   0.266
 3858SOL     OW12472   2.592   0.725   5.823
 3858SOL    HW112473   2.547   0.806   5.786
 3858SOL    HW212474   2.550   0.701   5.911
 3859SOL     OW12475   5.716   1.346   2.424
 3859SOL    HW112476   5.670   1.396   2.498
 3859SOL    HW212477   5.691   1.387   2.336
 3860SOL     OW12478   2.413   0.892   5.362
 3860SOL    HW112479   2.371   0.903   5.272
 3860SOL    HW212480   2.497   0.838   5.353
 3861SOL     OW12481   4.342   4.850   3.194
 3861SOL    HW112482   4.274   4.807   3.134
 3861SOL    HW212483   4.298   4.921   3.248
 3862SOL     OW12484   0.543   0.768   5.239
 3862SOL    HW112485   0.478   0.720   5.180
 3862SOL    HW212486   0.548   0.723   5.328
 3863SOL     OW12487   5.699   2.900   6.619
 3863SOL    HW112488   5.621   2.959   6.604
 3863SOL    HW212489   5.763   2.944   6.682
 3864SOL     OW12490   2.600   0.459   5.535
 3864SOL    HW112491   2.511   0.416   5.553
 3864SOL    HW212492   2.585   0.546   5.486
 3865SOL     OW12493   3.114   0.363   0.279
 3865SOL    HW112494   3.112   0.442   0.219
 3865SOL    HW212495   3.127   0.393   0.374
 3866SOL     OW12496   3.303   0.237   1.201
 3866SOL    HW112497   3.312   0.159   1.139
 3866SOL    HW212498   3.214   0.281   1.187
 3867SOL     OW12499   0.989   4.931   3.913
 3867SOL    HW112500   0.913   4.988   3.882
 3867SOL    HW212501   0.952   4.850   3.959
 3868SOL     OW12502   2.910   6.995   0.291
 3868SOL    HW112503   2.906   6.960   0.197
 3868SOL    HW212504   2.894   6.919   0.355
 3869SOL     OW12505   5.722   3.916   4.811
 3869SOL    HW112506   5.752   3.988   4.749
 3869SOL    HW212507   5.623   3.921   4.823
 3870SOL     OW12508   5.611   5.924   0.130
 3870SOL    HW112509   5.679   5.988   0.167
 3870SOL    HW212510   5.552   5.972   0.065
 3871SOL     OW12511   3.077   0.364   3.113
 3871SOL    HW112512   3.079   0.282   3.171
 3871SOL    HW212513   3.016   0.432   3.153
 3872SOL     OW12514   3.830   3.016   3.942
 3872SOL    HW112515   3.780   2.985   4.023
 3872SOL    HW212516   3.902   3.079   3.969
 3873SOL     OW12517   6.508   2.787   0.350
 3873SOL    HW112518   6.603   2.781   0.321
 3873SOL    HW212519   6.503   2.773   0.449
 3874SOL     OW12520   4.087   6.175   0.072
 3874SOL    HW112521   4.055   6.217   0.157
 3874SOL    HW212522   4.069   6.076   0.075
 3875SOL     OW12523   2.009   3.050   2.122
 3875SOL    HW112524   2.078   3.058   2.194
 3875SOL    HW212525   1.989   3.140   2.084
 3876SOL     OW12526   3.795   5.723   1.005
 3876SOL    HW112527   3.833   5.811   0.977
 3876SOL    HW212528   3.867   5.654   1.007
 3877SOL     OW12529   6.159   3.112   0.495
 3877SOL    HW112530   6.232   3.180   0.503
 3877SOL    HW212531   6.184   3.045   0.424
 3878SOL     OW12532   3.376   6.773   4.272
 3878SOL    HW112533   3.437   6.851   4.290
 3878SOL    HW212534   3.405   6.695   4.328
 3879SOL     OW12535   5.180   5.206   1.509
 3879SOL    HW112536   5.236   5.146   1.566
 3879SOL    HW212537   5.089   5.166   1.497
 3880SOL     OW12538   5.735   5.111   4.042
 3880SOL    HW112539   5.810   5.110   3.975
 3880SOL    HW212540   5.760   5.056   4.121
 3881SOL     OW12541   1.239   3.580   1.667
 3881SOL    HW112542   1.220   3.600   1.570
 3881SOL    HW212543   1.230   3.482   1.683
 3882SOL     OW12544   1.370   1.287   5.828
 3882SOL    HW112545   1.371   1.199   5.780
 3882SOL    HW212546   1.308   1.350   5.782
 3883SOL     OW12547   3.900   0.619   3.395
 3883SOL    HW112548   3.920   0.670   3.479
 3883SOL    HW212549   3.983   0.612   3.340
 3884SOL     OW12550   0.141   5.043   3.509
 3884SOL    HW112551   0.177   5.104   3.438
 3884SOL    HW212552   0.212   5.027   3.578
 3885SOL     OW12553   6.598   0.285   2.916
 3885SOL    HW112554   6.665   0.230   2.966
 3885SOL    HW212555   6.642   0.326   2.836
 3886SOL     OW12556   6.280   6.105   4.844
 3886SOL    HW112557   6.299   6.038   4.915
 3886SOL    HW212558   6.183   6.099   4.818
 3887SOL     OW12559   0.219   0.504   6.053
 3887SOL    HW112560   0.134   0.513   6.000
 3887SOL    HW212561   0.228   0.410   6.085
 3888SOL     OW12562   6.665   0.380   5.411
 3888SOL    HW112563   6.720   0.313   5.362
 3888SOL    HW212564   6.583   0.400   5.358
 3889SOL     OW12565   6.972   3.634   5.984
 3889SOL    HW112566   6.919   3.587   5.913
 3889SOL    HW212567   6.915   3.704   6.028
 3890SOL     OW12568   5.541   5.440   2.841
 3890SOL    HW112569   5.566   5.357   2.792
 3890SOL    HW212570   5.610   5.459   2.912
 3891SOL     OW12571   5.480   4.215   4.902
 3891SOL    HW112572   5.412   4.219   4.975
 3891SOL    HW212573   5.511   4.121   4.890
 3892SOL     OW12574   0.228   1.515   1.226
 3892SOL    HW112575   0.309   1.497   1.169
 3892SOL    HW212576   0.148   1.525   1.167
 3893SOL     OW12577   4.269   4.333   1.051
 3893SOL    HW112578   4.259   4.432   1.046
 3893SOL    HW212579   4.179   4.289   1.048
 3894SOL     OW12580   3.444   2.420   1.071
 3894SOL    HW112581   3.430   2.447   1.166
 3894SOL    HW212582   3.488   2.330   1.068
 3895SOL     OW12583   1.653   0.494   6.019
 3895SOL    HW112584   1.684   0.580   5.978
 3895SOL    HW212585   1.728   0.453   6.071
 3896SOL     OW12586   6.965   0.577   5.885
 3896SOL    HW112587   6.965   0.491   5.834
 3896SOL    HW212588   6.976   0.653   5.820
 3897SOL     OW12589   3.723   5.912   2.134
 3897SOL    HW112590   3.756   5.914   2.040
 3897SOL    HW212591   3.714   5.817   2.165
 3898SOL     OW12592   3.368   3.430   4.740
 3898SOL    HW112593   3.459   3.423   4.699
 3898SOL    HW212594   3.345   3.345   4.786
 3899SOL     OW12595   5.950   0.638   4.360
 3899SOL    HW112596   5.908   0.693   4.432
 3899SOL    HW212597   5.978   0.698   4.284
 3900SOL     OW12598   5.913   2.844   3.881
 3900SOL    HW112599   5.942   2.759   3.837
 3900SOL    HW212600   5.978   2.916   3.859
 3901SOL     OW12601   2.972   0.241   5.325
 3901SOL    HW112602   2.924   0.307   5.382
 3901SOL    HW212603   2.912   0.163   5.306
 3902SOL     OW12604   6.002   3.836   2.555
 3902SOL    HW112605   5.954   3.767   2.499
 3902SOL    HW212606   6.014   3.920   2.502
 3903SOL     OW12607   4.595   5.426   0.345
 3903SOL    HW112608   4.615   5.524   0.343
 3903SOL    HW212609   4.654   5.378   0.280
 3904SOL     OW12610   1.814   6.747   4.875
 3904SOL    HW112611   1.751   6.821   4.897
 3904SOL    HW212612   1.793   6.667   4.932
 3905SOL     OW12613   6.530   6.902   5.630
 3905SOL    HW112614   6.447   6.953   5.653
 3905SOL    HW212615   6.602   6.923   5.697
 3906SOL     OW12616   4.063   5.337   5.088
 3906SOL    HW112617   3.988   5.280   5.054
 3906SOL    HW212618   4.078   5.319   5.185
 3907SOL     OW12619   6.617   6.471   5.690
 3907SOL    HW112620   6.665   6.546   5.644
 3907SOL    HW212621   6.535   6.507   5.734
 3908SOL     OW12622   0.953   0.484   0.665
 3908SOL    HW112623   0.981   0.430   0.585
 3908SOL    HW212624   1.032   0.495   0.726
 3909SOL     OW12625   0.643   5.743   5.335
 3909SOL    HW112626   0.710   5.817   5.340
 3909SOL    HW212627   0.556   5.774   5.372
 3910SOL     OW12628   3.708   3.771   1.776
 3910SOL    HW112629   3.628   3.809   1.823
 3910SOL    HW212630   3.757   3.845   1.730
 3911SOL     OW12631   4.169   1.149   0.156
 3911SOL    HW112632   4.165   1.200   0.069
 3911SOL    HW212633   4.133   1.207   0.230
 3912SOL     OW12634   3.302   0.996   6.588
 3912SOL    HW112635   3.302   1.084   6.637
 3912SOL    HW212636   3.327   0.923   6.651
 3913SOL     OW12637   1.728   5.827   6.618
 3913SOL    HW112638   1.813   5.781   6.591
 3913SOL    HW212639   1.652   5.787   6.566
 3914SOL     OW12640   3.752   0.951   0.720
 3914SOL    HW112641   3.769   0.955   0.818
 3914SOL    HW212642   3.827   0.902   0.675
 3915SOL     OW12643   4.283   6.207   1.910
 3915SOL    HW112644   4.186   6.205   1.882
 3915SOL    HW212645   4.339   6.236   1.832
 3916SOL     OW12646   1.702   6.230   3.051
 3916SOL    HW112647   1.692   6.316   3.101
 3916SOL    HW212648   1.694   6.248   2.953
 3917SOL     OW12649   1.465   5.002   6.866
 3917SOL    HW112650   1.387   4.943   6.846
 3917SOL    HW212651   1.508   5.031   6.780
 3918SOL     OW12652   5.227   6.698   2.101
 3918SOL    HW112653   5.129   6.707   2.084
 3918SOL    HW212654   5.272   6.663   2.019
 3919SOL     OW12655   3.234   6.182   6.416
 3919SOL    HW112656   3.329   6.151   6.405
 3919SOL    HW212657   3.174   6.102   6.422
 3920SOL     OW12658   2.825   2.193   6.640
 3920SOL    HW112659   2.861   2.149   6.722
 3920SOL    HW212660   2.782   2.280   6.666
 3921SOL     OW12661   0.015   2.696   0.624
 3921SOL    HW112662   0.060   2.733   0.705
 3921SOL    HW212663   0.035   2.598   0.618
 3922SOL     OW12664   5.481   4.639   1.242
 3922SOL    HW112665   5.559   4.619   1.182
 3922SOL    HW212666   5.432   4.719   1.209
 3923SOL     OW12667   6.611   1.556   0.264
 3923SOL    HW112668   6.643   1.513   0.348
 3923SOL    HW212669   6.609   1.488   0.190
 3924SOL     OW12670   0.512   5.297   3.174
 3924SOL    HW112671   0.515   5.390   3.212
 3924SOL    HW212672   0.417   5.274   3.152
 3925SOL     OW12673   3.745   4.267   0.900
 3925SOL    HW112674   3.815   4.216   0.850
 3925SOL    HW212675   3.655   4.229   0.880
 3926SOL     OW12676   6.634   6.310   2.785
 3926SOL    HW112677   6.720   6.344   2.823
 3926SOL    HW212678   6.645   6.215   2.757
 3927SOL     OW12679   6.907   3.876   4.132
 3927SOL    HW112680   6.937   3.971   4.134
 3927SOL    HW212681   6.812   3.872   4.102
 3928SOL     OW12682   3.192   5.420   4.800
 3928SOL    HW112683   3.213   5.351   4.869
 3928SOL    HW212684   3.113   5.390   4.746
 3929SOL     OW12685   0.384   2.413   6.488
 3929SOL    HW112686   0.350   2.507   6.483
 3929SOL    HW212687   0.378   2.380   6.582
 3930SOL     OW12688   1.902   1.926   4.017
 3930SOL    HW112689   1.860   1.871   4.089
 3930SOL    HW212690   1.963   1.869   3.962
 3931SOL     OW12691   2.553   1.057   2.796
 3931SOL    HW112692   2.506   1.049   2.884
 3931SOL    HW212693   2.569   0.965   2.759
 3932SOL     OW12694   1.704   4.541   3.188
 3932SOL    HW112695   1.643   4.471   3.152
 3932SOL    HW212696   1.716   4.528   3.286
 3933SOL     OW12697   2.427   6.854   6.642
 3933SOL    HW112698   2.522   6.822   6.638
 3933SOL    HW212699   2.425   6.950   6.669
 3934SOL     OW12700   0.294   1.189   1.401
 3934SOL    HW112701   0.197   1.179   1.376
 3934SOL    HW212702   0.348   1.122   1.351
 3935SOL     OW12703   1.956   6.997   5.374
 3935SOL    HW112704   2.024   6.987   5.447
 3935SOL    HW212705   1.960   6.918   5.313
 3936SOL     OW12706   0.193   5.631   5.432
 3936SOL    HW112707   0.200   5.574   5.515
 3936SOL    HW212708   0.121   5.698   5.444
 3937SOL     OW12709   0.708   0.298   2.241
 3937SOL    HW112710   0.725   0.397   2.242
 3937SOL    HW212711   0.773   0.252   2.301
 3938SOL     OW12712   0.165   2.619   4.170
 3938SOL    HW112713   0.206   2.695   4.220
 3938SOL    HW212714   0.209   2.611   4.080
 3939SOL     OW12715   2.997   1.371   2.875
 3939SOL    HW112716   3.063   1.432   2.830
 3939SOL    HW212717   3.040   1.330   2.955
 3940SOL     OW12718   4.030   4.779   2.246
 3940SOL    HW112719   3.973   4.856   2.275
 3940SOL    HW212720   4.079   4.742   2.325
 3941SOL     OW12721   5.820   1.282   5.662
 3941SOL    HW112722   5.868   1.354   5.713
 3941SOL    HW212723   5.724   1.308   5.651
 3942SOL     OW12724   0.798   6.555   5.461
 3942SOL    HW112725   0.716   6.504   5.487
 3942SOL    HW212726   0.776   6.621   5.389
 3943SOL     OW12727   0.921   3.491   2.895
 3943SOL    HW112728   0.857   3.546   2.947
 3943SOL    HW212729   1.007   3.540   2.885
 3944SOL     OW12730   5.643   4.009   5.318
 3944SOL    HW112731   5.721   4.027   5.379
 3944SOL    HW212732   5.639   3.912   5.297
 3945SOL     OW12733   1.166   2.641   2.320
 3945SOL    HW112734   1.239   2.657   2.387
 3945SOL    HW212735   1.179   2.551   2.278
 3946SOL     OW12736   6.492   4.492   5.982
 3946SOL    HW112737   6.540   4.452   5.904
 3946SOL    HW212738   6.439   4.571   5.952
 3947SOL     OW12739   5.955   5.568   2.035
 3947SOL    HW112740   5.890   5.640   2.060
 3947SOL    HW212741   5.937   5.486   2.090
 3948SOL     OW12742   1.000   4.932   0.676
 3948SOL    HW112743   0.934   4.960   0.606
 3948SOL    HW212744   1.023   5.010   0.734
 3949SOL     OW12745   5.643   0.413   2.888
 3949SOL    HW112746   5.678   0.424   2.981
 3949SOL    HW212747   5.663   0.496   2.835
 3950SOL     OW12748   3.236   3.921   1.633
 3950SOL    HW112749   3.276   3.982   1.701
 3950SOL    HW212750   3.205   3.974   1.554
 3951SOL     OW12751   6.988   6.736   6.843
 3951SOL    HW112752   6.968   6.828   6.876
 3951SOL    HW212753   7.002   6.738   6.744
 3952SOL     OW12754   6.594   3.954   4.338
 3952SOL    HW112755   6.545   3.919   4.258
 3952SOL    HW212756   6.630   3.878   4.392
 3953SOL     OW12757   3.184   4.295   0.415
 3953SOL    HW112758   3.231   4.381   0.393
 3953SOL    HW212759   3.169   4.291   0.514
 3954SOL     OW12760   5.720   5.730   5.849
 3954SOL    HW112761   5.655   5.655   5.865
 3954SOL    HW212762   5.813   5.696   5.863
 3955SOL     OW12763   4.049   6.601   0.093
 3955SOL    HW112764   4.009   6.572   0.006
 3955SOL    HW212765   4.149   6.597   0.086
 3956SOL     OW12766   0.662   2.011   3.564
 3956SOL    HW112767   0.616   2.040   3.480
 3956SOL    HW212768   0.753   2.054   3.569
 3957SOL     OW12769   4.631   6.525   3.599
 3957SOL    HW112770   4.694   6.495   3.670
 3957SOL    HW212771   4.539   6.492   3.619
 3958SOL     OW12772   5.522   0.509   6.475
 3958SOL    HW112773   5.561   0.438   6.416
 3958SOL    HW212774   5.586   0.585   6.483
 3959SOL     OW12775   3.738   6.453   0.811
 3959SOL    HW112776   3.689   6.378   0.768
 3959SOL    HW212777   3.766   6.427   0.904
 3960SOL     OW12778   5.267   1.896   6.083
 3960SOL    HW112779   5.346   1.915   6.025
 3960SOL    HW212780   5.255   1.971   6.148
 3961SOL     OW12781   5.491   2.652   2.084
 3961SOL    HW112782   5.536   2.665   2.172
 3961SOL    HW212783   5.409   2.596   2.096
 3962SOL     OW12784   1.770   5.283   6.864
 3962SOL    HW112785   1.814   5.205   6.820
 3962SOL    HW212786   1.703   5.323   6.801
 3963SOL     OW12787   4.405   4.559   3.900
 3963SOL    HW112788   4.363   4.608   3.976
 3963SOL    HW212789   4.337   4.540   3.830
 3964SOL     OW12790   4.485   4.990   4.278
 3964SOL    HW112791   4.518   5.057   4.345
 3964SOL    HW212792   4.412   4.935   4.318
 3965SOL     OW12793   4.085   3.285   6.182
 3965SOL    HW112794   4.037   3.211   6.134
 3965SOL    HW212795   4.174   3.301   6.139
 3966SOL     OW12796   6.191   5.461   0.456
 3966SOL    HW112797   6.150   5.395   0.519
 3966SOL    HW212798   6.276   5.497   0.495
 3967SOL     OW12799   1.401   4.223   2.742
 3967SOL    HW112800   1.318   4.185   2.701
 3967SOL    HW212801   1.384   4.317   2.771
 3968SOL     OW12802   0.058   0.349   1.032
 3968SOL    HW112803   7.010   0.417   1.036
 3968SOL    HW212804   0.103   0.354   0.943
 3969SOL     OW12805   1.121   3.699   2.860
 3969SOL    HW112806   1.046   3.763   2.839
 3969SOL    HW212807   1.170   3.677   2.776
 3970SOL     OW12808   4.717   5.277   4.136
 3970SOL    HW112809   4.692   5.355   4.078
 3970SOL    HW212810   4.672   5.194   4.101
 3971SOL     OW12811   2.336   4.592   2.316
 3971SOL    HW112812   2.384   4.589   2.404
 3971SOL    HW212813   2.244   4.628   2.330
 3972SOL     OW12814   1.652   5.186   1.063
 3972SOL    HW112815   1.615   5.270   1.102
 3972SOL    HW212816   1.576   5.132   1.025
 3973SOL     OW12817   1.919   4.345   5.317
 3973SOL    HW112818   1.861   4.283   5.369
 3973SOL    HW212819   1.887   4.350   5.222
 3974SOL     OW12820   1.075   0.257   5.088
 3974SOL    HW112821   1.170   0.259   5.057
 3974SOL    HW212822   1.031   0.343   5.064
 3975SOL     OW12823   5.255   0.420   6.331
 3975SOL    HW112824   5.206   0.424   6.417
 3975SOL    HW212825   5.348   0.456   6.343
 3976SOL     OW12826   1.570   5.098   1.873
 3976SOL    HW112827   1.620   5.172   1.917
 3976SOL    HW212828   1.516   5.135   1.796
 3977SOL     OW12829   3.026   4.613   5.427
 3977SOL    HW112830   2.962   4.579   5.358
 3977SOL    HW212831   3.082   4.537   5.461
 3978SOL     OW12832   5.233   0.213   4.704
 3978SOL    HW112833   5.293   0.182   4.630
 3978SOL    HW212834   5.235   0.147   4.779
 3979SOL     OW12835   2.376   5.803   1.667
 3979SOL    HW112836   2.397   5.705   1.661
 3979SOL    HW212837   2.306   5.826   1.599
 3980SOL     OW12838   0.386   4.408   6.845
 3980SOL    HW112839   0.361   4.479   6.911
 3980SOL    HW212840   0.485   4.393   6.849
 3981SOL     OW12841   1.819   1.226   6.186
 3981SOL    HW112842   1.774   1.228   6.096
 3981SOL    HW212843   1.918   1.222   6.173
 3982SOL     OW12844   1.779   0.973   4.373
 3982SOL    HW112845   1.828   0.918   4.441
 3982SOL    HW212846   1.691   1.002   4.411
 3983SOL     OW12847   3.968   5.362   4.031
 3983SOL    HW112848   4.048   5.421   4.043
 3983SOL    HW212849   3.885   5.415   4.047
 3984SOL     OW12850   1.754   0.973   2.770
 3984SOL    HW112851   1.779   1.028   2.690
 3984SOL    HW212852   1.654   0.966   2.776
 3985SOL     OW12853   3.406   4.691   6.717
 3985SOL    HW112854   3.447   4.633   6.648
 3985SOL    HW212855   3.402   4.642   6.804
 3986SOL     OW12856   0.027   2.244   2.286
 3986SOL    HW112857   0.100   2.238   2.354
 3986SOL    HW212858   0.008   2.341   2.267
 3987SOL     OW12859   2.890   5.623   4.569
 3987SOL    HW112860   2.865   5.527   4.584
 3987SOL    HW212861   2.843   5.680   4.636
 3988SOL     OW12862   3.395   3.132   6.893
 3988SOL    HW112863   3.462   3.173   6.955
 3988SOL    HW212864   3.439   3.111   6.805
 3989SOL     OW12865   6.666   1.220   0.404
 3989SOL    HW112866   6.636   1.300   0.456
 3989SOL    HW212867   6.757   1.237   0.367
 3990SOL     OW12868   5.727   2.312   3.383
 3990SOL    HW112869   5.821   2.310   3.349
 3990SOL    HW212870   5.664   2.326   3.307
 3991SOL     OW12871   5.937   1.706   2.191
 3991SOL    HW112872   5.863   1.718   2.124
 3991SOL    HW212873   5.997   1.786   2.189
 3992SOL     OW12874   3.956   2.505   6.870
 3992SOL    HW112875   3.869   2.545   6.840
 3992SOL    HW212876   4.021   2.579   6.890
 3993SOL     OW12877   0.573   2.200   2.900
 3993SOL    HW112878   0.641   2.209   2.972
 3993SOL    HW212879   0.503   2.134   2.927
 3994SOL     OW12880   0.914   2.357   5.993
 3994SOL    HW112881   0.996   2.374   6.048
 3994SOL    HW212882   0.908   2.259   5.974
 3995SOL     OW12883   1.944   3.775   4.234
 3995SOL    HW112884   1.966   3.821   4.320
 3995SOL    HW212885   1.953   3.840   4.158
 3996SOL     OW12886   0.833   1.221   4.410
 3996SOL    HW112887   0.784   1.186   4.330
 3996SOL    HW212888   0.841   1.148   4.478
 3997SOL     OW12889   4.736   2.686   3.111
 3997SOL    HW112890   4.836   2.683   3.103
 3997SOL    HW212891   4.694   2.654   3.026
 3998SOL     OW12892   4.612   1.023   2.698
 3998SOL    HW112893   4.666   0.951   2.742
 3998SOL    HW212894   4.515   1.010   2.718
 3999SOL     OW12895   5.435   3.196   3.838
 3999SOL    HW112896   5.460   3.147   3.921
 3999SOL    HW212897   5.516   3.211   3.782
 4000SOL     OW12898   2.918   5.112   3.163
 4000SOL    HW112899   2.925   5.026   3.214
 4000SOL    HW212900   2.965   5.184   3.214
 4001SOL     OW12901   2.072   1.751   3.880
 4001SOL    HW112902   2.124   1.777   3.799
 4001SOL    HW212903   2.134   1.737   3.957
 4002SOL     OW12904   2.596   2.881   0.299
 4002SOL    HW112905   2.627   2.936   0.221
 4002SOL    HW212906   2.623   2.786   0.285
 4003SOL     OW12907   2.465   6.524   5.307
 4003SOL    HW112908   2.447   6.445   5.249
 4003SOL    HW212909   2.390   6.589   5.299
 4004SOL     OW12910   6.308   1.966   3.576
 4004SOL    HW112911   6.342   2.061   3.573
 4004SOL    HW212912   6.220   1.961   3.530
 4005SOL     OW12913   5.432   5.366   1.145
 4005SOL    HW112914   5.513   5.320   1.181
 4005SOL    HW212915   5.370   5.389   1.220
 4006SOL     OW12916   3.845   4.925   2.394
 4006SOL    HW112917   3.846   4.873   2.479
 4006SOL    HW212918   3.757   4.911   2.348
 4007SOL     OW12919   0.662   3.361   1.359
 4007SOL    HW112920   0.753   3.331   1.387
 4007SOL    HW212921   0.669   3.425   1.283
 4008SOL     OW12922   3.696   2.156   4.220
 4008SOL    HW112923   3.790   2.131   4.196
 4008SOL    HW212924   3.691   2.254   4.238
 4009SOL     OW12925   5.319   2.653   0.174
 4009SOL    HW112926   5.355   2.560   0.178
 4009SOL    HW212927   5.220   2.651   0.184
 4010SOL     OW12928   2.152   3.350   0.909
 4010SOL    HW112929   2.087   3.386   0.842
 4010SOL    HW212930   2.181   3.423   0.971
 4011SOL     OW12931   0.778   0.770   1.494
 4011SOL    HW112932   0.698   0.758   1.554
 4011SOL    HW212933   0.757   0.837   1.424
 4012SOL     OW12934   4.239   4.812   2.067
 4012SOL    HW112935   4.271   4.723   2.034
 4012SOL    HW212936   4.156   4.799   2.122
 4013SOL     OW12937   2.701   0.461   0.919
 4013SOL    HW112938   2.636   0.516   0.972
 4013SOL    HW212939   2.727   0.510   0.837
 4014SOL     OW12940   4.364   6.250   3.013
 4014SOL    HW112941   4.265   6.238   3.008
 4014SOL    HW212942   4.405   6.226   2.926
 4015SOL     OW12943   4.453   5.742   6.497
 4015SOL    HW112944   4.356   5.736   6.475
 4015SOL    HW212945   4.487   5.651   6.522
 4016SOL     OW12946   1.549   5.767   6.397
 4016SOL    HW112947   1.599   5.812   6.322
 4016SOL    HW212948   1.478   5.709   6.358
 4017SOL     OW12949   7.016   6.491   0.144
 4017SOL    HW112950   0.001   6.515   0.241
 4017SOL    HW212951   0.074   6.518   0.095
 4018SOL     OW12952   5.610   6.698   2.157
 4018SOL    HW112953   5.612   6.771   2.089
 4018SOL    HW212954   5.569   6.733   2.242
 4019SOL     OW12955   5.776   3.428   3.047
 4019SOL    HW112956   5.841   3.363   3.007
 4019SOL    HW212957   5.793   3.436   3.145
 4020SOL     OW12958   5.768   2.613   5.470
 4020SOL    HW112959   5.834   2.547   5.434
 4020SOL    HW212960   5.817   2.684   5.521
 4021SOL     OW12961   2.937   3.336   5.684
 4021SOL    HW112962   2.922   3.303   5.777
 4021SOL    HW212963   2.926   3.261   5.619
 4022SOL     OW12964   4.296   0.546   0.104
 4022SOL    HW112965   4.210   0.521   0.149
 4022SOL    HW212966   4.282   0.552   0.005
 4023SOL     OW12967   6.453   1.645   4.982
 4023SOL    HW112968   6.395   1.564   4.973
 4023SOL    HW212969   6.543   1.625   4.943
 4024SOL     OW12970   3.014   5.109   4.260
 4024SOL    HW112971   2.951   5.124   4.183
 4024SOL    HW212972   3.044   5.014   4.260
 4025SOL     OW12973   0.817   6.300   4.791
 4025SOL    HW112974   0.804   6.222   4.853
 4025SOL    HW212975   0.890   6.359   4.827
 4026SOL     OW12976   6.305   6.198   4.064
 4026SOL    HW112977   6.371   6.237   4.128
 4026SOL    HW212978   6.217   6.188   4.109
 4027SOL     OW12979   3.341   4.047   2.349
 4027SOL    HW112980   3.333   4.084   2.441
 4027SOL    HW212981   3.437   4.024   2.331
 4028SOL     OW12982   1.827   2.195   3.636
 4028SOL    HW112983   1.729   2.184   3.619
 4028SOL    HW212984   1.851   2.292   3.633
 4029SOL     OW12985   2.488   4.433   6.001
 4029SOL    HW112986   2.565   4.480   5.959
 4029SOL    HW212987   2.422   4.500   6.036
 4030SOL     OW12988   1.595   1.804   6.825
 4030SOL    HW112989   1.498   1.797   6.799
 4030SOL    HW212990   1.602   1.855   6.911
 4031SOL     OW12991   4.800   6.016   2.958
 4031SOL    HW112992   4.867   5.987   3.026
 4031SOL    HW212993   4.796   6.116   2.956
 4032SOL     OW12994   5.952   0.221   3.038
 4032SOL    HW112995   6.013   0.292   3.003
 4032SOL    HW212996   5.961   0.138   2.983
 4033SOL     OW12997   2.928   3.416   2.743
 4033SOL    HW112998   2.941   3.350   2.817
 4033SOL    HW212999   3.004   3.409   2.678
 4034SOL     OW13000   6.066   1.768   4.809
 4034SOL    HW113001   6.096   1.808   4.722
 4034SOL    HW213002   6.136   1.783   4.878
 4035SOL     OW13003   0.274   2.553   0.768
 4035SOL    HW113004   0.277   2.535   0.866
 4035SOL    HW213005   0.201   2.500   0.726
 4036SOL     OW13006   5.281   6.884   2.618
 4036SOL    HW113007   5.196   6.867   2.669
 4036SOL    HW213008   5.271   6.969   2.567
 4037SOL     OW13009   1.715   2.639   0.514
 4037SOL    HW113010   1.754   2.728   0.493
 4037SOL    HW213011   1.707   2.585   0.430
 4038SOL     OW13012   4.576   4.707   2.128
 4038SOL    HW113013   4.514   4.634   2.158
 4038SOL    HW213014   4.559   4.727   2.031
 4039SOL     OW13015   4.759   4.769   1.833
 4039SOL    HW113016   4.761   4.688   1.892
 4039SOL    HW213017   4.731   4.849   1.888
 4040SOL     OW13018   3.373   6.948   5.927
 4040SOL    HW113019   3.455   6.899   5.956
 4040SOL    HW213020   3.399   0.012   5.888
 4041SOL     OW13021   2.264   5.636   1.384
 4041SOL    HW113022   2.211   5.721   1.382
 4041SOL    HW213023   2.333   5.637   1.311
 4042SOL     OW13024   6.216   4.963   2.927
 4042SOL    HW113025   6.147   4.913   2.875
 4042SOL    HW213026   6.230   5.053   2.886
 4043SOL     OW13027   5.091   2.481   4.312
 4043SOL    HW113028   5.147   2.564   4.319
 4043SOL    HW213029   5.068   2.448   4.403
 4044SOL     OW13030   4.915   0.685   4.325
 4044SOL    HW113031   4.959   0.730   4.403
 4044SOL    HW213032   4.902   0.588   4.345
 4045SOL     OW13033   2.633   4.229   6.144
 4045SOL    HW113034   2.547   4.277   6.125
 4045SOL    HW213035   2.633   4.140   6.099
 4046SOL     OW13036   0.991   1.050   3.604
 4046SOL    HW113037   0.893   1.051   3.623
 4046SOL    HW213038   1.008   1.092   3.515
 4047SOL     OW13039   2.763   2.659   1.044
 4047SOL    HW113040   2.721   2.741   1.081
 4047SOL    HW213041   2.723   2.578   1.088
 4048SOL     OW13042   5.274   1.867   1.970
 4048SOL    HW113043   5.373   1.867   1.951
 4048SOL    HW213044   5.260   1.871   2.069
 4049SOL     OW13045   6.403   5.793   0.424
 4049SOL    HW113046   6.391   5.840   0.336
 4049SOL    HW213047   6.494   5.813   0.460
 4050SOL     OW13048   2.124   6.492   0.435
 4050SOL    HW113049   2.149   6.400   0.404
 4050SOL    HW213050   2.072   6.538   0.362
 4051SOL     OW13051   3.782   2.837   0.338
 4051SOL    HW113052   3.769   2.868   0.244
 4051SOL    HW213053   3.693   2.814   0.378
 4052SOL     OW13054   0.409   0.477   1.600
 4052SOL    HW113055   0.429   0.379   1.602
 4052SOL    HW213056   0.342   0.499   1.671
 4053SOL     OW13057   3.205   5.276   3.907
 4053SOL    HW113058   3.263   5.271   3.988
 4053SOL    HW213059   3.118   5.231   3.925
 4054SOL     OW13060   1.176   2.896   1.259
 4054SOL    HW113061   1.084   2.910   1.296
 4054SOL    HW213062   1.243   2.943   1.316
 4055SOL     OW13063   3.453   3.695   5.837
 4055SOL    HW113064   3.397   3.700   5.755
 4055SOL    HW213065   3.549   3.709   5.813
 4056SOL     OW13066   4.443   2.691   0.300
 4056SOL    HW113067   4.448   2.791   0.307
 4056SOL    HW213068   4.440   2.665   0.203
 4057SOL     OW13069   5.650   2.613   0.034
 4057SOL    HW113070   5.608   2.533   0.076
 4057SOL    HW213071   5.749   2.611   0.050
 4058SOL     OW13072   1.630   1.315   4.383
 4058SOL    HW113073   1.577   1.234   4.358
 4058SOL    HW213074   1.690   1.340   4.307
 4059SOL     OW13075   1.680   2.372   3.262
 4059SOL    HW113076   1.757   2.412   3.313
 4059SOL    HW213077   1.694   2.274   3.251
 4060SOL     OW13078   4.656   5.342   5.399
 4060SOL    HW113079   4.570   5.363   5.353
 4060SOL    HW213080   4.639   5.281   5.476
 4061SOL     OW13081   3.375   4.852   1.866
 4061SOL    HW113082   3.416   4.938   1.835
 4061SOL    HW213083   3.441   4.778   1.858
 4062SOL     OW13084   3.045   1.141   3.085
 4062SOL    HW113085   3.030   1.079   3.007
 4062SOL    HW213086   3.090   1.091   3.159
 4063SOL     OW13087   5.062   0.323   5.165
 4063SOL    HW113088   4.982   0.297   5.110
 4063SOL    HW213089   5.032   0.378   5.243
 4064SOL     OW13090   1.561   0.160   3.548
 4064SOL    HW113091   1.545   0.118   3.459
 4064SOL    HW213092   1.475   0.196   3.584
 4065SOL     OW13093   1.177   6.914   0.185
 4065SOL    HW113094   1.200   6.867   0.270
 4065SOL    HW213095   1.240   6.991   0.172
 4066SOL     OW13096   5.236   5.089   2.763
 4066SOL    HW113097   5.299   5.039   2.822
 4066SOL    HW213098   5.252   5.187   2.773
 4067SOL     OW13099   6.064   3.425   2.268
 4067SOL    HW113100   6.152   3.469   2.250
 4067SOL    HW213101   5.992   3.495   2.271
 4068SOL     OW13102   3.984   0.192   4.383
 4068SOL    HW113103   4.069   0.223   4.341
 4068SOL    HW213104   3.981   0.222   4.479
 4069SOL     OW13105   4.325   3.921   6.850
 4069SOL    HW113106   4.347   3.962   6.762
 4069SOL    HW213107   4.372   3.833   6.858
 4070SOL     OW13108   1.298   3.297   3.118
 4070SOL    HW113109   1.254   3.380   3.153
 4070SOL    HW213110   1.398   3.306   3.127
 4071SOL     OW13111   1.362   0.848   5.016
 4071SOL    HW113112   1.401   0.910   5.085
 4071SOL    HW213113   1.286   0.894   4.970
 4072SOL     OW13114   0.566   6.599   4.116
 4072SOL    HW113115   0.559   6.608   4.017
 4072SOL    HW213116   0.560   6.503   4.143
 4073SOL     OW13117   2.188   5.317   5.533
 4073SOL    HW113118   2.204   5.229   5.488
 4073SOL    HW213119   2.232   5.316   5.623
 4074SOL     OW13120   1.051   2.159   2.208
 4074SOL    HW113121   1.121   2.230   2.202
 4074SOL    HW213122   1.039   2.131   2.303
 4075SOL     OW13123   4.714   2.650   2.491
 4075SOL    HW113124   4.708   2.749   2.503
 4075SOL    HW213125   4.809   2.621   2.492
 4076SOL     OW13126   2.110   3.904   5.966
 4076SOL    HW113127   2.054   3.958   6.029
 4076SOL    HW213128   2.190   3.956   5.938
 4077SOL     OW13129   3.057   6.581   0.070
 4077SOL    HW113130   3.142   6.530   0.065
 4077SOL    HW213131   2.986   6.524   0.112
 4078SOL     OW13132   6.675   5.565   1.709
 4078SOL    HW113133   6.773   5.544   1.715
 4078SOL    HW213134   6.633   5.547   1.798
 4079SOL     OW13135   1.171   1.454   3.494
 4079SOL    HW113136   1.186   1.480   3.589
 4079SOL    HW213137   1.255   1.415   3.456
 4080SOL     OW13138   2.712   3.702   0.601
 4080SOL    HW113139   2.637   3.699   0.667
 4080SOL    HW213140   2.765   3.618   0.607
 4081SOL     OW13141   1.661   1.024   3.891
 4081SOL    HW113142   1.625   1.117   3.886
 4081SOL    HW213143   1.610   0.965   3.828
 4082SOL     OW13144   1.612   1.652   0.727
 4082SOL    HW113145   1.688   1.626   0.786
 4082SOL    HW213146   1.604   1.752   0.725
 4083SOL     OW13147   5.989   4.338   3.641
 4083SOL    HW113148   5.897   4.329   3.678
 4083SOL    HW213149   5.998   4.279   3.560
 4084SOL     OW13150   5.036   2.788   3.151
 4084SOL    HW113151   5.060   2.780   3.248
 4084SOL    HW213152   4.979   2.870   3.138
 4085SOL     OW13153   2.722   5.207   0.468
 4085SOL    HW113154   2.628   5.210   0.432
 4085SOL    HW213155   2.749   5.113   0.484
 4086SOL     OW13156   0.044   4.791   0.874
 4086SOL    HW113157   0.035   4.860   0.946
 4086SOL    HW213158   0.025   4.833   0.785
 4087SOL     OW13159   2.378   0.737   3.100
 4087SOL    HW113160   2.371   0.642   3.132
 4087SOL    HW213161   2.314   0.751   3.025
 4088SOL     OW13162   6.568   1.268   5.570
 4088SOL    HW113163   6.620   1.319   5.501
 4088SOL    HW213164   6.615   1.183   5.593
 4089SOL     OW13165   6.284   5.628   4.764
 4089SOL    HW113166   6.381   5.634   4.740
 4089SOL    HW213167   6.270   5.556   4.832
 4090SOL     OW13168   1.937   5.582   5.022
 4090SOL    HW113169   1.871   5.642   5.066
 4090SOL    HW213170   2.024   5.587   5.071
 4091SOL     OW13171   0.433   5.629   6.936
 4091SOL    HW113172   0.344   5.585   6.940
 4091SOL    HW213173   0.430   5.716   6.985
 4092SOL     OW13174   5.942   2.155   3.685
 4092SOL    HW113175   5.938   2.057   3.663
 4092SOL    HW213176   5.867   2.177   3.749
 4093SOL     OW13177   5.405   6.609   1.203
 4093SOL    HW113178   5.387   6.515   1.231
 4093SOL    HW213179   5.328   6.667   1.229
 4094SOL     OW13180   0.945   4.945   6.309
 4094SOL    HW113181   0.948   4.848   6.287
 4094SOL    HW213182   0.850   4.975   6.315
 4095SOL     OW13183   0.874   3.602   0.359
 4095SOL    HW113184   0.822   3.639   0.282
 4095SOL    HW213185   0.892   3.674   0.426
 4096SOL     OW13186   3.011   0.957   6.265
 4096SOL    HW113187   3.004   0.917   6.174
 4096SOL    HW213188   3.062   0.896   6.326
 4097SOL     OW13189   5.546   5.253   5.759
 4097SOL    HW113190   5.632   5.201   5.758
 4097SOL    HW213191   5.470   5.192   5.736
 4098SOL     OW13192   1.252   3.427   1.077
 4098SOL    HW113193   1.247   3.417   0.978
 4098SOL    HW213194   1.160   3.440   1.113
 4099SOL     OW13195   3.148   5.054   0.723
 4099SOL    HW113196   3.125   4.968   0.769
 4099SOL    HW213197   3.187   5.118   0.790
 4100SOL     OW13198   1.240   0.593   4.355
 4100SOL    HW113199   1.326   0.552   4.386
 4100SOL    HW213200   1.260   0.672   4.297
 4101SOL     OW13201   0.588   1.475   6.754
 4101SOL    HW113202   0.499   1.438   6.728
 4101SOL    HW213203   0.645   1.486   6.672
 4102SOL     OW13204   1.769   0.555   0.604
 4102SOL    HW113205   1.830   0.610   0.660
 4102SOL    HW213206   1.685   0.607   0.586
 4103SOL     OW13207   0.199   6.817   2.054
 4103SOL    HW113208   0.284   6.853   2.092
 4103SOL    HW213209   0.191   6.845   1.958
 4104SOL     OW13210   0.472   5.301   3.640
 4104SOL    HW113211   0.421   5.280   3.556
 4104SOL    HW213212   0.565   5.329   3.617
 4105SOL     OW13213   6.083   0.698   2.391
 4105SOL    HW113214   6.175   0.736   2.403
 4105SOL    HW213215   6.046   0.671   2.480
 4106SOL     OW13216   0.841   2.256   3.490
 4106SOL    HW113217   0.761   2.305   3.456
 4106SOL    HW213218   0.921   2.278   3.434
 4107SOL     OW13219   0.987   6.073   0.396
 4107SOL    HW113220   1.024   6.166   0.400
 4107SOL    HW213221   0.916   6.069   0.326
 4108SOL     OW13222   6.597   5.050   4.729
 4108SOL    HW113223   6.635   5.021   4.818
 4108SOL    HW213224   6.530   5.122   4.744
 4109SOL     OW13225   5.823   6.956   4.610
 4109SOL    HW113226   5.841   7.004   4.524
 4109SOL    HW213227   5.859   6.863   4.603
 4110SOL     OW13228   3.776   3.005   6.206
 4110SOL    HW113229   3.732   3.094   6.197
 4110SOL    HW213230   3.865   3.007   6.161
 4111SOL     OW13231   6.105   4.958   6.292
 4111SOL    HW113232   6.018   5.004   6.275
 4111SOL    HW213233   6.178   5.005   6.242
 4112SOL     OW13234   4.514   6.690   4.377
 4112SOL    HW113235   4.602   6.659   4.412
 4112SOL    HW213236   4.448   6.695   4.452
 4113SOL     OW13237   4.826   6.029   5.097
 4113SOL    HW113238   4.890   6.056   5.025
 4113SOL    HW213239   4.797   5.934   5.082
 4114SOL     OW13240   6.882   1.512   3.011
 4114SOL    HW113241   6.951   1.448   3.043
 4114SOL    HW213242   6.905   1.544   2.919
 4115SOL     OW13243   2.874   5.075   3.688
 4115SOL    HW113244   2.889   4.992   3.634
 4115SOL    HW213245   2.777   5.084   3.708
 4116SOL     OW13246   4.455   1.867   3.395
 4116SOL    HW113247   4.426   1.783   3.350
 4116SOL    HW213248   4.441   1.945   3.333
 4117SOL     OW13249   1.132   2.561   3.401
 4117SOL    HW113250   1.183   2.571   3.487
 4117SOL    HW213251   1.076   2.643   3.387
 4118SOL     OW13252   5.359   6.826   6.923
 4118SOL    HW113253   5.313   6.748   6.881
 4118SOL    HW213254   5.455   6.802   6.941
 4119SOL     OW13255   2.976   1.505   3.846
 4119SOL    HW113256   2.963   1.411   3.876
 4119SOL    HW213257   3.025   1.556   3.917
 4120SOL     OW13258   3.318   1.355   5.840
 4120SOL    HW113259   3.324   1.374   5.742
 4120SOL    HW213260   3.251   1.282   5.856
 4121SOL     OW13261   6.212   0.316   3.325
 4121SOL    HW113262   6.263   0.330   3.240
 4121SOL    HW213263   6.120   0.352   3.315
 4122SOL     OW13264   1.651   6.537   4.571
 4122SOL    HW113265   1.691   6.627   4.588
 4122SOL    HW213266   1.716   6.466   4.597
 4123SOL     OW13267   4.139   4.804   5.016
 4123SOL    HW113268   4.142   4.743   4.937
 4123SOL    HW213269   4.044   4.821   5.041
 4124SOL     OW13270   6.772   6.800   1.142
 4124SOL    HW113271   6.745   6.765   1.052
 4124SOL    HW213272   6.866   6.773   1.161
 4125SOL     OW13273   4.306   1.998   2.734
 4125SOL    HW113274   4.250   2.080   2.726
 4125SOL    HW213275   4.261   1.932   2.793
 4126SOL     OW13276   1.735   3.550   3.313
 4126SOL    HW113277   1.791   3.622   3.353
 4126SOL    HW213278   1.671   3.590   3.247
 4127SOL     OW13279   5.324   3.333   5.664
 4127SOL    HW113280   5.337   3.341   5.763
 4127SOL    HW213281   5.365   3.412   5.618
 4128SOL     OW13282   0.586   3.631   1.692
 4128SOL    HW113283   0.656   3.658   1.758
 4128SOL    HW213284   0.613   3.661   1.601
 4129SOL     OW13285   3.115   1.304   6.986
 4129SOL    HW113286   3.110   1.403   6.998
 4129SOL    HW213287   3.034   1.272   6.937
 4130SOL     OW13288   6.233   2.203   0.322
 4130SOL    HW113289   6.226   2.238   0.416
 4130SOL    HW213290   6.301   2.257   0.272
 4131SOL     OW13291   0.381   1.371   3.112
 4131SOL    HW113292   0.440   1.313   3.056
 4131SOL    HW213293   0.326   1.313   3.173
 4132SOL     OW13294   5.252   3.640   4.358
 4132SOL    HW113295   5.248   3.541   4.346
 4132SOL    HW213296   5.299   3.661   4.444
 4133SOL     OW13297   4.027   5.665   1.625
 4133SOL    HW113298   4.010   5.572   1.593
 4133SOL    HW213299   4.014   5.729   1.549
 4134SOL     OW13300   2.226   4.022   0.968
 4134SOL    HW113301   2.153   3.985   1.024
 4134SOL    HW213302   2.199   4.021   0.872
 4135SOL     OW13303   0.369   2.803   1.609
 4135SOL    HW113304   0.384   2.895   1.646
 4135SOL    HW213305   0.305   2.753   1.669
 4136SOL     OW13306   1.374   4.021   2.992
 4136SOL    HW113307   1.471   4.010   2.970
 4136SOL    HW213308   1.337   4.099   2.942
 4137SOL     OW13309   1.994   3.411   0.686
 4137SOL    HW113310   1.921   3.356   0.645
 4137SOL    HW213311   2.036   3.469   0.617
 4138SOL     OW13312   3.395   5.402   2.641
 4138SOL    HW113313   3.401   5.303   2.630
 4138SOL    HW213314   3.322   5.437   2.582
 4139SOL     OW13315   1.688   1.624   4.446
 4139SOL    HW113316   1.626   1.545   4.451
 4139SOL    HW213317   1.729   1.640   4.535
 4140SOL     OW13318   3.590   1.278   4.631
 4140SOL    HW113319   3.531   1.202   4.602
 4140SOL    HW213320   3.582   1.291   4.729
 4141SOL     OW13321   5.629   6.983   1.005
 4141SOL    HW113322   5.660   7.022   0.918
 4141SOL    HW213323   5.596   6.889   0.989
 4142SOL     OW13324   6.402   3.764   1.422
 4142SOL    HW113325   6.327   3.700   1.444
 4142SOL    HW213326   6.366   3.839   1.367
 4143SOL     OW13327   5.938   2.839   0.166
 4143SOL    HW113328   5.934   2.749   0.121
 4143SOL    HW213329   5.927   2.827   0.264
 4144SOL     OW13330   4.836   1.376   0.134
 4144SOL    HW113331   4.838   1.442   0.209
 4144SOL    HW213332   4.907   1.308   0.146
 4145SOL     OW13333   1.196   6.196   0.672
 4145SOL    HW113334   1.236   6.265   0.611
 4145SOL    HW213335   1.260   6.178   0.747
 4146SOL     OW13336   6.583   0.411   3.348
 4146SOL    HW113337   6.542   0.404   3.439
 4146SOL    HW213338   6.517   0.453   3.286
 4147SOL     OW13339   4.195   4.635   6.052
 4147SOL    HW113340   4.192   4.700   6.128
 4147SOL    HW213341   4.288   4.599   6.042
 4148SOL     OW13342   2.620   0.212   5.362
 4148SOL    HW113343   2.672   0.126   5.369
 4148SOL    HW213344   2.575   0.231   5.449
 4149SOL     OW13345   0.325   4.268   1.082
 4149SOL    HW113346   0.362   4.285   0.991
 4149SOL    HW213347   0.251   4.201   1.077
 4150SOL     OW13348   0.282   0.783   5.430
 4150SOL    HW113349   0.338   0.721   5.485
 4150SOL    HW213350   0.288   0.757   5.334
 4151SOL     OW13351   2.966   5.962   5.949
 4151SOL    HW113352   3.023   5.922   6.021
 4151SOL    HW213353   2.908   5.890   5.910
 4152SOL     OW13354   3.992   5.495   0.653
 4152SOL    HW113355   3.997   5.509   0.554
 4152SOL    HW213356   4.045   5.565   0.700
 4153SOL     OW13357   5.859   5.369   1.811
 4153SOL    HW113358   5.860   5.296   1.879
 4153SOL    HW213359   5.765   5.387   1.783
 4154SOL     OW13360   6.968   6.084   4.445
 4154SOL    HW113361   0.027   6.030   4.457
 4154SOL    HW213362   6.892   6.038   4.491
 4155SOL     OW13363   0.368   0.874   0.845
 4155SOL    HW113364   0.348   0.917   0.757
 4155SOL    HW213365   0.356   0.940   0.918
 4156SOL     OW13366   5.844   5.245   5.290
 4156SOL    HW113367   5.833   5.175   5.361
 4156SOL    HW213368   5.929   5.228   5.240
 4157SOL     OW13369   5.099   5.999   3.348
 4157SOL    HW113370   5.067   6.023   3.257
 4157SOL    HW213371   5.149   6.077   3.387
 4158SOL     OW13372   0.415   2.748   2.352
 4158SOL    HW113373   0.319   2.766   2.372
 4158SOL    HW213374   0.468   2.748   2.437
 4159SOL     OW13375   1.602   3.004   3.280
 4159SOL    HW113376   1.608   2.920   3.226
 4159SOL    HW213377   1.694   3.039   3.298
 4160SOL     OW13378   5.509   0.078   0.046
 4160SOL    HW113379   5.432   0.053   0.105
 4160SOL    HW213380   5.576   0.004   0.045
 4161SOL     OW13381   1.412   2.248   0.976
 4161SOL    HW113382   1.512   2.257   0.984
 4161SOL    HW213383   1.367   2.323   1.024
 4162SOL     OW13384   5.967   5.940   0.998
 4162SOL    HW113385   6.030   5.862   1.001
 4162SOL    HW213386   5.897   5.924   0.928
 4163SOL     OW13387   5.424   1.145   3.430
 4163SOL    HW113388   5.372   1.063   3.407
 4163SOL    HW213389   5.522   1.124   3.424
 4164SOL     OW13390   1.384   0.257   4.556
 4164SOL    HW113391   1.449   0.188   4.527
 4164SOL    HW213392   1.330   0.222   4.633
 4165SOL     OW13393   4.563   1.043   5.325
 4165SOL    HW113394   4.645   1.094   5.350
 4165SOL    HW213395   4.581   0.988   5.244
 4166SOL     OW13396   5.031   1.058   0.985
 4166SOL    HW113397   5.020   1.113   1.068
 4166SOL    HW213398   5.054   1.118   0.908
 4167SOL     OW13399   3.097   4.668   6.637
 4167SOL    HW113400   3.135   4.577   6.650
 4167SOL    HW213401   3.168   4.737   6.654
 4168SOL     OW13402   0.382   4.165   0.659
 4168SOL    HW113403   0.285   4.190   0.655
 4168SOL    HW213404   0.416   4.148   0.567
 4169SOL     OW13405   6.188   5.050   4.607
 4169SOL    HW113406   6.186   5.107   4.690
 4169SOL    HW213407   6.119   4.979   4.614
 4170SOL     OW13408   4.922   3.024   5.661
 4170SOL    HW113409   5.017   3.054   5.655
 4170SOL    HW213410   4.905   2.984   5.751
 4171SOL     OW13411   6.688   5.406   0.547
 4171SOL    HW113412   6.638   5.330   0.588
 4171SOL    HW213413   6.644   5.492   0.570
 4172SOL     OW13414   1.831   1.995   0.195
 4172SOL    HW113415   1.835   1.908   0.244
 4172SOL    HW213416   1.896   1.993   0.119
 4173SOL     OW13417   5.335   3.684   4.621
 4173SOL    HW113418   5.251   3.728   4.653
 4173SOL    HW213419   5.364   3.616   4.688
 4174SOL     OW13420   4.429   1.739   2.461
 4174SOL    HW113421   4.428   1.645   2.428
 4174SOL    HW213422   4.400   1.801   2.387
 4175SOL     OW13423   1.835   4.657   4.204
 4175SOL    HW113424   1.909   4.673   4.269
 4175SOL    HW213425   1.752   4.631   4.254
 4176SOL     OW13426   4.268   6.490   1.531
 4176SOL    HW113427   4.208   6.410   1.528
 4176SOL    HW213428   4.219   6.568   1.569
 4177SOL     OW13429   5.655   4.985   5.652
 4177SOL    HW113430   5.611   4.923   5.717
 4177SOL    HW213431   5.619   4.967   5.560
 4178SOL     OW13432   4.160   0.103   3.994
 4178SOL    HW113433   4.067   0.068   4.007
 4178SOL    HW213434   4.170   0.136   3.901
 4179SOL     OW13435   5.432   3.645   3.326
 4179SOL    HW113436   5.485   3.650   3.242
 4179SOL    HW213437   5.461   3.565   3.379
 4180SOL     OW13438   4.716   2.690   0.600
 4180SOL    HW113439   4.761   2.635   0.531
 4180SOL    HW213440   4.716   2.786   0.571
 4181SOL     OW13441   4.002   1.009   6.667
 4181SOL    HW113442   3.949   1.076   6.720
 4181SOL    HW213443   4.024   1.047   6.578
 4182SOL     OW13444   0.158   5.874   3.485
 4182SOL    HW113445   0.146   5.804   3.556
 4182SOL    HW213446   0.068   5.907   3.457
 4183SOL     OW13447   2.192   1.783   0.226
 4183SOL    HW113448   2.235   1.825   0.146
 4183SOL    HW213449   2.099   1.821   0.236
 4184SOL     OW13450   2.851   6.557   2.660
 4184SOL    HW113451   2.865   6.595   2.569
 4184SOL    HW213452   2.884   6.463   2.663
 4185SOL     OW13453   0.734   4.478   2.991
 4185SOL    HW113454   0.742   4.387   2.950
 4185SOL    HW213455   0.802   4.488   3.064
 4186SOL     OW13456   2.427   5.031   6.320
 4186SOL    HW113457   2.470   5.082   6.394
 4186SOL    HW213458   2.495   4.970   6.279
 4187SOL     OW13459   3.124   3.172   5.489
 4187SOL    HW113460   3.029   3.150   5.514
 4187SOL    HW213461   3.175   3.088   5.474
 4188SOL     OW13462   5.073   0.712   5.164
 4188SOL    HW113463   4.994   0.697   5.223
 4188SOL    HW213464   5.157   0.688   5.213
 4189SOL     OW13465   3.106   5.202   4.517
 4189SOL    HW113466   3.039   5.236   4.584
 4189SOL    HW213467   3.059   5.179   4.432
 4190SOL     OW13468   0.716   0.206   1.079
 4190SOL    HW113469   0.734   0.135   1.011
 4190SOL    HW213470   0.779   0.283   1.065
 4191SOL     OW13471   4.665   4.614   3.715
 4191SOL    HW113472   4.637   4.534   3.662
 4191SOL    HW213473   4.584   4.658   3.753
 4192SOL     OW13474   0.540   1.882   3.278
 4192SOL    HW113475   0.566   1.787   3.296
 4192SOL    HW213476   0.442   1.893   3.295
 4193SOL     OW13477   6.814   0.431   0.793
 4193SOL    HW113478   6.794   0.334   0.805
 4193SOL    HW213479   6.861   0.466   0.874
 4194SOL     OW13480   4.596   0.473   4.781
 4194SOL    HW113481   4.680   0.520   4.755
 4194SOL    HW213482   4.584   0.391   4.725
 4195SOL     OW13483   3.957   6.110   1.209
 4195SOL    HW113484   4.048   6.068   1.217
 4195SOL    HW213485   3.965   6.208   1.226
 4196SOL     OW13486   6.311   2.990   2.856
 4196SOL    HW113487   6.322   2.892   2.869
 4196SOL    HW213488   6.361   3.040   2.927
 4197SOL     OW13489   5.194   5.840   6.187
 4197SOL    HW113490   5.203   5.849   6.088
 4197SOL    HW213491   5.210   5.928   6.231
 4198SOL     OW13492   6.239   1.772   0.642
 4198SOL    HW113493   6.180   1.850   0.663
 4198SOL    HW213494   6.312   1.766   0.710
 4199SOL     OW13495   1.635   2.474   6.344
 4199SOL    HW113496   1.681   2.500   6.259
 4199SOL    HW213497   1.678   2.521   6.421
 4200SOL     OW13498   2.930   6.922   6.205
 4200SOL    HW113499   3.002   6.906   6.137
 4200SOL    HW213500   2.966   6.979   6.279
 4201SOL     OW13501   5.850   6.727   3.494
 4201SOL    HW113502   5.937   6.679   3.488
 4201SOL    HW213503   5.839   6.786   3.414
 4202SOL     OW13504   3.574   5.798   5.857
 4202SOL    HW113505   3.583   5.706   5.894
 4202SOL    HW213506   3.481   5.831   5.873
 4203SOL     OW13507   4.070   4.228   0.017
 4203SOL    HW113508   4.090   4.324   7.021
 4203SOL    HW213509   4.011   4.190   6.970
 4204SOL     OW13510   4.134   3.606   3.824
 4204SOL    HW113511   4.179   3.529   3.780
 4204SOL    HW213512   4.128   3.683   3.761
 4205SOL     OW13513   4.528   6.419   3.930
 4205SOL    HW113514   4.626   6.406   3.912
 4205SOL    HW213515   4.515   6.453   4.023
 4206SOL     OW13516   6.275   0.581   5.326
 4206SOL    HW113517   6.360   0.538   5.296
 4206SOL    HW213518   6.283   0.608   5.423
 4207SOL     OW13519   1.932   2.007   1.810
 4207SOL    HW113520   1.968   1.965   1.727
 4207SOL    HW213521   2.000   1.999   1.883
 4208SOL     OW13522   0.267   3.664   5.213
 4208SOL    HW113523   0.339   3.640   5.148
 4208SOL    HW213524   0.218   3.745   5.181
 4209SOL     OW13525   6.955   0.153   3.715
 4209SOL    HW113526   7.010   0.080   3.757
 4209SOL    HW213527   6.906   0.116   3.636
 4210SOL     OW13528   4.097   3.861   2.019
 4210SOL    HW113529   4.090   3.875   1.920
 4210SOL    HW213530   4.091   3.950   2.065
 4211SOL     OW13531   3.996   0.034   6.465
 4211SOL    HW113532   4.017   7.002   6.545
 4211SOL    HW213533   4.066   0.019   6.395
 4212SOL     OW13534   6.521   2.106   2.546
 4212SOL    HW113535   6.463   2.053   2.607
 4212SOL    HW213536   6.564   2.045   2.479
 4213SOL     OW13537   1.948   0.477   1.913
 4213SOL    HW113538   1.884   0.451   1.985
 4213SOL    HW213539   1.909   0.553   1.860
 4214SOL     OW13540   0.875   5.661   5.051
 4214SOL    HW113541   0.811   5.606   5.103
 4214SOL    HW213542   0.968   5.628   5.067
 4215SOL     OW13543   4.595   0.345   6.176
 4215SOL    HW113544   4.615   0.319   6.081
 4215SOL    HW213545   4.673   0.321   6.234
 4216SOL     OW13546   1.314   1.367   2.765
 4216SOL    HW113547   1.402   1.397   2.728
 4216SOL    HW213548   1.277   1.294   2.708
 4217SOL     OW13549   1.291   0.597   2.542
 4217SOL    HW113550   1.292   0.686   2.497
 4217SOL    HW213551   1.298   0.610   2.641
 4218SOL     OW13552   4.316   1.070   1.738
 4218SOL    HW113553   4.321   1.052   1.639
 4218SOL    HW213554   4.247   1.011   1.779
 4219SOL     OW13555   4.034   5.957   3.671
 4219SOL    HW113556   4.120   5.999   3.700
 4219SOL    HW213557   4.037   5.859   3.689
 4220SOL     OW13558   6.706   3.618   3.597
 4220SOL    HW113559   6.615   3.652   3.619
 4220SOL    HW213560   6.700   3.523   3.566
 4221SOL     OW13561   6.140   5.391   6.265
 4221SOL    HW113562   6.040   5.388   6.270
 4221SOL    HW213563   6.168   5.416   6.172
 4222SOL     OW13564   0.298   1.831   2.097
 4222SOL    HW113565   0.324   1.738   2.074
 4222SOL    HW213566   0.222   1.860   2.039
 4223SOL     OW13567   3.295   3.043   0.271
 4223SOL    HW113568   3.342   3.131   0.273
 4223SOL    HW213569   3.276   3.013   0.365
 4224SOL     OW13570   4.776   4.674   3.951
 4224SOL    HW113571   4.749   4.636   3.863
 4224SOL    HW213572   4.872   4.702   3.948
 4225SOL     OW13573   2.989   2.313   5.703
 4225SOL    HW113574   2.960   2.270   5.617
 4225SOL    HW213575   3.063   2.259   5.744
 4226SOL     OW13576   0.961   0.358   3.018
 4226SOL    HW113577   0.995   0.377   3.110
 4226SOL    HW213578   0.952   0.259   3.006
 4227SOL     OW13579   3.887   4.937   1.409
 4227SOL    HW113580   3.802   4.932   1.460
 4227SOL    HW213581   3.953   4.872   1.446
 4228SOL     OW13582   0.918   5.116   5.004
 4228SOL    HW113583   0.976   5.137   4.925
 4228SOL    HW213584   0.964   5.051   5.064
 4229SOL     OW13585   5.147   6.512   6.136
 4229SOL    HW113586   5.157   6.578   6.061
 4229SOL    HW213587   5.157   6.559   6.224
 4230SOL     OW13588   0.814   5.898   2.422
 4230SOL    HW113589   0.835   5.892   2.520
 4230SOL    HW213590   0.839   5.989   2.389
 4231SOL     OW13591   6.054   6.807   5.765
 4231SOL    HW113592   6.026   6.761   5.849
 4231SOL    HW213593   6.025   6.903   5.769
 4232SOL     OW13594   0.091   4.569   2.919
 4232SOL    HW113595   0.029   4.640   2.951
 4232SOL    HW213596   0.186   4.595   2.938
 4233SOL     OW13597   6.604   0.194   5.711
 4233SOL    HW113598   6.681   0.227   5.657
 4233SOL    HW213599   6.626   0.104   5.749
 4234SOL     OW13600   2.522   6.233   4.829
 4234SOL    HW113601   2.444   6.295   4.817
 4234SOL    HW213602   2.573   6.228   4.743
 4235SOL     OW13603   5.508   4.214   5.614
 4235SOL    HW113604   5.591   4.269   5.607
 4235SOL    HW213605   5.445   4.239   5.540
 4236SOL     OW13606   6.329   3.563   2.193
 4236SOL    HW113607   6.415   3.517   2.213
 4236SOL    HW213608   6.331   3.656   2.230
 4237SOL     OW13609   5.414   5.805   3.136
 4237SOL    HW113610   5.372   5.830   3.048
 4237SOL    HW213611   5.499   5.756   3.119
 4238SOL     OW13612   2.568   6.082   2.722
 4238SOL    HW113613   2.491   6.141   2.698
 4238SOL    HW213614   2.641   6.137   2.762
 4239SOL     OW13615   6.110   1.695   2.474
 4239SOL    HW113616   6.170   1.735   2.405
 4239SOL    HW213617   6.058   1.620   2.434
 4240SOL     OW13618   2.237   5.648   0.544
 4240SOL    HW113619   2.230   5.653   0.644
 4240SOL    HW213620   2.150   5.675   0.503
 4241SOL     OW13621   6.223   1.021   0.262
 4241SOL    HW113622   6.149   1.082   0.290
 4241SOL    HW213623   6.234   0.949   0.331
 4242SOL     OW13624   3.419   1.322   4.259
 4242SOL    HW113625   3.451   1.228   4.273
 4242SOL    HW213626   3.368   1.328   4.174
 4243SOL     OW13627   6.309   2.912   3.226
 4243SOL    HW113628   6.215   2.945   3.213
 4243SOL    HW213629   6.357   2.913   3.139
 4244SOL     OW13630   4.619   4.352   1.634
 4244SOL    HW113631   4.581   4.298   1.710
 4244SOL    HW213632   4.589   4.313   1.547
 4245SOL     OW13633   0.001   1.509   6.619
 4245SOL    HW113634   0.000   1.417   6.658
 4245SOL    HW213635   0.086   1.523   6.569
 4246SOL     OW13636   0.105   4.300   3.603
 4246SOL    HW113637   0.066   4.222   3.555
 4246SOL    HW213638   0.033   4.350   3.651
 4247SOL     OW13639   2.688   5.706   3.797
 4247SOL    HW113640   2.736   5.793   3.794
 4247SOL    HW213641   2.739   5.637   3.745
 4248SOL     OW13642   3.142   1.559   2.740
 4248SOL    HW113643   3.174   1.650   2.712
 4248SOL    HW213644   3.106   1.511   2.660
 4249SOL     OW13645   5.677   2.059   3.374
 4249SOL    HW113646   5.698   2.156   3.381
 4249SOL    HW213647   5.650   2.037   3.280
 4250SOL     OW13648   6.509   4.476   2.928
 4250SOL    HW113649   6.455   4.513   2.853
 4250SOL    HW213650   6.580   4.541   2.954
 4251SOL     OW13651   5.107   4.684   2.024
 4251SOL    HW113652   5.044   4.674   2.102
 4251SOL    HW213653   5.054   4.698   1.940
 4252SOL     OW13654   5.417   6.424   6.293
 4252SOL    HW113655   5.509   6.417   6.255
 4252SOL    HW213656   5.355   6.367   6.239
 4253SOL     OW13657   3.577   6.909   0.920
 4253SOL    HW113658   3.513   6.963   0.974
 4253SOL    HW213659   3.618   6.967   0.849
 4254SOL     OW13660   0.682   3.025   1.836
 4254SOL    HW113661   0.734   3.085   1.896
 4254SOL    HW213662   0.743   2.959   1.793
 4255SOL     OW13663   6.902   4.530   3.660
 4255SOL    HW113664   6.842   4.555   3.736
 4255SOL    HW213665   6.907   4.606   3.595
 4256SOL     OW13666   2.447   6.562   0.237
 4256SOL    HW113667   2.452   6.468   0.272
 4256SOL    HW213668   2.393   6.618   0.300
 4257SOL     OW13669   2.834   0.731   4.678
 4257SOL    HW113670   2.816   0.767   4.770
 4257SOL    HW213671   2.895   0.793   4.629
 4258SOL     OW13672   4.961   6.220   1.018
 4258SOL    HW113673   4.961   6.141   1.080
 4258SOL    HW213674   4.867   6.251   1.004
 4259SOL     OW13675   2.791   0.609   0.739
 4259SOL    HW113676   2.787   0.619   0.639
 4259SOL    HW213677   2.812   0.697   0.780
 4260SOL     OW13678   5.534   0.240   1.343
 4260SOL    HW113679   5.519   0.267   1.438
 4260SOL    HW213680   5.570   0.147   1.339
 4261SOL     OW13681   1.852   6.896   2.451
 4261SOL    HW113682   1.939   6.857   2.421
 4261SOL    HW213683   1.790   6.901   2.372
 4262SOL     OW13684   0.705   5.236   6.126
 4262SOL    HW113685   0.698   5.335   6.140
 4262SOL    HW213686   0.801   5.211   6.111
 4263SOL     OW13687   3.041   6.444   3.213
 4263SOL    HW113688   3.035   6.413   3.117
 4263SOL    HW213689   3.023   6.367   3.274
 4264SOL     OW13690   0.170   2.257   2.514
 4264SOL    HW113691   0.192   2.351   2.542
 4264SOL    HW213692   0.123   2.211   2.589
 4265SOL     OW13693   5.202   1.823   1.086
 4265SOL    HW113694   5.150   1.899   1.046
 4265SOL    HW213695   5.139   1.748   1.107
 4266SOL     OW13696   1.873   5.906   0.277
 4266SOL    HW113697   1.905   6.000   0.287
 4266SOL    HW213698   1.798   5.902   0.212
 4267SOL     OW13699   2.046   2.863   4.423
 4267SOL    HW113700   2.038   2.961   4.439
 4267SOL    HW213701   1.969   2.831   4.369
 4268SOL     OW13702   1.014   6.076   6.691
 4268SOL    HW113703   1.067   6.059   6.608
 4268SOL    HW213704   1.069   6.128   6.756
 4269SOL     OW13705   2.713   0.337   1.503
 4269SOL    HW113706   2.661   0.259   1.537
 4269SOL    HW213707   2.708   0.339   1.403
 4270SOL     OW13708   4.116   3.485   3.466
 4270SOL    HW113709   4.100   3.415   3.536
 4270SOL    HW213710   4.159   3.565   3.509
 4271SOL     OW13711   6.590   1.185   6.887
 4271SOL    HW113712   6.592   1.085   6.895
 4271SOL    HW213713   6.649   1.225   6.958
 4272SOL     OW13714   6.745   2.669   4.408
 4272SOL    HW113715   6.764   2.578   4.371
 4272SOL    HW213716   6.666   2.708   4.362
 4273SOL     OW13717   4.744   6.888   4.597
 4273SOL    HW113718   4.700   6.808   4.556
 4273SOL    HW213719   4.754   6.960   4.529
 4274SOL     OW13720   0.437   6.106   1.802
 4274SOL    HW113721   0.521   6.115   1.749
 4274SOL    HW213722   0.358   6.122   1.743
 4275SOL     OW13723   6.799   1.497   4.090
 4275SOL    HW113724   6.780   1.402   4.116
 4275SOL    HW213725   6.894   1.505   4.060
 4276SOL     OW13726   1.684   4.839   3.682
 4276SOL    HW113727   1.600   4.862   3.731
 4276SOL    HW213728   1.667   4.764   3.619
 4277SOL     OW13729   6.443   4.737   3.849
 4277SOL    HW113730   6.395   4.665   3.799
 4277SOL    HW213731   6.411   4.826   3.818
 4278SOL     OW13732   6.958   0.331   4.331
 4278SOL    HW113733   7.016   0.251   4.348
 4278SOL    HW213734   6.926   0.330   4.236
 4279SOL     OW13735   3.205   0.435   4.342
 4279SOL    HW113736   3.217   0.417   4.244
 4279SOL    HW213737   3.160   0.523   4.354
 4280SOL     OW13738   4.399   0.317   5.773
 4280SOL    HW113739   4.435   0.407   5.798
 4280SOL    HW213740   4.299   0.321   5.772
 4281SOL     OW13741   0.298   4.699   3.693
 4281SOL    HW113742   0.206   4.712   3.730
 4281SOL    HW213743   0.297   4.624   3.627
 4282SOL     OW13744   3.047   4.412   5.775
 4282SOL    HW113745   3.095   4.404   5.688
 4282SOL    HW213746   2.949   4.398   5.760
 4283SOL     OW13747   1.209   0.735   3.052
 4283SOL    HW113748   1.174   0.767   2.964
 4283SOL    HW213749   1.157   0.777   3.126
 4284SOL     OW13750   4.033   4.736   1.525
 4284SOL    HW113751   4.041   4.713   1.622
 4284SOL    HW213752   4.035   4.651   1.472
 4285SOL     OW13753   1.152   0.620   5.932
 4285SOL    HW113754   1.227   0.646   5.993
 4285SOL    HW213755   1.065   0.642   5.976
 4286SOL     OW13756   4.817   6.648   6.169
 4286SOL    HW113757   4.816   6.713   6.245
 4286SOL    HW213758   4.884   6.576   6.187
 4287SOL     OW13759   5.813   2.190   6.041
 4287SOL    HW113760   5.782   2.278   6.078
 4287SOL    HW213761   5.773   2.116   6.095
 4288SOL     OW13762   0.158   6.076   4.022
 4288SOL    HW113763   0.069   6.096   4.063
 4288SOL    HW213764   0.146   6.014   3.944
 4289SOL     OW13765   6.572   2.925   6.911
 4289SOL    HW113766   6.571   2.925   7.011
 4289SOL    HW213767   6.663   2.948   6.878
 4290SOL     OW13768   1.357   6.483   2.607
 4290SOL    HW113769   1.334   6.400   2.555
 4290SOL    HW213770   1.386   6.457   2.700
 4291SOL     OW13771   4.418   3.334   1.247
 4291SOL    HW113772   4.334   3.302   1.202
 4291SOL    HW213773   4.481   3.258   1.259
 4292SOL     OW13774   5.703   3.548   0.237
 4292SOL    HW113775   5.655   3.466   0.270
 4292SOL    HW213776   5.742   3.530   0.147
 4293SOL     OW13777   2.315   3.207   0.259
 4293SOL    HW113778   2.323   3.127   0.318
 4293SOL    HW213779   2.395   3.266   0.271
 4294SOL     OW13780   2.319   2.742   6.754
 4294SOL    HW113781   2.357   2.797   6.828
 4294SOL    HW213782   2.331   2.791   6.667
 4295SOL     OW13783   3.980   5.972   4.538
 4295SOL    HW113784   4.060   5.963   4.478
 4295SOL    HW213785   3.958   6.069   4.550
 4296SOL     OW13786   3.605   6.975   0.331
 4296SOL    HW113787   3.623   0.009   0.252
 4296SOL    HW213788   3.625   0.001   0.415
 4297SOL     OW13789   4.837   0.939   6.812
 4297SOL    HW113790   4.775   1.016   6.819
 4297SOL    HW213791   4.825   0.894   6.724
 4298SOL     OW13792   3.611   5.494   0.438
 4298SOL    HW113793   3.580   5.445   0.357
 4298SOL    HW213794   3.690   5.550   0.415
 4299SOL     OW13795   0.964   3.236   6.228
 4299SOL    HW113796   0.884   3.185   6.260
 4299SOL    HW213797   1.047   3.194   6.265
 4300SOL     OW13798   3.607   0.380   6.997
 4300SOL    HW113799   3.625   0.469   6.956
 4300SOL    HW213800   3.570   0.318   6.928
 4301SOL     OW13801   4.287   1.253   1.255
 4301SOL    HW113802   4.322   1.202   1.176
 4301SOL    HW213803   4.244   1.337   1.223
 4302SOL     OW13804   1.259   6.488   6.265
 4302SOL    HW113805   1.351   6.526   6.270
 4302SOL    HW213806   1.192   6.562   6.270
 4303SOL     OW13807   0.217   5.041   4.296
 4303SOL    HW113808   0.123   5.041   4.331
 4303SOL    HW213809   0.278   5.004   4.365
 4304SOL     OW13810   3.075   3.860   3.429
 4304SOL    HW113811   3.043   3.877   3.336
 4304SOL    HW213812   3.165   3.816   3.426
 4305SOL     OW13813   6.442   0.376   5.243
 4305SOL    HW113814   6.515   0.347   5.182
 4305SOL    HW213815   6.358   0.325   5.221
 4306SOL     OW13816   5.524   4.042   5.972
 4306SOL    HW113817   5.543   3.947   5.997
 4306SOL    HW213818   5.591   4.072   5.903
 4307SOL     OW13819   4.403   4.288   5.716
 4307SOL    HW113820   4.372   4.304   5.809
 4307SOL    HW213821   4.440   4.195   5.709
 4308SOL     OW13822   6.327   5.079   0.355
 4308SOL    HW113823   6.238   5.108   0.388
 4308SOL    HW213824   6.341   5.112   0.262
 4309SOL     OW13825   1.192   1.227   0.021
 4309SOL    HW113826   1.250   1.192   0.095
 4309SOL    HW213827   1.098   1.198   0.035
 4310SOL     OW13828   1.369   2.709   2.491
 4310SOL    HW113829   1.436   2.639   2.516
 4310SOL    HW213830   1.380   2.789   2.552
 4311SOL     OW13831   1.998   5.721   2.764
 4311SOL    HW113832   1.939   5.642   2.750
 4311SOL    HW213833   1.943   5.798   2.799
 4312SOL     OW13834   1.737   5.062   1.319
 4312SOL    HW113835   1.731   5.116   1.235
 4312SOL    HW213836   1.707   4.968   1.301
 4313SOL     OW13837   5.230   1.798   1.717
 4313SOL    HW113838   5.222   1.857   1.797
 4313SOL    HW213839   5.139   1.763   1.693
 4314SOL     OW13840   6.175   1.227   4.454
 4314SOL    HW113841   6.255   1.242   4.395
 4314SOL    HW213842   6.116   1.158   4.412
 4315SOL     OW13843   2.397   6.757   2.072
 4315SOL    HW113844   2.406   6.717   1.981
 4315SOL    HW213845   2.321   6.822   2.072
 4316SOL     OW13846   4.965   0.511   2.041
 4316SOL    HW113847   4.978   0.436   2.105
 4316SOL    HW213848   4.872   0.507   2.003
 4317SOL     OW13849   4.709   1.949   4.735
 4317SOL    HW113850   4.702   1.880   4.662
 4317SOL    HW213851   4.803   1.953   4.768
 4318SOL     OW13852   0.956   3.450   5.079
 4318SOL    HW113853   0.902   3.390   5.138
 4318SOL    HW213854   1.040   3.478   5.127
 4319SOL     OW13855   2.310   2.460   0.921
 4319SOL    HW113856   2.342   2.455   1.016
 4319SOL    HW213857   2.237   2.527   0.913
 4320SOL     OW13858   6.191   5.120   1.157
 4320SOL    HW113859   6.277   5.069   1.164
 4320SOL    HW213860   6.114   5.060   1.179
 4321SOL     OW13861   6.993   6.611   5.140
 4321SOL    HW113862   0.044   6.623   5.205
 4321SOL    HW213863   0.004   6.615   5.047
 4322SOL     OW13864   6.582   2.778   6.412
 4322SOL    HW113865   6.603   2.782   6.315
 4322SOL    HW213866   6.490   2.814   6.428
 4323SOL     OW13867   4.126   3.996   0.713
 4323SOL    HW113868   4.104   3.926   0.645
 4323SOL    HW213869   4.224   3.992   0.733
 4324SOL     OW13870   5.546   4.641   0.364
 4324SOL    HW113871   5.596   4.562   0.329
 4324SOL    HW213872   5.533   4.707   0.290
 4325SOL     OW13873   2.351   1.307   1.459
 4325SOL    HW113874   2.318   1.217   1.488
 4325SOL    HW213875   2.374   1.361   1.540
 4326SOL     OW13876   4.802   4.683   4.563
 4326SOL    HW113877   4.708   4.677   4.596
 4326SOL    HW213878   4.807   4.755   4.493
 4327SOL     OW13879   5.939   6.705   1.842
 4327SOL    HW113880   5.924   6.703   1.744
 4327SOL    HW213881   6.031   6.738   1.861
 4328SOL     OW13882   4.560   3.944   5.293
 4328SOL    HW113883   4.534   3.847   5.297
 4328SOL    HW213884   4.659   3.952   5.307
 4329SOL     OW13885   4.377   1.720   5.995
 4329SOL    HW113886   4.441   1.786   5.955
 4329SOL    HW213887   4.308   1.769   6.048
 4330SOL     OW13888   2.805   6.988   4.754
 4330SOL    HW113889   2.793   0.006   4.843
 4330SOL    HW213890   2.724   6.934   4.731
 4331SOL     OW13891   5.539   1.839   1.568
 4331SOL    HW113892   5.606   1.799   1.505
 4331SOL    HW213893   5.450   1.843   1.523
 4332SOL     OW13894   5.432   3.866   2.462
 4332SOL    HW113895   5.475   3.815   2.536
 4332SOL    HW213896   5.332   3.863   2.474
 4333SOL     OW13897   3.616   0.240   4.925
 4333SOL    HW113898   3.605   0.323   4.980
 4333SOL    HW213899   3.528   0.216   4.883
 4334SOL     OW13900   1.585   2.498   2.487
 4334SOL    HW113901   1.601   2.464   2.580
 4334SOL    HW213902   1.671   2.528   2.447
 4335SOL     OW13903   3.264   3.754   2.376
 4335SOL    HW113904   3.174   3.794   2.391
 4335SOL    HW213905   3.332   3.827   2.366
 4336SOL     OW13906   2.484   6.430   6.804
 4336SOL    HW113907   2.449   6.522   6.783
 4336SOL    HW213908   2.550   6.403   6.734
 4337SOL     OW13909   0.168   4.465   0.759
 4337SOL    HW113910   0.262   4.438   0.779
 4337SOL    HW213911   0.116   4.471   0.845
 4338SOL     OW13912   5.702   5.908   5.035
 4338SOL    HW113913   5.713   6.006   5.050
 4338SOL    HW213914   5.757   5.857   5.102
 4339SOL     OW13915   5.370   3.622   5.300
 4339SOL    HW113916   5.374   3.636   5.201
 4339SOL    HW213917   5.327   3.534   5.320
 4340SOL     OW13918   6.456   3.052   0.664
 4340SOL    HW113919   6.545   3.010   0.682
 4340SOL    HW213920   6.415   3.080   0.751
 4341SOL     OW13921   0.269   5.681   2.009
 4341SOL    HW113922   0.225   5.751   2.066
 4341SOL    HW213923   0.358   5.715   1.977
 4342SOL     OW13924   6.130   4.211   4.065
 4342SOL    HW113925   6.191   4.216   3.986
 4342SOL    HW213926   6.068   4.133   4.054
 4343SOL     OW13927   2.482   5.808   5.100
 4343SOL    HW113928   2.387   5.819   5.071
 4343SOL    HW213929   2.538   5.879   5.056
 4344SOL     OW13930   0.796   4.467   2.170
 4344SOL    HW113931   0.870   4.402   2.186
 4344SOL    HW213932   0.736   4.432   2.097
 4345SOL     OW13933   3.030   3.530   5.210
 4345SOL    HW113934   3.081   3.453   5.249
 4345SOL    HW213935   3.057   3.542   5.114
 4346SOL     OW13936   1.274   3.130   2.335
 4346SOL    HW113937   1.238   3.143   2.427
 4346SOL    HW213938   1.330   3.209   2.309
 4347SOL     OW13939   6.910   6.735   3.456
 4347SOL    HW113940   6.978   6.662   3.445
 4347SOL    HW213941   6.934   6.812   3.396
 4348SOL     OW13942   0.001   4.308   2.835
 4348SOL    HW113943   0.035   4.398   2.861
 4348SOL    HW213944   6.986   4.262   2.916
 4349SOL     OW13945   7.010   1.921   2.457
 4349SOL    HW113946   6.960   1.943   2.373
 4349SOL    HW213947   6.983   1.985   2.529
 4350SOL     OW13948   4.028   1.566   4.032
 4350SOL    HW113949   4.078   1.650   4.014
 4350SOL    HW213950   4.047   1.536   4.126
 4351SOL     OW13951   1.769   4.935   0.557
 4351SOL    HW113952   1.800   5.028   0.541
 4351SOL    HW213953   1.746   4.891   0.470
 4352SOL     OW13954   6.858   3.247   1.999
 4352SOL    HW113955   6.766   3.234   2.037
 4352SOL    HW213956   6.897   3.158   1.976
 4353SOL     OW13957   3.814   3.226   6.628
 4353SOL    HW113958   3.854   3.265   6.711
 4353SOL    HW213959   3.887   3.184   6.573
 4354SOL     OW13960   2.245   6.700   5.679
 4354SOL    HW113961   2.266   6.744   5.766
 4354SOL    HW213962   2.146   6.696   5.665
 4355SOL     OW13963   2.183   0.317   2.429
 4355SOL    HW113964   2.251   0.390   2.425
 4355SOL    HW213965   2.228   0.229   2.412
 4356SOL     OW13966   4.978   3.858   1.289
 4356SOL    HW113967   4.918   3.840   1.212
 4356SOL    HW213968   4.924   3.873   1.372
 4357SOL     OW13969   6.833   1.243   0.962
 4357SOL    HW113970   6.925   1.267   0.929
 4357SOL    HW213971   6.782   1.200   0.888
 4358SOL     OW13972   0.315   6.769   0.299
 4358SOL    HW113973   0.379   6.811   0.235
 4358SOL    HW213974   0.352   6.774   0.392
 4359SOL     OW13975   2.071   1.609   6.402
 4359SOL    HW113976   2.104   1.671   6.331
 4359SOL    HW213977   2.149   1.568   6.450
 4360SOL     OW13978   1.422   2.478   3.265
 4360SOL    HW113979   1.392   2.450   3.357
 4360SOL    HW213980   1.513   2.441   3.247
 4361SOL     OW13981   2.366   3.521   1.441
 4361SOL    HW113982   2.439   3.582   1.411
 4361SOL    HW213983   2.332   3.551   1.530
 4362SOL     OW13984   5.990   5.898   3.153
 4362SOL    HW113985   5.898   5.934   3.164
 4362SOL    HW213986   6.054   5.953   3.206
 4363SOL     OW13987   5.176   2.749   0.913
 4363SOL    HW113988   5.226   2.800   0.843
 4363SOL    HW213989   5.196   2.788   1.003
 4364SOL     OW13990   3.024   3.185   4.830
 4364SOL    HW113991   3.054   3.143   4.915
 4364SOL    HW213992   3.086   3.159   4.756
 4365SOL     OW13993   2.169   1.333   2.055
 4365SOL    HW113994   2.122   1.397   2.116
 4365SOL    HW213995   2.141   1.239   2.077
 4366SOL     OW13996   5.909   0.049   0.043
 4366SOL    HW113997   5.968   0.124   0.074
 4366SOL    HW213998   5.903   7.004   0.115
 4367SOL     OW13999   1.780   4.226   4.409
 4367SOL    HW114000   1.872   4.187   4.410
 4367SOL    HW214001   1.784   4.322   4.381
 4368SOL     OW14002   3.895   4.143   0.703
 4368SOL    HW114003   3.970   4.077   0.700
 4368SOL    HW214004   3.901   4.205   0.624
 4369SOL     OW14005   4.252   5.326   2.898
 4369SOL    HW114006   4.260   5.313   2.799
 4369SOL    HW214007   4.337   5.367   2.933
 4370SOL     OW14008   4.294   5.048   2.215
 4370SOL    HW114009   4.275   4.969   2.156
 4370SOL    HW214010   4.374   5.097   2.181
 4371SOL     OW14011   1.385   2.076   1.858
 4371SOL    HW114012   1.395   2.007   1.929
 4371SOL    HW214013   1.462   2.140   1.863
 4372SOL     OW14014   3.568   1.196   2.646
 4372SOL    HW114015   3.476   1.201   2.686
 4372SOL    HW214016   3.608   1.288   2.644
 4373SOL     OW14017   6.179   2.195   6.302
 4373SOL    HW114018   6.154   2.189   6.206
 4373SOL    HW214019   6.267   2.150   6.318
 4374SOL     OW14020   1.411   2.395   1.646
 4374SOL    HW114021   1.342   2.365   1.713
 4374SOL    HW214022   1.411   2.332   1.568
 4375SOL     OW14023   4.510   6.747   3.487
 4375SOL    HW114024   4.580   6.677   3.500
 4375SOL    HW214025   4.460   6.761   3.572
 4376SOL     OW14026   0.339   6.504   1.250
 4376SOL    HW114027   0.344   6.551   1.162
 4376SOL    HW214028   0.298   6.414   1.238
 4377SOL     OW14029   5.277   4.609   0.729
 4377SOL    HW114030   5.354   4.560   0.687
 4377SOL    HW214031   5.265   4.697   0.684
 4378SOL     OW14032   2.115   2.392   3.129
 4378SOL    HW114033   2.092   2.296   3.143
 4378SOL    HW214034   2.198   2.415   3.181
 4379SOL     OW14035   1.894   1.174   2.993
 4379SOL    HW114036   1.906   1.192   2.896
 4379SOL    HW214037   1.798   1.189   3.018
 4380SOL     OW14038   1.028   6.869   2.714
 4380SOL    HW114039   1.103   6.873   2.647
 4380SOL    HW214040   1.055   6.812   2.791
 4381SOL     OW14041   1.368   5.316   5.459
 4381SOL    HW114042   1.365   5.266   5.545
 4381SOL    HW214043   1.292   5.381   5.456
 4382SOL     OW14044   6.519   3.345   5.446
 4382SOL    HW114045   6.517   3.246   5.464
 4382SOL    HW214046   6.608   3.370   5.408
 4383SOL     OW14047   0.437   3.129   6.224
 4383SOL    HW114048   0.525   3.160   6.187
 4383SOL    HW214049   0.408   3.190   6.297
 4384SOL     OW14050   5.701   1.021   4.582
 4384SOL    HW114051   5.677   1.117   4.571
 4384SOL    HW214052   5.619   0.964   4.570
 4385SOL     OW14053   5.998   2.500   4.623
 4385SOL    HW114054   5.977   2.515   4.526
 4385SOL    HW214055   6.080   2.442   4.630
 4386SOL     OW14056   2.025   3.631   5.925
 4386SOL    HW114057   2.097   3.563   5.919
 4386SOL    HW214058   2.066   3.722   5.939
 4387SOL     OW14059   6.902   1.728   0.878
 4387SOL    HW114060   6.849   1.784   0.816
 4387SOL    HW214061   6.868   1.739   0.971
 4388SOL     OW14062   4.627   2.566   6.432
 4388SOL    HW114063   4.716   2.603   6.406
 4388SOL    HW214064   4.555   2.622   6.393
 4389SOL     OW14065   6.714   2.982   0.444
 4389SOL    HW114066   6.633   3.028   0.406
 4389SOL    HW214067   6.714   2.992   0.543
 4390SOL     OW14068   3.913   0.225   1.592
 4390SOL    HW114069   3.987   0.290   1.611
 4390SOL    HW214070   3.828   0.259   1.632
 4391SOL     OW14071   2.650   5.530   6.865
 4391SOL    HW114072   2.722   5.539   6.933
 4391SOL    HW214073   2.618   5.621   6.838
 4392SOL     OW14074   6.505   3.627   4.546
 4392SOL    HW114075   6.447   3.599   4.469
 4392SOL    HW214076   6.447   3.652   4.623
 4393SOL     OW14077   5.896   0.774   2.857
 4393SOL    HW114078   5.990   0.743   2.876
 4393SOL    HW214079   5.900   0.864   2.813
 4394SOL     OW14080   6.457   5.280   2.448
 4394SOL    HW114081   6.478   5.210   2.379
 4394SOL    HW214082   6.435   5.366   2.401
 4395SOL     OW14083   1.548   6.564   2.444
 4395SOL    HW114084   1.511   6.597   2.357
 4395SOL    HW214085   1.473   6.548   2.508
 4396SOL     OW14086   2.649   2.106   3.685
 4396SOL    HW114087   2.649   2.011   3.653
 4396SOL    HW214088   2.562   2.125   3.731
 4397SOL     OW14089   1.189   1.820   4.491
 4397SOL    HW114090   1.163   1.892   4.427
 4397SOL    HW214091   1.252   1.857   4.560
 4398SOL     OW14092   0.809   3.684   6.152
 4398SOL    HW114093   0.742   3.745   6.109
 4398SOL    HW214094   0.899   3.727   6.150
 4399SOL     OW14095   2.420   0.057   2.586
 4399SOL    HW114096   2.450   0.000   2.663
 4399SOL    HW214097   2.321   0.048   2.576
 4400SOL     OW14098   2.979   6.606   5.250
 4400SOL    HW114099   3.033   6.581   5.170
 4400SOL    HW214100   2.883   6.583   5.234
 4401SOL     OW14101   3.089   6.872   5.989
 4401SOL    HW114102   3.176   6.900   5.948
 4401SOL    HW214103   3.046   6.803   5.930
 4402SOL     OW14104   2.158   0.840   1.922
 4402SOL    HW114105   2.251   0.871   1.939
 4402SOL    HW214106   2.095   0.892   1.980
 4403SOL     OW14107   0.922   0.533   1.374
 4403SOL    HW114108   1.018   0.559   1.365
 4403SOL    HW214109   0.868   0.614   1.396
 4404SOL     OW14110   1.681   5.371   5.651
 4404SOL    HW114111   1.591   5.401   5.683
 4404SOL    HW214112   1.671   5.323   5.564
 4405SOL     OW14113   1.788   4.019   1.827
 4405SOL    HW114114   1.695   3.989   1.850
 4405SOL    HW214115   1.782   4.101   1.769
 4406SOL     OW14116   0.389   2.948   1.062
 4406SOL    HW114117   0.459   2.891   1.105
 4406SOL    HW214118   0.417   2.970   0.968
 4407SOL     OW14119   6.167   5.314   0.696
 4407SOL    HW114120   6.198   5.400   0.739
 4407SOL    HW214121   6.227   5.240   0.724
 4408SOL     OW14122   2.904   0.649   1.102
 4408SOL    HW114123   2.903   0.553   1.074
 4408SOL    HW214124   2.913   0.654   1.202
 4409SOL     OW14125   4.469   1.425   2.300
 4409SOL    HW114126   4.380   1.436   2.256
 4409SOL    HW214127   4.536   1.390   2.235
 4410SOL     OW14128   1.490   5.122   0.074
 4410SOL    HW114129   1.492   5.077   7.010
 4410SOL    HW214130   1.497   5.221   0.061
 4411SOL     OW14131   3.866   3.788   4.924
 4411SOL    HW114132   3.825   3.819   4.838
 4411SOL    HW214133   3.814   3.710   4.960
 4412SOL     OW14134   4.604   6.093   4.099
 4412SOL    HW114135   4.688   6.039   4.104
 4412SOL    HW214136   4.622   6.186   4.129
 4413SOL     OW14137   5.786   5.386   4.524
 4413SOL    HW114138   5.877   5.373   4.566
 4413SOL    HW214139   5.788   5.464   4.463
 4414SOL     OW14140   3.448   5.498   1.136
 4414SOL    HW114141   3.492   5.515   1.048
 4414SOL    HW214142   3.446   5.400   1.154
 4415SOL     OW14143   4.848   2.875   1.012
 4415SOL    HW114144   4.757   2.906   0.985
 4415SOL    HW214145   4.869   2.788   0.966
 4416SOL     OW14146   3.774   1.377   4.481
 4416SOL    HW114147   3.693   1.354   4.535
 4416SOL    HW214148   3.780   1.476   4.471
 4417SOL     OW14149   5.322   4.381   3.600
 4417SOL    HW114150   5.409   4.357   3.557
 4417SOL    HW214151   5.246   4.352   3.541
 4418SOL     OW14152   6.099   2.383   1.934
 4418SOL    HW114153   6.041   2.424   2.006
 4418SOL    HW214154   6.040   2.346   1.862
 4419SOL     OW14155   5.757   6.710   6.221
 4419SOL    HW114156   5.766   6.672   6.129
 4419SOL    HW214157   5.795   6.645   6.287
 4420SOL     OW14158   4.642   1.048   1.727
 4420SOL    HW114159   4.610   1.098   1.646
 4420SOL    HW214160   4.601   1.088   1.809
 4421SOL     OW14161   2.033   1.174   5.257
 4421SOL    HW114162   2.040   1.081   5.219
 4421SOL    HW214163   1.983   1.232   5.192
 4422SOL     OW14164   1.927   4.443   6.928
 4422SOL    HW114165   1.949   4.357   6.883
 4422SOL    HW214166   1.886   4.424   7.018
 4423SOL     OW14167   6.859   3.523   5.293
 4423SOL    HW114168   6.841   3.482   5.383
 4423SOL    HW214169   6.794   3.485   5.226
 4424SOL     OW14170   5.477   1.221   4.135
 4424SOL    HW114171   5.407   1.151   4.131
 4424SOL    HW214172   5.440   1.303   4.179
 4425SOL     OW14173   2.760   4.357   6.999
 4425SOL    HW114174   2.838   4.409   6.966
 4425SOL    HW214175   2.676   4.398   6.965
 4426SOL     OW14176   0.717   1.137   4.155
 4426SOL    HW114177   0.793   1.121   4.091
 4426SOL    HW214178   0.680   1.228   4.140
 4427SOL     OW14179   0.058   6.223   2.826
 4427SOL    HW114180   0.054   6.124   2.816
 4427SOL    HW214181   0.106   6.246   2.911
 4428SOL     OW14182   3.004   0.879   3.704
 4428SOL    HW114183   2.972   0.802   3.760
 4428SOL    HW214184   3.103   0.888   3.714
 4429SOL     OW14185   2.990   6.774   2.750
 4429SOL    HW114186   2.940   6.691   2.725
 4429SOL    HW214187   3.054   6.753   2.825
 4430SOL     OW14188   4.916   3.618   4.519
 4430SOL    HW114189   4.946   3.584   4.430
 4430SOL    HW214190   4.830   3.573   4.545
 4431SOL     OW14191   2.902   1.141   2.538
 4431SOL    HW114192   2.855   1.063   2.495
 4431SOL    HW214193   2.892   1.135   2.637
 4432SOL     OW14194   2.670   3.508   6.006
 4432SOL    HW114195   2.669   3.555   5.918
 4432SOL    HW214196   2.645   3.412   5.992
 4433SOL     OW14197   5.160   1.820   4.423
 4433SOL    HW114198   5.101   1.897   4.398
 4433SOL    HW214199   5.255   1.850   4.424
 4434SOL     OW14200   5.446   1.189   2.881
 4434SOL    HW114201   5.452   1.281   2.918
 4434SOL    HW214202   5.387   1.189   2.800
 4435SOL     OW14203   5.398   3.056   1.037
 4435SOL    HW114204   5.375   3.093   1.127
 4435SOL    HW214205   5.429   2.961   1.048
 4436SOL     OW14206   4.246   0.816   1.331
 4436SOL    HW114207   4.277   0.727   1.296
 4436SOL    HW214208   4.167   0.847   1.279
 4437SOL     OW14209   0.395   2.454   2.890
 4437SOL    HW114210   0.441   2.367   2.903
 4437SOL    HW214211   0.438   2.504   2.815
 4438SOL     OW14212   5.192   0.030   6.410
 4438SOL    HW114213   5.152   0.061   6.324
 4438SOL    HW214214   5.144   0.072   6.487
 4439SOL     OW14215   0.213   3.943   1.437
 4439SOL    HW114216   0.196   3.849   1.466
 4439SOL    HW214217   0.290   3.981   1.489
 4440SOL     OW14218   3.070   4.772   0.322
 4440SOL    HW114219   3.166   4.743   0.324
 4440SOL    HW214220   3.011   4.692   0.334
 4441SOL     OW14221   0.572   1.716   1.798
 4441SOL    HW114222   0.511   1.717   1.877
 4441SOL    HW214223   0.528   1.667   1.723
 4442SOL     OW14224   1.949   5.375   4.363
 4442SOL    HW114225   2.039   5.418   4.354
 4442SOL    HW214226   1.959   5.276   4.351
 4443SOL     OW14227   1.247   3.524   6.454
 4443SOL    HW114228   1.335   3.549   6.414
 4443SOL    HW214229   1.257   3.437   6.503
 4444SOL     OW14230   3.389   4.109   5.103
 4444SOL    HW114231   3.451   4.138   5.030
 4444SOL    HW214232   3.319   4.049   5.065
 4445SOL     OW14233   1.374   6.260   0.008
 4445SOL    HW114234   1.367   6.227   0.103
 4445SOL    HW214235   1.352   6.185   6.970
 4446SOL     OW14236   5.511   1.027   1.309
 4446SOL    HW114237   5.533   1.056   1.216
 4446SOL    HW214238   5.475   1.104   1.361
 4447SOL     OW14239   4.884   4.846   6.066
 4447SOL    HW114240   4.907   4.923   6.127
 4447SOL    HW214241   4.908   4.870   5.972
 4448SOL     OW14242   2.628   4.257   1.676
 4448SOL    HW114243   2.641   4.310   1.592
 4448SOL    HW214244   2.630   4.318   1.755
 4449SOL     OW14245   5.190   0.896   6.162
 4449SOL    HW114246   5.106   0.944   6.135
 4449SOL    HW214247   5.260   0.963   6.189
 4450SOL     OW14248   3.945   3.078   6.024
 4450SOL    HW114249   4.007   3.072   5.947
 4450SOL    HW214250   3.872   3.144   6.004
 4451SOL     OW14251   5.766   4.600   3.081
 4451SOL    HW114252   5.779   4.519   3.138
 4451SOL    HW214253   5.798   4.681   3.129
 4452SOL     OW14254   5.289   5.845   4.466
 4452SOL    HW114255   5.239   5.787   4.530
 4452SOL    HW214256   5.367   5.887   4.512
 4453SOL     OW14257   0.911   2.918   1.290
 4453SOL    HW114258   0.825   2.949   1.330
 4453SOL    HW214259   0.927   2.822   1.314
 4454SOL     OW14260   1.309   1.806   6.815
 4454SOL    HW114261   1.239   1.773   6.752
 4454SOL    HW214262   1.273   1.803   6.909
 4455SOL     OW14263   4.818   6.366   5.898
 4455SOL    HW114264   4.886   6.364   5.971
 4455SOL    HW214265   4.734   6.409   5.932
 4456SOL     OW14266   2.903   5.795   2.058
 4456SOL    HW114267   2.875   5.805   2.153
 4456SOL    HW214268   2.823   5.799   1.998
 4457SOL     OW14269   3.822   1.065   2.606
 4457SOL    HW114270   3.861   1.120   2.532
 4457SOL    HW214271   3.733   1.102   2.632
 4458SOL     OW14272   1.753   2.895   0.448
 4458SOL    HW114273   1.825   2.963   0.463
 4458SOL    HW214274   1.666   2.931   0.481
 4459SOL     OW14275   3.644   1.688   4.826
 4459SOL    HW114276   3.651   1.722   4.732
 4459SOL    HW214277   3.556   1.715   4.865
 4460SOL     OW14278   1.701   2.654   6.546
 4460SOL    HW114279   1.731   2.599   6.624
 4460SOL    HW214280   1.744   2.745   6.551
 4461SOL     OW14281   1.704   0.306   0.403
 4461SOL    HW114282   1.739   0.357   0.482
 4461SOL    HW214283   1.764   0.322   0.324
 4462SOL     OW14284   5.922   5.330   2.183
 4462SOL    HW114285   5.849   5.296   2.241
 4462SOL    HW214286   5.982   5.254   2.157
 4463SOL     OW14287   4.688   1.255   0.554
 4463SOL    HW114288   4.709   1.212   0.466
 4463SOL    HW214289   4.699   1.189   0.628
 4464SOL     OW14290   6.963   4.874   0.223
 4464SOL    HW114291   6.928   4.951   0.170
 4464SOL    HW214292   6.933   4.882   0.318
 4465SOL     OW14293   3.452   5.211   1.230
 4465SOL    HW114294   3.398   5.227   1.312
 4465SOL    HW214295   3.468   5.113   1.219
 4466SOL     OW14296   0.825   1.944   3.211
 4466SOL    HW114297   0.730   1.913   3.207
 4466SOL    HW214298   0.874   1.895   3.282
 4467SOL     OW14299   1.833   5.933   2.295
 4467SOL    HW114300   1.780   6.013   2.324
 4467SOL    HW214301   1.778   5.850   2.310
 4468SOL     OW14302   1.904   3.889   0.356
 4468SOL    HW114303   1.884   3.833   0.277
 4468SOL    HW214304   2.003   3.904   0.362
 4469SOL     OW14305   3.104   0.155   2.206
 4469SOL    HW114306   3.198   0.184   2.224
 4469SOL    HW214307   3.041   0.229   2.230
 4470SOL     OW14308   0.392   2.231   1.670
 4470SOL    HW114309   0.462   2.254   1.738
 4470SOL    HW214310   0.318   2.181   1.714
 4471SOL     OW14311   0.860   1.953   6.397
 4471SOL    HW114312   0.760   1.956   6.384
 4471SOL    HW214313   0.905   1.994   6.317
 4472SOL     OW14314   0.603   3.085   2.112
 4472SOL    HW114315   0.546   3.168   2.109
 4472SOL    HW214316   0.610   3.047   2.020
 4473SOL     OW14317   6.087   2.588   4.027
 4473SOL    HW114318   6.097   2.681   3.991
 4473SOL    HW214319   6.159   2.530   3.989
 4474SOL     OW14320   2.068   0.642   2.311
 4474SOL    HW114321   2.086   0.560   2.365
 4474SOL    HW214322   2.076   0.723   2.370
 4475SOL     OW14323   1.176   4.149   2.425
 4475SOL    HW114324   1.106   4.181   2.361
 4475SOL    HW214325   1.134   4.085   2.490
 4476SOL     OW14326   5.529   0.628   3.168
 4476SOL    HW114327   5.606   0.601   3.225
 4476SOL    HW214328   5.562   0.683   3.091
 4477SOL     OW14329   2.137   7.024   5.588
 4477SOL    HW114330   2.228   6.987   5.608
 4477SOL    HW214331   2.077   7.007   5.666
 4478SOL     OW14332   3.161   6.541   2.885
 4478SOL    HW114333   3.260   6.536   2.893
 4478SOL    HW214334   3.122   6.450   2.902
 4479SOL     OW14335   0.404   2.126   0.774
 4479SOL    HW114336   0.312   2.126   0.736
 4479SOL    HW214337   0.442   2.219   0.772
 4480SOL     OW14338   0.640   4.412   5.122
 4480SOL    HW114339   0.681   4.360   5.047
 4480SOL    HW214340   0.712   4.442   5.185
 4481SOL     OW14341   3.710   5.901   4.678
 4481SOL    HW114342   3.792   5.938   4.635
 4481SOL    HW214343   3.683   5.817   4.632
 4482SOL     OW14344   1.537   2.958   5.350
 4482SOL    HW114345   1.637   2.954   5.360
 4482SOL    HW214346   1.511   2.910   5.266
 4483SOL     OW14347   6.033   2.743   2.123
 4483SOL    HW114348   5.960   2.806   2.150
 4483SOL    HW214349   5.996   2.650   2.119
 4484SOL     OW14350   3.215   2.145   6.679
 4484SOL    HW114351   3.171   2.119   6.593
 4484SOL    HW214352   3.191   2.239   6.702
 4485SOL     OW14353   5.677   2.217   3.805
 4485SOL    HW114354   5.692   2.309   3.839
 4485SOL    HW214355   5.582   2.207   3.776
 4486SOL     OW14356   6.061   5.529   5.540
 4486SOL    HW114357   6.038   5.622   5.510
 4486SOL    HW214358   6.004   5.504   5.618
 4487SOL     OW14359   3.056   2.956   5.951
 4487SOL    HW114360   2.994   2.890   5.909
 4487SOL    HW214361   3.150   2.924   5.943
 4488SOL     OW14362   0.536   3.636   5.688
 4488SOL    HW114363   0.448   3.632   5.641
 4488SOL    HW214364   0.527   3.597   5.780
 4489SOL     OW14365   5.065   5.604   5.191
 4489SOL    HW114366   5.134   5.532   5.188
 4489SOL    HW214367   5.095   5.682   5.137
 4490SOL     OW14368   5.528   2.396   2.286
 4490SOL    HW114369   5.432   2.399   2.260
 4490SOL    HW214370   5.561   2.489   2.302
 4491SOL     OW14371   0.151   3.103   3.908
 4491SOL    HW114372   0.195   3.181   3.866
 4491SOL    HW214373   0.188   3.018   3.871
 4492SOL     OW14374   6.286   4.796   2.064
 4492SOL    HW114375   6.380   4.824   2.044
 4492SOL    HW214376   6.254   4.733   1.993
 4493SOL     OW14377   4.940   5.037   4.566
 4493SOL    HW114378   4.893   5.002   4.485
 4493SOL    HW214379   4.882   5.025   4.647
 4494SOL     OW14380   0.248   0.787   6.663
 4494SOL    HW114381   0.255   0.708   6.723
 4494SOL    HW214382   0.214   0.866   6.715
 4495SOL     OW14383   4.275   0.016   4.408
 4495SOL    HW114384   4.246   6.958   4.360
 4495SOL    HW214385   4.375   0.024   4.404
 4496SOL     OW14386   5.874   6.504   1.145
 4496SOL    HW114387   5.903   6.499   1.050
 4496SOL    HW214388   5.781   6.539   1.151
 4497SOL     OW14389   4.857   2.192   6.525
 4497SOL    HW114390   4.772   2.237   6.496
 4497SOL    HW214391   4.835   2.107   6.571
 4498SOL     OW14392   0.316   3.040   0.198
 4498SOL    HW114393   0.265   2.992   0.127
 4498SOL    HW214394   0.345   2.975   0.269
 4499SOL     OW14395   5.965   3.891   4.027
 4499SOL    HW114396   5.901   3.850   4.093
 4499SOL    HW214397   6.037   3.825   4.005
 4500SOL     OW14398   3.118   3.089   4.493
 4500SOL    HW114399   3.199   3.050   4.537
 4500SOL    HW214400   3.116   3.060   4.397
 4501SOL     OW14401   6.883   3.681   2.639
 4501SOL    HW114402   6.809   3.748   2.647
 4501SOL    HW214403   6.850   3.591   2.668
 4502SOL     OW14404   0.906   3.039   6.942
 4502SOL    HW114405   0.987   3.001   6.986
 4502SOL    HW214406   0.849   3.085   7.010
 4503SOL     OW14407   3.779   6.521   1.833
 4503SOL    HW114408   3.751   6.580   1.910
 4503SOL    HW214409   3.878   6.516   1.830
 4504SOL     OW14410   6.753   0.839   4.726
 4504SOL    HW114411   6.746   0.793   4.637
 4504SOL    HW214412   6.709   0.928   4.720
 4505SOL     OW14413   6.378   5.372   2.074
 4505SOL    HW114414   6.357   5.468   2.093
 4505SOL    HW214415   6.475   5.364   2.048
 4506SOL     OW14416   4.827   3.160   3.704
 4506SOL    HW114417   4.858   3.152   3.799
 4506SOL    HW214418   4.829   3.256   3.676
 4507SOL     OW14419   6.105   4.464   3.340
 4507SOL    HW114420   6.083   4.559   3.317
 4507SOL    HW214421   6.199   4.445   3.312
 4508SOL     OW14422   1.487   5.390   6.990
 4508SOL    HW114423   1.452   5.482   6.973
 4508SOL    HW214424   1.585   5.388   6.972
 4509SOL     OW14425   4.901   2.812   2.818
 4509SOL    HW114426   4.848   2.864   2.752
 4509SOL    HW214427   4.898   2.856   2.907
 4510SOL     OW14428   4.359   2.048   4.110
 4510SOL    HW114429   4.390   2.048   4.205
 4510SOL    HW214430   4.426   2.094   4.053
 4511SOL     OW14431   5.807   4.036   6.355
 4511SOL    HW114432   5.858   3.971   6.411
 4511SOL    HW214433   5.804   4.003   6.260
 4512SOL     OW14434   2.654   1.081   5.695
 4512SOL    HW114435   2.729   1.039   5.747
 4512SOL    HW214436   2.651   1.178   5.716
 4513SOL     OW14437   0.326   4.921   6.549
 4513SOL    HW114438   0.363   4.903   6.458
 4513SOL    HW214439   0.261   4.849   6.574
 4514SOL     OW14440   3.665   2.161   5.847
 4514SOL    HW114441   3.577   2.162   5.894
 4514SOL    HW214442   3.714   2.246   5.865
 4515SOL     OW14443   6.344   2.274   5.051
 4515SOL    HW114444   6.269   2.257   4.987
 4515SOL    HW214445   6.426   2.224   5.021
 4516SOL     OW14446   2.130   6.884   0.115
 4516SOL    HW114447   2.131   6.815   0.188
 4516SOL    HW214448   2.219   6.930   0.111
 4517SOL     OW14449   4.667   0.355   6.884
 4517SOL    HW114450   4.635   0.315   6.969
 4517SOL    HW214451   4.631   0.302   6.806
 4518SOL     OW14452   7.021   6.775   2.205
 4518SOL    HW114453   6.952   6.830   2.158
 4518SOL    HW214454   0.086   6.792   2.164
 4519SOL     OW14455   6.605   0.412   1.170
 4519SOL    HW114456   6.617   0.332   1.229
 4519SOL    HW214457   6.507   0.431   1.160
 4520SOL     OW14458   4.957   6.374   5.670
 4520SOL    HW114459   4.918   6.376   5.763
 4520SOL    HW214460   4.886   6.343   5.606
 4521SOL     OW14461   5.657   2.117   4.887
 4521SOL    HW114462   5.665   2.050   4.813
 4521SOL    HW214463   5.746   2.126   4.932
 4522SOL     OW14464   5.507   5.206   3.791
 4522SOL    HW114465   5.432   5.241   3.734
 4522SOL    HW214466   5.471   5.141   3.858
 4523SOL     OW14467   1.168   4.877   6.888
 4523SOL    HW114468   1.168   4.801   6.952
 4523SOL    HW214469   1.112   4.952   6.924
 4524SOL     OW14470   6.391   2.944   1.567
 4524SOL    HW114471   6.485   2.979   1.565
 4524SOL    HW214472   6.344   2.977   1.649
 4525SOL     OW14473   5.105   2.327   4.991
 4525SOL    HW114474   5.058   2.268   4.925
 4525SOL    HW214475   5.178   2.378   4.944
 4526SOL     OW14476   6.750   0.499   6.739
 4526SOL    HW114477   6.674   0.440   6.768
 4526SOL    HW214478   6.765   0.488   6.641
 4527SOL     OW14479   6.435   1.171   3.288
 4527SOL    HW114480   6.390   1.184   3.200
 4527SOL    HW214481   6.366   1.152   3.358
 4528SOL     OW14482   4.410   0.476   6.732
 4528SOL    HW114483   4.400   0.403   6.800
 4528SOL    HW214484   4.355   0.555   6.760
 4529SOL     OW14485   2.178   0.175   4.827
 4529SOL    HW114486   2.163   0.258   4.880
 4529SOL    HW214487   2.091   0.138   4.795
 4530SOL     OW14488   1.480   5.479   4.216
 4530SOL    HW114489   1.466   5.404   4.152
 4530SOL    HW214490   1.577   5.500   4.223
 4531SOL     OW14491   0.280   2.657   4.851
 4531SOL    HW114492   0.195   2.633   4.805
 4531SOL    HW214493   0.310   2.581   4.909
 4532SOL     OW14494   6.619   0.905   2.112
 4532SOL    HW114495   6.692   0.917   2.180
 4532SOL    HW214496   6.533   0.941   2.149
 4533SOL     OW14497   1.472   1.856   1.997
 4533SOL    HW114498   1.478   1.799   2.079
 4533SOL    HW214499   1.563   1.872   1.961
 4534SOL     OW14500   5.072   4.155   4.561
 4534SOL    HW114501   5.066   4.241   4.612
 4534SOL    HW214502   5.005   4.090   4.598
 4535SOL     OW14503   3.696   0.660   2.218
 4535SOL    HW114504   3.702   0.657   2.119
 4535SOL    HW214505   3.731   0.748   2.250
 4536SOL     OW14506   4.514   1.771   4.328
 4536SOL    HW114507   4.462   1.707   4.272
 4536SOL    HW214508   4.586   1.814   4.273
 4537SOL     OW14509   4.233   3.492   0.454
 4537SOL    HW114510   4.160   3.465   0.391
 4537SOL    HW214511   4.236   3.427   0.530
 4538SOL     OW14512   1.988   0.500   2.689
 4538SOL    HW114513   2.083   0.481   2.714
 4538SOL    HW214514   1.970   0.598   2.697
 4539SOL     OW14515   3.445   6.074   4.710
 4539SOL    HW114516   3.392   6.032   4.636
 4539SOL    HW214517   3.521   6.014   4.734
 4540SOL     OW14518   2.339   2.487   6.827
 4540SOL    HW114519   2.300   2.433   6.752
 4540SOL    HW214520   2.340   2.583   6.802
 4541SOL     OW14521   5.936   1.823   6.324
 4541SOL    HW114522   5.919   1.727   6.346
 4541SOL    HW214523   6.026   1.850   6.358
 4542SOL     OW14524   0.267   1.944   1.527
 4542SOL    HW114525   0.249   2.014   1.458
 4542SOL    HW214526   0.269   1.986   1.617
 4543SOL     OW14527   4.452   2.434   1.174
 4543SOL    HW114528   4.546   2.442   1.206
 4543SOL    HW214529   4.406   2.523   1.179
 4544SOL     OW14530   3.502   5.642   6.512
 4544SOL    HW114531   3.413   5.613   6.476
 4544SOL    HW214532   3.545   5.705   6.447
 4545SOL     OW14533   5.516   3.078   4.070
 4545SOL    HW114534   5.606   3.043   4.044
 4545SOL    HW214535   5.473   3.014   4.134
 4546SOL     OW14536   2.111   0.707   4.129
 4546SOL    HW114537   2.150   0.619   4.156
 4546SOL    HW214538   2.174   0.754   4.067
 4547SOL     OW14539   6.079   1.982   0.707
 4547SOL    HW114540   6.100   2.052   0.775
 4547SOL    HW214541   6.022   2.021   0.635
 4548SOL     OW14542   1.786   2.939   4.062
 4548SOL    HW114543   1.791   3.021   4.119
 4548SOL    HW214544   1.696   2.934   4.018
 4549SOL     OW14545   5.848   4.134   2.406
 4549SOL    HW114546   5.824   4.214   2.351
 4549SOL    HW214547   5.786   4.129   2.485
 4550SOL     OW14548   1.309   5.706   3.135
 4550SOL    HW114549   1.395   5.705   3.186
 4550SOL    HW214550   1.265   5.617   3.143
 4551SOL     OW14551   0.528   3.685   4.879
 4551SOL    HW114552   0.589   3.694   4.957
 4551SOL    HW214553   0.527   3.590   4.847
 4552SOL     OW14554   6.196   2.138   0.884
 4552SOL    HW114555   6.151   2.124   0.973
 4552SOL    HW214556   6.295   2.133   0.896
 4553SOL     OW14557   4.268   4.503   0.124
 4553SOL    HW114558   4.203   4.578   0.139
 4553SOL    HW214559   4.308   4.476   0.211
 4554SOL     OW14560   6.492   0.044   1.536
 4554SOL    HW114561   6.418   7.017   1.493
 4554SOL    HW214562   6.476   0.048   1.635
 4555SOL     OW14563   2.168   1.965   5.138
 4555SOL    HW114564   2.125   2.017   5.064
 4555SOL    HW214565   2.171   2.020   5.221
 4556SOL     OW14566   5.551   3.306   4.571
 4556SOL    HW114567   5.533   3.371   4.498
 4556SOL    HW214568   5.526   3.347   4.659
 4557SOL     OW14569   5.086   5.455   4.894
 4557SOL    HW114570   5.063   5.422   4.803
 4557SOL    HW214571   5.138   5.385   4.943
 4558SOL     OW14572   0.132   4.230   4.823
 4558SOL    HW114573   0.062   4.229   4.751
 4558SOL    HW214574   0.112   4.302   4.888
 4559SOL     OW14575   0.029   3.526   2.436
 4559SOL    HW114576   7.013   3.566   2.518
 4559SOL    HW214577   7.015   3.571   2.355
 4560SOL     OW14578   5.062   4.586   1.503
 4560SOL    HW114579   5.144   4.537   1.532
 4560SOL    HW214580   4.997   4.521   1.462
 4561SOL     OW14581   3.182   1.766   3.152
 4561SOL    HW114582   3.153   1.842   3.094
 4561SOL    HW214583   3.203   1.687   3.095
 4562SOL     OW14584   2.279   6.726   6.448
 4562SOL    HW114585   2.317   6.763   6.533
 4562SOL    HW214586   2.244   6.634   6.465
 4563SOL     OW14587   0.424   2.366   1.230
 4563SOL    HW114588   0.412   2.401   1.323
 4563SOL    HW214589   0.521   2.355   1.211
 4564SOL     OW14590   6.936   5.749   2.005
 4564SOL    HW114591   6.902   5.656   2.018
 4564SOL    HW214592   6.863   5.805   1.966
 4565SOL     OW14593   0.448   0.567   4.393
 4565SOL    HW114594   0.388   0.562   4.313
 4565SOL    HW214595   0.400   0.610   4.469
 4566SOL     OW14596   0.120   2.686   0.327
 4566SOL    HW114597   0.027   2.722   0.320
 4566SOL    HW214598   0.150   2.652   0.237
 4567SOL     OW14599   6.374   0.835   6.509
 4567SOL    HW114600   6.440   0.840   6.584
 4567SOL    HW214601   6.312   0.913   6.513
 4568SOL     OW14602   1.723   3.238   6.059
 4568SOL    HW114603   1.657   3.166   6.035
 4568SOL    HW214604   1.815   3.199   6.060
 4569SOL     OW14605   2.120   0.844   3.290
 4569SOL    HW114606   2.166   0.904   3.355
 4569SOL    HW214607   2.032   0.815   3.327
 4570SOL     OW14608   6.960   6.496   2.305
 4570SOL    HW114609   7.009   6.577   2.271
 4570SOL    HW214610   7.003   6.465   2.390
 4571SOL     OW14611   4.585   4.169   6.162
 4571SOL    HW114612   4.624   4.237   6.100
 4571SOL    HW214613   4.590   4.203   6.256
 4572SOL     OW14614   2.001   0.596   6.669
 4572SOL    HW114615   1.927   0.664   6.661
 4572SOL    HW214616   2.074   0.633   6.725
 4573SOL     OW14617   6.526   0.585   0.154
 4573SOL    HW114618   6.470   0.662   0.186
 4573SOL    HW214619   6.471   0.502   0.153
 4574SOL     OW14620   5.853   4.188   0.527
 4574SOL    HW114621   5.873   4.137   0.611
 4574SOL    HW214622   5.893   4.140   0.449
 4575SOL     OW14623   5.516   0.381   5.863
 4575SOL    HW114624   5.454   0.356   5.789
 4575SOL    HW214625   5.465   0.425   5.936
 4576SOL     OW14626   3.820   5.808   5.637
 4576SOL    HW114627   3.749   5.851   5.580
 4576SOL    HW214628   3.781   5.782   5.725
 4577SOL     OW14629   0.945   1.750   4.149
 4577SOL    HW114630   0.951   1.795   4.238
 4577SOL    HW214631   0.849   1.734   4.126
 4578SOL     OW14632   0.795   2.698   5.119
 4578SOL    HW114633   0.872   2.714   5.181
 4578SOL    HW214634   0.728   2.639   5.165
 4579SOL     OW14635   3.819   0.193   3.276
 4579SOL    HW114636   3.801   0.278   3.325
 4579SOL    HW214637   3.909   0.158   3.301
 4580SOL     OW14638   5.145   4.589   0.967
 4580SOL    HW114639   5.200   4.588   0.884
 4580SOL    HW214640   5.196   4.548   1.042
 4581SOL     OW14641   2.163   5.891   2.012
 4581SOL    HW114642   2.136   5.802   2.050
 4581SOL    HW214643   2.261   5.889   1.989
 4582SOL     OW14644   4.315   0.946   4.829
 4582SOL    HW114645   4.326   0.863   4.885
 4582SOL    HW214646   4.269   0.923   4.744
 4583SOL     OW14647   2.923   2.034   6.840
 4583SOL    HW114648   2.902   1.957   6.900
 4583SOL    HW214649   2.994   2.008   6.775
 4584SOL     OW14650   0.803   4.883   5.179
 4584SOL    HW114651   0.902   4.879   5.189
 4584SOL    HW214652   0.763   4.936   5.254
 4585SOL     OW14653   1.747   5.413   3.088
 4585SOL    HW114654   1.665   5.357   3.095
 4585SOL    HW214655   1.721   5.509   3.074
 4586SOL     OW14656   3.679   4.529   0.995
 4586SOL    HW114657   3.734   4.541   1.077
 4586SOL    HW214658   3.677   4.432   0.969
 4587SOL     OW14659   3.425   4.140   3.750
 4587SOL    HW114660   3.468   4.202   3.816
 4587SOL    HW214661   3.347   4.095   3.793
 4588SOL     OW14662   2.484   3.541   5.354
 4588SOL    HW114663   2.498   3.630   5.310
 4588SOL    HW214664   2.551   3.531   5.428
 4589SOL     OW14665   6.362   0.996   2.230
 4589SOL    HW114666   6.313   1.077   2.259
 4589SOL    HW214667   6.297   0.925   2.203
 4590SOL     OW14668   4.539   4.994   1.339
 4590SOL    HW114669   4.451   4.981   1.385
 4590SOL    HW214670   4.593   5.062   1.389
 4591SOL     OW14671   1.972   0.492   4.790
 4591SOL    HW114672   2.013   0.457   4.706
 4591SOL    HW214673   1.885   0.446   4.807
 4592SOL     OW14674   2.650   1.454   3.741
 4592SOL    HW114675   2.737   1.464   3.693
 4592SOL    HW214676   2.658   1.492   3.833
 4593SOL     OW14677   5.245   5.917   2.121
 4593SOL    HW114678   5.146   5.913   2.135
 4593SOL    HW214679   5.269   5.875   2.033
 4594SOL     OW14680   2.462   1.181   3.276
 4594SOL    HW114681   2.548   1.134   3.255
 4594SOL    HW214682   2.482   1.269   3.318
 4595SOL     OW14683   4.696   3.055   5.513
 4595SOL    HW114684   4.788   3.041   5.550
 4595SOL    HW214685   4.687   3.005   5.427
 4596SOL     OW14686   6.206   1.072   2.591
 4596SOL    HW114687   6.201   1.172   2.588
 4596SOL    HW214688   6.144   1.033   2.523
 4597SOL     OW14689   4.017   5.463   6.902
 4597SOL    HW114690   3.943   5.528   6.888
 4597SOL    HW214691   4.031   5.410   6.818
 4598SOL     OW14692   1.435   6.014   0.788
 4598SOL    HW114693   1.488   5.946   0.736
 4598SOL    HW214694   1.427   5.984   0.883
 4599SOL     OW14695   1.790   5.032   0.104
 4599SOL    HW114696   1.840   5.100   0.158
 4599SOL    HW214697   1.717   5.078   0.054
 4600SOL     OW14698   0.821   5.949   5.419
 4600SOL    HW114699   0.828   6.000   5.333
 4600SOL    HW214700   0.907   5.956   5.469
 4601SOL     OW14701   1.550   1.154   5.552
 4601SOL    HW114702   1.642   1.194   5.551
 4601SOL    HW214703   1.540   1.096   5.633
 4602SOL     OW14704   3.255   6.244   0.266
 4602SOL    HW114705   3.256   6.260   0.365
 4602SOL    HW214706   3.181   6.181   0.243
 4603SOL     OW14707   4.070   6.575   0.945
 4603SOL    HW114708   4.094   6.620   1.031
 4603SOL    HW214709   4.106   6.627   0.868
 4604SOL     OW14710   4.343   0.249   6.884
 4604SOL    HW114711   4.303   0.166   6.845
 4604SOL    HW214712   4.313   0.259   6.979
 4605SOL     OW14713   1.484   6.081   2.505
 4605SOL    HW114714   1.565   6.111   2.454
 4605SOL    HW214715   1.503   6.086   2.603
 4606SOL     OW14716   0.620   6.874   2.343
 4606SOL    HW114717   0.698   6.818   2.313
 4606SOL    HW214718   0.639   6.911   2.434
 4607SOL     OW14719   2.038   3.095   2.581
 4607SOL    HW114720   2.071   3.004   2.605
 4607SOL    HW214721   2.067   3.160   2.651
 4608SOL     OW14722   0.373   5.890   3.731
 4608SOL    HW114723   0.364   5.793   3.753
 4608SOL    HW214724   0.282   5.931   3.726
 4609SOL     OW14725   5.027   4.989   6.804
 4609SOL    HW114726   5.083   4.991   6.722
 4609SOL    HW214727   4.947   4.930   6.788
 4610SOL     OW14728   5.041   1.925   0.226
 4610SOL    HW114729   5.135   1.957   0.229
 4610SOL    HW214730   5.033   1.852   0.158
 4611SOL     OW14731   1.346   6.443   5.903
 4611SOL    HW114732   1.344   6.529   5.953
 4611SOL    HW214733   1.358   6.367   5.967
 4612SOL     OW14734   1.701   6.373   0.603
 4612SOL    HW114735   1.687   6.390   0.701
 4612SOL    HW214736   1.774   6.306   0.592
 4613SOL     OW14737   1.628   5.678   2.067
 4613SOL    HW114738   1.588   5.769   2.055
 4613SOL    HW214739   1.572   5.626   2.132
 4614SOL     OW14740   5.957   3.406   3.630
 4614SOL    HW114741   5.945   3.493   3.678
 4614SOL    HW214742   5.997   3.422   3.540
 4615SOL     OW14743   1.783   1.088   0.207
 4615SOL    HW114744   1.818   1.175   0.172
 4615SOL    HW214745   1.854   1.018   0.200
 4616SOL     OW14746   6.365   1.218   4.268
 4616SOL    HW114747   6.387   1.186   4.175
 4616SOL    HW214748   6.439   1.190   4.330
 4617SOL     OW14749   1.491   2.535   2.198
 4617SOL    HW114750   1.454   2.582   2.118
 4617SOL    HW214751   1.492   2.598   2.276
 4618SOL     OW14752   2.349   3.045   5.391
 4618SOL    HW114753   2.258   3.027   5.354
 4618SOL    HW214754   2.418   3.018   5.323
 4619SOL     OW14755   3.179   6.190   3.653
 4619SOL    HW114756   3.210   6.125   3.583
 4619SOL    HW214757   3.190   6.283   3.619
 4620SOL     OW14758   1.941   4.964   0.948
 4620SOL    HW114759   1.854   4.990   0.907
 4620SOL    HW214760   1.965   5.029   1.020
 4621SOL     OW14761   4.897   0.419   2.670
 4621SOL    HW114762   4.876   0.501   2.615
 4621SOL    HW214763   4.900   0.444   2.767
 4622SOL     OW14764   3.718   4.719   0.522
 4622SOL    HW114765   3.755   4.676   0.604
 4622SOL    HW214766   3.788   4.775   0.478
 4623SOL     OW14767   5.112   5.591   1.964
 4623SOL    HW114768   5.017   5.594   1.933
 4623SOL    HW214769   5.169   5.545   1.895
 4624SOL     OW14770   3.631   7.019   2.766
 4624SOL    HW114771   3.554   0.049   2.799
 4624SOL    HW214772   3.715   0.029   2.807
 4625SOL     OW14773   1.605   4.561   1.572
 4625SOL    HW114774   1.653   4.617   1.639
 4625SOL    HW214775   1.515   4.536   1.608
 4626SOL     OW14776   4.882   4.100   2.327
 4626SOL    HW114777   4.818   4.167   2.289
 4626SOL    HW214778   4.924   4.136   2.410
 4627SOL     OW14779   1.232   4.719   5.222
 4627SOL    HW114780   1.174   4.704   5.301
 4627SOL    HW214781   1.287   4.637   5.204
 4628SOL     OW14782   4.631   4.353   4.415
 4628SOL    HW114783   4.549   4.312   4.455
 4628SOL    HW214784   4.606   4.433   4.361
 4629SOL     OW14785   3.029   5.463   5.301
 4629SOL    HW114786   3.018   5.562   5.291
 4629SOL    HW214787   2.989   5.417   5.223
 4630SOL     OW14788   2.513   6.207   1.908
 4630SOL    HW114789   2.541   6.294   1.868
 4630SOL    HW214790   2.423   6.218   1.950
 4631SOL     OW14791   1.116   5.885   3.256
 4631SOL    HW114792   1.035   5.833   3.282
 4631SOL    HW214793   1.176   5.827   3.201
 4632SOL     OW14794   2.583   4.751   2.768
 4632SOL    HW114795   2.673   4.731   2.807
 4632SOL    HW214796   2.546   4.833   2.812
 4633SOL     OW14797   6.171   0.713   4.537
 4633SOL    HW114798   6.170   0.708   4.637
 4633SOL    HW214799   6.102   0.651   4.500
 4634SOL     OW14800   2.491   3.806   5.289
 4634SOL    HW114801   2.586   3.823   5.314
 4634SOL    HW214802   2.456   3.882   5.235
 4635SOL     OW14803   4.906   3.968   1.994
 4635SOL    HW114804   4.853   4.050   1.974
 4635SOL    HW214805   4.859   3.888   1.956
 4636SOL     OW14806   2.712   4.670   0.052
 4636SOL    HW114807   2.644   4.603   0.023
 4636SOL    HW214808   2.750   4.715   6.996
 4637SOL     OW14809   0.682   6.850   0.768
 4637SOL    HW114810   0.674   6.942   0.729
 4637SOL    HW214811   0.714   6.856   0.862
 4638SOL     OW14812   4.117   4.865   6.943
 4638SOL    HW114813   4.217   4.854   6.948
 4638SOL    HW214814   4.095   4.950   6.894
 4639SOL     OW14815   3.399   3.486   6.264
 4639SOL    HW114816   3.384   3.557   6.334
 4639SOL    HW214817   3.378   3.524   6.174
 4640SOL     OW14818   4.759   4.036   4.102
 4640SOL    HW114819   4.791   3.941   4.105
 4640SOL    HW214820   4.734   4.065   4.195
 4641SOL     OW14821   2.732   0.425   5.187
 4641SOL    HW114822   2.688   0.357   5.246
 4641SOL    HW214823   2.813   0.384   5.145
 4642SOL     OW14824   1.303   6.873   3.626
 4642SOL    HW114825   1.264   6.921   3.548
 4642SOL    HW214826   1.345   6.939   3.688
 4643SOL     OW14827   6.911   2.228   0.863
 4643SOL    HW114828   6.931   2.320   0.898
 4643SOL    HW214829   6.837   2.233   0.797
 4644SOL     OW14830   0.349   5.969   5.124
 4644SOL    HW114831   0.417   6.020   5.175
 4644SOL    HW214832   0.393   5.923   5.046
 4645SOL     OW14833   0.565   0.402   3.644
 4645SOL    HW114834   0.472   0.381   3.613
 4645SOL    HW214835   0.560   0.464   3.722
 4646SOL     OW14836   2.247   5.155   3.212
 4646SOL    HW114837   2.242   5.056   3.213
 4646SOL    HW214838   2.187   5.193   3.282
 4647SOL     OW14839   1.943   0.306   2.857
 4647SOL    HW114840   1.962   0.379   2.791
 4647SOL    HW214841   1.900   0.346   2.939
 4648SOL     OW14842   3.259   0.421   2.685
 4648SOL    HW114843   3.210   0.392   2.602
 4648SOL    HW214844   3.347   0.375   2.689
 4649SOL     OW14845   5.180   1.178   6.852
 4649SOL    HW114846   5.228   1.125   6.782
 4649SOL    HW214847   5.154   1.117   6.927
 4650SOL     OW14848   4.743   5.603   2.342
 4650SOL    HW114849   4.839   5.589   2.368
 4650SOL    HW214850   4.686   5.598   2.424
 4651SOL     OW14851   6.205   4.062   6.441
 4651SOL    HW114852   6.191   4.062   6.342
 4651SOL    HW214853   6.132   4.011   6.485
 4652SOL     OW14854   5.495   6.652   4.673
 4652SOL    HW114855   5.550   6.591   4.616
 4652SOL    HW214856   5.451   6.722   4.616
 4653SOL     OW14857   5.102   5.732   1.370
 4653SOL    HW114858   5.127   5.668   1.442
 4653SOL    HW214859   5.135   5.823   1.394
 4654SOL     OW14860   0.808   6.053   6.350
 4654SOL    HW114861   0.854   6.096   6.429
 4654SOL    HW214862   0.741   6.117   6.312
 4655SOL     OW14863   5.879   3.485   1.127
 4655SOL    HW114864   5.886   3.501   1.029
 4655SOL    HW214865   5.806   3.541   1.165
 4656SOL     OW14866   1.492   0.851   2.058
 4656SOL    HW114867   1.467   0.757   2.081
 4656SOL    HW214868   1.588   0.855   2.031
 4657SOL     OW14869   4.443   5.552   1.595
 4657SOL    HW114870   4.372   5.500   1.643
 4657SOL    HW214871   4.400   5.625   1.542
 4658SOL     OW14872   3.393   0.159   4.136
 4658SOL    HW114873   3.429   0.123   4.050
 4658SOL    HW214874   3.301   0.195   4.120
 4659SOL     OW14875   2.590   4.047   5.646
 4659SOL    HW114876   2.680   4.004   5.639
 4659SOL    HW214877   2.567   4.090   5.558
 4660SOL     OW14878   0.352   5.667   4.754
 4660SOL    HW114879   0.448   5.694   4.761
 4660SOL    HW214880   0.298   5.743   4.717
 4661SOL     OW14881   3.130   4.277   6.236
 4661SOL    HW114882   3.059   4.251   6.171
 4661SOL    HW214883   3.097   4.260   6.329
 4662SOL     OW14884   2.809   0.264   5.699
 4662SOL    HW114885   2.876   0.198   5.732
 4662SOL    HW214886   2.848   0.313   5.621
 4663SOL     OW14887   0.131   1.394   1.507
 4663SOL    HW114888   0.112   1.473   1.448
 4663SOL    HW214889   0.217   1.352   1.478
 4664SOL     OW14890   1.386   1.091   0.534
 4664SOL    HW114891   1.391   1.035   0.617
 4664SOL    HW214892   1.477   1.122   0.510
 4665SOL     OW14893   4.310   6.731   6.336
 4665SOL    HW114894   4.287   6.654   6.278
 4665SOL    HW214895   4.266   6.814   6.301
 4666SOL     OW14896   2.539   2.296   6.877
 4666SOL    HW114897   2.481   2.377   6.875
 4666SOL    HW214898   2.532   2.252   6.966
 4667SOL     OW14899   6.319   3.852   1.814
 4667SOL    HW114900   6.276   3.924   1.868
 4667SOL    HW214901   6.249   3.801   1.764
 4668SOL     OW14902   4.722   1.951   3.449
 4668SOL    HW114903   4.729   1.995   3.538
 4668SOL    HW214904   4.626   1.943   3.423
 4669SOL     OW14905   5.211   6.139   0.875
 4669SOL    HW114906   5.162   6.065   0.830
 4669SOL    HW214907   5.154   6.177   0.948
 4670SOL     OW14908   1.593   2.216   6.272
 4670SOL    HW114909   1.635   2.292   6.321
 4670SOL    HW214910   1.584   2.138   6.334
 4671SOL     OW14911   1.086   3.454   6.857
 4671SOL    HW114912   1.180   3.490   6.863
 4671SOL    HW214913   1.031   3.513   6.798
 4672SOL     OW14914   2.547   5.144   5.684
 4672SOL    HW114915   2.579   5.198   5.606
 4672SOL    HW214916   2.613   5.151   5.758
 4673SOL     OW14917   4.860   6.995   1.784
 4673SOL    HW114918   4.868   6.917   1.846
 4673SOL    HW214919   4.883   0.055   1.833
 4674SOL     OW14920   4.884   1.271   6.849
 4674SOL    HW114921   4.890   1.291   6.947
 4674SOL    HW214922   4.962   1.215   6.822
 4675SOL     OW14923   2.044   1.243   6.940
 4675SOL    HW114924   2.135   1.280   6.921
 4675SOL    HW214925   2.009   1.198   6.858
 4676SOL     OW14926   5.944   6.206   3.828
 4676SOL    HW114927   6.009   6.131   3.827
 4676SOL    HW214928   5.851   6.171   3.819
 4677SOL     OW14929   2.669   1.098   6.940
 4677SOL    HW114930   2.662   1.036   7.018
 4677SOL    HW214931   2.758   1.086   6.896
 4678SOL     OW14932   1.970   4.533   2.733
 4678SOL    HW114933   1.893   4.596   2.724
 4678SOL    HW214934   1.968   4.490   2.823
 4679SOL     OW14935   3.138   1.568   0.011
 4679SOL    HW114936   3.066   1.632   7.011
 4679SOL    HW214937   3.210   1.570   6.966
 4680SOL     OW14938   2.231   1.316   1.235
 4680SOL    HW114939   2.300   1.316   1.307
 4680SOL    HW214940   2.232   1.403   1.187
 4681SOL     OW14941   5.870   6.307   5.993
 4681SOL    HW114942   5.946   6.355   5.949
 4681SOL    HW214943   5.805   6.278   5.924
 4682SOL     OW14944   3.995   4.953   5.965
 4682SOL    HW114945   4.051   4.899   5.902
 4682SOL    HW214946   3.902   4.958   5.929
 4683SOL     OW14947   4.353   4.587   2.836
 4683SOL    HW114948   4.381   4.539   2.920
 4683SOL    HW214949   4.381   4.533   2.756
 4684SOL     OW14950   0.011   1.976   5.003
 4684SOL    HW114951   0.080   1.928   5.058
 4684SOL    HW214952   0.043   2.068   4.983
 4685SOL     OW14953   0.565   6.203   5.153
 4685SOL    HW114954   0.662   6.216   5.132
 4685SOL    HW214955   0.510   6.234   5.075
 4686SOL     OW14956   5.333   5.474   0.668
 4686SOL    HW114957   5.287   5.393   0.706
 4686SOL    HW214958   5.421   5.487   0.714
 4687SOL     OW14959   6.557   4.432   5.302
 4687SOL    HW114960   6.484   4.499   5.286
 4687SOL    HW214961   6.596   4.447   5.393
 4688SOL     OW14962   6.330   4.148   5.290
 4688SOL    HW114963   6.428   4.166   5.276
 4688SOL    HW214964   6.296   4.088   5.218
 4689SOL     OW14965   6.046   0.947   6.995
 4689SOL    HW114966   6.009   1.038   6.978
 4689SOL    HW214967   6.132   0.955   0.022
 4690SOL     OW14968   1.251   0.564   0.296
 4690SOL    HW114969   1.256   0.648   0.243
 4690SOL    HW214970   1.343   0.536   0.324
 4691SOL     OW14971   2.706   4.669   2.328
 4691SOL    HW114972   2.780   4.614   2.367
 4691SOL    HW214973   2.699   4.651   2.230
 4692SOL     OW14974   6.394   5.547   2.353
 4692SOL    HW114975   6.308   5.501   2.330
 4692SOL    HW214976   6.386   5.590   2.443
 4693SOL     OW14977   0.903   0.701   3.348
 4693SOL    HW114978   0.969   0.642   3.302
 4693SOL    HW214979   0.855   0.649   3.418
 4694SOL     OW14980   2.571   0.377   0.524
 4694SOL    HW114981   2.537   0.358   0.616
 4694SOL    HW214982   2.576   0.293   0.471
 4695SOL     OW14983   2.558   3.530   1.707
 4695SOL    HW114984   2.477   3.502   1.759
 4695SOL    HW214985   2.575   3.628   1.722
 4696SOL     OW14986   0.143   4.083   6.263
 4696SOL    HW114987   0.143   4.031   6.178
 4696SOL    HW214988   0.050   4.116   6.282
 4697SOL     OW14989   2.635   3.028   0.882
 4697SOL    HW114990   2.714   3.071   0.838
 4697SOL    HW214991   2.593   3.093   0.945
 4698SOL     OW14992   4.654   5.978   2.449
 4698SOL    HW114993   4.583   5.943   2.388
 4698SOL    HW214994   4.640   5.940   2.541
 4699SOL     OW14995   1.064   6.493   1.642
 4699SOL    HW114996   1.066   6.399   1.608
 4699SOL    HW214997   1.131   6.503   1.716
 4700SOL     OW14998   6.639   1.884   2.407
 4700SOL    HW114999   6.679   1.816   2.470
 4700SOL    HW215000   6.712   1.939   2.367
 4701SOL     OW15001   2.494   2.106   0.759
 4701SOL    HW115002   2.457   2.194   0.789
 4701SOL    HW215003   2.477   2.037   0.829
 4702SOL     OW15004   5.612   4.691   6.609
 4702SOL    HW115005   5.647   4.599   6.626
 4702SOL    HW215006   5.689   4.755   6.603
 4703SOL     OW15007   1.241   2.462   1.945
 4703SOL    HW115008   1.196   2.550   1.928
 4703SOL    HW215009   1.210   2.395   1.877
 4704SOL     OW15010   1.115   6.555   6.579
 4704SOL    HW115011   1.066   6.610   6.647
 4704SOL    HW215012   1.186   6.611   6.536
 4705SOL     OW15013   3.307   3.408   2.828
 4705SOL    HW115014   3.248   3.427   2.750
 4705SOL    HW215015   3.280   3.466   2.905
 4706SOL     OW15016   3.833   6.472   6.395
 4706SOL    HW115017   3.891   6.418   6.456
 4706SOL    HW215018   3.738   6.441   6.404
 4707SOL     OW15019   2.642   5.866   1.043
 4707SOL    HW115020   2.702   5.802   1.090
 4707SOL    HW215021   2.673   5.878   0.949
 4708SOL     OW15022   1.281   2.103   6.374
 4708SOL    HW115023   1.191   2.094   6.417
 4708SOL    HW215024   1.323   2.189   6.402
 4709SOL     OW15025   4.637   5.899   6.316
 4709SOL    HW115026   4.653   5.836   6.241
 4709SOL    HW215027   4.559   5.868   6.371
 4710SOL     OW15028   4.085   1.099   5.675
 4710SOL    HW115029   4.121   1.041   5.602
 4710SOL    HW215030   4.156   1.117   5.742
 4711SOL     OW15031   5.577   1.469   1.944
 4711SOL    HW115032   5.545   1.524   1.868
 4711SOL    HW215033   5.582   1.373   1.917
 4712SOL     OW15034   3.485   4.299   7.013
 4712SOL    HW115035   3.391   4.293   6.980
 4712SOL    HW215036   3.517   4.208   0.014
 4713SOL     OW15037   3.491   3.190   1.178
 4713SOL    HW115038   3.554   3.265   1.199
 4713SOL    HW215039   3.444   3.208   1.092
 4714SOL     OW15040   1.526   2.485   0.008
 4714SOL    HW115041   1.620   2.501   7.004
 4714SOL    HW215042   1.484   2.571   0.037
 4715SOL     OW15043   6.925   3.375   1.637
 4715SOL    HW115044   7.009   3.408   1.596
 4715SOL    HW215045   6.885   3.305   1.579
 4716SOL     OW15046   4.913   6.314   6.444
 4716SOL    HW115047   4.902   6.216   6.460
 4716SOL    HW215048   5.008   6.341   6.458
 4717SOL     OW15049   0.081   6.238   3.219
 4717SOL    HW115050   0.099   6.149   3.176
 4717SOL    HW215051   0.167   6.290   3.226
 4718SOL     OW15052   5.727   2.549   0.359
 4718SOL    HW115053   5.791   2.625   0.349
 4718SOL    HW215054   5.756   2.473   0.300
 4719SOL     OW15055   5.514   3.280   2.245
 4719SOL    HW115056   5.522   3.250   2.150
 4719SOL    HW215057   5.595   3.251   2.296
 4720SOL     OW15058   1.776   5.832   5.165
 4720SOL    HW115059   1.798   5.902   5.232
 4720SOL    HW215060   1.740   5.751   5.212
 4721SOL     OW15061   6.519   2.620   1.241
 4721SOL    HW115062   6.485   2.623   1.335
 4721SOL    HW215063   6.608   2.664   1.236
 4722SOL     OW15064   0.664   5.960   6.796
 4722SOL    HW115065   0.656   6.059   6.795
 4722SOL    HW215066   0.755   5.933   6.827
 4723SOL     OW15067   1.777   4.432   6.191
 4723SOL    HW115068   1.759   4.508   6.253
 4723SOL    HW215069   1.802   4.351   6.244
 4724SOL     OW15070   5.219   6.084   2.963
 4724SOL    HW115071   5.272   6.107   2.882
 4724SOL    HW215072   5.186   6.168   3.007
 4725SOL     OW15073   6.322   6.635   2.603
 4725SOL    HW115074   6.343   6.539   2.586
 4725SOL    HW215075   6.374   6.668   2.682
 4726SOL     OW15076   1.456   2.777   6.307
 4726SOL    HW115077   1.487   2.684   6.326
 4726SOL    HW215078   1.463   2.796   6.209
 4727SOL     OW15079   1.047   6.476   0.123
 4727SOL    HW115080   1.081   6.409   0.190
 4727SOL    HW215081   1.016   6.558   0.171
 4728SOL     OW15082   5.246   0.332   1.272
 4728SOL    HW115083   5.171   0.398   1.270
 4728SOL    HW215084   5.318   0.361   1.209
 4729SOL     OW15085   2.273   1.295   1.796
 4729SOL    HW115086   2.220   1.224   1.749
 4729SOL    HW215087   2.247   1.297   1.892
 4730SOL     OW15088   3.281   5.941   4.536
 4730SOL    HW115089   3.220   6.011   4.499
 4730SOL    HW215090   3.232   5.854   4.541
 4731SOL     OW15091   4.187   0.000   6.263
 4731SOL    HW115092   4.172   7.011   6.166
 4731SOL    HW215093   4.279   0.035   6.278
 4732SOL     OW15094   0.735   3.565   5.521
 4732SOL    HW115095   0.642   3.583   5.555
 4732SOL    HW215096   0.770   3.646   5.476
 4733SOL     OW15097   1.740   4.479   3.455
 4733SOL    HW115098   1.655   4.432   3.478
 4733SOL    HW215099   1.818   4.420   3.477
 4734SOL     OW15100   5.316   2.749   6.812
 4734SOL    HW115101   5.415   2.758   6.811
 4734SOL    HW215102   5.278   2.807   6.885
 4735SOL     OW15103   0.195   5.978   4.491
 4735SOL    HW115104   0.242   6.066   4.483
 4735SOL    HW215105   0.239   5.911   4.431
 4736SOL     OW15106   6.920   2.191   6.575
 4736SOL    HW115107   6.896   2.133   6.498
 4736SOL    HW215108   6.894   2.286   6.555
 4737SOL     OW15109   2.242   4.839   1.885
 4737SOL    HW115110   2.150   4.831   1.849
 4737SOL    HW215111   2.238   4.852   1.984
 4738SOL     OW15112   6.877   6.418   2.853
 4738SOL    HW115113   6.928   6.501   2.874
 4738SOL    HW215114   6.941   6.341   2.844
 4739SOL     OW15115   4.352   6.548   3.353
 4739SOL    HW115116   4.371   6.646   3.358
 4739SOL    HW215117   4.304   6.518   3.436
 4740SOL     OW15118   1.211   1.803   0.822
 4740SOL    HW115119   1.211   1.883   0.882
 4740SOL    HW215120   1.123   1.796   0.776
 4741SOL     OW15121   3.522   2.955   1.893
 4741SOL    HW115122   3.463   2.874   1.891
 4741SOL    HW215123   3.466   3.036   1.909
 4742SOL     OW15124   2.642   6.340   5.739
 4742SOL    HW115125   2.640   6.323   5.641
 4742SOL    HW215126   2.655   6.438   5.756
 4743SOL     OW15127   1.826   3.723   3.059
 4743SOL    HW115128   1.885   3.644   3.077
 4743SOL    HW215129   1.734   3.691   3.037
 4744SOL     OW15130   2.456   4.749   0.741
 4744SOL    HW115131   2.546   4.708   0.750
 4744SOL    HW215132   2.386   4.678   0.749
 4745SOL     OW15133   3.030   3.592   5.982
 4745SOL    HW115134   2.996   3.662   6.046
 4745SOL    HW215135   2.981   3.507   5.997
 4746SOL     OW15136   4.979   6.363   3.316
 4746SOL    HW115137   4.896   6.319   3.351
 4746SOL    HW215138   5.059   6.313   3.348
 4747SOL     OW15139   1.402   4.361   0.079
 4747SOL    HW115140   1.398   4.457   0.052
 4747SOL    HW215141   1.433   4.354   0.173
 4748SOL     OW15142   2.477   5.402   1.380
 4748SOL    HW115143   2.414   5.333   1.416
 4748SOL    HW215144   2.444   5.493   1.405
 4749SOL     OW15145   2.135   6.463   6.470
 4749SOL    HW115146   2.128   6.422   6.380
 4749SOL    HW215147   2.204   6.414   6.524
 4750SOL     OW15148   6.982   4.000   4.880
 4750SOL    HW115149   6.983   3.908   4.919
 4750SOL    HW215150   0.052   4.032   4.870
 4751SOL     OW15151   4.136   1.922   2.975
 4751SOL    HW115152   4.138   1.845   3.039
 4751SOL    HW215153   4.168   2.004   3.022
 4752SOL     OW15154   4.443   1.115   7.022
 4752SOL    HW115155   4.369   1.109   6.955
 4752SOL    HW215156   4.468   1.211   0.013
 4753SOL     OW15157   0.222   0.370   4.490
 4753SOL    HW115158   0.224   0.397   4.394
 4753SOL    HW215159   0.267   0.440   4.545
 4754SOL     OW15160   5.341   4.089   4.198
 4754SOL    HW115161   5.260   4.034   4.176
 4754SOL    HW215162   5.334   4.178   4.153
 4755SOL     OW15163   2.624   1.230   0.458
 4755SOL    HW115164   2.591   1.222   0.364
 4755SOL    HW215165   2.682   1.152   0.480
 4756SOL     OW15166   5.380   3.699   5.804
 4756SOL    HW115167   5.416   3.635   5.872
 4756SOL    HW215168   5.449   3.768   5.785
 4757SOL     OW15169   2.432   2.181   1.395
 4757SOL    HW115170   2.439   2.220   1.487
 4757SOL    HW215171   2.409   2.254   1.330
 4758SOL     OW15172   1.518   6.808   3.113
 4758SOL    HW115173   1.604   6.845   3.078
 4758SOL    HW215174   1.449   6.810   3.041
 4759SOL     OW15175   0.395   4.902   6.277
 4759SOL    HW115176   0.362   4.822   6.227
 4759SOL    HW215177   0.494   4.909   6.266
 4760SOL     OW15178   2.041   2.361   0.691
 4760SOL    HW115179   2.044   2.286   0.625
 4760SOL    HW215180   2.037   2.323   0.784
 4761SOL     OW15181   0.942   6.671   0.282
 4761SOL    HW115182   0.969   6.643   0.374
 4761SOL    HW215183   0.912   6.767   0.285
 4762SOL     OW15184   1.023   5.063   2.005
 4762SOL    HW115185   1.107   5.073   2.058
 4762SOL    HW215186   1.007   4.967   1.984
 4763SOL     OW15187   5.704   0.791   2.501
 4763SOL    HW115188   5.650   0.868   2.533
 4763SOL    HW215189   5.709   0.792   2.401
 4764SOL     OW15190   4.478   4.231   5.251
 4764SOL    HW115191   4.497   4.133   5.262
 4764SOL    HW215192   4.381   4.244   5.230
 4765SOL     OW15193   3.713   0.538   5.851
 4765SOL    HW115194   3.771   0.591   5.788
 4765SOL    HW215195   3.617   0.546   5.823
 4766SOL     OW15196   6.000   5.119   3.594
 4766SOL    HW115197   6.091   5.123   3.636
 4766SOL    HW215198   5.930   5.133   3.664
 4767SOL     OW15199   3.251   5.232   5.006
 4767SOL    HW115200   3.196   5.172   5.064
 4767SOL    HW215201   3.274   5.315   5.058
 4768SOL     OW15202   4.267   2.340   6.801
 4768SOL    HW115203   4.286   2.405   6.875
 4768SOL    HW215204   4.290   2.383   6.713
 4769SOL     OW15205   4.705   5.973   0.308
 4769SOL    HW115206   4.724   6.058   0.357
 4769SOL    HW215207   4.777   5.957   0.241
 4770SOL     OW15208   0.175   2.015   4.715
 4770SOL    HW115209   0.210   2.087   4.655
 4770SOL    HW215210   0.079   1.998   4.694
 4771SOL     OW15211   2.915   6.338   6.062
 4771SOL    HW115212   2.837   6.388   6.099
 4771SOL    HW215213   2.998   6.366   6.109
 4772SOL     OW15214   3.584   4.904   6.862
 4772SOL    HW115215   3.571   4.868   6.770
 4772SOL    HW215216   3.551   4.837   6.929
 4773SOL     OW15217   6.749   5.152   5.713
 4773SOL    HW115218   6.829   5.124   5.660
 4773SOL    HW215219   6.742   5.251   5.712
 4774SOL     OW15220   1.874   4.075   0.874
 4774SOL    HW115221   1.893   4.124   0.959
 4774SOL    HW215222   1.782   4.036   0.877
 4775SOL     OW15223   5.254   6.218   3.433
 4775SOL    HW115224   5.301   6.286   3.489
 4775SOL    HW215225   5.312   6.193   3.355
 4776SOL     OW15226   0.613   0.314   5.153
 4776SOL    HW115227   0.612   0.219   5.120
 4776SOL    HW215228   0.664   0.371   5.089
 4777SOL     OW15229   1.517   4.955   0.981
 4777SOL    HW115230   1.433   4.920   1.022
 4777SOL    HW215231   1.512   4.948   0.882
 4778SOL     OW15232   6.784   3.287   4.441
 4778SOL    HW115233   6.818   3.207   4.392
 4778SOL    HW215234   6.719   3.336   4.383
 4779SOL     OW15235   5.240   0.496   3.108
 4779SOL    HW115236   5.328   0.533   3.136
 4779SOL    HW215237   5.192   0.565   3.053
 4780SOL     OW15238   6.316   3.056   6.771
 4780SOL    HW115239   6.376   3.023   6.844
 4780SOL    HW215240   6.372   3.092   6.696
 4781SOL     OW15241   2.474   4.901   2.269
 4781SOL    HW115242   2.499   4.854   2.353
 4781SOL    HW215243   2.489   4.840   2.191
 4782SOL     OW15244   6.185   5.069   6.877
 4782SOL    HW115245   6.252   5.117   6.820
 4782SOL    HW215246   6.115   5.134   6.907
 4783SOL     OW15247   5.048   3.457   7.015
 4783SOL    HW115248   5.005   3.377   6.972
 4783SOL    HW215249   4.990   3.490   0.065
 4784SOL     OW15250   6.408   1.799   6.346
 4784SOL    HW115251   6.485   1.784   6.284
 4784SOL    HW215252   6.384   1.896   6.346
 4785SOL     OW15253   0.563   5.859   3.028
 4785SOL    HW115254   0.655   5.823   3.010
 4785SOL    HW215255   0.567   5.922   3.105
 4786SOL     OW15256   2.133   0.045   0.326
 4786SOL    HW115257   2.185   0.027   0.242
 4786SOL    HW215258   2.177   7.022   0.402
 4787SOL     OW15259   3.955   1.426   2.916
 4787SOL    HW115260   3.882   1.359   2.927
 4787SOL    HW215261   3.948   1.468   2.826
 4788SOL     OW15262   6.822   6.695   0.106
 4788SOL    HW115263   6.878   6.623   0.066
 4788SOL    HW215264   6.867   6.731   0.188
 4789SOL     OW15265   5.364   1.578   1.756
 4789SOL    HW115266   5.449   1.574   1.704
 4789SOL    HW215267   5.318   1.665   1.739
 4790SOL     OW15268   6.088   1.451   5.499
 4790SOL    HW115269   6.022   1.442   5.574
 4790SOL    HW215270   6.132   1.541   5.505
 4791SOL     OW15271   0.163   2.851   1.426
 4791SOL    HW115272   0.235   2.827   1.492
 4791SOL    HW215273   0.175   2.946   1.398
 4792SOL     OW15274   2.382   4.399   4.107
 4792SOL    HW115275   2.363   4.496   4.114
 4792SOL    HW215276   2.326   4.349   4.173
 4793SOL     OW15277   1.529   2.358   5.508
 4793SOL    HW115278   1.496   2.307   5.588
 4793SOL    HW215279   1.602   2.420   5.535
 4794SOL     OW15280   4.812   0.124   4.411
 4794SOL    HW115281   4.850   0.157   4.497
 4794SOL    HW215282   4.883   0.120   4.341
 4795SOL     OW15283   6.537   1.767   4.462
 4795SOL    HW115284   6.619   1.825   4.462
 4795SOL    HW215285   6.544   1.699   4.389
 4796SOL     OW15286   4.108   1.008   5.403
 4796SOL    HW115287   4.018   1.030   5.364
 4796SOL    HW215288   4.172   1.082   5.381
 4797SOL     OW15289   0.303   6.901   4.860
 4797SOL    HW115290   0.273   6.986   4.904
 4797SOL    HW215291   0.326   6.920   4.764
 4798SOL     OW15292   0.379   4.465   5.815
 4798SOL    HW115293   0.281   4.460   5.831
 4798SOL    HW215294   0.416   4.373   5.800
 4799SOL     OW15295   4.300   1.806   0.594
 4799SOL    HW115296   4.365   1.801   0.669
 4799SOL    HW215297   4.350   1.820   0.508
 4800SOL     OW15298   1.926   3.312   6.435
 4800SOL    HW115299   2.010   3.363   6.421
 4800SOL    HW215300   1.874   3.353   6.510
 4801SOL     OW15301   2.990   2.422   0.154
 4801SOL    HW115302   2.987   2.348   0.220
 4801SOL    HW215303   2.962   2.388   0.064
 4802SOL     OW15304   0.632   6.630   1.933
 4802SOL    HW115305   0.550   6.660   1.886
 4802SOL    HW215306   0.697   6.706   1.940
 4803SOL     OW15307   0.466   4.528   0.540
 4803SOL    HW115308   0.444   4.570   0.628
 4803SOL    HW215309   0.554   4.482   0.545
 4804SOL     OW15310   6.506   6.195   1.454
 4804SOL    HW115311   6.423   6.177   1.401
 4804SOL    HW215312   6.585   6.154   1.407
 4805SOL     OW15313   6.348   0.882   2.720
 4805SOL    HW115314   6.305   0.953   2.665
 4805SOL    HW215315   6.413   0.923   2.783
 4806SOL     OW15316   0.861   4.214   2.739
 4806SOL    HW115317   0.828   4.220   2.644
 4806SOL    HW215318   0.786   4.185   2.798
 4807SOL     OW15319   0.487   4.918   6.783
 4807SOL    HW115320   0.518   4.826   6.807
 4807SOL    HW215321   0.502   4.935   6.686
 4808SOL     OW15322   4.233   5.659   0.317
 4808SOL    HW115323   4.202   5.753   0.309
 4808SOL    HW215324   4.242   5.619   0.226
 4809SOL     OW15325   3.262   4.517   0.635
 4809SOL    HW115326   3.344   4.518   0.577
 4809SOL    HW215327   3.290   4.527   0.731
 4810SOL     OW15328   1.189   3.922   3.281
 4810SOL    HW115329   1.268   3.887   3.232
 4810SOL    HW215330   1.219   3.975   3.360
 4811SOL     OW15331   3.639   3.794   2.557
 4811SOL    HW115332   3.626   3.867   2.491
 4811SOL    HW215333   3.697   3.723   2.518
 4812SOL     OW15334   0.882   0.203   2.431
 4812SOL    HW115335   0.883   0.125   2.494
 4812SOL    HW215336   0.976   0.221   2.399
 4813SOL     OW15337   5.972   1.301   6.657
 4813SOL    HW115338   5.987   1.229   6.589
 4813SOL    HW215339   6.036   1.376   6.640
 4814SOL     OW15340   6.809   3.022   1.025
 4814SOL    HW115341   6.726   2.971   1.004
 4814SOL    HW215342   6.841   2.998   1.117
 4815SOL     OW15343   5.285   4.117   3.313
 4815SOL    HW115344   5.308   4.211   3.287
 4815SOL    HW215345   5.200   4.089   3.268
 4816SOL     OW15346   2.308   5.199   1.006
 4816SOL    HW115347   2.395   5.233   1.043
 4816SOL    HW215348   2.327   5.126   0.940
 4817SOL     OW15349   2.591   1.544   0.785
 4817SOL    HW115350   2.652   1.481   0.737
 4817SOL    HW215351   2.619   1.550   0.881
 4818SOL     OW15352   0.916   0.866   4.342
 4818SOL    HW115353   0.925   0.958   4.304
 4818SOL    HW215354   0.819   0.846   4.358
 4819SOL     OW15355   2.453   2.361   1.594
 4819SOL    HW115356   2.474   2.359   1.691
 4819SOL    HW215357   2.476   2.451   1.556
 4820SOL     OW15358   6.598   1.771   1.151
 4820SOL    HW115359   6.518   1.740   1.101
 4820SOL    HW215360   6.617   1.867   1.126
 4821SOL     OW15361   0.368   0.145   1.930
 4821SOL    HW115362   0.337   0.071   1.872
 4821SOL    HW215363   0.290   0.189   1.975
 4822SOL     OW15364   2.020   2.794   3.952
 4822SOL    HW115365   2.062   2.882   3.931
 4822SOL    HW215366   1.941   2.809   4.011
 4823SOL     OW15367   1.077   1.216   3.799
 4823SOL    HW115368   1.158   1.257   3.757
 4823SOL    HW215369   1.040   1.145   3.738
 4824SOL     OW15370   5.666   1.767   4.004
 4824SOL    HW115371   5.699   1.825   3.929
 4824SOL    HW215372   5.742   1.741   4.063
 4825SOL     OW15373   1.896   2.490   4.822
 4825SOL    HW115374   1.802   2.516   4.797
 4825SOL    HW215375   1.897   2.461   4.917
 4826SOL     OW15376   0.233   0.635   6.294
 4826SOL    HW115377   0.234   0.600   6.200
 4826SOL    HW215378   0.188   0.569   6.354
 4827SOL     OW15379   5.949   2.610   1.781
 4827SOL    HW115380   5.889   2.616   1.861
 4827SOL    HW215381   5.947   2.517   1.745
 4828SOL     OW15382   5.564   2.842   1.028
 4828SOL    HW115383   5.538   2.795   1.112
 4828SOL    HW215384   5.553   2.780   0.950
 4829SOL     OW15385   3.706   6.386   6.875
 4829SOL    HW115386   3.615   6.423   6.854
 4829SOL    HW215387   3.707   6.289   6.853
 4830SOL     OW15388   4.971   6.503   3.552
 4830SOL    HW115389   5.000   6.436   3.620
 4830SOL    HW215390   4.971   6.461   3.462
 4831SOL     OW15391   0.117   4.743   6.647
 4831SOL    HW115392   0.033   4.795   6.636
 4831SOL    HW215393   0.104   4.650   6.613
 4832SOL     OW15394   2.669   2.365   5.615
 4832SOL    HW115395   2.670   2.441   5.549
 4832SOL    HW215396   2.677   2.402   5.708
 4833SOL     OW15397   4.929   1.483   2.680
 4833SOL    HW115398   4.994   1.408   2.665
 4833SOL    HW215399   4.859   1.480   2.609
 4834SOL     OW15400   3.960   0.011   0.947
 4834SOL    HW115401   3.909   6.980   1.012
 4834SOL    HW215402   3.975   6.983   0.863
 4835SOL     OW15403   0.570   2.024   6.259
 4835SOL    HW115404   0.616   1.971   6.186
 4835SOL    HW215405   0.515   1.962   6.314
 4836SOL     OW15406   4.895   3.048   4.005
 4836SOL    HW115407   4.833   2.970   4.010
 4836SOL    HW215408   4.988   3.016   3.987
 4837SOL     OW15409   5.019   3.883   2.237
 4837SOL    HW115410   4.989   3.893   2.142
 4837SOL    HW215411   4.966   3.946   2.295
 4838SOL     OW15412   1.174   4.841   1.605
 4838SOL    HW115413   1.229   4.914   1.564
 4838SOL    HW215414   1.227   4.794   1.675
 4839SOL     OW15415   1.310   3.132   6.107
 4839SOL    HW115416   1.290   3.125   6.204
 4839SOL    HW215417   1.351   3.221   6.087
 4840SOL     OW15418   0.782   5.585   5.878
 4840SOL    HW115419   0.838   5.514   5.834
 4840SOL    HW215420   0.728   5.632   5.808
 4841SOL     OW15421   2.914   6.312   1.724
 4841SOL    HW115422   3.004   6.293   1.687
 4841SOL    HW215423   2.877   6.229   1.767
 4842SOL     OW15424   3.074   4.884   2.169
 4842SOL    HW115425   2.979   4.873   2.201
 4842SOL    HW215426   3.086   4.836   2.082
 4843SOL     OW15427   6.256   3.521   0.304
 4843SOL    HW115428   6.174   3.465   0.293
 4843SOL    HW215429   6.241   3.586   0.379
 4844SOL     OW15430   6.716   3.980   5.578
 4844SOL    HW115431   6.683   3.885   5.573
 4844SOL    HW215432   6.751   3.998   5.670
 4845SOL     OW15433   5.808   5.766   5.284
 4845SOL    HW115434   5.720   5.802   5.317
 4845SOL    HW215435   5.877   5.774   5.356
 4846SOL     OW15436   6.543   3.075   3.057
 4846SOL    HW115437   6.601   3.094   2.978
 4846SOL    HW215438   6.585   3.004   3.114
 4847SOL     OW15439   3.150   1.140   5.828
 4847SOL    HW115440   3.072   1.151   5.767
 4847SOL    HW215441   3.145   1.051   5.873
 4848SOL     OW15442   1.447   0.933   4.053
 4848SOL    HW115443   1.445   0.870   3.975
 4848SOL    HW215444   1.534   0.983   4.053
 4849SOL     OW15445   1.368   6.674   6.541
 4849SOL    HW115446   1.391   6.622   6.624
 4849SOL    HW215447   1.449   6.723   6.509
 4850SOL     OW15448   3.935   1.566   2.682
 4850SOL    HW115449   3.907   1.646   2.734
 4850SOL    HW215450   4.004   1.592   2.614
 4851SOL     OW15451   4.282   6.313   5.680
 4851SOL    HW115452   4.210   6.251   5.649
 4851SOL    HW215453   4.262   6.344   5.773
 4852SOL     OW15454   1.354   0.257   5.021
 4852SOL    HW115455   1.391   0.287   5.108
 4852SOL    HW215456   1.402   0.303   4.946
 4853SOL     OW15457   2.712   1.047   3.299
 4853SOL    HW115458   2.671   0.964   3.261
 4853SOL    HW215459   2.799   1.024   3.343
 4854SOL     OW15460   4.812   6.729   1.960
 4854SOL    HW115461   4.766   6.677   2.032
 4854SOL    HW215462   4.867   6.802   2.001
 4855SOL     OW15463   6.601   3.246   2.114
 4855SOL    HW115464   6.509   3.253   2.075
 4855SOL    HW215465   6.618   3.151   2.143
 4856SOL     OW15466   1.748   3.794   2.507
 4856SOL    HW115467   1.684   3.723   2.533
 4856SOL    HW215468   1.747   3.806   2.408
 4857SOL     OW15469   1.543   2.260   5.007
 4857SOL    HW115470   1.640   2.245   4.988
 4857SOL    HW215471   1.516   2.350   4.974
 4858SOL     OW15472   1.153   0.989   4.581
 4858SOL    HW115473   1.128   0.897   4.549
 4858SOL    HW215474   1.171   1.048   4.502
 4859SOL     OW15475   0.816   0.638   4.613
 4859SOL    HW115476   0.905   0.680   4.595
 4859SOL    HW215477   0.808   0.555   4.558
 4860SOL     OW15478   3.794   4.365   1.346
 4860SOL    HW115479   3.761   4.455   1.317
 4860SOL    HW215480   3.769   4.349   1.441
 4861SOL     OW15481   5.093   4.653   6.888
 4861SOL    HW115482   5.171   4.701   6.929
 4861SOL    HW215483   5.009   4.679   6.935
 4862SOL     OW15484   2.780   4.751   4.658
 4862SOL    HW115485   2.819   4.815   4.592
 4862SOL    HW215486   2.817   4.771   4.749
 4863SOL     OW15487   5.893   3.569   1.662
 4863SOL    HW115488   5.878   3.511   1.582
 4863SOL    HW215489   5.805   3.598   1.699
 4864SOL     OW15490   3.493   1.214   3.091
 4864SOL    HW115491   3.526   1.237   3.183
 4864SOL    HW215492   3.499   1.295   3.033
 4865SOL     OW15493   2.155   0.423   5.229
 4865SOL    HW115494   2.221   0.366   5.276
 4865SOL    HW215495   2.160   0.406   5.130
 4866SOL     OW15496   6.286   2.043   1.322
 4866SOL    HW115497   6.280   2.134   1.281
 4866SOL    HW215498   6.216   2.033   1.391
 4867SOL     OW15499   3.499   5.343   2.094
 4867SOL    HW115500   3.560   5.266   2.075
 4867SOL    HW215501   3.553   5.426   2.102
 4868SOL     OW15502   6.540   5.260   2.720
 4868SOL    HW115503   6.611   5.329   2.735
 4868SOL    HW215504   6.491   5.280   2.635
 4869SOL     OW15505   1.393   1.646   1.697
 4869SOL    HW115506   1.397   1.725   1.635
 4869SOL    HW215507   1.306   1.645   1.744
 4870SOL     OW15508   0.145   6.212   1.935
 4870SOL    HW115509   0.197   6.227   2.019
 4870SOL    HW215510   0.169   6.124   1.896
 4871SOL     OW15511   1.265   0.608   3.835
 4871SOL    HW115512   1.324   0.558   3.771
 4871SOL    HW215513   1.197   0.545   3.873
 4872SOL     OW15514   6.372   0.189   3.795
 4872SOL    HW115515   6.340   0.272   3.839
 4872SOL    HW215516   6.306   0.115   3.812
 4873SOL     OW15517   6.303   5.275   3.323
 4873SOL    HW115518   6.352   5.220   3.255
 4873SOL    HW215519   6.317   5.372   3.304
 4874SOL     OW15520   6.713   3.171   2.567
 4874SOL    HW115521   6.745   3.100   2.505
 4874SOL    HW215522   6.618   3.193   2.547
 4875SOL     OW15523   5.724   2.216   0.782
 4875SOL    HW115524   5.717   2.244   0.878
 4875SOL    HW215525   5.710   2.118   0.775
 4876SOL     OW15526   5.971   2.314   3.277
 4876SOL    HW115527   6.062   2.294   3.312
 4876SOL    HW215528   5.938   2.237   3.222
 4877SOL     OW15529   1.323   1.767   6.394
 4877SOL    HW115530   1.284   1.779   6.303
 4877SOL    HW215531   1.422   1.782   6.390
 4878SOL     OW15532   6.155   1.458   2.026
 4878SOL    HW115533   6.075   1.417   2.069
 4878SOL    HW215534   6.201   1.391   1.967
 4879SOL     OW15535   4.376   0.718   2.845
 4879SOL    HW115536   4.403   0.738   2.939
 4879SOL    HW215537   4.279   0.694   2.842
 4880SOL     OW15538   5.329   3.585   0.270
 4880SOL    HW115539   5.349   3.587   0.368
 4880SOL    HW215540   5.307   3.678   0.239
 4881SOL     OW15541   1.325   0.691   0.607
 4881SOL    HW115542   1.307   0.768   0.667
 4881SOL    HW215543   1.421   0.693   0.577
 4882SOL     OW15544   4.678   0.976   4.556
 4882SOL    HW115545   4.727   1.052   4.513
 4882SOL    HW215546   4.610   0.939   4.493
 4883SOL     OW15547   4.866   5.099   1.909
 4883SOL    HW115548   4.949   5.070   1.862
 4883SOL    HW215549   4.880   5.190   1.948
 4884SOL     OW15550   2.589   6.755   0.956
 4884SOL    HW115551   2.623   6.766   0.863
 4884SOL    HW215552   2.625   6.829   1.013
 4885SOL     OW15553   2.586   5.600   2.072
 4885SOL    HW115554   2.632   5.594   2.161
 4885SOL    HW215555   2.616   5.683   2.025
 4886SOL     OW15556   1.170   5.954   1.372
 4886SOL    HW115557   1.151   6.032   1.313
 4886SOL    HW215558   1.268   5.932   1.369
 4887SOL     OW15559   0.310   0.418   2.225
 4887SOL    HW115560   0.299   0.492   2.292
 4887SOL    HW215561   0.221   0.387   2.194
 4888SOL     OW15562   2.693   0.232   3.992
 4888SOL    HW115563   2.754   0.266   4.063
 4888SOL    HW215564   2.599   0.259   4.012
 4889SOL     OW15565   6.869   1.767   5.078
 4889SOL    HW115566   6.915   1.854   5.063
 4889SOL    HW215567   6.796   1.779   5.145
 4890SOL     OW15568   0.279   1.133   6.643
 4890SOL    HW115569   0.277   1.128   6.543
 4890SOL    HW215570   0.291   1.228   6.671
 4891SOL     OW15571   2.289   4.757   6.684
 4891SOL    HW115572   2.314   4.730   6.591
 4891SOL    HW215573   2.198   4.723   6.705
 4892SOL     OW15574   3.516   6.100   1.979
 4892SOL    HW115575   3.458   6.103   1.897
 4892SOL    HW215576   3.568   6.185   1.986
 4893SOL     OW15577   6.542   2.931   1.202
 4893SOL    HW115578   6.620   2.879   1.237
 4893SOL    HW215579   6.458   2.902   1.248
 4894SOL     OW15580   2.643   0.595   3.608
 4894SOL    HW115581   2.613   0.609   3.514
 4894SOL    HW215582   2.727   0.541   3.610
 4895SOL     OW15583   0.639   4.567   4.156
 4895SOL    HW115584   0.584   4.484   4.144
 4895SOL    HW215585   0.643   4.590   4.254
 4896SOL     OW15586   1.644   4.791   2.197
 4896SOL    HW115587   1.639   4.698   2.161
 4896SOL    HW215588   1.713   4.843   2.146
 4897SOL     OW15589   2.011   3.872   5.693
 4897SOL    HW115590   2.072   3.940   5.652
 4897SOL    HW215591   2.043   3.851   5.785
 4898SOL     OW15592   4.054   0.609   4.160
 4898SOL    HW115593   4.094   0.629   4.071
 4898SOL    HW215594   4.036   0.511   4.168
 4899SOL     OW15595   5.194   5.418   3.414
 4899SOL    HW115596   5.194   5.511   3.450
 4899SOL    HW215597   5.282   5.400   3.369
 4900SOL     OW15598   3.505   6.329   4.586
 4900SOL    HW115599   3.495   6.239   4.629
 4900SOL    HW215600   3.417   6.376   4.585
 4901SOL     OW15601   3.057   0.948   5.085
 4901SOL    HW115602   2.988   0.957   5.157
 4901SOL    HW215603   3.144   0.919   5.126
 4902SOL     OW15604   2.034   1.543   4.685
 4902SOL    HW115605   2.089   1.460   4.675
 4902SOL    HW215606   2.042   1.599   4.602
 4903SOL     OW15607   4.133   5.816   6.908
 4903SOL    HW115608   4.112   5.902   6.861
 4903SOL    HW215609   4.116   5.739   6.846
 4904SOL     OW15610   2.422   0.052   4.840
 4904SOL    HW115611   2.495   0.115   4.812
 4904SOL    HW215612   2.333   0.095   4.825
 4905SOL     OW15613   3.408   0.168   2.815
 4905SOL    HW115614   3.381   0.248   2.869
 4905SOL    HW215615   3.328   0.109   2.803
 4906SOL     OW15616   5.104   2.029   6.448
 4906SOL    HW115617   5.015   2.069   6.467
 4906SOL    HW215618   5.095   1.930   6.437
 4907SOL     OW15619   4.191   6.046   2.267
 4907SOL    HW115620   4.238   5.973   2.318
 4907SOL    HW215621   4.153   6.009   2.183
 4908SOL     OW15622   5.574   5.563   0.784
 4908SOL    HW115623   5.663   5.538   0.823
 4908SOL    HW215624   5.563   5.662   0.786
 4909SOL     OW15625   0.488   0.118   3.829
 4909SOL    HW115626   0.525   0.077   3.745
 4909SOL    HW215627   0.421   0.188   3.804
 4910SOL     OW15628   5.458   0.940   4.954
 4910SOL    HW115629   5.371   0.959   4.999
 4910SOL    HW215630   5.515   1.023   4.957
 4911SOL     OW15631   1.495   4.436   3.806
 4911SOL    HW115632   1.436   4.492   3.863
 4911SOL    HW215633   1.546   4.372   3.865
 4912SOL     OW15634   5.653   1.543   6.402
 4912SOL    HW115635   5.621   1.560   6.495
 4912SOL    HW215636   5.602   1.601   6.338
 4913SOL     OW15637   4.116   3.044   5.309
 4913SOL    HW115638   4.016   3.039   5.313
 4913SOL    HW215639   4.145   3.140   5.305
 4914SOL     OW15640   3.082   0.341   4.755
 4914SOL    HW115641   3.140   0.361   4.834
 4914SOL    HW215642   3.126   0.271   4.698
 4915SOL     OW15643   3.385   6.386   5.695
 4915SOL    HW115644   3.416   6.291   5.696
 4915SOL    HW215645   3.353   6.409   5.603
 4916SOL     OW15646   0.899   0.439   3.983
 4916SOL    HW115647   0.917   0.352   3.937
 4916SOL    HW215648   0.985   0.479   4.014
 4917SOL     OW15649   2.601   5.644   1.526
 4917SOL    HW115650   2.677   5.684   1.577
 4917SOL    HW215651   2.562   5.712   1.465
 4918SOL     OW15652   4.932   5.587   3.459
 4918SOL    HW115653   4.832   5.590   3.457
 4918SOL    HW215654   4.967   5.566   3.368
 4919SOL     OW15655   3.178   2.419   0.656
 4919SOL    HW115656   3.088   2.463   0.659
 4919SOL    HW215657   3.194   2.381   0.565
 4920SOL     OW15658   5.567   0.670   4.097
 4920SOL    HW115659   5.636   0.614   4.143
 4920SOL    HW215660   5.476   0.636   4.120
 4921SOL     OW15661   1.270   5.060   0.803
 4921SOL    HW115662   1.310   5.132   0.747
 4921SOL    HW215663   1.239   5.100   0.890
 4922SOL     OW15664   2.566   2.438   5.133
 4922SOL    HW115665   2.490   2.461   5.073
 4922SOL    HW215666   2.643   2.500   5.116
 4923SOL     OW15667   3.690   1.882   2.886
 4923SOL    HW115668   3.782   1.894   2.848
 4923SOL    HW215669   3.697   1.864   2.984
 4924SOL     OW15670   3.841   1.042   5.081
 4924SOL    HW115671   3.824   1.130   5.126
 4924SOL    HW215672   3.755   0.994   5.070
 4925SOL     OW15673   6.421   6.939   2.358
 4925SOL    HW115674   6.384   7.006   2.422
 4925SOL    HW215675   6.471   6.869   2.408
 4926SOL     OW15676   4.644   1.125   0.309
 4926SOL    HW115677   4.686   1.145   0.220
 4926SOL    HW215678   4.544   1.122   0.298
 4927SOL     OW15679   3.494   3.819   4.540
 4927SOL    HW115680   3.400   3.849   4.522
 4927SOL    HW215681   3.496   3.719   4.544
 4928SOL     OW15682   2.002   6.495   6.991
 4928SOL    HW115683   1.946   6.429   6.939
 4928SOL    HW215684   2.098   6.467   6.988
 4929SOL     OW15685   6.742   6.845   4.283
 4929SOL    HW115686   6.712   6.940   4.274
 4929SOL    HW215687   6.671   6.784   4.249
 4930SOL     OW15688   5.535   1.041   3.074
 4930SOL    HW115689   5.464   0.994   3.126
 4930SOL    HW215690   5.493   1.095   3.001
 4931SOL     OW15691   0.022   6.603   0.971
 4931SOL    HW115692   7.021   6.695   0.939
 4931SOL    HW215693   0.033   6.542   0.893
 4932SOL     OW15694   3.175   2.945   2.159
 4932SOL    HW115695   3.143   2.909   2.071
 4932SOL    HW215696   3.113   3.017   2.190
 4933SOL     OW15697   2.426   0.016   2.931
 4933SOL    HW115698   2.376   0.091   2.887
 4933SOL    HW215699   2.512   0.052   2.969
 4934SOL     OW15700   3.190   5.657   3.105
 4934SOL    HW115701   3.271   5.609   3.070
 4934SOL    HW215702   3.112   5.593   3.107
 4935SOL     OW15703   1.992   1.931   6.457
 4935SOL    HW115704   1.934   1.878   6.519
 4935SOL    HW215705   2.088   1.920   6.482
 4936SOL     OW15706   2.615   4.700   1.492
 4936SOL    HW115707   2.587   4.772   1.427
 4936SOL    HW215708   2.541   4.633   1.501
 4937SOL     OW15709   6.054   3.161   5.670
 4937SOL    HW115710   6.069   3.251   5.710
 4937SOL    HW215711   6.013   3.171   5.579
 4938SOL     OW15712   2.348   5.308   5.751
 4938SOL    HW115713   2.300   5.296   5.838
 4938SOL    HW215714   2.406   5.228   5.734
 4939SOL     OW15715   6.171   2.270   4.835
 4939SOL    HW115716   6.181   2.367   4.853
 4939SOL    HW215717   6.098   2.256   4.768
 4940SOL     OW15718   0.244   1.330   4.609
 4940SOL    HW115719   0.266   1.422   4.643
 4940SOL    HW215720   0.167   1.293   4.661
 4941SOL     OW15721   5.261   2.163   5.517
 4941SOL    HW115722   5.294   2.072   5.491
 4941SOL    HW215723   5.167   2.175   5.486
 4942SOL     OW15724   4.987   2.005   6.052
 4942SOL    HW115725   4.922   2.077   6.074
 4942SOL    HW215726   5.068   2.045   6.009
 4943SOL     OW15727   4.862   3.207   6.931
 4943SOL    HW115728   4.862   3.202   0.007
 4943SOL    HW215729   4.799   3.279   6.902
 4944SOL     OW15730   1.719   4.310   1.614
 4944SOL    HW115731   1.777   4.308   1.695
 4944SOL    HW215732   1.666   4.394   1.612
 4945SOL     OW15733   1.084   0.669   4.571
 4945SOL    HW115734   1.145   0.640   4.497
 4945SOL    HW215735   1.097   0.610   4.650
 4946SOL     OW15736   1.171   4.232   0.372
 4946SOL    HW115737   1.270   4.223   0.382
 4946SOL    HW215738   1.128   4.229   0.462
 4947SOL     OW15739   2.275   1.031   1.266
 4947SOL    HW115740   2.370   1.047   1.238
 4947SOL    HW215741   2.220   1.110   1.240
 4948SOL     OW15742   1.259   2.359   2.214
 4948SOL    HW115743   1.356   2.356   2.241
 4948SOL    HW215744   1.252   2.359   2.115
 4949SOL     OW15745   4.718   6.984   6.292
 4949SOL    HW115746   4.747   6.900   6.338
 4949SOL    HW215747   4.652   0.008   6.349
 4950SOL     OW15748   2.251   5.398   4.427
 4950SOL    HW115749   2.314   5.342   4.373
 4950SOL    HW215750   2.276   5.495   4.417
 4951SOL     OW15751   5.271   1.642   4.102
 4951SOL    HW115752   5.331   1.720   4.120
 4951SOL    HW215753   5.277   1.578   4.179
 4952SOL     OW15754   0.247   0.917   5.802
 4952SOL    HW115755   0.188   0.957   5.872
 4952SOL    HW215756   0.272   0.824   5.829
 4953SOL     OW15757   2.147   6.540   2.260
 4953SOL    HW115758   2.156   6.592   2.175
 4953SOL    HW215759   2.129   6.603   2.336
 4954SOL     OW15760   4.305   3.528   0.061
 4954SOL    HW115761   4.254   3.460   0.114
 4954SOL    HW215762   4.328   3.605   0.120
 4955SOL     OW15763   2.979   6.133   6.861
 4955SOL    HW115764   3.079   6.131   6.864
 4955SOL    HW215765   2.944   6.039   6.869
 4956SOL     OW15766   2.553   6.667   4.889
 4956SOL    HW115767   2.608   6.611   4.952
 4956SOL    HW215768   2.473   6.614   4.860
 4957SOL     OW15769   6.750   1.989   1.968
 4957SOL    HW115770   6.842   1.949   1.975
 4957SOL    HW215771   6.717   1.980   1.874
 4958SOL     OW15772   6.428   5.298   5.359
 4958SOL    HW115773   6.453   5.346   5.275
 4958SOL    HW215774   6.476   5.210   5.363
 4959SOL     OW15775   6.396   1.211   6.328
 4959SOL    HW115776   6.490   1.238   6.350
 4959SOL    HW215777   6.357   1.161   6.406
 4960SOL     OW15778   3.549   5.498   3.313
 4960SOL    HW115779   3.511   5.582   3.274
 4960SOL    HW215780   3.601   5.449   3.244
 4961SOL     OW15781   4.825   1.663   5.936
 4961SOL    HW115782   4.914   1.700   5.910
 4961SOL    HW215783   4.830   1.624   6.027
 4962SOL     OW15784   6.422   2.095   0.090
 4962SOL    HW115785   6.374   2.144   0.017
 4962SOL    HW215786   6.356   2.044   0.146
 4963SOL     OW15787   5.933   5.396   6.860
 4963SOL    HW115788   5.960   5.300   6.870
 4963SOL    HW215789   5.898   5.430   6.948
 4964SOL     OW15790   3.392   6.811   3.625
 4964SOL    HW115791   3.297   6.840   3.633
 4964SOL    HW215792   3.396   6.717   3.591
 4965SOL     OW15793   0.275   0.493   3.340
 4965SOL    HW115794   0.311   0.436   3.414
 4965SOL    HW215795   0.183   0.525   3.365
 4966SOL     OW15796   2.516   0.426   4.938
 4966SOL    HW115797   2.544   0.374   5.019
 4966SOL    HW215798   2.526   0.367   4.857
 4967SOL     OW15799   3.902   4.098   6.224
 4967SOL    HW115800   3.859   4.172   6.172
 4967SOL    HW215801   3.894   4.013   6.172
 4968SOL     OW15802   6.378   2.419   3.227
 4968SOL    HW115803   6.341   2.508   3.252
 4968SOL    HW215804   6.435   2.428   3.146
 4969SOL     OW15805   2.372   0.555   2.183
 4969SOL    HW115806   2.346   0.468   2.142
 4969SOL    HW215807   2.310   0.576   2.259
 4970SOL     OW15808   1.696   1.839   3.602
 4970SOL    HW115809   1.718   1.750   3.640
 4970SOL    HW215810   1.609   1.871   3.639
 4971SOL     OW15811   6.404   6.717   3.949
 4971SOL    HW115812   6.306   6.731   3.932
 4971SOL    HW215813   6.454   6.718   3.863
 4972SOL     OW15814   2.425   2.794   0.008
 4972SOL    HW115815   2.370   2.874   0.029
 4972SOL    HW215816   2.408   2.723   0.076
 4973SOL     OW15817   1.146   0.208   2.369
 4973SOL    HW115818   1.180   0.147   2.298
 4973SOL    HW215819   1.223   0.256   2.411
 4974SOL     OW15820   5.977   5.127   1.968
 4974SOL    HW115821   6.034   5.205   1.943
 4974SOL    HW215822   5.924   5.097   1.888
 4975SOL     OW15823   5.475   5.006   5.932
 4975SOL    HW115824   5.421   5.026   5.850
 4975SOL    HW215825   5.521   4.918   5.919
 4976SOL     OW15826   2.786   6.929   4.240
 4976SOL    HW115827   2.783   7.022   4.277
 4976SOL    HW215828   2.822   6.932   4.146
 4977SOL     OW15829   4.298   4.104   0.507
 4977SOL    HW115830   4.225   4.153   0.461
 4977SOL    HW215831   4.317   4.147   0.595
 4978SOL     OW15832   6.918   4.201   5.617
 4978SOL    HW115833   6.845   4.133   5.608
 4978SOL    HW215834   6.926   4.253   5.531
 4979SOL     OW15835   0.434   0.274   5.495
 4979SOL    HW115836   0.402   0.332   5.421
 4979SOL    HW215837   0.356   0.228   5.538
 4980SOL     OW15838   4.735   6.247   3.401
 4980SOL    HW115839   4.646   6.244   3.356
 4980SOL    HW215840   4.771   6.154   3.411
 4981SOL     OW15841   5.184   6.081   6.391
 4981SOL    HW115842   5.151   6.148   6.325
 4981SOL    HW215843   5.250   6.125   6.453
 4982SOL     OW15844   2.568   1.751   6.439
 4982SOL    HW115845   2.520   1.723   6.357
 4982SOL    HW215846   2.583   1.672   6.498
 4983SOL     OW15847   5.274   2.240   4.251
 4983SOL    HW115848   5.355   2.261   4.307
 4983SOL    HW215849   5.225   2.325   4.231
 4984SOL     OW15850   5.986   4.683   4.272
 4984SOL    HW115851   5.971   4.584   4.268
 4984SOL    HW215852   6.076   4.705   4.235
 4985SOL     OW15853   6.127   6.412   3.183
 4985SOL    HW115854   6.165   6.323   3.157
 4985SOL    HW215855   6.200   6.481   3.180
 4986SOL     OW15856   6.048   4.016   2.888
 4986SOL    HW115857   6.037   4.089   2.820
 4986SOL    HW215858   5.971   3.952   2.881
 4987SOL     OW15859   1.154   1.374   0.945
 4987SOL    HW115860   1.122   1.300   0.885
 4987SOL    HW215861   1.218   1.432   0.895
 4988SOL     OW15862   5.980   1.135   3.423
 4988SOL    HW115863   6.019   1.218   3.384
 4988SOL    HW215864   5.900   1.108   3.369
 4989SOL     OW15865   5.440   0.478   1.129
 4989SOL    HW115866   5.438   0.575   1.106
 4989SOL    HW215867   5.535   0.450   1.146
 4990SOL     OW15868   1.869   1.643   5.662
 4990SOL    HW115869   1.958   1.631   5.618
 4990SOL    HW215870   1.820   1.556   5.661
 4991SOL     OW15871   0.234   3.955   4.560
 4991SOL    HW115872   0.274   3.911   4.640
 4991SOL    HW215873   0.175   3.891   4.511
 4992SOL     OW15874   4.635   0.908   5.098
 4992SOL    HW115875   4.732   0.933   5.096
 4992SOL    HW215876   4.600   0.903   5.004
 4993SOL     OW15877   3.517   5.173   3.903
 4993SOL    HW115878   3.520   5.074   3.887
 4993SOL    HW215879   3.445   5.193   3.970
 4994SOL     OW15880   1.532   0.145   2.232
 4994SOL    HW115881   1.583   0.059   2.235
 4994SOL    HW215882   1.478   0.154   2.316
 4995SOL     OW15883   6.693   3.194   5.707
 4995SOL    HW115884   6.635   3.211   5.787
 4995SOL    HW215885   6.641   3.143   5.638
 4996SOL     OW15886   1.514   1.247   2.437
 4996SOL    HW115887   1.415   1.248   2.450
 4996SOL    HW215888   1.535   1.213   2.345
 4997SOL     OW15889   6.304   1.799   3.178
 4997SOL    HW115890   6.268   1.765   3.264
 4997SOL    HW215891   6.229   1.807   3.111
 4998SOL     OW15892   2.190   3.732   5.208
 4998SOL    HW115893   2.287   3.758   5.211
 4998SOL    HW215894   2.134   3.813   5.225
 4999SOL     OW15895   5.831   4.875   1.392
 4999SOL    HW115896   5.750   4.896   1.337
 4999SOL    HW215897   5.814   4.792   1.445
 5000SOL     OW15898   2.076   6.131   3.899
 5000SOL    HW115899   2.046   6.226   3.897
 5000SOL    HW215900   2.016   6.076   3.841
 5001SOL     OW15901   1.559   4.219   0.775
 5001SOL    HW115902   1.578   4.250   0.868
 5001SOL    HW215903   1.519   4.295   0.723
 5002SOL     OW15904   1.439   3.136   3.455
 5002SOL    HW115905   1.455   3.235   3.448
 5002SOL    HW215906   1.505   3.088   3.398
 5003SOL     OW15907   2.250   6.594   2.695
 5003SOL    HW115908   2.279   6.597   2.599
 5003SOL    HW215909   2.313   6.537   2.747
 5004SOL     OW15910   3.106   4.948   5.587
 5004SOL    HW115911   3.092   4.908   5.497
 5004SOL    HW215912   3.079   4.882   5.657
 5005SOL     OW15913   3.593   2.160   0.994
 5005SOL    HW115914   3.570   2.082   0.936
 5005SOL    HW215915   3.682   2.196   0.967
 5006SOL     OW15916   4.723   6.767   6.791
 5006SOL    HW115917   4.706   6.671   6.814
 5006SOL    HW215918   4.719   6.822   6.875
 5007SOL     OW15919   1.590   0.350   6.667
 5007SOL    HW115920   1.579   0.392   6.757
 5007SOL    HW215921   1.525   0.274   6.659
 5008SOL     OW15922   6.465   0.515   3.130
 5008SOL    HW115923   6.424   0.430   3.098
 5008SOL    HW215924   6.406   0.592   3.107
 5009SOL     OW15925   1.789   6.206   1.561
 5009SOL    HW115926   1.807   6.176   1.655
 5009SOL    HW215927   1.729   6.141   1.515
 5010SOL     OW15928   3.652   2.842   2.612
 5010SOL    HW115929   3.723   2.775   2.590
 5010SOL    HW215930   3.678   2.931   2.573
 5011SOL     OW15931   1.834   3.577   2.741
 5011SOL    HW115932   1.894   3.653   2.768
 5011SOL    HW215933   1.858   3.548   2.648
 5012SOL     OW15934   4.917   3.630   6.455
 5012SOL    HW115935   4.855   3.604   6.381
 5012SOL    HW215936   5.011   3.630   6.421
 5013SOL     OW15937   5.095   1.484   0.175
 5013SOL    HW115938   5.117   1.450   0.267
 5013SOL    HW215939   5.118   1.581   0.168
 5014SOL     OW15940   5.101   4.257   0.817
 5014SOL    HW115941   5.038   4.213   0.882
 5014SOL    HW215942   5.052   4.326   0.764
 5015SOL     OW15943   4.480   2.237   3.650
 5015SOL    HW115944   4.542   2.308   3.616
 5015SOL    HW215945   4.389   2.251   3.611
 5016SOL     OW15946   2.777   1.848   0.811
 5016SOL    HW115947   2.764   1.934   0.860
 5016SOL    HW215948   2.710   1.841   0.738
 5017SOL     OW15949   1.848   2.628   7.003
 5017SOL    HW115950   1.914   2.572   0.028
 5017SOL    HW215951   1.797   2.684   0.043
 5018SOL     OW15952   0.921   4.052   1.447
 5018SOL    HW115953   0.871   3.985   1.392
 5018SOL    HW215954   0.905   4.144   1.411
 5019SOL     OW15955   2.238   5.065   6.757
 5019SOL    HW115956   2.257   4.967   6.751
 5019SOL    HW215957   2.152   5.085   6.711
 5020SOL     OW15958   4.838   6.997   6.063
 5020SOL    HW115959   4.782   6.991   6.145
 5020SOL    HW215960   4.820   6.918   6.004
 5021SOL     OW15961   1.530   1.889   5.833
 5021SOL    HW115962   1.590   1.963   5.862
 5021SOL    HW215963   1.521   1.822   5.907
 5022SOL     OW15964   1.835   0.160   0.000
 5022SOL    HW115965   1.736   0.172   7.010
 5022SOL    HW215966   1.862   0.069   6.995
 5023SOL     OW15967   6.383   2.428   0.847
 5023SOL    HW115968   6.415   2.506   0.901
 5023SOL    HW215969   6.295   2.451   0.804
 5024SOL     OW15970   6.698   5.525   2.805
 5024SOL    HW115971   6.784   5.531   2.856
 5024SOL    HW215972   6.706   5.574   2.719
 5025SOL     OW15973   3.870   2.046   2.119
 5025SOL    HW115974   3.794   2.087   2.069
 5025SOL    HW215975   3.880   1.950   2.092
 5026SOL     OW15976   5.589   6.375   6.854
 5026SOL    HW115977   5.606   6.447   6.786
 5026SOL    HW215978   5.622   6.288   6.819
 5027SOL     OW15979   0.563   6.797   2.676
 5027SOL    HW115980   0.515   6.735   2.615
 5027SOL    HW215981   0.652   6.758   2.701
 5028SOL     OW15982   0.356   6.118   3.418
 5028SOL    HW115983   0.298   6.050   3.464
 5028SOL    HW215984   0.302   6.199   3.396
 5029SOL     OW15985   6.936   3.846   3.725
 5029SOL    HW115986   6.905   3.806   3.639
 5029SOL    HW215987   0.008   3.873   3.717
 5030SOL     OW15988   6.709   0.965   6.347
 5030SOL    HW115989   6.667   1.020   6.419
 5030SOL    HW215990   6.768   0.896   6.388
 5031SOL     OW15991   5.479   0.432   4.696
 5031SOL    HW115992   5.540   0.495   4.648
 5031SOL    HW215993   5.465   0.463   4.789
 5032SOL     OW15994   1.632   4.052   1.164
 5032SOL    HW115995   1.690   4.129   1.192
 5032SOL    HW215996   1.634   4.043   1.065
 5033SOL     OW15997   2.043   5.267   6.264
 5033SOL    HW115998   2.006   5.355   6.236
 5033SOL    HW215999   2.001   5.194   6.210
 5034SOL     OW16000   6.792   2.258   2.612
 5034SOL    HW116001   6.710   2.203   2.595
 5034SOL    HW216002   6.801   2.327   2.541
 5035SOL     OW16003   6.176   4.615   0.507
 5035SOL    HW116004   6.241   4.545   0.479
 5035SOL    HW216005   6.207   4.705   0.476
 5036SOL     OW16006   6.960   4.531   6.881
 5036SOL    HW116007   6.956   4.431   6.883
 5036SOL    HW216008   0.019   4.560   6.835
 5037SOL     OW16009   5.302   2.260   2.573
 5037SOL    HW116010   5.210   2.241   2.538
 5037SOL    HW216011   5.360   2.179   2.559
 5038SOL     OW16012   2.037   4.454   5.554
 5038SOL    HW116013   2.069   4.538   5.510
 5038SOL    HW216014   2.012   4.387   5.484
 5039SOL     OW16015   2.278   3.413   5.906
 5039SOL    HW116016   2.202   3.390   5.845
 5039SOL    HW216017   2.363   3.379   5.867
 5040SOL     OW16018   1.906   5.101   6.717
 5040SOL    HW116019   1.941   5.083   6.626
 5040SOL    HW216020   1.890   5.014   6.764
 5041SOL     OW16021   1.730   2.737   1.461
 5041SOL    HW116022   1.722   2.816   1.521
 5041SOL    HW216023   1.644   2.686   1.461
 5042SOL     OW16024   6.855   3.056   0.225
 5042SOL    HW116025   6.786   3.114   0.180
 5042SOL    HW216026   6.814   3.011   0.304
 5043SOL     OW16027   2.580   1.504   5.977
 5043SOL    HW116028   2.557   1.601   5.983
 5043SOL    HW216029   2.519   1.452   6.036
 5044SOL     OW16030   6.043   6.368   2.334
 5044SOL    HW116031   6.120   6.428   2.312
 5044SOL    HW216032   5.958   6.420   2.326
 5045SOL     OW16033   5.741   3.139   7.000
 5045SOL    HW116034   5.659   3.157   0.031
 5045SOL    HW216035   5.738   3.196   6.918
 5046SOL     OW16036   3.505   4.199   4.712
 5046SOL    HW116037   3.528   4.187   4.808
 5046SOL    HW216038   3.565   4.268   4.672
 5047SOL     OW16039   0.386   2.537   1.958
 5047SOL    HW116040   0.289   2.540   1.983
 5047SOL    HW216041   0.396   2.497   1.866
 5048SOL     OW16042   0.015   1.226   1.301
 5048SOL    HW116043   0.013   1.321   1.332
 5048SOL    HW216044   0.043   1.223   1.205
 5049SOL     OW16045   6.402   1.612   4.073
 5049SOL    HW116046   6.479   1.652   4.123
 5049SOL    HW216047   6.406   1.641   3.977
 5050SOL     OW16048   1.136   1.128   1.893
 5050SOL    HW116049   1.166   1.198   1.828
 5050SOL    HW216050   1.196   1.128   1.973
 5051SOL     OW16051   4.423   3.182   0.371
 5051SOL    HW116052   4.476   3.097   0.372
 5051SOL    HW216053   4.482   3.258   0.399
 5052SOL     OW16054   2.674   5.210   5.929
 5052SOL    HW116055   2.684   5.135   5.994
 5052SOL    HW216056   2.628   5.286   5.974
 5053SOL     OW16057   1.495   4.074   3.421
 5053SOL    HW116058   1.576   4.042   3.470
 5053SOL    HW216059   1.463   4.160   3.462
 5054SOL     OW16060   3.397   5.561   5.500
 5054SOL    HW116061   3.457   5.481   5.500
 5054SOL    HW216062   3.374   5.587   5.406
 5055SOL     OW16063   0.870   0.622   5.355
 5055SOL    HW116064   0.966   0.646   5.375
 5055SOL    HW216065   0.831   0.689   5.293
 5056SOL     OW16066   6.142   3.588   0.632
 5056SOL    HW116067   6.128   3.489   0.631
 5056SOL    HW216068   6.069   3.633   0.579
 5057SOL     OW16069   0.955   5.461   4.249
 5057SOL    HW116070   0.945   5.466   4.348
 5057SOL    HW216071   0.873   5.499   4.206
 5058SOL     OW16072   2.432   3.791   5.733
 5058SOL    HW116073   2.388   3.780   5.643
 5058SOL    HW216074   2.505   3.858   5.726
 5059SOL     OW16075   5.822   3.194   3.946
 5059SOL    HW116076   5.819   3.291   3.970
 5059SOL    HW216077   5.780   3.181   3.857
 5060SOL     OW16078   0.306   3.066   5.365
 5060SOL    HW116079   0.285   3.152   5.412
 5060SOL    HW216080   0.343   3.086   5.274
 5061SOL     OW16081   3.550   3.178   3.763
 5061SOL    HW116082   3.542   3.088   3.720
 5061SOL    HW216083   3.641   3.215   3.747
 5062SOL     OW16084   5.523   1.544   2.546
 5062SOL    HW116085   5.470   1.530   2.629
 5062SOL    HW216086   5.476   1.502   2.469
 5063SOL     OW16087   0.780   6.458   1.684
 5063SOL    HW116088   0.728   6.469   1.769
 5063SOL    HW216089   0.870   6.500   1.695
 5064SOL     OW16090   4.635   4.520   1.911
 5064SOL    HW116091   4.591   4.435   1.940
 5064SOL    HW216092   4.620   4.533   1.812
 5065SOL     OW16093   1.162   1.698   3.022
 5065SOL    HW116094   1.231   1.770   3.014
 5065SOL    HW216095   1.095   1.709   2.948
 5066SOL     OW16096   3.393   4.059   1.311
 5066SOL    HW116097   3.308   4.023   1.351
 5066SOL    HW216098   3.470   4.034   1.369
 5067SOL     OW16099   3.210   0.689   2.693
 5067SOL    HW116100   3.258   0.731   2.770
 5067SOL    HW216101   3.246   0.597   2.678
 5068SOL     OW16102   3.587   4.776   0.108
 5068SOL    HW116103   3.667   4.727   0.141
 5068SOL    HW216104   3.549   4.833   0.181
 5069SOL     OW16105   1.468   2.395   6.064
 5069SOL    HW116106   1.514   2.480   6.092
 5069SOL    HW216107   1.508   2.318   6.114
 5070SOL     OW16108   5.272   4.979   4.984
 5070SOL    HW116109   5.350   4.920   5.007
 5070SOL    HW216110   5.266   4.990   4.885
 5071SOL     OW16111   3.709   1.778   3.656
 5071SOL    HW116112   3.708   1.679   3.669
 5071SOL    HW216113   3.630   1.804   3.600
 5072SOL     OW16114   1.729   1.389   1.039
 5072SOL    HW116115   1.672   1.449   1.096
 5072SOL    HW216116   1.732   1.298   1.080
 5073SOL     OW16117   1.684   4.701   0.776
 5073SOL    HW116118   1.656   4.788   0.817
 5073SOL    HW216119   1.697   4.713   0.678
 5074SOL     OW16120   3.660   2.060   2.480
 5074SOL    HW116121   3.741   2.117   2.466
 5074SOL    HW216122   3.612   2.048   2.393
 5075SOL     OW16123   1.395   2.076   6.700
 5075SOL    HW116124   1.356   2.012   6.767
 5075SOL    HW216125   1.321   2.128   6.658
 5076SOL     OW16126   5.482   0.055   0.710
 5076SOL    HW116127   5.549   0.113   0.662
 5076SOL    HW216128   5.464   0.093   0.800
 5077SOL     OW16129   1.102   4.101   5.889
 5077SOL    HW116130   1.153   4.160   5.825
 5077SOL    HW216131   1.070   4.156   5.966
 5078SOL     OW16132   0.712   0.995   3.646
 5078SOL    HW116133   0.666   1.082   3.628
 5078SOL    HW216134   0.670   0.923   3.592
 5079SOL     OW16135   2.494   2.733   5.175
 5079SOL    HW116136   2.513   2.825   5.209
 5079SOL    HW216137   2.424   2.738   5.104
 5080SOL     OW16138   6.315   5.906   5.263
 5080SOL    HW116139   6.269   5.912   5.175
 5080SOL    HW216140   6.414   5.905   5.248
 5081SOL     OW16141   2.670   4.000   5.964
 5081SOL    HW116142   2.731   3.987   5.886
 5081SOL    HW216143   2.606   3.923   5.969
 5082SOL     OW16144   5.230   0.068   0.953
 5082SOL    HW116145   5.259   0.010   1.030
 5082SOL    HW216146   5.141   0.107   0.973
 5083SOL     OW16147   2.927   0.020   2.796
 5083SOL    HW116148   2.992   0.095   2.808
 5083SOL    HW216149   2.977   6.957   2.792
 5084SOL     OW16150   0.841   5.365   3.907
 5084SOL    HW116151   0.850   5.299   3.832
 5084SOL    HW216152   0.864   5.321   3.993
 5085SOL     OW16153   6.747   2.684   5.498
 5085SOL    HW116154   6.708   2.736   5.574
 5085SOL    HW216155   6.803   2.744   5.441
 5086SOL     OW16156   1.076   4.642   2.836
 5086SOL    HW116157   1.158   4.589   2.816
 5086SOL    HW216158   1.027   4.598   2.913
 5087SOL     OW16159   0.544   5.211   1.739
 5087SOL    HW116160   0.487   5.198   1.658
 5087SOL    HW216161   0.633   5.247   1.713
 5088SOL     OW16162   5.513   6.905   3.700
 5088SOL    HW116163   5.473   6.987   3.659
 5088SOL    HW216164   5.441   6.850   3.741
 5089SOL     OW16165   6.189   4.760   4.129
 5089SOL    HW116166   6.288   4.759   4.114
 5089SOL    HW216167   6.143   4.723   4.048
 5090SOL     OW16168   1.969   2.223   2.793
 5090SOL    HW116169   1.997   2.317   2.773
 5090SOL    HW216170   1.941   2.178   2.709
 5091SOL     OW16171   6.643   0.956   1.840
 5091SOL    HW116172   6.642   0.932   1.937
 5091SOL    HW216173   6.573   1.024   1.821
 5092SOL     OW16174   3.781   3.248   3.646
 5092SOL    HW116175   3.876   3.220   3.657
 5092SOL    HW216176   3.765   3.274   3.550
 5093SOL     OW16177   3.233   1.452   0.460
 5093SOL    HW116178   3.201   1.537   0.417
 5093SOL    HW216179   3.195   1.374   0.411
 5094SOL     OW16180   2.113   5.767   6.097
 5094SOL    HW116181   2.041   5.771   6.027
 5094SOL    HW216182   2.172   5.688   6.080
 5095SOL     OW16183   0.144   2.596   2.775
 5095SOL    HW116184   0.052   2.562   2.755
 5095SOL    HW216185   0.158   2.594   2.874
 5096SOL     OW16186   4.697   4.863   6.775
 5096SOL    HW116187   4.665   4.794   6.710
 5096SOL    HW216188   4.634   4.940   6.777
 5097SOL     OW16189   0.939   6.986   6.382
 5097SOL    HW116190   0.954   7.004   6.285
 5097SOL    HW216191   1.024   6.953   6.424
 5098SOL     OW16192   2.299   0.616   1.645
 5098SOL    HW116193   2.254   0.689   1.697
 5098SOL    HW216194   2.329   0.545   1.708
 5099SOL     OW16195   0.688   6.723   1.507
 5099SOL    HW116196   0.645   6.707   1.418
 5099SOL    HW216197   0.783   6.694   1.504
 5100SOL     OW16198   3.342   5.634   4.729
 5100SOL    HW116199   3.305   5.653   4.638
 5100SOL    HW216200   3.302   5.550   4.765
 5101SOL     OW16201   4.062   0.053   5.973
 5101SOL    HW116202   3.963   0.048   5.988
 5101SOL    HW216203   4.095   0.143   6.002
 5102SOL     OW16204   4.739   6.599   4.469
 5102SOL    HW116205   4.830   6.638   4.479
 5102SOL    HW216206   4.730   6.519   4.529
 5103SOL     OW16207   0.181   1.236   4.182
 5103SOL    HW116208   0.248   1.230   4.256
 5103SOL    HW216209   0.090   1.250   4.221
 5104SOL     OW16210   1.606   6.542   1.913
 5104SOL    HW116211   1.692   6.587   1.937
 5104SOL    HW216212   1.622   6.444   1.903
 5105SOL     OW16213   3.250   2.532   0.174
 5105SOL    HW116214   3.157   2.496   0.177
 5105SOL    HW216215   3.250   2.623   0.132
 5106SOL     OW16216   4.553   1.499   0.950
 5106SOL    HW116217   4.535   1.549   1.034
 5106SOL    HW216218   4.503   1.413   0.951
 5107SOL     OW16219   4.456   2.627   1.471
 5107SOL    HW116220   4.495   2.658   1.558
 5107SOL    HW216221   4.417   2.706   1.423
 5108SOL     OW16222   4.077   3.914   5.303
 5108SOL    HW116223   3.981   3.941   5.307
 5108SOL    HW216224   4.092   3.855   5.224
 5109SOL     OW16225   0.815   1.987   7.002
 5109SOL    HW116226   0.890   1.979   6.935
 5109SOL    HW216227   0.849   1.961   0.068
 5110SOL     OW16228   0.515   0.401   6.218
 5110SOL    HW116229   0.522   0.322   6.157
 5110SOL    HW216230   0.544   0.376   6.310
 5111SOL     OW16231   1.525   0.978   4.485
 5111SOL    HW116232   1.535   1.056   4.546
 5111SOL    HW216233   1.433   0.977   4.446
 5112SOL     OW16234   1.251   0.349   2.925
 5112SOL    HW116235   1.173   0.387   2.975
 5112SOL    HW216236   1.221   0.320   2.834
 5113SOL     OW16237   2.439   5.668   1.182
 5113SOL    HW116238   2.453   5.766   1.197
 5113SOL    HW216239   2.477   5.642   1.093
 5114SOL     OW16240   3.971   0.278   6.658
 5114SOL    HW116241   3.958   0.211   6.586
 5114SOL    HW216242   4.067   0.277   6.687
 5115SOL     OW16243   1.508   5.743   3.349
 5115SOL    HW116244   1.545   5.673   3.410
 5115SOL    HW216245   1.437   5.795   3.397
 5116SOL     OW16246   0.717   6.874   0.382
 5116SOL    HW116247   0.661   6.924   0.316
 5116SOL    HW216248   0.686   6.779   0.387
 5117SOL     OW16249   1.719   3.801   3.986
 5117SOL    HW116250   1.777   3.723   4.010
 5117SOL    HW216251   1.680   3.840   4.069
 5118SOL     OW16252   5.221   1.000   0.078
 5118SOL    HW116253   5.258   0.966   0.164
 5118SOL    HW216254   5.155   0.934   0.042
 5119SOL     OW16255   4.885   0.935   2.580
 5119SOL    HW116256   4.842   1.025   2.583
 5119SOL    HW216257   4.914   0.915   2.486
 5120SOL     OW16258   4.308   0.259   4.746
 5120SOL    HW116259   4.408   0.255   4.742
 5120SOL    HW216260   4.280   0.291   4.837
 5121SOL     OW16261   3.327   2.800   0.013
 5121SOL    HW116262   3.284   2.889   0.027
 5121SOL    HW216263   3.295   2.761   6.951
 5122SOL     OW16264   3.490   6.028   3.291
 5122SOL    HW116265   3.471   6.123   3.267
 5122SOL    HW216266   3.582   6.022   3.331
 5123SOL     OW16267   4.678   2.518   4.527
 5123SOL    HW116268   4.581   2.493   4.533
 5123SOL    HW216269   4.695   2.596   4.587
 5124SOL     OW16270   1.970   5.904   4.942
 5124SOL    HW116271   1.890   5.866   4.988
 5124SOL    HW216272   1.949   5.919   4.845
 5125SOL     OW16273   6.939   4.098   3.845
 5125SOL    HW116274   6.863   4.083   3.909
 5125SOL    HW216275   6.961   4.013   3.799
 5126SOL     OW16276   6.169   5.366   6.556
 5126SOL    HW116277   6.139   5.347   6.462
 5126SOL    HW216278   6.127   5.450   6.589
 5127SOL     OW16279   0.102   3.851   0.194
 5127SOL    HW116280   0.067   3.797   0.117
 5127SOL    HW216281   0.058   3.820   0.279
 5128SOL     OW16282   0.124   0.362   6.408
 5128SOL    HW116283   0.122   0.360   6.308
 5128SOL    HW216284   0.054   0.300   6.443
 5129SOL     OW16285   6.437   0.151   2.515
 5129SOL    HW116286   6.416   0.136   2.612
 5129SOL    HW216287   6.521   0.204   2.506
 5130SOL     OW16288   0.366   5.224   3.413
 5130SOL    HW116289   0.310   5.307   3.406
 5130SOL    HW216290   0.424   5.216   3.332
 5131SOL     OW16291   1.970   4.415   4.340
 5131SOL    HW116292   1.996   4.453   4.252
 5131SOL    HW216293   1.978   4.485   4.411
 5132SOL     OW16294   3.747   3.093   6.908
 5132SOL    HW116295   3.770   3.190   6.915
 5132SOL    HW216296   3.698   3.076   6.822
 5133SOL     OW16297   2.443   5.497   0.036
 5133SOL    HW116298   2.482   5.526   6.973
 5133SOL    HW216299   2.514   5.451   0.090
 5134SOL     OW16300   0.563   3.426   2.357
 5134SOL    HW116301   0.538   3.347   2.300
 5134SOL    HW216302   0.483   3.457   2.408
 5135SOL     OW16303   6.138   2.972   4.308
 5135SOL    HW116304   6.087   3.025   4.376
 5135SOL    HW216305   6.226   2.944   4.348
 5136SOL     OW16306   3.616   0.592   6.155
 5136SOL    HW116307   3.632   0.571   6.059
 5136SOL    HW216308   3.669   0.530   6.212
 5137SOL     OW16309   5.258   3.360   5.920
 5137SOL    HW116310   5.309   3.438   5.957
 5137SOL    HW216311   5.169   3.355   5.965
 5138SOL     OW16312   3.092   2.570   5.613
 5138SOL    HW116313   3.158   2.557   5.687
 5138SOL    HW216314   3.026   2.495   5.614
 5139SOL     OW16315   1.606   0.569   2.881
 5139SOL    HW116316   1.629   0.641   2.947
 5139SOL    HW216317   1.577   0.487   2.929
 5140SOL     OW16318   3.998   2.337   0.379
 5140SOL    HW116319   4.040   2.387   0.455
 5140SOL    HW216320   3.975   2.401   0.306
 5141SOL     OW16321   6.652   3.676   0.177
 5141SOL    HW116322   6.660   3.684   0.078
 5141SOL    HW216323   6.611   3.759   0.214
 5142SOL     OW16324   5.858   0.117   3.872
 5142SOL    HW116325   5.873   0.078   3.781
 5142SOL    HW216326   5.915   0.198   3.884
 5143SOL     OW16327   6.450   4.136   4.097
 5143SOL    HW116328   6.419   4.226   4.064
 5143SOL    HW216329   6.396   4.065   4.051
 5144SOL     OW16330   0.668   4.872   6.556
 5144SOL    HW116331   0.757   4.851   6.597
 5144SOL    HW216332   0.682   4.919   6.470
 5145SOL     OW16333   2.671   4.859   5.544
 5145SOL    HW116334   2.665   4.861   5.444
 5145SOL    HW216335   2.623   4.938   5.581
 5146SOL     OW16336   3.815   3.961   5.145
 5146SOL    HW116337   3.875   4.037   5.121
 5146SOL    HW216338   3.820   3.891   5.075
 5147SOL     OW16339   6.956   4.963   2.628
 5147SOL    HW116340   6.972   5.061   2.616
 5147SOL    HW216341   7.015   4.911   2.566
 5148SOL     OW16342   6.700   6.494   1.641
 5148SOL    HW116343   6.695   6.537   1.731
 5148SOL    HW216344   6.651   6.407   1.643
 5149SOL     OW16345   6.652   5.969   3.343
 5149SOL    HW116346   6.647   6.048   3.283
 5149SOL    HW216347   6.666   5.999   3.438
 5150SOL     OW16348   2.313   5.134   2.567
 5150SOL    HW116349   2.258   5.163   2.645
 5150SOL    HW216350   2.333   5.214   2.509
 5151SOL     OW16351   5.608   2.452   0.581
 5151SOL    HW116352   5.656   2.378   0.628
 5151SOL    HW216353   5.659   2.477   0.499
 5152SOL     OW16354   2.479   5.208   0.362
 5152SOL    HW116355   2.459   5.124   0.312
 5152SOL    HW216356   2.396   5.240   0.407
 5153SOL     OW16357   2.053   0.157   6.793
 5153SOL    HW116358   2.123   0.191   6.856
 5153SOL    HW216359   1.978   0.223   6.788
 5154SOL     OW16360   1.179   3.789   6.425
 5154SOL    HW116361   1.223   3.701   6.408
 5154SOL    HW216362   1.125   3.814   6.344
 5155SOL     OW16363   4.275   6.396   2.458
 5155SOL    HW116364   4.303   6.415   2.364
 5155SOL    HW216365   4.201   6.328   2.457
 5156SOL     OW16366   5.760   3.829   5.667
 5156SOL    HW116367   5.815   3.833   5.751
 5156SOL    HW216368   5.677   3.883   5.679
 5157SOL     OW16369   4.153   2.092   3.766
 5157SOL    HW116370   4.063   2.104   3.724
 5157SOL    HW216371   4.223   2.084   3.694
 5158SOL     OW16372   3.769   1.543   1.841
 5158SOL    HW116373   3.714   1.511   1.763
 5158SOL    HW216374   3.712   1.598   1.902
 5159SOL     OW16375   6.815   3.698   3.920
 5159SOL    HW116376   6.897   3.662   3.964
 5159SOL    HW216377   6.840   3.763   3.848
 5160SOL     OW16378   0.225   4.814   3.359
 5160SOL    HW116379   0.199   4.875   3.434
 5160SOL    HW216380   0.192   4.721   3.379
 5161SOL     OW16381   1.461   3.676   5.506
 5161SOL    HW116382   1.455   3.745   5.579
 5161SOL    HW216383   1.369   3.656   5.472
 5162SOL     OW16384   1.213   5.185   3.251
 5162SOL    HW116385   1.212   5.129   3.169
 5162SOL    HW216386   1.131   5.165   3.306
 5163SOL     OW16387   3.631   6.330   0.571
 5163SOL    HW116388   3.688   6.398   0.525
 5163SOL    HW216389   3.542   6.370   0.592
 5164SOL     OW16390   4.812   2.496   0.132
 5164SOL    HW116391   4.796   2.401   0.157
 5164SOL    HW216392   4.766   2.516   0.045
 5165SOL     OW16393   5.798   4.448   6.068
 5165SOL    HW116394   5.760   4.496   6.147
 5165SOL    HW216395   5.892   4.479   6.052
 5166SOL     OW16396   0.801   5.114   3.326
 5166SOL    HW116397   0.852   5.162   3.255
 5166SOL    HW216398   0.732   5.055   3.285
 5167SOL     OW16399   6.241   6.329   5.656
 5167SOL    HW116400   6.323   6.272   5.661
 5167SOL    HW216401   6.249   6.393   5.580
 5168SOL     OW16402   4.999   3.923   2.974
 5168SOL    HW116403   5.007   3.974   2.888
 5168SOL    HW216404   5.015   3.826   2.956
 5169SOL     OW16405   4.122   1.733   4.876
 5169SOL    HW116406   4.222   1.735   4.873
 5169SOL    HW216407   4.086   1.776   4.793
 5170SOL     OW16408   0.744   4.381   5.624
 5170SOL    HW116409   0.842   4.393   5.642
 5170SOL    HW216410   0.692   4.453   5.671
 5171SOL     OW16411   1.297   5.667   4.618
 5171SOL    HW116412   1.361   5.678   4.694
 5171SOL    HW216413   1.307   5.576   4.578
 5172SOL     OW16414   0.694   2.009   1.738
 5172SOL    HW116415   0.653   1.934   1.789
 5172SOL    HW216416   0.678   2.095   1.787
 5173SOL     OW16417   5.352   4.537   6.004
 5173SOL    HW116418   5.362   4.616   6.065
 5173SOL    HW216419   5.426   4.471   6.023
 5174SOL     OW16420   2.236   4.468   3.121
 5174SOL    HW116421   2.251   4.541   3.188
 5174SOL    HW216422   2.139   4.467   3.095
 5175SOL     OW16423   2.221   3.725   6.993
 5175SOL    HW116424   2.262   3.797   0.024
 5175SOL    HW216425   2.186   3.764   6.908
 5176SOL     OW16426   4.699   3.263   6.438
 5176SOL    HW116427   4.699   3.206   6.520
 5176SOL    HW216428   4.688   3.205   6.357
 5177SOL     OW16429   4.919   0.385   7.002
 5177SOL    HW116430   4.976   0.313   6.962
 5177SOL    HW216431   4.842   0.404   6.941
 5178SOL     OW16432   1.217   3.706   1.416
 5178SOL    HW116433   1.299   3.663   1.378
 5178SOL    HW216434   1.194   3.787   1.362
 5179SOL     OW16435   3.868   6.194   3.906
 5179SOL    HW116436   3.959   6.155   3.892
 5179SOL    HW216437   3.876   6.275   3.964
 5180SOL     OW16438   2.888   2.936   0.380
 5180SOL    HW116439   2.791   2.919   0.397
 5180SOL    HW216440   2.938   2.933   0.467
 5181SOL     OW16441   5.579   2.173   2.118
 5181SOL    HW116442   5.638   2.100   2.151
 5181SOL    HW216443   5.569   2.244   2.188
 5182SOL     OW16444   3.753   4.412   1.679
 5182SOL    HW116445   3.783   4.503   1.706
 5182SOL    HW216446   3.671   4.386   1.730
 5183SOL     OW16447   4.171   1.625   2.523
 5183SOL    HW116448   4.242   1.695   2.534
 5183SOL    HW216449   4.173   1.591   2.429
 5184SOL     OW16450   0.163   2.458   4.446
 5184SOL    HW116451   0.251   2.472   4.492
 5184SOL    HW216452   0.160   2.514   4.363
 5185SOL     OW16453   5.438   1.143   2.472
 5185SOL    HW116454   5.439   1.237   2.437
 5185SOL    HW216455   5.345   1.107   2.466
 5186SOL     OW16456   6.305   2.960   0.293
 5186SOL    HW116457   6.330   3.032   0.227
 5186SOL    HW216458   6.384   2.937   0.349
 5187SOL     OW16459   0.256   0.374   3.921
 5187SOL    HW116460   0.343   0.424   3.927
 5187SOL    HW216461   0.182   0.439   3.903
 5188SOL     OW16462   0.455   6.170   0.483
 5188SOL    HW116463   0.519   6.204   0.414
 5188SOL    HW216464   0.507   6.133   0.560
 5189SOL     OW16465   4.882   4.985   0.713
 5189SOL    HW116466   4.816   4.965   0.641
 5189SOL    HW216467   4.911   4.900   0.757
 5190SOL     OW16468   0.126   3.013   4.185
 5190SOL    HW116469   0.189   2.936   4.201
 5190SOL    HW216470   0.127   3.036   4.088
 5191SOL     OW16471   3.710   0.659   1.934
 5191SOL    HW116472   3.777   0.667   1.861
 5191SOL    HW216473   3.619   0.641   1.896
 5192SOL     OW16474   2.854   5.162   2.726
 5192SOL    HW116475   2.764   5.156   2.683
 5192SOL    HW216476   2.922   5.117   2.667
 5193SOL     OW16477   5.096   4.426   4.351
 5193SOL    HW116478   5.104   4.328   4.337
 5193SOL    HW216479   5.031   4.445   4.425
 5194SOL     OW16480   3.677   1.402   0.511
 5194SOL    HW116481   3.740   1.477   0.534
 5194SOL    HW216482   3.625   1.426   0.430
 5195SOL     OW16483   5.883   6.123   4.345
 5195SOL    HW116484   5.834   6.210   4.337
 5195SOL    HW216485   5.818   6.049   4.365
 5196SOL     OW16486   2.579   4.312   0.902
 5196SOL    HW116487   2.498   4.311   0.961
 5196SOL    HW216488   2.567   4.247   0.828
 5197SOL     OW16489   2.142   5.560   5.191
 5197SOL    HW116490   2.167   5.651   5.158
 5197SOL    HW216491   2.165   5.552   5.288
 5198SOL     OW16492   4.096   6.725   3.272
 5198SOL    HW116493   4.074   6.688   3.362
 5198SOL    HW216494   4.134   6.817   3.282
 5199SOL     OW16495   1.176   6.341   0.325
 5199SOL    HW116496   1.211   6.254   0.289
 5199SOL    HW216497   1.241   6.379   0.390
 5200SOL     OW16498   1.359   1.583   5.292
 5200SOL    HW116499   1.382   1.617   5.383
 5200SOL    HW216500   1.281   1.634   5.256
 5201SOL     OW16501   6.236   6.369   4.500
 5201SOL    HW116502   6.320   6.421   4.513
 5201SOL    HW216503   6.256   6.271   4.505
 5202SOL     OW16504   5.781   4.259   5.572
 5202SOL    HW116505   5.829   4.329   5.623
 5202SOL    HW216506   5.799   4.271   5.474
 5203SOL     OW16507   2.380   1.044   6.810
 5203SOL    HW116508   2.321   1.124   6.810
 5203SOL    HW216509   2.469   1.069   6.848
 5204SOL     OW16510   4.326   6.789   6.922
 5204SOL    HW116511   4.365   6.740   7.000
 5204SOL    HW216512   4.234   6.821   6.945
 5205SOL     OW16513   6.787   5.878   0.357
 5205SOL    HW116514   6.821   5.784   0.354
 5205SOL    HW216515   6.727   5.889   0.436
 5206SOL     OW16516   0.300   4.581   0.009
 5206SOL    HW116517   0.351   4.603   0.092
 5206SOL    HW216518   0.257   4.664   6.997
 5207SOL     OW16519   1.343   6.886   3.991
 5207SOL    HW116520   1.346   6.938   3.906
 5207SOL    HW216521   1.250   6.889   4.028
 5208SOL     OW16522   5.142   2.220   0.103
 5208SOL    HW116523   5.226   2.188   0.059
 5208SOL    HW216524   5.164   2.253   0.195
 5209SOL     OW16525   5.716   0.503   1.442
 5209SOL    HW116526   5.672   0.447   1.512
 5209SOL    HW216527   5.726   0.597   1.476
 5210SOL     OW16528   4.733   3.300   0.406
 5210SOL    HW116529   4.666   3.333   0.472
 5210SOL    HW216530   4.822   3.291   0.451
 5211SOL     OW16531   4.202   1.814   5.327
 5211SOL    HW116532   4.125   1.876   5.342
 5211SOL    HW216533   4.250   1.841   5.244
 5212SOL     OW16534   0.991   3.572   0.827
 5212SOL    HW116535   1.052   3.496   0.846
 5212SOL    HW216536   0.945   3.558   0.739
 5213SOL     OW16537   4.194   3.229   1.098
 5213SOL    HW116538   4.165   3.301   1.035
 5213SOL    HW216539   4.132   3.151   1.090
 5214SOL     OW16540   5.250   2.802   6.294
 5214SOL    HW116541   5.251   2.762   6.386
 5214SOL    HW216542   5.303   2.744   6.233
 5215SOL     OW16543   0.842   4.719   4.064
 5215SOL    HW116544   0.860   4.797   4.125
 5215SOL    HW216545   0.764   4.668   4.099
 5216SOL     OW16546   4.151   4.344   1.509
 5216SOL    HW116547   4.073   4.319   1.566
 5216SOL    HW216548   4.126   4.334   1.413
 5217SOL     OW16549   3.783   5.412   4.542
 5217SOL    HW116550   3.719   5.336   4.555
 5217SOL    HW216551   3.736   5.498   4.561
 5218SOL     OW16552   0.531   1.078   1.170
 5218SOL    HW116553   0.624   1.115   1.166
 5218SOL    HW216554   0.533   0.985   1.206
 5219SOL     OW16555   3.391   1.570   4.965
 5219SOL    HW116556   3.383   1.650   4.906
 5219SOL    HW216557   3.461   1.587   5.035
 5220SOL     OW16558   1.173   5.954   2.734
 5220SOL    HW116559   1.211   5.925   2.647
 5220SOL    HW216560   1.240   5.939   2.807
 5221SOL     OW16561   6.171   1.481   3.079
 5221SOL    HW116562   6.134   1.456   3.168
 5221SOL    HW216563   6.264   1.445   3.071
 5222SOL     OW16564   3.409   6.538   2.321
 5222SOL    HW116565   3.399   6.511   2.225
 5222SOL    HW216566   3.387   6.461   2.380
 5223SOL     OW16567   6.827   2.653   0.001
 5223SOL    HW116568   6.875   2.575   0.041
 5223SOL    HW216569   6.883   2.735   0.008
 5224SOL     OW16570   6.413   3.265   4.353
 5224SOL    HW116571   6.489   3.325   4.327
 5224SOL    HW216572   6.341   3.320   4.396
 5225SOL     OW16573   6.784   0.984   3.977
 5225SOL    HW116574   6.866   0.992   4.034
 5225SOL    HW216575   6.753   1.076   3.952
 5226SOL     OW16576   6.924   7.001   4.596
 5226SOL    HW116577   6.839   0.028   4.611
 5226SOL    HW216578   6.942   6.944   4.676
 5227SOL     OW16579   0.634   4.027   5.373
 5227SOL    HW116580   0.646   3.992   5.280
 5227SOL    HW216581   0.724   4.047   5.413
 5228SOL     OW16582   0.400   2.602   6.858
 5228SOL    HW116583   0.447   2.647   6.782
 5228SOL    HW216584   0.466   2.579   6.930
 5229SOL     OW16585   2.902   6.790   0.470
 5229SOL    HW116586   2.909   6.691   0.469
 5229SOL    HW216587   2.962   6.828   0.540
 5230SOL     OW16588   6.835   6.077   2.078
 5230SOL    HW116589   6.851   6.136   1.999
 5230SOL    HW216590   6.914   6.082   2.140
 5231SOL     OW16591   4.249   2.308   3.956
 5231SOL    HW116592   4.204   2.250   3.888
 5231SOL    HW216593   4.347   2.309   3.940
 5232SOL     OW16594   1.279   3.619   6.066
 5232SOL    HW116595   1.190   3.577   6.083
 5232SOL    HW216596   1.267   3.704   6.014
 5233SOL     OW16597   3.938   1.237   2.396
 5233SOL    HW116598   3.919   1.189   2.310
 5233SOL    HW216599   4.036   1.232   2.416
 5234SOL     OW16600   2.826   2.495   5.848
 5234SOL    HW116601   2.827   2.499   5.948
 5234SOL    HW216602   2.893   2.427   5.817
 5235SOL     OW16603   1.792   2.702   1.032
 5235SOL    HW116604   1.851   2.690   1.111
 5235SOL    HW216605   1.736   2.621   1.019
 5236SOL     OW16606   4.093   5.713   2.306
 5236SOL    HW116607   4.100   5.739   2.210
 5236SOL    HW216608   4.020   5.765   2.350
 5237SOL     OW16609   0.780   0.983   4.887
 5237SOL    HW116610   0.757   1.064   4.942
 5237SOL    HW216611   0.817   1.012   4.799
 5238SOL     OW16612   1.197   4.863   0.488
 5238SOL    HW116613   1.129   4.885   0.559
 5238SOL    HW216614   1.193   4.932   0.416
 5239SOL     OW16615   3.592   2.421   6.205
 5239SOL    HW116616   3.644   2.480   6.143
 5239SOL    HW216617   3.569   2.336   6.158
 5240SOL     OW16618   3.414   2.174   5.134
 5240SOL    HW116619   3.452   2.222   5.055
 5240SOL    HW216620   3.333   2.222   5.167
 5241SOL     OW16621   0.092   5.525   4.471
 5241SOL    HW116622   0.146   5.608   4.456
 5241SOL    HW216623   0.153   5.446   4.479
 5242SOL     OW16624   6.529   7.015   0.926
 5242SOL    HW116625   6.447   0.024   0.972
 5242SOL    HW216626   6.599   0.063   0.926
 5243SOL     OW16627   1.827   5.857   1.556
 5243SOL    HW116628   1.895   5.904   1.614
 5243SOL    HW216629   1.760   5.812   1.614
 5244SOL     OW16630   3.273   4.503   6.152
 5244SOL    HW116631   3.237   4.412   6.174
 5244SOL    HW216632   3.241   4.530   6.061
 5245SOL     OW16633   4.119   4.287   0.392
 5245SOL    HW116634   4.133   4.257   0.298
 5245SOL    HW216635   4.125   4.387   0.396
 5246SOL     OW16636   5.971   2.474   1.081
 5246SOL    HW116637   5.959   2.561   1.128
 5246SOL    HW216638   5.958   2.487   0.983
 5247SOL     OW16639   2.792   0.177   6.563
 5247SOL    HW116640   2.789   0.255   6.626
 5247SOL    HW216641   2.814   0.210   6.471
 5248SOL     OW16642   6.397   1.954   2.740
 5248SOL    HW116643   6.324   2.003   2.786
 5248SOL    HW216644   6.435   1.885   2.801
 5249SOL     OW16645   0.527   5.419   6.518
 5249SOL    HW116646   0.622   5.392   6.537
 5249SOL    HW216647   0.512   5.418   6.419
 5250SOL     OW16648   2.041   5.973   6.869
 5250SOL    HW116649   2.059   5.886   6.915
 5250SOL    HW216650   1.943   5.981   6.850
 5251SOL     OW16651   1.161   3.692   0.058
 5251SOL    HW116652   1.083   3.707   7.021
 5251SOL    HW216653   1.233   3.642   0.009
 5252SOL     OW16654   2.501   5.984   0.484
 5252SOL    HW116655   2.565   6.059   0.467
 5252SOL    HW216656   2.446   6.006   0.565
 5253SOL     OW16657   6.860   3.744   4.664
 5253SOL    HW116658   6.810   3.721   4.581
 5253SOL    HW216659   6.843   3.840   4.688
 5254SOL     OW16660   5.214   1.287   2.755
 5254SOL    HW116661   5.146   1.262   2.823
 5254SOL    HW216662   5.172   1.288   2.664
 5255SOL     OW16663   5.756   2.349   4.623
 5255SOL    HW116664   5.675   2.372   4.676
 5255SOL    HW216665   5.824   2.422   4.634
 5256SOL     OW16666   4.914   1.784   3.870
 5256SOL    HW116667   4.861   1.743   3.796
 5256SOL    HW216668   4.867   1.865   3.904
 5257SOL     OW16669   5.617   6.925   2.000
 5257SOL    HW116670   5.614   6.989   2.077
 5257SOL    HW216671   5.530   6.928   1.951
 5258SOL     OW16672   5.756   3.100   1.614
 5258SOL    HW116673   5.694   3.178   1.601
 5258SOL    HW216674   5.846   3.134   1.643
 5259SOL     OW16675   5.087   6.369   2.152
 5259SOL    HW116676   5.070   6.380   2.054
 5259SOL    HW216677   5.004   6.391   2.202
 5260SOL     OW16678   5.343   3.358   0.879
 5260SOL    HW116679   5.301   3.444   0.908
 5260SOL    HW216680   5.285   3.281   0.907
 5261SOL     OW16681   0.610   3.863   6.037
 5261SOL    HW116682   0.616   3.963   6.035
 5261SOL    HW216683   0.606   3.828   5.943
 5262SOL     OW16684   2.367   1.415   4.049
 5262SOL    HW116685   2.275   1.379   4.028
 5262SOL    HW216686   2.379   1.419   4.148
 5263SOL     OW16687   1.637   1.108   3.240
 5263SOL    HW116688   1.589   1.194   3.219
 5263SOL    HW216689   1.573   1.044   3.282
 5264SOL     OW16690   0.180   2.094   1.781
 5264SOL    HW116691   0.172   2.090   1.881
 5264SOL    HW216692   0.091   2.119   1.743
 5265SOL     OW16693   6.308   3.974   3.938
 5265SOL    HW116694   6.243   4.013   3.872
 5265SOL    HW216695   6.396   3.959   3.892
 5266SOL     OW16696   3.337   5.085   6.806
 5266SOL    HW116697   3.269   5.079   6.734
 5266SOL    HW216698   3.413   5.024   6.785
 5267SOL     OW16699   5.375   2.760   5.262
 5267SOL    HW116700   5.384   2.784   5.165
 5267SOL    HW216701   5.329   2.835   5.310
 5268SOL     OW16702   5.396   1.524   0.447
 5268SOL    HW116703   5.332   1.503   0.521
 5268SOL    HW216704   5.410   1.442   0.390
 5269SOL     OW16705   0.826   5.755   3.005
 5269SOL    HW116706   0.814   5.690   2.930
 5269SOL    HW216707   0.870   5.838   2.972
 5270SOL     OW16708   6.040   1.053   1.489
 5270SOL    HW116709   6.101   0.985   1.446
 5270SOL    HW216710   5.946   1.020   1.485
 5271SOL     OW16711   6.534   5.549   6.010
 5271SOL    HW116712   6.624   5.510   5.993
 5271SOL    HW216713   6.534   5.646   5.986
 5272SOL     OW16714   3.127   5.948   2.188
 5272SOL    HW116715   3.100   5.976   2.280
 5272SOL    HW216716   3.052   5.898   2.146
 5273SOL     OW16717   6.950   2.824   3.618
 5273SOL    HW116718   6.953   2.725   3.603
 5273SOL    HW216719   0.018   2.857   3.639
 5274SOL     OW16720   5.932   0.147   2.541
 5274SOL    HW116721   5.843   0.154   2.585
 5274SOL    HW216722   5.950   0.051   2.517
 5275SOL     OW16723   3.776   1.577   0.746
 5275SOL    HW116724   3.682   1.613   0.746
 5275SOL    HW216725   3.830   1.625   0.815
 5276SOL     OW16726   1.641   0.048   0.891
 5276SOL    HW116727   1.608   0.071   0.982
 5276SOL    HW216728   1.565   0.048   0.826
 5277SOL     OW16729   2.340   1.055   2.231
 5277SOL    HW116730   2.342   1.066   2.330
 5277SOL    HW216731   2.423   1.008   2.200
 5278SOL     OW16732   5.742   6.576   3.706
 5278SOL    HW116733   5.746   6.621   3.616
 5278SOL    HW216734   5.709   6.642   3.774
 5279SOL     OW16735   2.373   5.296   6.235
 5279SOL    HW116736   2.360   5.229   6.308
 5279SOL    HW216737   2.470   5.303   6.212
 5280SOL     OW16738   2.788   5.710   4.937
 5280SOL    HW116739   2.883   5.687   4.956
 5280SOL    HW216740   2.728   5.641   4.978
 5281SOL     OW16741   0.637   2.086   2.346
 5281SOL    HW116742   0.544   2.098   2.381
 5281SOL    HW216743   0.687   2.023   2.405
 5282SOL     OW16744   3.086   1.488   4.122
 5282SOL    HW116745   3.146   1.417   4.086
 5282SOL    HW216746   3.141   1.557   4.169
 5283SOL     OW16747   4.584   6.520   1.259
 5283SOL    HW116748   4.496   6.564   1.238
 5283SOL    HW216749   4.603   6.530   1.357
 5284SOL     OW16750   4.782   4.083   3.222
 5284SOL    HW116751   4.774   4.121   3.314
 5284SOL    HW216752   4.782   4.157   3.155
 5285SOL     OW16753   2.263   4.625   3.996
 5285SOL    HW116754   2.263   4.602   3.898
 5285SOL    HW216755   2.204   4.704   4.011
 5286SOL     OW16756   1.743   4.849   0.304
 5286SOL    HW116757   1.760   4.903   0.221
 5286SOL    HW216758   1.742   4.751   0.280
 5287SOL     OW16759   3.267   0.143   0.195
 5287SOL    HW116760   3.198   0.215   0.203
 5287SOL    HW216761   3.253   0.076   0.268
 5288SOL     OW16762   3.047   6.989   2.013
 5288SOL    HW116763   2.995   6.918   2.061
 5288SOL    HW216764   3.058   0.044   2.073
 5289SOL     OW16765   2.298   5.405   6.604
 5289SOL    HW116766   2.348   5.324   6.634
 5289SOL    HW216767   2.300   5.475   6.676
 5290SOL     OW16768   2.358   5.952   4.705
 5290SOL    HW116769   2.334   5.876   4.645
 5290SOL    HW216770   2.349   5.923   4.801
 5291SOL     OW16771   2.585   5.579   5.880
 5291SOL    HW116772   2.629   5.620   5.960
 5291SOL    HW216773   2.654   5.556   5.812
 5292SOL     OW16774   6.434   3.270   6.573
 5292SOL    HW116775   6.347   3.258   6.527
 5292SOL    HW216776   6.509   3.257   6.508
 5293SOL     OW16777   0.339   0.918   4.879
 5293SOL    HW116778   0.240   0.930   4.867
 5293SOL    HW216779   0.377   0.999   4.924
 5294SOL     OW16780   4.323   3.596   5.788
 5294SOL    HW116781   4.300   3.683   5.744
 5294SOL    HW216782   4.422   3.588   5.796
 5295SOL     OW16783   6.444   0.630   2.637
 5295SOL    HW116784   6.465   0.627   2.539
 5295SOL    HW216785   6.425   0.725   2.664
 5296SOL     OW16786   2.254   5.595   6.805
 5296SOL    HW116787   2.165   5.632   6.778
 5296SOL    HW216788   2.240   5.515   6.863
 5297SOL     OW16789   2.032   1.933   1.559
 5297SOL    HW116790   2.015   1.836   1.579
 5297SOL    HW216791   2.128   1.946   1.534
 5298SOL     OW16792   0.170   5.937   1.266
 5298SOL    HW116793   0.076   5.936   1.301
 5298SOL    HW216794   0.209   5.845   1.273
 5299SOL     OW16795   2.916   1.906   0.504
 5299SOL    HW116796   2.832   1.950   0.534
 5299SOL    HW216797   2.989   1.925   0.569
 5300SOL     OW16798   0.092   5.670   2.842
 5300SOL    HW116799   0.185   5.692   2.872
 5300SOL    HW216800   0.082   5.692   2.744
 5301SOL     OW16801   4.449   1.377   0.367
 5301SOL    HW116802   4.535   1.380   0.418
 5301SOL    HW216803   4.394   1.300   0.399
 5302SOL     OW16804   5.452   5.301   3.332
 5302SOL    HW116805   5.542   5.263   3.358
 5302SOL    HW216806   5.431   5.275   3.238
 5303SOL     OW16807   0.221   6.531   4.248
 5303SOL    HW116808   0.200   6.613   4.196
 5303SOL    HW216809   0.262   6.463   4.187
 5304SOL     OW16810   6.420   2.453   5.824
 5304SOL    HW116811   6.470   2.449   5.737
 5304SOL    HW216812   6.324   2.429   5.809
 5305SOL     OW16813   1.378   6.766   4.315
 5305SOL    HW116814   1.471   6.747   4.347
 5305SOL    HW216815   1.348   6.854   4.352
 5306SOL     OW16816   1.468   6.123   4.576
 5306SOL    HW116817   1.382   6.076   4.558
 5306SOL    HW216818   1.544   6.058   4.571
 5307SOL     OW16819   4.149   6.492   6.772
 5307SOL    HW116820   4.173   6.580   6.730
 5307SOL    HW216821   4.071   6.505   6.833
 5308SOL     OW16822   0.633   0.198   4.798
 5308SOL    HW116823   0.614   0.136   4.722
 5308SOL    HW216824   0.726   0.235   4.788
 5309SOL     OW16825   3.398   4.139   3.103
 5309SOL    HW116826   3.349   4.197   3.038
 5309SOL    HW216827   3.433   4.058   3.054
 5310SOL     OW16828   5.434   2.923   2.132
 5310SOL    HW116829   5.430   2.829   2.098
 5310SOL    HW216830   5.341   2.957   2.148
 5311SOL     OW16831   0.333   5.929   0.448
 5311SOL    HW116832   0.289   5.927   0.358
 5311SOL    HW216833   0.361   6.022   0.470
 5312SOL     OW16834   6.809   4.448   1.936
 5312SOL    HW116835   6.877   4.471   1.867
 5312SOL    HW216836   6.855   4.412   2.018
 5313SOL     OW16837   0.961   5.243   0.066
 5313SOL    HW116838   1.037   5.302   0.093
 5313SOL    HW216839   0.930   5.267   6.998
 5314SOL     OW16840   4.570   5.170   0.868
 5314SOL    HW116841   4.532   5.079   0.853
 5314SOL    HW216842   4.642   5.187   0.800
 5315SOL     OW16843   4.289   4.487   1.707
 5315SOL    HW116844   4.338   4.554   1.651
 5315SOL    HW216845   4.230   4.431   1.648
 5316SOL     OW16846   6.277   5.076   4.939
 5316SOL    HW116847   6.266   4.976   4.945
 5316SOL    HW216848   6.364   5.102   4.980
 5317SOL     OW16849   6.115   1.332   4.704
 5317SOL    HW116850   6.034   1.376   4.742
 5317SOL    HW216851   6.090   1.278   4.624
 5318SOL     OW16852   0.049   1.857   5.638
 5318SOL    HW116853   0.115   1.789   5.606
 5318SOL    HW216854   0.058   1.868   5.737
 5319SOL     OW16855   4.695   6.864   0.034
 5319SOL    HW116856   4.614   6.917   0.059
 5319SOL    HW216857   4.770   6.887   0.097
 5320SOL     OW16858   5.716   5.279   6.657
 5320SOL    HW116859   5.699   5.292   6.560
 5320SOL    HW216860   5.815   5.280   6.674
 5321SOL     OW16861   0.881   5.279   2.742
 5321SOL    HW116862   0.816   5.301   2.815
 5321SOL    HW216863   0.837   5.218   2.676
 5322SOL     OW16864   3.823   6.808   6.131
 5322SOL    HW116865   3.913   6.773   6.103
 5322SOL    HW216866   3.752   6.767   6.073
 5323SOL     OW16867   3.833   3.099   0.979
 5323SOL    HW116868   3.744   3.062   1.002
 5323SOL    HW216869   3.905   3.043   1.020
 5324SOL     OW16870   3.656   2.402   1.545
 5324SOL    HW116871   3.560   2.374   1.538
 5324SOL    HW216872   3.686   2.394   1.640
 5325SOL     OW16873   5.557   6.762   3.424
 5325SOL    HW116874   5.640   6.809   3.394
 5325SOL    HW216875   5.537   6.787   3.519
 5326SOL     OW16876   6.440   5.559   2.885
 5326SOL    HW116877   6.529   5.523   2.856
 5326SOL    HW216878   6.393   5.600   2.807
 5327SOL     OW16879   0.586   6.027   5.806
 5327SOL    HW116880   0.638   6.110   5.791
 5327SOL    HW216881   0.558   5.988   5.719
 5328SOL     OW16882   3.801   2.094   5.601
 5328SOL    HW116883   3.745   2.122   5.679
 5328SOL    HW216884   3.763   2.010   5.561
 5329SOL     OW16885   0.447   3.713   0.017
 5329SOL    HW116886   0.473   3.617   0.006
 5329SOL    HW216887   0.417   3.749   6.953
 5330SOL     OW16888   3.309   3.971   6.557
 5330SOL    HW116889   3.359   3.965   6.470
 5330SOL    HW216890   3.219   3.929   6.547
 5331SOL     OW16891   5.443   1.410   1.354
 5331SOL    HW116892   5.452   1.317   1.389
 5331SOL    HW216893   5.360   1.452   1.390
 5332SOL     OW16894   6.186   4.068   0.237
 5332SOL    HW116895   6.181   4.167   0.223
 5332SOL    HW216896   6.276   4.044   0.272
 5333SOL     OW16897   1.286   0.609   3.453
 5333SOL    HW116898   1.195   0.587   3.488
 5333SOL    HW216899   1.356   0.568   3.512
 5334SOL     OW16900   4.499   5.161   5.093
 5334SOL    HW116901   4.442   5.168   5.011
 5334SOL    HW216902   4.529   5.066   5.105
 5335SOL     OW16903   0.023   4.796   1.856
 5335SOL    HW116904   7.012   4.879   1.899
 5335SOL    HW216905   0.099   4.760   1.911
 5336SOL     OW16906   2.686   1.806   3.674
 5336SOL    HW116907   2.741   1.735   3.631
 5336SOL    HW216908   2.596   1.810   3.629
 5337SOL     OW16909   5.917   4.975   2.536
 5337SOL    HW116910   5.893   4.975   2.439
 5337SOL    HW216911   6.010   4.939   2.547
 5338SOL     OW16912   5.676   2.379   6.681
 5338SOL    HW116913   5.676   2.478   6.695
 5338SOL    HW216914   5.704   2.359   6.587
 5339SOL     OW16915   5.527   1.902   1.867
 5339SOL    HW116916   5.622   1.918   1.891
 5339SOL    HW216917   5.522   1.853   1.780
 5340SOL     OW16918   5.463   3.582   1.429
 5340SOL    HW116919   5.452   3.654   1.497
 5340SOL    HW216920   5.381   3.525   1.427
 5341SOL     OW16921   3.882   4.956   4.790
 5341SOL    HW116922   3.859   5.043   4.834
 5341SOL    HW216923   3.832   4.882   4.835
 5342SOL     OW16924   4.609   6.355   4.933
 5342SOL    HW116925   4.690   6.328   4.879
 5342SOL    HW216926   4.631   6.436   4.987
 5343SOL     OW16927   3.686   3.611   5.021
 5343SOL    HW116928   3.649   3.581   5.109
 5343SOL    HW216929   3.611   3.625   4.957
 5344SOL     OW16930   0.548   1.340   6.996
 5344SOL    HW116931   0.576   1.408   6.929
 5344SOL    HW216932   0.552   1.249   6.955
 5345SOL     OW16933   4.997   0.863   0.012
 5345SOL    HW116934   4.936   0.867   6.957
 5345SOL    HW216935   5.023   0.768   0.029
 5346SOL     OW16936   2.896   4.920   4.446
 5346SOL    HW116937   2.850   4.930   4.357
 5346SOL    HW216938   2.990   4.890   4.432
 5347SOL     OW16939   0.118   3.516   3.561
 5347SOL    HW116940   0.170   3.524   3.476
 5347SOL    HW216941   0.034   3.571   3.553
 5348SOL     OW16942   0.277   1.318   5.718
 5348SOL    HW116943   0.180   1.297   5.727
 5348SOL    HW216944   0.299   1.335   5.622
 5349SOL     OW16945   2.632   3.333   1.496
 5349SOL    HW116946   2.652   3.401   1.566
 5349SOL    HW216947   2.571   3.373   1.426
 5350SOL     OW16948   2.353   6.291   5.703
 5350SOL    HW116949   2.452   6.302   5.707
 5350SOL    HW216950   2.315   6.357   5.638
 5351SOL     OW16951   0.156   4.902   1.525
 5351SOL    HW116952   0.186   4.812   1.557
 5351SOL    HW216953   0.096   4.943   1.594
 5352SOL     OW16954   2.120   4.054   3.107
 5352SOL    HW116955   2.038   4.106   3.082
 5352SOL    HW216956   2.152   4.003   3.028
 5353SOL     OW16957   3.673   5.144   3.425
 5353SOL    HW116958   3.577   5.161   3.447
 5353SOL    HW216959   3.703   5.060   3.470
 5354SOL     OW16960   2.833   4.224   6.730
 5354SOL    HW116961   2.844   4.125   6.737
 5354SOL    HW216962   2.837   4.265   6.821
 5355SOL     OW16963   5.022   4.755   4.735
 5355SOL    HW116964   5.104   4.737   4.682
 5355SOL    HW216965   4.942   4.725   4.684
 5356SOL     OW16966   6.784   3.758   1.926
 5356SOL    HW116967   6.804   3.692   1.853
 5356SOL    HW216968   6.684   3.765   1.938
 5357SOL     OW16969   4.082   4.585   1.292
 5357SOL    HW116970   4.150   4.647   1.252
 5357SOL    HW216971   4.111   4.490   1.279
 5358SOL     OW16972   4.470   1.733   0.792
 5358SOL    HW116973   4.492   1.663   0.859
 5358SOL    HW216974   4.534   1.726   0.715
 5359SOL     OW16975   1.903   1.794   6.937
 5359SOL    HW116976   1.834   1.827   6.873
 5359SOL    HW216977   1.966   1.868   6.960
 5360SOL     OW16978   5.412   5.714   3.393
 5360SOL    HW116979   5.409   5.736   3.296
 5360SOL    HW216980   5.323   5.732   3.434
 5361SOL     OW16981   2.026   6.508   3.758
 5361SOL    HW116982   1.967   6.588   3.752
 5361SOL    HW216983   1.970   6.425   3.756
 5362SOL     OW16984   6.258   6.935   2.938
 5362SOL    HW116985   6.353   6.917   2.910
 5362SOL    HW216986   6.198   6.867   2.897
 5363SOL     OW16987   5.256   6.402   5.096
 5363SOL    HW116988   5.208   6.481   5.059
 5363SOL    HW216989   5.354   6.420   5.098
 5364SOL     OW16990   5.905   0.454   2.361
 5364SOL    HW116991   5.905   0.355   2.346
 5364SOL    HW216992   5.993   0.492   2.332
 5365SOL     OW16993   3.127   3.478   2.456
 5365SOL    HW116994   3.035   3.453   2.424
 5365SOL    HW216995   3.184   3.396   2.461
 5366SOL     OW16996   6.984   0.576   2.364
 5366SOL    HW116997   6.994   0.511   2.289
 5366SOL    HW216998   7.020   0.665   2.335
 5367SOL     OW16999   6.689   0.215   0.966
 5367SOL    HW117000   6.777   0.185   1.002
 5367SOL    HW217001   6.645   0.275   1.033
 5368SOL     OW17002   6.597   6.021   2.175
 5368SOL    HW117003   6.547   5.983   2.097
 5368SOL    HW217004   6.681   6.063   2.143
 5369SOL     OW17005   2.886   5.788   1.631
 5369SOL    HW117006   2.909   5.694   1.658
 5369SOL    HW217007   2.913   5.803   1.536
 5370SOL     OW17008   4.502   3.380   1.676
 5370SOL    HW117009   4.418   3.431   1.656
 5370SOL    HW217010   4.547   3.356   1.590
 5371SOL     OW17011   6.893   5.328   5.478
 5371SOL    HW117012   6.944   5.242   5.478
 5371SOL    HW217013   6.879   5.358   5.384
 5372SOL     OW17014   1.453   6.426   2.833
 5372SOL    HW117015   1.424   6.415   2.928
 5372SOL    HW217016   1.535   6.482   2.829
 5373SOL     OW17017   3.724   0.039   5.797
 5373SOL    HW117018   3.654   0.109   5.785
 5373SOL    HW217019   3.758   0.041   5.891
 5374SOL     OW17020   2.275   4.390   1.252
 5374SOL    HW117021   2.282   4.307   1.306
 5374SOL    HW217022   2.286   4.368   1.155
 5375SOL     OW17023   0.746   5.581   5.545
 5375SOL    HW117024   0.681   5.507   5.561
 5375SOL    HW217025   0.707   5.647   5.480
 5376SOL     OW17026   1.210   2.086   1.457
 5376SOL    HW117027   1.205   2.186   1.466
 5376SOL    HW217028   1.118   2.049   1.445
 5377SOL     OW17029   1.438   0.999   2.895
 5377SOL    HW117030   1.354   0.983   2.844
 5377SOL    HW217031   1.439   0.942   2.977
 5378SOL     OW17032   6.802   0.437   1.748
 5378SOL    HW117033   6.812   0.535   1.734
 5378SOL    HW217034   6.887   0.391   1.723
 5379SOL     OW17035   1.439   3.197   5.191
 5379SOL    HW117036   1.448   3.154   5.280
 5379SOL    HW217037   1.528   3.201   5.146
 5380SOL     OW17038   3.337   6.957   1.373
 5380SOL    HW117039   3.328   6.898   1.453
 5380SOL    HW217040   3.433   6.959   1.344
 5381SOL     OW17041   6.037   5.968   2.742
 5381SOL    HW117042   6.023   6.024   2.661
 5381SOL    HW217043   6.020   6.023   2.824
 5382SOL     OW17044   3.162   2.160   2.599
 5382SOL    HW117045   3.151   2.208   2.512
 5382SOL    HW217046   3.090   2.091   2.608
 5383SOL     OW17047   1.491   3.184   4.882
 5383SOL    HW117048   1.410   3.126   4.877
 5383SOL    HW217049   1.556   3.145   4.947
 5384SOL     OW17050   4.797   5.361   4.662
 5384SOL    HW117051   4.807   5.369   4.562
 5384SOL    HW217052   4.700   5.361   4.685
 5385SOL     OW17053   6.059   3.102   4.592
 5385SOL    HW117054   5.977   3.066   4.637
 5385SOL    HW217055   6.138   3.087   4.651
 5386SOL     OW17056   6.144   1.505   3.839
 5386SOL    HW117057   6.218   1.458   3.887
 5386SOL    HW217058   6.056   1.478   3.878
 5387SOL     OW17059   2.777   6.339   3.600
 5387SOL    HW117060   2.693   6.364   3.647
 5387SOL    HW217061   2.770   6.245   3.567
 5388SOL     OW17062   1.614   6.569   3.135
 5388SOL    HW117063   1.562   6.654   3.145
 5388SOL    HW217064   1.699   6.588   3.086
 5389SOL     OW17065   4.228   2.108   4.701
 5389SOL    HW117066   4.159   2.121   4.772
 5389SOL    HW217067   4.211   2.172   4.626
 5390SOL     OW17068   5.080   4.005   4.011
 5390SOL    HW117069   5.062   3.969   4.103
 5390SOL    HW217070   5.142   3.944   3.963
 5391SOL     OW17071   3.062   1.917   0.184
 5391SOL    HW117072   2.994   1.985   0.211
 5391SOL    HW217073   3.153   1.945   0.217
 5392SOL     OW17074   4.914   3.356   2.610
 5392SOL    HW117075   4.893   3.452   2.595
 5392SOL    HW217076   4.964   3.320   2.532
 5393SOL     OW17077   4.545   1.088   5.835
 5393SOL    HW117078   4.447   1.095   5.816
 5393SOL    HW217079   4.596   1.133   5.762
 5394SOL     OW17080   0.344   6.096   0.780
 5394SOL    HW117081   0.289   6.019   0.747
 5394SOL    HW217082   0.440   6.070   0.782
 5395SOL     OW17083   4.842   1.378   1.113
 5395SOL    HW117084   4.922   1.337   1.157
 5395SOL    HW217085   4.785   1.423   1.182
 5396SOL     OW17086   5.152   5.507   2.208
 5396SOL    HW117087   5.238   5.531   2.255
 5396SOL    HW217088   5.155   5.542   2.114
 5397SOL     OW17089   6.937   2.127   1.668
 5397SOL    HW117090   6.958   2.058   1.599
 5397SOL    HW217091   6.839   2.147   1.668
 5398SOL     OW17092   3.627   2.067   3.642
 5398SOL    HW117093   3.592   1.974   3.656
 5398SOL    HW217094   3.624   2.117   3.728
 5399SOL     OW17095   2.442   6.593   6.025
 5399SOL    HW117096   2.467   6.625   6.117
 5399SOL    HW217097   2.524   6.586   5.968
 5400SOL     OW17098   3.135   3.452   1.073
 5400SOL    HW117099   3.156   3.500   1.158
 5400SOL    HW217100   3.181   3.498   0.997
 5401SOL     OW17101   5.576   4.106   2.903
 5401SOL    HW117102   5.477   4.092   2.901
 5401SOL    HW217103   5.615   4.086   2.813
 5402SOL     OW17104   3.273   6.301   0.946
 5402SOL    HW117105   3.190   6.311   1.001
 5402SOL    HW217106   3.286   6.205   0.922
 5403SOL     OW17107   5.010   3.340   6.581
 5403SOL    HW117108   4.975   3.434   6.578
 5403SOL    HW217109   4.942   3.278   6.544
 5404SOL     OW17110   0.922   0.415   1.130
 5404SOL    HW117111   0.951   0.424   1.225
 5404SOL    HW217112   0.979   0.472   1.071
 5405SOL     OW17113   6.010   4.974   0.156
 5405SOL    HW117114   6.078   4.909   0.123
 5405SOL    HW217115   5.953   4.931   0.226
 5406SOL     OW17116   1.852   0.859   5.106
 5406SOL    HW117117   1.802   0.932   5.059
 5406SOL    HW217118   1.818   0.850   5.199
 5407SOL     OW17119   2.997   1.389   0.845
 5407SOL    HW117120   2.945   1.386   0.760
 5407SOL    HW217121   3.059   1.467   0.844
 5408SOL     OW17122   3.160   1.509   4.582
 5408SOL    HW117123   3.148   1.563   4.665
 5408SOL    HW217124   3.257   1.486   4.571
 5409SOL     OW17125   6.528   1.606   2.294
 5409SOL    HW117126   6.567   1.519   2.266
 5409SOL    HW217127   6.553   1.677   2.228
 5410SOL     OW17128   0.760   3.198   0.114
 5410SOL    HW117129   0.742   3.278   0.170
 5410SOL    HW217130   0.675   3.148   0.098
 5411SOL     OW17131   5.295   4.317   6.930
 5411SOL    HW117132   5.313   4.403   6.979
 5411SOL    HW217133   5.337   4.241   6.980
 5412SOL     OW17134   2.383   1.312   6.178
 5412SOL    HW117135   2.419   1.239   6.121
 5412SOL    HW217136   2.315   1.274   6.241
 5413SOL     OW17137   6.969   6.927   5.899
 5413SOL    HW117138   0.041   6.955   5.903
 5413SOL    HW217139   6.947   6.871   5.979
 5414SOL     OW17140   6.279   4.505   5.570
 5414SOL    HW117141   6.343   4.582   5.569
 5414SOL    HW217142   6.210   4.517   5.499
 5415SOL     OW17143   2.971   5.617   0.323
 5415SOL    HW117144   3.009   5.534   0.365
 5415SOL    HW217145   2.881   5.596   0.284
 5416SOL     OW17146   2.911   5.401   4.958
 5416SOL    HW117147   2.911   5.314   5.007
 5416SOL    HW217148   2.822   5.446   4.971
 5417SOL     OW17149   3.917   6.961   4.052
 5417SOL    HW117150   3.899   6.870   4.090
 5417SOL    HW217151   3.912   6.956   3.952
 5418SOL     OW17152   5.511   5.320   4.865
 5418SOL    HW117153   5.499   5.337   4.767
 5418SOL    HW217154   5.536   5.224   4.879
 5419SOL     OW17155   4.274   6.430   0.258
 5419SOL    HW117156   4.323   6.398   0.340
 5419SOL    HW217157   4.191   6.376   0.246
 5420SOL     OW17158   2.041   2.172   0.898
 5420SOL    HW117159   1.976   2.172   0.974
 5420SOL    HW217160   2.023   2.094   0.839
 5421SOL     OW17161   3.137   5.484   1.818
 5421SOL    HW117162   3.126   5.539   1.901
 5421SOL    HW217163   3.049   5.474   1.772
 5422SOL     OW17164   1.906   5.554   3.986
 5422SOL    HW117165   1.955   5.473   4.017
 5422SOL    HW217166   1.825   5.568   4.044
 5423SOL     OW17167   6.240   5.247   1.437
 5423SOL    HW117168   6.251   5.197   1.352
 5423SOL    HW217169   6.234   5.183   1.513
 5424SOL     OW17170   4.849   3.762   4.112
 5424SOL    HW117171   4.862   3.714   4.025
 5424SOL    HW217172   4.899   3.715   4.184
 5425SOL     OW17173   6.814   3.242   4.708
 5425SOL    HW117174   6.817   3.268   4.611
 5425SOL    HW217175   6.781   3.320   4.762
 5426SOL     OW17176   4.305   5.435   2.321
 5426SOL    HW117177   4.255   5.354   2.353
 5426SOL    HW217178   4.321   5.496   2.397
 5427SOL     OW17179   4.801   2.750   6.897
 5427SOL    HW117180   4.760   2.695   6.824
 5427SOL    HW217181   4.853   2.825   6.856
 5428SOL     OW17182   5.292   6.450   2.339
 5428SOL    HW117183   5.232   6.407   2.272
 5428SOL    HW217184   5.283   6.403   2.427
 5429SOL     OW17185   2.555   6.909   4.999
 5429SOL    HW117186   2.533   6.824   4.952
 5429SOL    HW217187   2.522   6.986   4.945
 5430SOL     OW17188   1.827   2.864   5.847
 5430SOL    HW117189   1.766   2.820   5.781
 5430SOL    HW217190   1.919   2.867   5.810
 5431SOL     OW17191   3.404   4.505   6.490
 5431SOL    HW117192   3.352   4.476   6.570
 5431SOL    HW217193   3.426   4.425   6.434
 5432SOL     OW17194   5.424   5.373   0.364
 5432SOL    HW117195   5.451   5.310   0.437
 5432SOL    HW217196   5.353   5.435   0.398
 5433SOL     OW17197   1.344   0.083   1.088
 5433SOL    HW117198   1.441   0.105   1.096
 5433SOL    HW217199   1.306   0.130   1.008
 5434SOL     OW17200   4.877   1.131   5.114
 5434SOL    HW117201   4.883   1.199   5.042
 5434SOL    HW217202   4.888   1.039   5.075
 5435SOL     OW17203   6.232   3.541   0.911
 5435SOL    HW117204   6.195   3.558   1.003
 5435SOL    HW217205   6.157   3.517   0.849
 5436SOL     OW17206   0.126   5.633   4.080
 5436SOL    HW117207   0.199   5.651   4.145
 5436SOL    HW217208   0.085   5.544   4.099
 5437SOL     OW17209   3.463   4.528   5.662
 5437SOL    HW117210   3.501   4.446   5.705
 5437SOL    HW217211   3.478   4.607   5.722
 5438SOL     OW17212   5.375   5.014   2.357
 5438SOL    HW117213   5.315   5.049   2.429
 5438SOL    HW217214   5.354   4.918   2.340
 5439SOL     OW17215   1.510   4.083   0.239
 5439SOL    HW117216   1.542   4.096   0.333
 5439SOL    HW217217   1.428   4.025   0.240
 5440SOL     OW17218   5.687   6.619   3.198
 5440SOL    HW117219   5.636   6.684   3.142
 5440SOL    HW217220   5.691   6.653   3.292
 5441SOL     OW17221   5.168   3.327   3.425
 5441SOL    HW117222   5.235   3.266   3.469
 5441SOL    HW217223   5.182   3.325   3.326
 5442SOL     OW17224   3.467   0.245   3.225
 5442SOL    HW117225   3.525   0.222   3.303
 5442SOL    HW217226   3.470   0.343   3.209
 5443SOL     OW17227   4.506   6.746   3.948
 5443SOL    HW117228   4.595   6.707   3.921
 5443SOL    HW217229   4.461   6.685   4.012
 5444SOL     OW17230   6.988   1.916   3.851
 5444SOL    HW117231   6.892   1.901   3.875
 5444SOL    HW217232   0.022   1.888   3.927
 5445SOL     OW17233   4.885   4.396   4.006
 5445SOL    HW117234   4.789   4.409   4.029
 5445SOL    HW217235   4.940   4.468   4.049
 5446SOL     OW17236   6.245   4.627   4.530
 5446SOL    HW117237   6.313   4.606   4.459
 5446SOL    HW217238   6.272   4.711   4.577
 5447SOL     OW17239   2.418   1.845   0.902
 5447SOL    HW117240   2.421   1.790   0.819
 5447SOL    HW217241   2.325   1.845   0.939
 5448SOL     OW17242   4.697   5.551   3.989
 5448SOL    HW117243   4.707   5.619   4.062
 5448SOL    HW217244   4.691   5.597   3.901
 5449SOL     OW17245   2.533   1.061   1.640
 5449SOL    HW117246   2.544   1.156   1.613
 5449SOL    HW217247   2.537   1.002   1.560
 5450SOL     OW17248   3.938   6.323   0.966
 5450SOL    HW117249   3.993   6.406   0.969
 5450SOL    HW217250   3.932   6.284   1.057
 5451SOL     OW17251   1.482   6.246   3.630
 5451SOL    HW117252   1.568   6.206   3.601
 5451SOL    HW217253   1.483   6.345   3.614
 5452SOL     OW17254   2.280   4.306   0.983
 5452SOL    HW117255   2.269   4.208   0.998
 5452SOL    HW217256   2.207   4.339   0.923
 5453SOL     OW17257   5.104   4.145   2.104
 5453SOL    HW117258   5.063   4.085   2.035
 5453SOL    HW217259   5.052   4.137   2.189
 5454SOL     OW17260   5.568   6.392   1.913
 5454SOL    HW117261   5.530   6.364   2.001
 5454SOL    HW217262   5.664   6.420   1.926
 5455SOL     OW17263   0.215   1.629   3.148
 5455SOL    HW117264   0.231   1.662   3.241
 5455SOL    HW217265   0.255   1.538   3.138
 5456SOL     OW17266   4.161   1.267   6.944
 5456SOL    HW117267   4.078   1.242   6.895
 5456SOL    HW217268   4.169   1.367   6.947
 5457SOL     OW17269   6.209   1.537   0.510
 5457SOL    HW117270   6.278   1.472   0.542
 5457SOL    HW217271   6.217   1.622   0.563
 5458SOL     OW17272   6.892   5.244   1.221
 5458SOL    HW117273   6.843   5.241   1.308
 5458SOL    HW217274   6.920   5.151   1.196
 5459SOL     OW17275   1.797   4.696   4.985
 5459SOL    HW117276   1.825   4.770   5.045
 5459SOL    HW217277   1.796   4.610   5.036
 5460SOL     OW17278   2.456   0.336   1.748
 5460SOL    HW117279   2.373   0.363   1.797
 5460SOL    HW217280   2.432   0.299   1.659
 5461SOL     OW17281   1.149   1.036   5.204
 5461SOL    HW117282   1.093   1.036   5.288
 5461SOL    HW217283   1.093   1.004   5.127
 5462SOL     OW17284   5.245   6.601   6.791
 5462SOL    HW117285   5.255   6.592   6.692
 5462SOL    HW217286   5.288   6.523   6.836
 5463SOL     OW17287   6.557   1.661   6.755
 5463SOL    HW117288   6.472   1.636   6.709
 5463SOL    HW217289   6.559   1.760   6.769
 5464SOL     OW17290   6.671   5.488   5.288
 5464SOL    HW117291   6.598   5.510   5.353
 5464SOL    HW217292   6.711   5.573   5.254
 5465SOL     OW17293   6.935   6.941   2.770
 5465SOL    HW117294   6.944   6.936   2.671
 5465SOL    HW217295   7.024   6.961   2.811
 5466SOL     OW17296   6.234   2.768   5.559
 5466SOL    HW117297   6.154   2.709   5.548
 5466SOL    HW217298   6.305   2.742   5.493
 5467SOL     OW17299   5.560   3.873   3.651
 5467SOL    HW117300   5.613   3.881   3.566
 5467SOL    HW217301   5.463   3.879   3.629
 5468SOL     OW17302   6.939   2.489   4.107
 5468SOL    HW117303   0.007   2.499   4.143
 5468SOL    HW217304   6.928   2.398   4.068
 5469SOL     OW17305   3.192   6.378   6.188
 5469SOL    HW117306   3.176   6.323   6.269
 5469SOL    HW217307   3.290   6.382   6.168
 5470SOL     OW17308   3.950   5.569   3.466
 5470SOL    HW117309   3.869   5.527   3.508
 5470SOL    HW217310   4.028   5.558   3.528
 5471SOL     OW17311   5.554   0.086   2.218
 5471SOL    HW117312   5.645   0.075   2.258
 5471SOL    HW217313   5.525   0.181   2.226
 5472SOL     OW17314   3.479   3.236   6.501
 5472SOL    HW117315   3.518   3.285   6.424
 5472SOL    HW217316   3.379   3.233   6.492
 5473SOL     OW17317   2.308   4.452   0.179
 5473SOL    HW117318   2.315   4.476   0.276
 5473SOL    HW217319   2.215   4.422   0.159
 5474SOL     OW17320   0.402   5.900   4.059
 5474SOL    HW117321   0.431   5.868   3.968
 5474SOL    HW217322   0.327   5.964   4.049
 5475SOL     OW17323   1.686   2.169   0.773
 5475SOL    HW117324   1.730   2.259   0.781
 5475SOL    HW217325   1.712   2.113   0.852
 5476SOL     OW17326   2.657   4.995   5.271
 5476SOL    HW117327   2.589   4.930   5.237
 5476SOL    HW217328   2.641   5.085   5.231
 5477SOL     OW17329   1.583   3.612   3.083
 5477SOL    HW117330   1.494   3.658   3.093
 5477SOL    HW217331   1.582   3.555   3.001
 5478SOL     OW17332   5.292   6.234   5.489
 5478SOL    HW117333   5.209   6.263   5.441
 5478SOL    HW217334   5.286   6.137   5.510
 5479SOL     OW17335   4.688   1.553   4.812
 5479SOL    HW117336   4.705   1.652   4.814
 5479SOL    HW217337   4.746   1.509   4.880
 5480SOL     OW17338   5.903   4.663   5.236
 5480SOL    HW117339   5.854   4.745   5.209
 5480SOL    HW217340   5.898   4.595   5.163
 5481SOL     OW17341   4.771   1.254   4.652
 5481SOL    HW117342   4.788   1.208   4.565
 5481SOL    HW217343   4.674   1.277   4.660
 5482SOL     OW17344   3.049   3.946   3.178
 5482SOL    HW117345   2.963   3.938   3.128
 5482SOL    HW217346   3.117   3.994   3.122
 5483SOL     OW17347   6.485   2.533   5.063
 5483SOL    HW117348   6.546   2.536   5.142
 5483SOL    HW217349   6.434   2.447   5.064
 5484SOL     OW17350   6.328   0.532   3.570
 5484SOL    HW117351   6.273   0.578   3.640
 5484SOL    HW217352   6.270   0.475   3.513
 5485SOL     OW17353   3.232   6.373   4.576
 5485SOL    HW117354   3.159   6.438   4.558
 5485SOL    HW217355   3.210   6.286   4.533
 5486SOL     OW17356   1.855   6.654   3.941
 5486SOL    HW117357   1.828   6.588   4.012
 5486SOL    HW217358   1.781   6.721   3.929
 5487SOL     OW17359   5.298   3.466   6.260
 5487SOL    HW117360   5.308   3.456   6.359
 5487SOL    HW217361   5.208   3.432   6.232
 5488SOL     OW17362   5.293   1.824   1.350
 5488SOL    HW117363   5.283   1.827   1.250
 5488SOL    HW217364   5.289   1.917   1.387
 5489SOL     OW17365   1.197   3.987   1.549
 5489SOL    HW117366   1.234   3.968   1.459
 5489SOL    HW217367   1.097   3.990   1.544
 5490SOL     OW17368   3.406   0.102   0.912
 5490SOL    HW117369   3.315   0.102   0.870
 5490SOL    HW217370   3.441   0.196   0.915
 5491SOL     OW17371   1.361   4.059   6.084
 5491SOL    HW117372   1.386   4.059   6.181
 5491SOL    HW217373   1.366   3.966   6.049
 5492SOL     OW17374   1.070   2.086   6.571
 5492SOL    HW117375   0.994   2.053   6.515
 5492SOL    HW217376   1.067   2.043   6.661
 5493SOL     OW17377   4.087   3.670   4.369
 5493SOL    HW117378   4.076   3.649   4.272
 5493SOL    HW217379   4.125   3.590   4.416
 5494SOL     OW17380   6.062   3.132   6.725
 5494SOL    HW117381   6.025   3.205   6.783
 5494SOL    HW217382   6.158   3.118   6.747
 5495SOL     OW17383   3.176   2.659   1.547
 5495SOL    HW117384   3.120   2.679   1.467
 5495SOL    HW217385   3.120   2.668   1.630
 5496SOL     OW17386   2.782   6.706   3.514
 5496SOL    HW117387   2.738   6.669   3.432
 5496SOL    HW217388   2.819   6.630   3.568
 5497SOL     OW17389   0.178   2.003   3.453
 5497SOL    HW117390   0.103   1.942   3.479
 5497SOL    HW217391   0.233   2.024   3.533
 5498SOL     OW17392   5.154   0.356   1.535
 5498SOL    HW117393   5.224   0.331   1.468
 5498SOL    HW217394   5.196   0.361   1.626
 5499SOL     OW17395   1.058   0.556   3.578
 5499SOL    HW117396   0.967   0.597   3.566
 5499SOL    HW217397   1.051   0.480   3.644
 5500SOL     OW17398   1.676   6.345   6.994
 5500SOL    HW117399   1.578   6.355   7.009
 5500SOL    HW217400   1.711   6.273   0.030
 5501SOL     OW17401   3.684   0.378   0.770
 5501SOL    HW117402   3.724   0.343   0.685
 5501SOL    HW217403   3.584   0.371   0.765
 5502SOL     OW17404   5.244   4.265   6.649
 5502SOL    HW117405   5.247   4.354   6.605
 5502SOL    HW217406   5.234   4.276   6.748
 5503SOL     OW17407   0.299   5.029   2.943
 5503SOL    HW117408   0.258   4.968   3.011
 5503SOL    HW217409   0.240   5.108   2.929
 5504SOL     OW17410   3.893   1.430   5.939
 5504SOL    HW117411   3.844   1.350   5.904
 5504SOL    HW217412   3.844   1.513   5.914
 5505SOL     OW17413   2.398   5.303   4.190
 5505SOL    HW117414   2.362   5.290   4.097
 5505SOL    HW217415   2.480   5.359   4.186
 5506SOL     OW17416   0.028   0.914   6.194
 5506SOL    HW117417   0.117   0.881   6.225
 5506SOL    HW217418   0.022   0.904   6.094
 5507SOL     OW17419   2.217   6.878   2.997
 5507SOL    HW117420   2.230   6.802   3.061
 5507SOL    HW217421   2.298   6.937   2.999
 5508SOL     OW17422   1.777   1.352   0.068
 5508SOL    HW117423   1.831   1.327   7.013
 5508SOL    HW217424   1.833   1.406   0.131
 5509SOL     OW17425   1.022   6.619   0.526
 5509SOL    HW117426   1.096   6.684   0.519
 5509SOL    HW217427   0.985   6.619   0.619
 5510SOL     OW17428   5.468   6.208   0.894
 5510SOL    HW117429   5.374   6.174   0.890
 5510SOL    HW217430   5.471   6.299   0.851
 5511SOL     OW17431   2.497   0.160   4.433
 5511SOL    HW117432   2.590   0.154   4.470
 5511SOL    HW217433   2.472   0.256   4.421
 5512SOL     OW17434   5.884   2.270   1.448
 5512SOL    HW117435   5.814   2.210   1.486
 5512SOL    HW217436   5.844   2.360   1.429
 5513SOL     OW17437   3.452   3.983   6.000
 5513SOL    HW117438   3.395   3.971   5.918
 5513SOL    HW217439   3.523   3.913   6.001
 5514SOL     OW17440   4.311   5.545   2.053
 5514SOL    HW117441   4.218   5.568   2.024
 5514SOL    HW217442   4.307   5.501   2.144
 5515SOL     OW17443   0.466   4.525   1.150
 5515SOL    HW117444   0.422   4.574   1.075
 5515SOL    HW217445   0.457   4.427   1.137
 5516SOL     OW17446   1.537   3.767   6.917
 5516SOL    HW117447   1.506   3.691   6.974
 5516SOL    HW217448   1.497   3.852   6.950
 5517SOL     OW17449   2.097   2.836   2.310
 5517SOL    HW117450   2.049   2.851   2.224
 5517SOL    HW217451   2.146   2.919   2.337
 5518SOL     OW17452   6.363   7.013   6.359
 5518SOL    HW117453   6.346   6.935   6.418
 5518SOL    HW217454   6.404   0.063   6.413
 5519SOL     OW17455   5.135   3.138   2.815
 5519SOL    HW117456   5.190   3.189   2.748
 5519SOL    HW217457   5.039   3.166   2.807
 5520SOL     OW17458   6.748   5.384   2.502
 5520SOL    HW117459   6.655   5.350   2.488
 5520SOL    HW217460   6.793   5.393   2.413
 5521SOL     OW17461   4.183   6.872   2.424
 5521SOL    HW117462   4.215   6.782   2.452
 5521SOL    HW217463   4.083   6.870   2.415
 5522SOL     OW17464   0.580   4.932   0.687
 5522SOL    HW117465   0.554   4.921   0.784
 5522SOL    HW217466   0.604   5.027   0.670
 5523SOL     OW17467   2.839   6.851   3.057
 5523SOL    HW117468   2.939   6.852   3.056
 5523SOL    HW217469   2.806   6.757   3.069
 5524SOL     OW17470   5.654   5.170   4.410
 5524SOL    HW117471   5.694   5.247   4.460
 5524SOL    HW217472   5.657   5.087   4.466
 5525SOL     OW17473   6.682   3.241   0.076
 5525SOL    HW117474   6.598   3.259   0.024
 5525SOL    HW217475   6.759   3.231   0.013
 5526SOL     OW17476   5.234   4.713   4.551
 5526SOL    HW117477   5.237   4.664   4.464
 5526SOL    HW217478   5.254   4.810   4.535
 5527SOL     OW17479   0.501   3.576   4.313
 5527SOL    HW117480   0.599   3.565   4.330
 5527SOL    HW217481   0.478   3.673   4.311
 5528SOL     OW17482   1.047   1.960   6.794
 5528SOL    HW117483   1.124   1.998   6.845
 5528SOL    HW217484   1.063   1.863   6.775
 5529SOL     OW17485   2.007   0.321   4.570
 5529SOL    HW117486   1.968   0.247   4.625
 5529SOL    HW217487   2.024   0.288   4.477
 5530SOL     OW17488   0.450   2.250   2.156
 5530SOL    HW117489   0.395   2.333   2.166
 5530SOL    HW217490   0.504   2.236   2.238
 5531SOL     OW17491   3.569   3.924   2.263
 5531SOL    HW117492   3.666   3.940   2.243
 5531SOL    HW217493   3.529   3.869   2.190
 5532SOL     OW17494   1.524   1.265   0.732
 5532SOL    HW117495   1.459   1.340   0.743
 5532SOL    HW217496   1.533   1.216   0.819
 5533SOL     OW17497   3.042   0.756   3.109
 5533SOL    HW117498   2.968   0.797   3.055
 5533SOL    HW217499   3.122   0.744   3.050
 5534SOL     OW17500   0.619   2.458   5.552
 5534SOL    HW117501   0.710   2.470   5.591
 5534SOL    HW217502   0.578   2.547   5.533
 5535SOL     OW17503   0.810   3.034   4.257
 5535SOL    HW117504   0.846   2.975   4.329
 5535SOL    HW217505   0.882   3.092   4.221
 5536SOL     OW17506   3.309   0.849   4.129
 5536SOL    HW117507   3.295   0.909   4.050
 5536SOL    HW217508   3.356   0.765   4.099
 5537SOL     OW17509   3.078   0.915   4.498
 5537SOL    HW117510   3.100   0.985   4.429
 5537SOL    HW217511   3.096   0.951   4.589
 5538SOL     OW17512   3.320   6.853   4.999
 5538SOL    HW117513   3.297   6.873   5.094
 5538SOL    HW217514   3.236   6.844   4.946
 5539SOL     OW17515   1.451   2.983   0.183
 5539SOL    HW117516   1.490   3.063   0.227
 5539SOL    HW217517   1.383   2.941   0.243
 5540SOL     OW17518   6.478   3.648   3.311
 5540SOL    HW117519   6.391   3.603   3.289
 5540SOL    HW217520   6.462   3.721   3.377
 5541SOL     OW17521   5.796   1.412   6.814
 5541SOL    HW117522   5.847   1.498   6.823
 5541SOL    HW217523   5.835   1.358   6.739
 5542SOL     OW17524   5.911   6.537   6.395
 5542SOL    HW117525   5.978   6.586   6.338
 5542SOL    HW217526   5.920   6.567   6.490
 5543SOL     OW17527   2.634   5.359   6.178
 5543SOL    HW117528   2.727   5.323   6.178
 5543SOL    HW217529   2.637   5.459   6.168
 5544SOL     OW17530   5.537   5.977   6.370
 5544SOL    HW117531   5.527   6.073   6.396
 5544SOL    HW217532   5.530   5.920   6.451
 5545SOL     OW17533   4.570   1.553   3.559
 5545SOL    HW117534   4.585   1.639   3.607
 5545SOL    HW217535   4.493   1.564   3.495
 5546SOL     OW17536   1.639   6.666   4.296
 5546SOL    HW117537   1.636   6.648   4.394
 5546SOL    HW217538   1.708   6.606   4.253
 5547SOL     OW17539   3.776   0.269   4.695
 5547SOL    HW117540   3.871   0.301   4.691
 5547SOL    HW217541   3.754   0.245   4.790
 5548SOL     OW17542   5.612   3.173   4.939
 5548SOL    HW117543   5.656   3.094   4.980
 5548SOL    HW217544   5.681   3.240   4.911
 5549SOL     OW17545   4.066   4.644   0.728
 5549SOL    HW117546   4.134   4.572   0.744
 5549SOL    HW217547   3.976   4.611   0.758
 5550SOL     OW17548   2.259   4.137   2.352
 5550SOL    HW117549   2.311   4.203   2.298
 5550SOL    HW217550   2.239   4.177   2.442
 5551SOL     OW17551   1.690   6.103   3.560
 5551SOL    HW117552   1.686   6.009   3.593
 5551SOL    HW217553   1.716   6.104   3.463
 5552SOL     OW17554   6.851   6.958   6.947
 5552SOL    HW117555   6.775   6.893   6.939
 5552SOL    HW217556   6.843   7.008   0.009
 5553SOL     OW17557   5.022   6.509   0.221
 5553SOL    HW117558   5.072   6.582   0.269
 5553SOL    HW217559   5.019   6.530   0.123
 5554SOL     OW17560   4.786   1.839   6.463
 5554SOL    HW117561   4.800   1.909   6.533
 5554SOL    HW217562   4.839   1.757   6.486
 5555SOL     OW17563   0.795   3.634   3.406
 5555SOL    HW117564   0.792   3.708   3.473
 5555SOL    HW217565   0.709   3.631   3.355
 5556SOL     OW17566   6.989   1.842   3.483
 5556SOL    HW117567   6.890   1.855   3.486
 5556SOL    HW217568   7.011   1.759   3.431
 5557SOL     OW17569   3.211   6.967   2.712
 5557SOL    HW117570   3.192   6.985   2.809
 5557SOL    HW217571   3.142   6.904   2.676
 5558SOL     OW17572   3.814   3.327   5.730
 5558SOL    HW117573   3.836   3.403   5.670
 5558SOL    HW217574   3.720   3.297   5.713
 5559SOL     OW17575   1.183   0.817   1.235
 5559SOL    HW117576   1.193   0.728   1.279
 5559SOL    HW217577   1.202   0.890   1.301
 5560SOL     OW17578   0.433   5.570   2.388
 5560SOL    HW117579   0.516   5.575   2.444
 5560SOL    HW217580   0.457   5.548   2.294
 5561SOL     OW17581   1.631   1.522   3.915
 5561SOL    HW117582   1.680   1.566   3.840
 5561SOL    HW217583   1.538   1.558   3.920
 5562SOL     OW17584   4.036   2.494   6.468
 5562SOL    HW117585   4.092   2.423   6.510
 5562SOL    HW217586   3.942   2.463   6.461
 5563SOL     OW17587   4.070   5.190   1.902
 5563SOL    HW117588   4.047   5.240   1.986
 5563SOL    HW217589   4.169   5.192   1.889
 5564SOL     OW17590   5.009   0.557   1.255
 5564SOL    HW117591   4.972   0.486   1.196
 5564SOL    HW217592   4.988   0.647   1.217
 5565SOL     OW17593   4.623   1.862   5.986
 5565SOL    HW117594   4.710   1.813   5.981
 5565SOL    HW217595   4.593   1.868   6.081
 5566SOL     OW17596   1.493   5.030   6.556
 5566SOL    HW117597   1.524   5.120   6.526
 5566SOL    HW217598   1.557   4.960   6.522
 5567SOL     OW17599   0.093   2.027   0.949
 5567SOL    HW117600   0.169   2.073   0.994
 5567SOL    HW217601   0.020   2.092   0.932
 5568SOL     OW17602   4.414   1.805   3.862
 5568SOL    HW117603   4.330   1.830   3.911
 5568SOL    HW217604   4.427   1.868   3.785
 5569SOL     OW17605   1.395   1.937   2.337
 5569SOL    HW117606   1.423   2.033   2.334
 5569SOL    HW217607   1.326   1.925   2.408
 5570SOL     OW17608   5.957   4.512   5.040
 5570SOL    HW117609   6.056   4.511   5.056
 5570SOL    HW217610   5.926   4.420   5.017
 5571SOL     OW17611   0.104   5.748   0.520
 5571SOL    HW117612   0.142   5.738   0.428
 5571SOL    HW217613   0.127   5.838   0.556
 5572SOL     OW17614   1.367   2.183   5.227
 5572SOL    HW117615   1.272   2.209   5.210
 5572SOL    HW217616   1.424   2.217   5.153
 5573SOL     OW17617   2.222   4.620   4.613
 5573SOL    HW117618   2.254   4.525   4.607
 5573SOL    HW217619   2.122   4.620   4.626
 5574SOL     OW17620   0.557   1.950   2.114
 5574SOL    HW117621   0.566   2.003   2.199
 5574SOL    HW217622   0.468   1.904   2.113
 5575SOL     OW17623   0.097   0.920   1.314
 5575SOL    HW117624   0.018   0.977   1.294
 5575SOL    HW217625   0.110   0.913   1.413
 5576SOL     OW17626   0.802   5.315   1.676
 5576SOL    HW117627   0.833   5.406   1.647
 5576SOL    HW217628   0.865   5.246   1.640
 5577SOL     OW17629   3.156   3.296   5.245
 5577SOL    HW117630   3.159   3.220   5.180
 5577SOL    HW217631   3.162   3.260   5.338
 5578SOL     OW17632   3.922   3.845   0.576
 5578SOL    HW117633   3.887   3.935   0.605
 5578SOL    HW217634   3.851   3.798   0.524
 5579SOL     OW17635   0.667   3.688   6.733
 5579SOL    HW117636   0.668   3.788   6.721
 5579SOL    HW217637   0.596   3.649   6.675
 5580SOL     OW17638   5.434   2.774   5.571
 5580SOL    HW117639   5.522   2.807   5.606
 5580SOL    HW217640   5.451   2.697   5.509
 5581SOL     OW17641   1.492   6.881   1.641
 5581SOL    HW117642   1.438   6.963   1.624
 5581SOL    HW217643   1.585   6.895   1.608
 5582SOL     OW17644   2.955   3.801   5.215
 5582SOL    HW117645   2.915   3.815   5.125
 5582SOL    HW217646   2.957   3.703   5.236
 5583SOL     OW17647   5.072   0.227   2.574
 5583SOL    HW117648   5.162   0.257   2.606
 5583SOL    HW217649   5.001   0.280   2.622
 5584SOL     OW17650   5.744   4.259   3.752
 5584SOL    HW117651   5.773   4.187   3.815
 5584SOL    HW217652   5.698   4.332   3.802
 5585SOL     OW17653   5.108   6.094   4.219
 5585SOL    HW117654   5.083   6.120   4.125
 5585SOL    HW217655   5.167   6.013   4.217
 5586SOL     OW17656   0.090   2.530   6.832
 5586SOL    HW117657   0.182   2.562   6.854
 5586SOL    HW217658   0.047   2.591   6.766
 5587SOL     OW17659   4.054   6.532   1.833
 5587SOL    HW117660   4.137   6.545   1.888
 5587SOL    HW217661   4.070   6.564   1.740
 5588SOL     OW17662   1.618   5.770   2.773
 5588SOL    HW117663   1.551   5.837   2.742
 5588SOL    HW217664   1.687   5.816   2.829
 5589SOL     OW17665   6.146   3.812   5.487
 5589SOL    HW117666   6.241   3.844   5.495
 5589SOL    HW217667   6.121   3.809   5.390
 5590SOL     OW17668   6.458   5.559   4.008
 5590SOL    HW117669   6.406   5.639   4.040
 5590SOL    HW217670   6.471   5.565   3.909
 5591SOL     OW17671   5.413   1.802   0.418
 5591SOL    HW117672   5.491   1.863   0.435
 5591SOL    HW217673   5.445   1.708   0.411
 5592SOL     OW17674   0.142   4.571   2.612
 5592SOL    HW117675   0.099   4.548   2.699
 5592SOL    HW217676   0.080   4.550   2.536
 5593SOL     OW17677   0.362   3.227   6.739
 5593SOL    HW117678   0.450   3.248   6.783
 5593SOL    HW217679   0.289   3.275   6.786
 5594SOL     OW17680   3.865   1.296   6.565
 5594SOL    HW117681   3.909   1.253   6.645
 5594SOL    HW217682   3.829   1.225   6.505
 5595SOL     OW17683   6.252   0.596   5.041
 5595SOL    HW117684   6.326   0.661   5.022
 5595SOL    HW217685   6.224   0.604   5.137
 5596SOL     OW17686   4.780   0.906   3.405
 5596SOL    HW117687   4.777   0.825   3.346
 5596SOL    HW217688   4.720   0.977   3.368
 5597SOL     OW17689   5.619   2.632   5.205
 5597SOL    HW117690   5.684   2.653   5.278
 5597SOL    HW217691   5.532   2.676   5.224
 5598SOL     OW17692   6.189   4.009   3.684
 5598SOL    HW117693   6.089   4.004   3.687
 5598SOL    HW217694   6.219   4.023   3.589
 5599SOL     OW17695   0.589   2.710   1.434
 5599SOL    HW117696   0.618   2.623   1.394
 5599SOL    HW217697   0.517   2.693   1.501
 5600SOL     OW17698   2.443   0.138   1.948
 5600SOL    HW117699   2.481   0.181   1.866
 5600SOL    HW217700   2.346   0.118   1.933
 5601SOL     OW17701   2.745   0.766   6.664
 5601SOL    HW117702   2.731   0.704   6.587
 5601SOL    HW217703   2.657   0.795   6.701
 5602SOL     OW17704   0.092   0.891   1.587
 5602SOL    HW117705   0.011   0.928   1.634
 5602SOL    HW217706   0.164   0.874   1.654
 5603SOL     OW17707   5.915   2.579   0.062
 5603SOL    HW117708   5.938   2.500   0.119
 5603SOL    HW217709   5.986   2.593   7.018
 5604SOL     OW17710   6.325   1.971   4.479
 5604SOL    HW117711   6.378   1.890   4.453
 5604SOL    HW217712   6.358   2.005   4.567
 5605SOL     OW17713   0.143   1.000   5.202
 5605SOL    HW117714   0.240   1.012   5.185
 5605SOL    HW217715   0.119   1.042   5.289
 5606SOL     OW17716   5.062   6.897   0.792
 5606SOL    HW117717   5.127   6.946   0.850
 5606SOL    HW217718   4.977   6.949   0.786
 5607SOL     OW17719   6.271   1.143   3.498
 5607SOL    HW117720   6.175   1.165   3.514
 5607SOL    HW217721   6.298   1.065   3.556
 5608SOL     OW17722   6.287   0.657   3.819
 5608SOL    HW117723   6.372   0.680   3.867
 5608SOL    HW217724   6.279   0.557   3.813
 5609SOL     OW17725   4.072   6.315   1.538
 5609SOL    HW117726   4.080   6.236   1.598
 5609SOL    HW217727   4.011   6.293   1.462
 5610SOL     OW17728   4.357   5.347   1.359
 5610SOL    HW117729   4.319   5.439   1.341
 5610SOL    HW217730   4.456   5.349   1.347
 5611SOL     OW17731   0.903   5.298   3.153
 5611SOL    HW117732   0.841   5.326   3.079
 5611SOL    HW217733   0.984   5.254   3.115
 5612SOL     OW17734   4.392   2.713   5.992
 5612SOL    HW117735   4.392   2.795   5.935
 5612SOL    HW217736   4.486   2.680   6.003
 5613SOL     OW17737   5.971   5.721   5.077
 5613SOL    HW117738   5.914   5.741   5.158
 5613SOL    HW217739   5.959   5.625   5.051
 5614SOL     OW17740   4.843   2.657   4.870
 5614SOL    HW117741   4.814   2.589   4.937
 5614SOL    HW217742   4.932   2.630   4.832
 5615SOL     OW17743   6.692   1.621   3.869
 5615SOL    HW117744   6.737   1.573   3.944
 5615SOL    HW217745   6.699   1.567   3.785
 5616SOL     OW17746   2.607   2.079   5.486
 5616SOL    HW117747   2.686   2.019   5.474
 5616SOL    HW217748   2.635   2.162   5.535
 5617SOL     OW17749   2.406   5.556   5.682
 5617SOL    HW117750   2.469   5.587   5.753
 5617SOL    HW217751   2.378   5.462   5.701
 5618SOL     OW17752   6.671   4.532   4.309
 5618SOL    HW117753   6.605   4.457   4.313
 5618SOL    HW217754   6.654   4.596   4.383
 5619SOL     OW17755   3.805   4.091   4.759
 5619SOL    HW117756   3.832   4.131   4.672
 5619SOL    HW217757   3.787   3.993   4.746
 5620SOL     OW17758   4.353   3.701   0.822
 5620SOL    HW117759   4.278   3.699   0.756
 5620SOL    HW217760   4.384   3.795   0.834
 5621SOL     OW17761   2.387   2.594   0.200
 5621SOL    HW117762   2.355   2.500   0.207
 5621SOL    HW217763   2.468   2.606   0.258
 5622SOL     OW17764   4.487   0.567   5.821
 5622SOL    HW117765   4.545   0.602   5.747
 5622SOL    HW217766   4.459   0.643   5.880
 5623SOL     OW17767   4.780   6.190   5.510
 5623SOL    HW117768   4.715   6.228   5.576
 5623SOL    HW217769   4.736   6.185   5.420
 5624SOL     OW17770   0.420   4.068   3.573
 5624SOL    HW117771   0.461   4.159   3.569
 5624SOL    HW217772   0.443   4.024   3.660
 5625SOL     OW17773   6.626   6.825   5.300
 5625SOL    HW117774   6.631   6.894   5.372
 5625SOL    HW217775   6.532   6.791   5.294
 5626SOL     OW17776   2.181   5.497   4.130
 5626SOL    HW117777   2.222   5.568   4.073
 5626SOL    HW217778   2.252   5.450   4.182
 5627SOL     OW17779   0.889   4.701   6.754
 5627SOL    HW117780   0.925   4.754   6.678
 5627SOL    HW217781   0.905   4.751   6.840
 5628SOL     OW17782   2.067   2.343   2.414
 5628SOL    HW117783   2.108   2.434   2.422
 5628SOL    HW217784   2.127   2.275   2.457
 5629SOL     OW17785   3.894   3.564   1.861
 5629SOL    HW117786   3.840   3.480   1.866
 5629SOL    HW217787   3.834   3.641   1.838
 5630SOL     OW17788   1.706   3.804   6.274
 5630SOL    HW117789   1.632   3.812   6.208
 5630SOL    HW217790   1.778   3.745   6.237
 5631SOL     OW17791   4.494   1.802   1.865
 5631SOL    HW117792   4.575   1.758   1.904
 5631SOL    HW217793   4.412   1.748   1.888
 5632SOL     OW17794   3.251   2.355   6.020
 5632SOL    HW117795   3.192   2.276   6.036
 5632SOL    HW217796   3.228   2.428   6.085
 5633SOL     OW17797   5.884   5.199   4.277
 5633SOL    HW117798   5.850   5.124   4.334
 5633SOL    HW217799   5.808   5.259   4.252
 5634SOL     OW17800   2.022   4.761   4.005
 5634SOL    HW117801   2.004   4.781   3.908
 5634SOL    HW217802   1.937   4.735   4.050
 5635SOL     OW17803   1.700   5.511   6.695
 5635SOL    HW117804   1.782   5.503   6.638
 5635SOL    HW217805   1.703   5.597   6.746
 5636SOL     OW17806   4.591   0.242   4.692
 5636SOL    HW117807   4.685   0.208   4.704
 5636SOL    HW217808   4.568   0.242   4.595
 5637SOL     OW17809   4.871   6.774   3.326
 5637SOL    HW117810   4.799   6.714   3.293
 5637SOL    HW217811   4.950   6.769   3.265
 5638SOL     OW17812   6.827   3.686   0.853
 5638SOL    HW117813   6.908   3.633   0.878
 5638SOL    HW217814   6.767   3.630   0.796
 5639SOL     OW17815   1.662   0.424   2.293
 5639SOL    HW117816   1.758   0.439   2.271
 5639SOL    HW217817   1.631   0.337   2.254
 5640SOL     OW17818   3.267   0.487   3.569
 5640SOL    HW117819   3.367   0.485   3.564
 5640SOL    HW217820   3.231   0.545   3.496
 5641SOL     OW17821   0.585   5.134   5.048
 5641SOL    HW117822   0.516   5.093   5.107
 5641SOL    HW217823   0.674   5.092   5.066
 5642SOL     OW17824   1.479   6.329   4.398
 5642SOL    HW117825   1.529   6.411   4.426
 5642SOL    HW217826   1.476   6.264   4.474
 5643SOL     OW17827   4.366   1.605   4.146
 5643SOL    HW117828   4.325   1.669   4.081
 5643SOL    HW217829   4.413   1.533   4.096
 5644SOL     OW17830   3.253   6.875   5.274
 5644SOL    HW117831   3.320   6.889   5.347
 5644SOL    HW217832   3.163   6.856   5.314
 5645SOL     OW17833   6.445   4.713   3.218
 5645SOL    HW117834   6.505   4.646   3.263
 5645SOL    HW217835   6.392   4.667   3.146
 5646SOL     OW17836   0.974   5.860   3.877
 5646SOL    HW117837   0.923   5.774   3.869
 5646SOL    HW217838   0.911   5.937   3.866
 5647SOL     OW17839   4.794   5.991   0.677
 5647SOL    HW117840   4.705   5.947   0.672
 5647SOL    HW217841   4.857   5.945   0.614
 5648SOL     OW17842   1.512   0.019   3.308
 5648SOL    HW117843   1.550   0.071   3.232
 5648SOL    HW217844   1.507   6.946   3.284
 5649SOL     OW17845   0.668   0.796   4.451
 5649SOL    HW117846   0.610   0.739   4.393
 5649SOL    HW217847   0.725   0.737   4.509
 5650SOL     OW17848   0.537   5.775   0.513
 5650SOL    HW117849   0.466   5.835   0.475
 5650SOL    HW217850   0.627   5.808   0.485
 5651SOL     OW17851   1.631   1.403   1.403
 5651SOL    HW117852   1.722   1.371   1.428
 5651SOL    HW217853   1.562   1.340   1.440
 5652SOL     OW17854   6.043   0.129   1.903
 5652SOL    HW117855   6.007   0.051   1.955
 5652SOL    HW217856   5.969   0.170   1.850
 5653SOL     OW17857   6.491   6.185   6.827
 5653SOL    HW117858   6.545   6.246   6.770
 5653SOL    HW217859   6.537   6.096   6.834
 5654SOL     OW17860   6.790   6.780   5.092
 5654SOL    HW117861   6.860   6.716   5.123
 5654SOL    HW217862   6.742   6.818   5.171
 5655SOL     OW17863   1.072   3.764   4.149
 5655SOL    HW117864   1.040   3.744   4.056
 5655SOL    HW217865   1.119   3.684   4.186
 5656SOL     OW17866   6.999   3.740   6.637
 5656SOL    HW117867   7.011   3.747   6.538
 5656SOL    HW217868   0.013   3.821   6.681
 5657SOL     OW17869   6.137   2.018   0.141
 5657SOL    HW117870   6.162   1.923   0.160
 5657SOL    HW217871   6.173   2.077   0.214
 5658SOL     OW17872   3.731   3.772   6.832
 5658SOL    HW117873   3.805   3.712   6.803
 5658SOL    HW217874   3.740   3.860   6.787
 5659SOL     OW17875   3.747   3.210   5.186
 5659SOL    HW117876   3.651   3.236   5.197
 5659SOL    HW217877   3.804   3.266   5.247
 5660SOL     OW17878   5.142   6.773   0.268
 5660SOL    HW117879   5.216   6.725   0.222
 5660SOL    HW217880   5.172   6.799   0.360
 5661SOL     OW17881   1.238   5.798   5.181
 5661SOL    HW117882   1.221   5.699   5.186
 5661SOL    HW217883   1.191   5.836   5.101
 5662SOL     OW17884   2.780   6.083   3.540
 5662SOL    HW117885   2.818   6.010   3.597
 5662SOL    HW217886   2.683   6.064   3.521
 5663SOL     OW17887   1.747   3.401   6.651
 5663SOL    HW117888   1.744   3.388   6.750
 5663SOL    HW217889   1.660   3.374   6.611
 5664SOL     OW17890   6.831   4.094   4.478
 5664SOL    HW117891   6.759   4.053   4.422
 5664SOL    HW217892   6.919   4.080   4.434
 5665SOL     OW17893   1.755   0.931   0.502
 5665SOL    HW117894   1.782   0.925   0.406
 5665SOL    HW217895   1.767   1.025   0.534
 5666SOL     OW17896   5.966   0.003   2.859
 5666SOL    HW117897   5.993   6.931   2.863
 5666SOL    HW217898   5.995   0.043   2.772
 5667SOL     OW17899   1.472   5.080   4.760
 5667SOL    HW117900   1.416   5.088   4.678
 5667SOL    HW217901   1.553   5.024   4.740
 5668SOL     OW17902   5.249   2.801   3.748
 5668SOL    HW117903   5.225   2.761   3.836
 5668SOL    HW217904   5.167   2.837   3.703
 5669SOL     OW17905   0.131   3.451   0.219
 5669SOL    HW117906   0.112   3.353   0.210
 5669SOL    HW217907   0.072   3.502   0.156
 5670SOL     OW17908   0.385   2.937   3.982
 5670SOL    HW117909   0.410   2.856   3.929
 5670SOL    HW217910   0.450   2.950   4.057
 5671SOL     OW17911   6.222   6.285   6.735
 5671SOL    HW117912   6.298   6.226   6.764
 5671SOL    HW217913   6.194   6.259   6.642
 5672SOL     OW17914   4.729   4.184   0.090
 5672SOL    HW117915   4.776   4.133   0.162
 5672SOL    HW217916   4.639   4.143   0.074
 5673SOL     OW17917   1.307   0.888   1.755
 5673SOL    HW117918   1.382   0.933   1.803
 5673SOL    HW217919   1.264   0.821   1.816
 5674SOL     OW17920   6.865   5.026   5.139
 5674SOL    HW117921   6.825   5.118   5.144
 5674SOL    HW217922   6.831   4.971   5.215
 5675SOL     OW17923   4.523   2.668   0.041
 5675SOL    HW117924   4.589   2.622   7.005
 5675SOL    HW217925   4.504   2.760   0.006
 5676SOL     OW17926   2.628   2.357   2.612
 5676SOL    HW117927   2.691   2.362   2.535
 5676SOL    HW217928   2.568   2.278   2.601
 5677SOL     OW17929   0.822   1.598   0.145
 5677SOL    HW117930   0.729   1.594   0.181
 5677SOL    HW217931   0.867   1.510   0.161
 5678SOL     OW17932   4.328   6.616   2.787
 5678SOL    HW117933   4.244   6.667   2.803
 5678SOL    HW217934   4.406   6.668   2.824
 5679SOL     OW17935   6.959   0.938   4.230
 5679SOL    HW117936   6.999   0.972   4.145
 5679SOL    HW217937   6.932   0.842   4.218
 5680SOL     OW17938   1.687   5.263   6.339
 5680SOL    HW117939   1.753   5.203   6.293
 5680SOL    HW217940   1.595   5.243   6.305
 5681SOL     OW17941   0.422   4.360   0.852
 5681SOL    HW117942   0.465   4.306   0.780
 5681SOL    HW217943   0.469   4.448   0.861
 5682SOL     OW17944   2.155   5.100   5.008
 5682SOL    HW117945   2.073   5.092   5.064
 5682SOL    HW217946   2.140   5.055   4.920
 5683SOL     OW17947   4.449   1.142   6.196
 5683SOL    HW117948   4.507   1.148   6.115
 5683SOL    HW217949   4.405   1.231   6.211
 5684SOL     OW17950   2.791   3.778   5.612
 5684SOL    HW117951   2.867   3.714   5.622
 5684SOL    HW217952   2.796   3.821   5.521
 5685SOL     OW17953   2.151   2.092   3.011
 5685SOL    HW117954   2.101   2.038   3.079
 5685SOL    HW217955   2.088   2.119   2.937
 5686SOL     OW17956   2.487   1.401   6.547
 5686SOL    HW117957   2.534   1.325   6.502
 5686SOL    HW217958   2.501   1.396   6.645
 5687SOL     OW17959   1.023   5.064   0.367
 5687SOL    HW117960   1.081   5.139   0.399
 5687SOL    HW217961   0.931   5.098   0.351
 5688SOL     OW17962   0.429   2.430   1.488
 5688SOL    HW117963   0.521   2.448   1.524
 5688SOL    HW217964   0.377   2.377   1.555
 5689SOL     OW17965   3.163   1.577   0.879
 5689SOL    HW117966   3.244   1.584   0.937
 5689SOL    HW217967   3.183   1.616   0.789
 5690SOL     OW17968   2.552   5.836   0.025
 5690SOL    HW117969   2.559   5.809   6.953
 5690SOL    HW217970   2.477   5.786   0.068
 5691SOL     OW17971   3.343   7.006   2.367
 5691SOL    HW117972   3.296   6.917   2.372
 5691SOL    HW217973   3.437   6.996   2.400
 5692SOL     OW17974   5.562   3.742   0.842
 5692SOL    HW117975   5.609   3.828   0.859
 5692SOL    HW217976   5.479   3.737   0.899
 5693SOL     OW17977   4.730   1.911   2.906
 5693SOL    HW117978   4.710   1.865   2.820
 5693SOL    HW217979   4.738   1.844   2.979
 5694SOL     OW17980   1.008   1.582   3.258
 5694SOL    HW117981   1.080   1.540   3.313
 5694SOL    HW217982   1.049   1.622   3.176
 5695SOL     OW17983   1.825   1.881   3.012
 5695SOL    HW117984   1.879   1.832   2.944
 5695SOL    HW217985   1.775   1.815   3.069
 5696SOL     OW17986   0.678   1.008   3.111
 5696SOL    HW117987   0.629   1.091   3.084
 5696SOL    HW217988   0.709   1.017   3.206
 5697SOL     OW17989   5.492   2.493   1.007
 5697SOL    HW117990   5.581   2.451   1.023
 5697SOL    HW217991   5.475   2.563   1.077
 5698SOL     OW17992   1.403   5.014   4.267
 5698SOL    HW117993   1.492   4.970   4.256
 5698SOL    HW217994   1.335   4.964   4.214
 5699SOL     OW17995   0.634   2.503   3.452
 5699SOL    HW117996   0.554   2.560   3.468
 5699SOL    HW217997   0.711   2.537   3.506
 5700SOL     OW17998   6.617   6.870   3.155
 5700SOL    HW117999   6.616   6.773   3.177
 5700SOL    HW218000   6.703   6.894   3.110
 5701SOL     OW18001   1.433   0.652   1.540
 5701SOL    HW118002   1.393   0.576   1.592
 5701SOL    HW218003   1.386   0.737   1.564
 5702SOL     OW18004   2.641   5.429   4.139
 5702SOL    HW118005   2.620   5.525   4.121
 5702SOL    HW218006   2.700   5.423   4.220
 5703SOL     OW18007   6.102   4.602   1.925
 5703SOL    HW118008   6.159   4.529   1.887
 5703SOL    HW218009   6.012   4.566   1.948
 5704SOL     OW18010   5.038   4.431   2.841
 5704SOL    HW118011   5.101   4.434   2.919
 5704SOL    HW218012   4.997   4.521   2.829
 5705SOL     OW18013   5.047   0.115   0.049
 5705SOL    HW118014   4.986   0.104   0.128
 5705SOL    HW218015   5.048   0.029   7.022
 5706SOL     OW18016   6.924   3.948   1.435
 5706SOL    HW118017   6.930   3.887   1.514
 5706SOL    HW218018   7.015   3.968   1.400
 5707SOL     OW18019   0.346   6.135   0.063
 5707SOL    HW118020   0.270   6.200   0.052
 5707SOL    HW218021   0.428   6.172   0.019
 5708SOL     OW18022   5.309   5.188   2.145
 5708SOL    HW118023   5.341   5.276   2.180
 5708SOL    HW218024   5.298   5.124   2.220
 5709SOL     OW18025   1.561   0.913   2.318
 5709SOL    HW118026   1.517   0.828   2.292
 5709SOL    HW218027   1.523   0.945   2.405
 5710SOL     OW18028   2.408   2.684   1.138
 5710SOL    HW118029   2.358   2.712   1.056
 5710SOL    HW218030   2.453   2.764   1.178
 5711SOL     OW18031   5.147   0.735   2.964
 5711SOL    HW118032   5.156   0.817   3.021
 5711SOL    HW218033   5.227   0.727   2.905
 5712SOL     OW18034   6.446   0.474   6.486
 5712SOL    HW118035   6.385   0.492   6.564
 5712SOL    HW218036   6.516   0.545   6.482
 5713SOL     OW18037   3.900   2.988   1.985
 5713SOL    HW118038   3.835   2.962   1.914
 5713SOL    HW218039   3.876   2.943   2.070
 5714SOL     OW18040   0.389   5.542   0.341
 5714SOL    HW118041   0.477   5.523   0.299
 5714SOL    HW218042   0.388   5.506   0.435
 5715SOL     OW18043   1.347   0.611   2.795
 5715SOL    HW118044   1.290   0.626   2.875
 5715SOL    HW218045   1.443   0.607   2.823
 5716SOL     OW18046   1.631   4.850   6.378
 5716SOL    HW118047   1.625   4.755   6.407
 5716SOL    HW218048   1.679   4.855   6.290
 5717SOL     OW18049   1.617   4.789   1.238
 5717SOL    HW118050   1.673   4.800   1.156
 5717SOL    HW218051   1.613   4.693   1.264
 5718SOL     OW18052   0.134   3.475   6.077
 5718SOL    HW118053   0.098   3.417   6.150
 5718SOL    HW218054   0.058   3.509   6.022
 5719SOL     OW18055   2.645   2.544   6.341
 5719SOL    HW118056   2.668   2.640   6.323
 5719SOL    HW218057   2.555   2.524   6.303
 5720SOL     OW18058   1.904   6.143   4.558
 5720SOL    HW118059   1.873   6.155   4.464
 5720SOL    HW218060   1.997   6.106   4.559
 5721SOL     OW18061   6.715   2.993   0.710
 5721SOL    HW118062   6.775   3.065   0.745
 5721SOL    HW218063   6.676   2.942   0.787
 5722SOL     OW18064   0.202   1.840   5.119
 5722SOL    HW118065   0.268   1.819   5.047
 5722SOL    HW218066   0.215   1.778   5.196
 5723SOL     OW18067   5.215   3.058   0.476
 5723SOL    HW118068   5.240   3.049   0.380
 5723SOL    HW218069   5.118   3.036   0.487
 5724SOL     OW18070   5.573   2.795   4.924
 5724SOL    HW118071   5.594   2.816   4.828
 5724SOL    HW218072   5.474   2.791   4.937
 5725SOL     OW18073   5.303   5.446   4.434
 5725SOL    HW118074   5.230   5.490   4.485
 5725SOL    HW218075   5.389   5.455   4.484
 5726SOL     OW18076   7.019   5.428   4.193
 5726SOL    HW118077   6.924   5.400   4.205
 5726SOL    HW218078   0.033   5.454   4.282
 5727SOL     OW18079   0.081   1.840   4.087
 5727SOL    HW118080   0.060   1.873   4.179
 5727SOL    HW218081   0.152   1.770   4.092
 5728SOL     OW18082   3.912   0.251   6.215
 5728SOL    HW118083   3.986   0.195   6.252
 5728SOL    HW218084   3.856   0.195   6.153
 5729SOL     OW18085   1.308   0.756   1.010
 5729SOL    HW118086   1.373   0.680   1.021
 5729SOL    HW218087   1.260   0.771   1.096
 5730SOL     OW18088   5.371   5.152   6.700
 5730SOL    HW118089   5.335   5.132   6.609
 5730SOL    HW218090   5.301   5.201   6.753
 5731SOL     OW18091   0.209   6.768   4.100
 5731SOL    HW118092   0.257   6.850   4.130
 5731SOL    HW218093   0.214   6.762   4.000
 5732SOL     OW18094   6.515   5.381   4.673
 5732SOL    HW118095   6.555   5.472   4.681
 5732SOL    HW218096   6.440   5.383   4.606
 5733SOL     OW18097   4.376   6.666   5.698
 5733SOL    HW118098   4.399   6.764   5.704
 5733SOL    HW218099   4.339   6.646   5.607
 5734SOL     OW18100   1.147   6.934   5.314
 5734SOL    HW118101   1.070   6.952   5.253
 5734SOL    HW218102   1.167   7.016   5.367
 5735SOL     OW18103   4.343   1.644   1.497
 5735SOL    HW118104   4.311   1.587   1.572
 5735SOL    HW218105   4.277   1.716   1.479
 5736SOL     OW18106   6.017   3.773   0.132
 5736SOL    HW118107   5.962   3.740   0.056
 5736SOL    HW218108   6.087   3.836   0.097
 5737SOL     OW18109   5.712   6.746   1.331
 5737SOL    HW118110   5.655   6.677   1.286
 5737SOL    HW218111   5.732   6.717   1.424
 5738SOL     OW18112   2.201   2.342   5.753
 5738SOL    HW118113   2.194   2.279   5.830
 5738SOL    HW218114   2.274   2.312   5.691
 5739SOL     OW18115   1.497   0.060   5.859
 5739SOL    HW118116   1.480   0.056   5.761
 5739SOL    HW218117   1.413   0.083   5.908
 5740SOL     OW18118   4.418   3.957   0.827
 5740SOL    HW118119   4.427   3.973   0.925
 5740SOL    HW218120   4.508   3.934   0.788
 5741SOL     OW18121   1.100   4.572   4.489
 5741SOL    HW118122   1.041   4.607   4.562
 5741SOL    HW218123   1.172   4.515   4.529
 5742SOL     OW18124   5.275   0.004   2.231
 5742SOL    HW118125   5.275   6.941   2.280
 5742SOL    HW218126   5.370   0.029   2.210
 5743SOL     OW18127   2.559   5.260   5.191
 5743SOL    HW118128   2.514   5.343   5.222
 5743SOL    HW218129   2.607   5.277   5.105
 5744SOL     OW18130   5.012   0.814   1.671
 5744SOL    HW118131   4.934   0.810   1.734
 5744SOL    HW218132   5.035   0.909   1.653
 5745SOL     OW18133   2.454   1.065   4.175
 5745SOL    HW118134   2.514   1.108   4.108
 5745SOL    HW218135   2.376   1.024   4.128
 5746SOL     OW18136   6.050   6.819   1.385
 5746SOL    HW118137   6.004   6.842   1.471
 5746SOL    HW218138   6.006   6.867   1.309
 5747SOL     OW18139   6.640   4.618   2.686
 5747SOL    HW118140   6.666   4.643   2.779
 5747SOL    HW218141   6.665   4.691   2.623
 5748SOL     OW18142   1.802   5.937   0.959
 5748SOL    HW118143   1.898   5.940   0.986
 5748SOL    HW218144   1.745   5.964   1.037
 5749SOL     OW18145   1.645   0.601   4.982
 5749SOL    HW118146   1.575   0.629   4.917
 5749SOL    HW218147   1.699   0.527   4.943
 5750SOL     OW18148   5.102   6.292   4.733
 5750SOL    HW118149   5.039   6.250   4.668
 5750SOL    HW218150   5.174   6.226   4.757
 5751SOL     OW18151   2.397   2.770   4.735
 5751SOL    HW118152   2.435   2.717   4.812
 5751SOL    HW218153   2.320   2.825   4.768
 5752SOL     OW18154   6.574   0.828   6.696
 5752SOL    HW118155   6.593   0.820   6.794
 5752SOL    HW218156   6.603   0.918   6.664
 5753SOL     OW18157   3.500   4.103   5.674
 5753SOL    HW118158   3.467   4.085   5.581
 5753SOL    HW218159   3.476   4.026   5.733
 5754SOL     OW18160   5.550   4.518   1.487
 5754SOL    HW118161   5.644   4.548   1.503
 5754SOL    HW218162   5.515   4.563   1.405
 5755SOL     OW18163   2.179   3.729   6.238
 5755SOL    HW118164   2.081   3.712   6.226
 5755SOL    HW218165   2.231   3.649   6.208
 5756SOL     OW18166   6.124   6.258   3.535
 5756SOL    HW118167   6.177   6.313   3.470
 5756SOL    HW218168   6.030   6.291   3.537
 5757SOL     OW18169   6.978   6.683   2.622
 5757SOL    HW118170   6.981   6.772   2.575
 5757SOL    HW218171   6.893   6.636   2.598
 5758SOL     OW18172   2.578   0.981   4.420
 5758SOL    HW118173   2.661   1.034   4.404
 5758SOL    HW218174   2.534   0.961   4.332
 5759SOL     OW18175   5.204   1.855   6.821
 5759SOL    HW118176   5.270   1.859   6.896
 5759SOL    HW218177   5.203   1.942   6.773
 5760SOL     OW18178   1.246   4.893   1.230
 5760SOL    HW118179   1.237   4.812   1.173
 5760SOL    HW218180   1.328   4.885   1.287
 5761SOL     OW18181   5.771   6.967   6.286
 5761SOL    HW118182   5.703   7.021   6.237
 5761SOL    HW218183   5.779   6.876   6.243
 5762SOL     OW18184   4.601   6.575   0.504
 5762SOL    HW118185   4.611   6.658   0.560
 5762SOL    HW218186   4.690   6.546   0.471
 5763SOL     OW18187   0.031   0.621   0.260
 5763SOL    HW118188   0.053   0.580   0.348
 5763SOL    HW218189   6.958   0.609   0.241
 5764SOL     OW18190   4.172   4.687   6.332
 5764SOL    HW118191   4.228   4.609   6.360
 5764SOL    HW218192   4.223   4.771   6.347
 5765SOL     OW18193   6.632   4.463   6.530
 5765SOL    HW118194   6.553   4.475   6.591
 5765SOL    HW218195   6.600   4.455   6.435
 5766SOL     OW18196   2.639   2.532   0.615
 5766SOL    HW118197   2.623   2.619   0.661
 5766SOL    HW218198   2.567   2.467   0.641
 5767SOL     OW18199   2.494   6.362   0.486
 5767SOL    HW118200   2.492   6.449   0.534
 5767SOL    HW218201   2.405   6.317   0.496
 5768SOL     OW18202   0.433   7.018   2.970
 5768SOL    HW118203   0.419   6.956   3.047
 5768SOL    HW218204   0.373   0.074   2.980
 5769SOL     OW18205   2.292   6.353   4.380
 5769SOL    HW118206   2.298   6.311   4.289
 5769SOL    HW218207   2.375   6.405   4.399
 5770SOL     OW18208   6.281   0.454   6.719
 5770SOL    HW118209   6.229   0.372   6.742
 5770SOL    HW218210   6.244   0.532   6.771
 5771SOL     OW18211   0.807   5.889   2.708
 5771SOL    HW118212   0.840   5.942   2.786
 5771SOL    HW218213   0.782   5.797   2.738
 5772SOL     OW18214   6.571   2.586   6.989
 5772SOL    HW118215   6.512   2.617   0.040
 5772SOL    HW218216   6.667   2.592   7.018
 5773SOL     OW18217   5.135   0.801   4.158
 5773SOL    HW118218   5.142   0.831   4.253
 5773SOL    HW218219   5.040   0.809   4.127
 5774SOL     OW18220   2.637   5.154   3.755
 5774SOL    HW118221   2.630   5.084   3.827
 5774SOL    HW218222   2.626   5.244   3.795
 5775SOL     OW18223   1.687   0.290   1.791
 5775SOL    HW118224   1.661   0.205   1.835
 5775SOL    HW218225   1.639   0.366   1.835
 5776SOL     OW18226   6.790   1.155   6.163
 5776SOL    HW118227   6.727   1.232   6.147
 5776SOL    HW218228   6.748   1.089   6.225
 5777SOL     OW18229   6.283   0.667   4.191
 5777SOL    HW118230   6.327   0.647   4.279
 5777SOL    HW218231   6.252   0.582   4.149
 5778SOL     OW18232   1.755   0.142   1.447
 5778SOL    HW118233   1.692   0.161   1.371
 5778SOL    HW218234   1.782   0.228   1.490
 5779SOL     OW18235   4.463   0.920   0.648
 5779SOL    HW118236   4.441   0.881   0.558
 5779SOL    HW218237   4.541   0.983   0.638
 5780SOL     OW18238   5.657   5.719   3.037
 5780SOL    HW118239   5.755   5.728   3.051
 5780SOL    HW218240   5.632   5.756   2.947
 5781SOL     OW18241   1.146   4.104   4.342
 5781SOL    HW118242   1.217   4.167   4.374
 5781SOL    HW218243   1.188   4.032   4.287
 5782SOL     OW18244   1.472   1.180   1.003
 5782SOL    HW118245   1.392   1.186   1.062
 5782SOL    HW218246   1.526   1.099   1.029
 5783SOL     OW18247   1.945   1.275   0.832
 5783SOL    HW118248   1.890   1.312   0.906
 5783SOL    HW218249   2.038   1.311   0.839
 5784SOL     OW18250   0.306   6.772   6.764
 5784SOL    HW118251   0.223   6.745   6.811
 5784SOL    HW218252   0.330   6.702   6.696
 5785SOL     OW18253   2.311   1.956   1.532
 5785SOL    HW118254   2.366   2.036   1.505
 5785SOL    HW218255   2.337   1.878   1.475
 5786SOL     OW18256   1.016   4.515   0.930
 5786SOL    HW118257   1.035   4.511   0.832
 5786SOL    HW218258   1.094   4.479   0.981
 5787SOL     OW18259   4.921   2.271   4.789
 5787SOL    HW118260   4.943   2.311   4.700
 5787SOL    HW218261   4.823   2.251   4.794
 5788SOL     OW18262   3.484   0.344   1.693
 5788SOL    HW118263   3.398   0.307   1.656
 5788SOL    HW218264   3.540   0.379   1.618
 5789SOL     OW18265   3.226   3.222   6.497
 5789SOL    HW118266   3.183   3.158   6.433
 5789SOL    HW218267   3.160   3.250   6.566
 5790SOL     OW18268   6.733   5.273   5.149
 5790SOL    HW118269   6.694   5.344   5.208
 5790SOL    HW218270   6.718   5.297   5.053
 5791SOL     OW18271   2.759   2.027   2.390
 5791SOL    HW118272   2.734   1.944   2.341
 5791SOL    HW218273   2.809   2.088   2.328
 5792SOL     OW18274   5.259   3.776   2.785
 5792SOL    HW118275   5.234   3.700   2.844
 5792SOL    HW218276   5.219   3.762   2.694
 5793SOL     OW18277   5.614   0.449   5.276
 5793SOL    HW118278   5.694   0.437   5.334
 5793SOL    HW218279   5.640   0.504   5.196
 5794SOL     OW18280   3.504   0.147   6.898
 5794SOL    HW118281   3.557   0.099   6.828
 5794SOL    HW218282   3.526   0.111   6.988
 5795SOL     OW18283   0.200   0.030   0.816
 5795SOL    HW118284   0.166   0.074   0.733
 5795SOL    HW218285   0.217   6.958   0.799
 5796SOL     OW18286   4.539   0.770   6.527
 5796SOL    HW118287   4.524   0.684   6.478
 5796SOL    HW218288   4.456   0.794   6.577
 5797SOL     OW18289   5.410   1.365   0.788
 5797SOL    HW118290   5.377   1.270   0.790
 5797SOL    HW218291   5.332   1.427   0.796
 5798SOL     OW18292   0.467   3.884   4.357
 5798SOL    HW118293   0.401   3.903   4.430
 5798SOL    HW218294   0.420   3.845   4.278
 5799SOL     OW18295   0.032   0.397   3.654
 5799SOL    HW118296   7.018   0.419   3.565
 5799SOL    HW218297   7.018   0.310   3.686
 5800SOL     OW18298   0.723   0.189   1.781
 5800SOL    HW118299   0.686   0.181   1.873
 5800SOL    HW218300   0.657   0.236   1.722
 5801SOL     OW18301   2.192   2.650   3.400
 5801SOL    HW118302   2.240   2.564   3.383
 5801SOL    HW218303   2.143   2.645   3.487
 5802SOL     OW18304   6.457   3.298   2.506
 5802SOL    HW118305   6.387   3.267   2.442
 5802SOL    HW218306   6.413   3.338   2.587
 5803SOL     OW18307   1.455   5.153   3.809
 5803SOL    HW118308   1.476   5.191   3.718
 5803SOL    HW218309   1.423   5.059   3.799
 5804SOL     OW18310   6.726   6.113   3.584
 5804SOL    HW118311   6.648   6.164   3.546
 5804SOL    HW218312   6.713   6.100   3.682
 5805SOL     OW18313   1.416   2.965   0.494
 5805SOL    HW118314   1.328   2.995   0.533
 5805SOL    HW218315   1.454   2.893   0.551
 5806SOL     OW18316   6.828   4.688   5.208
 5806SOL    HW118317   6.913   4.687   5.155
 5806SOL    HW218318   6.750   4.681   5.145
 5807SOL     OW18319   1.410   5.396   1.050
 5807SOL    HW118320   1.352   5.360   1.124
 5807SOL    HW218321   1.362   5.471   1.004
 5808SOL     OW18322   6.920   6.898   4.868
 5808SOL    HW118323   6.919   6.996   4.887
 5808SOL    HW218324   6.858   6.852   4.932
 5809SOL     OW18325   6.240   2.545   5.288
 5809SOL    HW118326   6.216   2.627   5.236
 5809SOL    HW218327   6.323   2.561   5.341
 5810SOL     OW18328   4.091   1.419   5.644
 5810SOL    HW118329   4.184   1.447   5.622
 5810SOL    HW218330   4.085   1.319   5.640
 5811SOL     OW18331   2.817   1.883   5.473
 5811SOL    HW118332   2.754   1.824   5.525
 5811SOL    HW218333   2.870   1.827   5.409
 5812SOL     OW18334   4.872   3.860   6.016
 5812SOL    HW118335   4.885   3.956   5.991
 5812SOL    HW218336   4.944   3.833   6.080
 5813SOL     OW18337   2.797   0.024   0.660
 5813SOL    HW118338   2.790   7.017   0.755
 5813SOL    HW218339   2.860   0.101   0.655
 5814SOL     OW18340   0.087   2.931   1.716
 5814SOL    HW118341   0.125   2.839   1.728
 5814SOL    HW218342   0.158   2.992   1.680
 5815SOL     OW18343   4.806   1.977   4.033
 5815SOL    HW118344   4.747   1.909   4.077
 5815SOL    HW218345   4.902   1.958   4.055
 5816SOL     OW18346   6.359   4.520   0.944
 5816SOL    HW118347   6.324   4.447   1.003
 5816SOL    HW218348   6.455   4.538   0.966
 5817SOL     OW18349   5.956   5.448   5.782
 5817SOL    HW118350   5.890   5.403   5.841
 5817SOL    HW218351   5.996   5.527   5.830
 5818SOL     OW18352   6.855   5.684   5.214
 5818SOL    HW118353   6.832   5.778   5.190
 5818SOL    HW218354   6.942   5.659   5.171
 5819SOL     OW18355   3.030   5.381   6.635
 5819SOL    HW118356   3.096   5.351   6.566
 5819SOL    HW218357   2.954   5.317   6.638
 5820SOL     OW18358   4.116   4.734   2.786
 5820SOL    HW118359   4.165   4.647   2.793
 5820SOL    HW218360   4.124   4.770   2.693
 5821SOL     OW18361   6.787   0.814   1.416
 5821SOL    HW118362   6.812   0.909   1.434
 5821SOL    HW218363   6.833   0.755   1.482
 5822SOL     OW18364   1.680   2.858   1.948
 5822SOL    HW118365   1.613   2.801   1.900
 5822SOL    HW218366   1.635   2.942   1.978
 5823SOL     OW18367   2.767   6.591   4.610
 5823SOL    HW118368   2.788   6.550   4.522
 5823SOL    HW218369   2.724   6.681   4.595
 5824SOL     OW18370   0.493   6.406   3.494
 5824SOL    HW118371   0.453   6.459   3.569
 5824SOL    HW218372   0.579   6.366   3.525
 5825SOL     OW18373   6.872   6.023   5.589
 5825SOL    HW118374   6.899   6.118   5.577
 5825SOL    HW218375   6.907   5.989   5.676
 5826SOL     OW18376   0.584   6.373   5.932
 5826SOL    HW118377   0.583   6.473   5.928
 5826SOL    HW218378   0.493   6.340   5.954
 5827SOL     OW18379   1.271   3.488   4.888
 5827SOL    HW118380   1.309   3.437   4.811
 5827SOL    HW218381   1.182   3.526   4.861
 5828SOL     OW18382   4.661   1.233   2.919
 5828SOL    HW118383   4.754   1.260   2.893
 5828SOL    HW218384   4.606   1.220   2.836
 5829SOL     OW18385   1.460   0.700   4.798
 5829SOL    HW118386   1.536   0.765   4.794
 5829SOL    HW218387   1.395   0.729   4.868
 5830SOL     OW18388   4.539   0.090   5.267
 5830SOL    HW118389   4.542   0.184   5.299
 5830SOL    HW218390   4.622   0.042   5.296
 5831SOL     OW18391   1.757   1.563   6.209
 5831SOL    HW118392   1.848   1.524   6.199
 5831SOL    HW218393   1.742   1.588   6.305
 5832SOL     OW18394   3.544   4.246   0.560
 5832SOL    HW118395   3.632   4.199   0.552
 5832SOL    HW218396   3.473   4.188   0.521
 5833SOL     OW18397   3.606   3.078   5.425
 5833SOL    HW118398   3.633   2.986   5.453
 5833SOL    HW218399   3.686   3.127   5.390
 5834SOL     OW18400   6.522   4.407   6.266
 5834SOL    HW118401   6.555   4.463   6.189
 5834SOL    HW218402   6.523   4.311   6.240
 5835SOL     OW18403   5.909   2.020   2.815
 5835SOL    HW118404   5.876   2.107   2.780
 5835SOL    HW218405   5.980   1.984   2.754
 5836SOL     OW18406   2.896   6.684   1.938
 5836SOL    HW118407   2.902   6.752   2.011
 5836SOL    HW218408   2.983   6.682   1.887
 5837SOL     OW18409   3.825   3.335   6.887
 5837SOL    HW118410   3.889   3.393   6.937
 5837SOL    HW218411   3.731   3.365   6.907
 5838SOL     OW18412   3.218   1.708   1.578
 5838SOL    HW118413   3.147   1.778   1.581
 5838SOL    HW218414   3.177   1.620   1.556
 5839SOL     OW18415   0.648   2.074   0.568
 5839SOL    HW118416   0.690   2.165   0.567
 5839SOL    HW218417   0.559   2.079   0.614
 5840SOL     OW18418   0.182   3.942   0.510
 5840SOL    HW118419   0.118   3.876   0.470
 5840SOL    HW218420   0.213   3.909   0.599
 5841SOL     OW18421   5.385   0.593   1.698
 5841SOL    HW118422   5.303   0.609   1.753
 5841SOL    HW218423   5.364   0.606   1.601
 5842SOL     OW18424   4.706   2.207   1.861
 5842SOL    HW118425   4.750   2.244   1.779
 5842SOL    HW218426   4.614   2.175   1.837
 5843SOL     OW18427   1.418   3.559   1.301
 5843SOL    HW118428   1.471   3.476   1.285
 5843SOL    HW218429   1.390   3.598   1.214
 5844SOL     OW18430   1.256   6.196   5.142
 5844SOL    HW118431   1.237   6.126   5.211
 5844SOL    HW218432   1.350   6.185   5.108
 5845SOL     OW18433   1.202   0.074   2.155
 5845SOL    HW118434   1.206   7.004   2.123
 5845SOL    HW218435   1.188   0.135   2.076
 5846SOL     OW18436   5.401   3.565   5.576
 5846SOL    HW118437   5.373   3.615   5.658
 5846SOL    HW218438   5.413   3.629   5.500
 5847SOL     OW18439   2.679   2.411   1.796
 5847SOL    HW118440   2.642   2.503   1.815
 5847SOL    HW218441   2.773   2.405   1.831
 5848SOL     OW18442   1.644   5.671   3.067
 5848SOL    HW118443   1.575   5.682   2.995
 5848SOL    HW218444   1.613   5.719   3.150
 5849SOL     OW18445   2.041   6.575   5.020
 5849SOL    HW118446   2.140   6.568   5.018
 5849SOL    HW218447   2.004   6.505   5.081
 5850SOL     OW18448   0.083   3.261   1.809
 5850SOL    HW118449   0.041   3.195   1.870
 5850SOL    HW218450   0.015   3.296   1.745
 5851SOL     OW18451   5.168   3.729   4.093
 5851SOL    HW118452   5.210   3.745   4.182
 5851SOL    HW218453   5.079   3.687   4.104
 5852SOL     OW18454   4.938   5.969   2.673
 5852SOL    HW118455   4.879   5.978   2.753
 5852SOL    HW218456   4.976   6.058   2.649
 5853SOL     OW18457   4.364   5.209   6.052
 5853SOL    HW118458   4.286   5.166   6.098
 5853SOL    HW218459   4.443   5.147   6.055
 5854SOL     OW18460   4.198   4.791   5.770
 5854SOL    HW118461   4.273   4.733   5.802
 5854SOL    HW218462   4.115   4.736   5.758
 5855SOL     OW18463   1.204   1.705   4.884
 5855SOL    HW118464   1.272   1.771   4.914
 5855SOL    HW218465   1.151   1.744   4.809
 5856SOL     OW18466   1.403   6.390   3.108
 5856SOL    HW118467   1.463   6.469   3.125
 5856SOL    HW218468   1.329   6.390   3.176
 5857SOL     OW18469   6.653   3.683   5.558
 5857SOL    HW118470   6.573   3.725   5.516
 5857SOL    HW218471   6.640   3.584   5.563
 5858SOL     OW18472   2.488   2.501   3.142
 5858SOL    HW118473   2.504   2.469   3.049
 5858SOL    HW218474   2.561   2.469   3.202
 5859SOL     OW18475   6.231   6.211   1.338
 5859SOL    HW118476   6.180   6.203   1.253
 5859SOL    HW218477   6.171   6.249   1.409
 5860SOL     OW18478   0.560   5.009   2.972
 5860SOL    HW118479   0.605   4.952   2.903
 5860SOL    HW218480   0.462   5.013   2.953
 5861SOL     OW18481   4.908   0.806   4.734
 5861SOL    HW118482   4.971   0.798   4.656
 5861SOL    HW218483   4.850   0.886   4.721
 5862SOL     OW18484   6.153   5.299   1.874
 5862SOL    HW118485   6.155   5.235   1.797
 5862SOL    HW218486   6.238   5.291   1.926
 5863SOL     OW18487   3.071   1.601   4.808
 5863SOL    HW118488   2.996   1.624   4.871
 5863SOL    HW218489   3.145   1.666   4.820
 5864SOL     OW18490   3.751   3.327   1.924
 5864SOL    HW118491   3.755   3.272   2.008
 5864SOL    HW218492   3.786   3.273   1.847
 5865SOL     OW18493   5.592   0.694   5.154
 5865SOL    HW118494   5.638   0.723   5.237
 5865SOL    HW218495   5.555   0.774   5.106
 5866SOL     OW18496   3.042   2.902   1.270
 5866SOL    HW118497   3.006   2.963   1.341
 5866SOL    HW218498   3.012   2.808   1.288
 5867SOL     OW18499   1.757   2.926   1.628
 5867SOL    HW118500   1.680   2.975   1.669
 5867SOL    HW218501   1.841   2.978   1.642
 5868SOL     OW18502   1.541   1.558   5.803
 5868SOL    HW118503   1.510   1.469   5.833
 5868SOL    HW218504   1.522   1.626   5.874
 5869SOL     OW18505   1.718   4.358   2.865
 5869SOL    HW118506   1.784   4.302   2.914
 5869SOL    HW218507   1.632   4.361   2.916
 5870SOL     OW18508   4.669   6.085   5.295
 5870SOL    HW118509   4.646   5.995   5.331
 5870SOL    HW218510   4.720   6.075   5.210
 5871SOL     OW18511   4.102   3.179   1.946
 5871SOL    HW118512   4.134   3.139   1.860
 5871SOL    HW218513   4.029   3.121   1.984
 5872SOL     OW18514   4.254   6.716   0.795
 5872SOL    HW118515   4.345   6.700   0.833
 5872SOL    HW218516   4.259   6.789   0.727
 5873SOL     OW18517   3.120   6.590   2.205
 5873SOL    HW118518   3.115   6.624   2.111
 5873SOL    HW218519   3.177   6.651   2.260
 5874SOL     OW18520   2.088   4.400   4.791
 5874SOL    HW118521   2.153   4.384   4.717
 5874SOL    HW218522   2.106   4.489   4.833
 5875SOL     OW18523   3.786   1.944   0.555
 5875SOL    HW118524   3.855   1.904   0.494
 5875SOL    HW218525   3.705   1.886   0.556
 5876SOL     OW18526   4.132   3.550   1.702
 5876SOL    HW118527   4.203   3.594   1.757
 5876SOL    HW218528   4.050   3.537   1.758
 5877SOL     OW18529   6.428   6.267   1.151
 5877SOL    HW118530   6.491   6.343   1.141
 5877SOL    HW218531   6.394   6.264   1.245
 5878SOL     OW18532   0.373   6.196   4.468
 5878SOL    HW118533   0.334   6.238   4.385
 5878SOL    HW218534   0.463   6.234   4.485
 5879SOL     OW18535   1.381   3.989   6.972
 5879SOL    HW118536   1.298   3.999   6.917
 5879SOL    HW218537   1.357   3.993   0.045
 5880SOL     OW18538   3.684   4.065   7.020
 5880SOL    HW118539   3.625   3.994   6.981
 5880SOL    HW218540   3.764   4.077   6.962
 5881SOL     OW18541   0.235   5.332   3.135
 5881SOL    HW118542   0.197   5.311   3.045
 5881SOL    HW218543   0.223   5.430   3.155
 5882SOL     OW18544   0.305   6.305   0.981
 5882SOL    HW118545   0.340   6.230   0.925
 5882SOL    HW218546   0.291   6.274   1.075
 5883SOL     OW18547   1.050   1.700   6.755
 5883SOL    HW118548   0.986   1.650   6.812
 5883SOL    HW218549   1.035   1.677   6.659
 5884SOL     OW18550   3.101   1.698   4.390
 5884SOL    HW118551   3.117   1.623   4.454
 5884SOL    HW218552   3.174   1.699   4.321
 5885SOL     OW18553   0.343   0.491   2.724
 5885SOL    HW118554   0.394   0.522   2.805
 5885SOL    HW218555   0.403   0.490   2.645
 5886SOL     OW18556   0.542   2.218   4.794
 5886SOL    HW118557   0.468   2.191   4.857
 5886SOL    HW218558   0.622   2.159   4.810
 5887SOL     OW18559   3.001   1.299   3.486
 5887SOL    HW118560   3.025   1.205   3.512
 5887SOL    HW218561   3.080   1.342   3.441
 5888SOL     OW18562   3.441   0.573   1.842
 5888SOL    HW118563   3.444   0.480   1.807
 5888SOL    HW218564   3.443   0.571   1.942
 5889SOL     OW18565   1.128   6.324   1.012
 5889SOL    HW118566   1.064   6.296   0.940
 5889SOL    HW218567   1.204   6.373   0.970
 5890SOL     OW18568   1.654   0.150   4.774
 5890SOL    HW118569   1.594   0.150   4.694
 5890SOL    HW218570   1.613   0.094   4.847
 5891SOL     OW18571   2.895   3.179   5.914
 5891SOL    HW118572   2.939   3.089   5.915
 5891SOL    HW218573   2.800   3.170   5.942
 5892SOL     OW18574   0.317   5.660   1.324
 5892SOL    HW118575   0.390   5.715   1.283
 5892SOL    HW218576   0.350   5.566   1.338
 5893SOL     OW18577   1.595   4.038   4.461
 5893SOL    HW118578   1.661   4.103   4.422
 5893SOL    HW218579   1.591   4.050   4.560
 5894SOL     OW18580   6.677   5.677   4.317
 5894SOL    HW118581   6.729   5.743   4.262
 5894SOL    HW218582   6.581   5.706   4.320
 5895SOL     OW18583   5.257   3.369   4.368
 5895SOL    HW118584   5.215   3.311   4.438
 5895SOL    HW218585   5.240   3.330   4.277
 5896SOL     OW18586   4.342   1.105   0.351
 5896SOL    HW118587   4.296   1.110   0.263
 5896SOL    HW218588   4.353   1.010   0.379
 5897SOL     OW18589   4.027   0.534   1.109
 5897SOL    HW118590   4.121   0.550   1.078
 5897SOL    HW218591   3.988   0.458   1.058
 5898SOL     OW18592   2.364   6.385   3.095
 5898SOL    HW118593   2.425   6.349   3.166
 5898SOL    HW218594   2.345   6.314   3.028
 5899SOL     OW18595   4.962   6.797   5.621
 5899SOL    HW118596   4.880   6.745   5.646
 5899SOL    HW218597   5.044   6.745   5.647
 5900SOL     OW18598   4.654   4.783   3.405
 5900SOL    HW118599   4.739   4.830   3.428
 5900SOL    HW218600   4.630   4.802   3.310
 5901SOL     OW18601   2.616   0.161   0.270
 5901SOL    HW118602   2.586   0.097   0.341
 5901SOL    HW218603   2.708   0.193   0.290
 5902SOL     OW18604   6.732   2.399   6.169
 5902SOL    HW118605   6.682   2.425   6.251
 5902SOL    HW218606   6.690   2.441   6.088
 5903SOL     OW18607   4.171   3.727   0.579
 5903SOL    HW118608   4.078   3.758   0.562
 5903SOL    HW218609   4.198   3.660   0.510
 5904SOL     OW18610   0.957   3.302   1.856
 5904SOL    HW118611   0.877   3.273   1.804
 5904SOL    HW218612   0.940   3.289   1.954
 5905SOL     OW18613   6.426   6.322   3.005
 5905SOL    HW118614   6.466   6.350   2.918
 5905SOL    HW218615   6.334   6.285   2.989
 5906SOL     OW18616   4.412   1.951   3.636
 5906SOL    HW118617   4.427   2.049   3.649
 5906SOL    HW218618   4.461   1.921   3.554
 5907SOL     OW18619   1.415   5.051   1.614
 5907SOL    HW118620   1.469   4.967   1.605
 5907SOL    HW218621   1.467   5.128   1.577
 5908SOL     OW18622   0.548   2.714   6.654
 5908SOL    HW118623   0.639   2.744   6.684
 5908SOL    HW218624   0.557   2.665   6.567
 5909SOL     OW18625   6.791   5.150   0.791
 5909SOL    HW118626   6.891   5.159   0.784
 5909SOL    HW218627   6.769   5.082   0.861
 5910SOL     OW18628   0.508   3.143   3.819
 5910SOL    HW118629   0.537   3.188   3.903
 5910SOL    HW218630   0.413   3.112   3.828
 5911SOL     OW18631   6.320   6.596   6.511
 5911SOL    HW118632   6.282   6.687   6.523
 5911SOL    HW218633   6.327   6.550   6.599
 5912SOL     OW18634   7.000   0.308   5.806
 5912SOL    HW118635   0.076   0.314   5.800
 5912SOL    HW218636   6.965   0.260   5.726
 5913SOL     OW18637   4.910   2.714   6.393
 5913SOL    HW118638   4.930   2.643   6.460
 5913SOL    HW218639   4.926   2.804   6.434
 5914SOL     OW18640   1.201   5.331   6.927
 5914SOL    HW118641   1.297   5.318   6.950
 5914SOL    HW218642   1.163   5.404   6.984
 5915SOL     OW18643   4.727   5.819   1.298
 5915SOL    HW118644   4.735   5.904   1.245
 5915SOL    HW218645   4.709   5.841   1.393
 5916SOL     OW18646   6.112   6.598   3.411
 5916SOL    HW118647   6.112   6.697   3.424
 5916SOL    HW218648   6.119   6.578   3.313
 5917SOL     OW18649   3.423   4.160   4.310
 5917SOL    HW118650   3.487   4.183   4.383
 5917SOL    HW218651   3.333   4.142   4.349
 5918SOL     OW18652   2.171   4.742   5.245
 5918SOL    HW118653   2.161   4.646   5.270
 5918SOL    HW218654   2.252   4.753   5.186
 5919SOL     OW18655   3.702   2.907   2.887
 5919SOL    HW118656   3.612   2.946   2.903
 5919SOL    HW218657   3.709   2.877   2.792
 5920SOL     OW18658   5.035   0.711   6.337
 5920SOL    HW118659   5.081   0.773   6.274
 5920SOL    HW218660   5.100   0.643   6.371
 5921SOL     OW18661   4.134   5.227   6.447
 5921SOL    HW118662   4.122   5.128   6.453
 5921SOL    HW218663   4.223   5.247   6.405
 5922SOL     OW18664   5.826   3.742   4.197
 5922SOL    HW118665   5.872   3.782   4.277
 5922SOL    HW218666   5.741   3.698   4.227
 5923SOL     OW18667   6.964   1.754   1.695
 5923SOL    HW118668   0.029   1.715   1.721
 5923SOL    HW218669   6.972   1.798   1.606
 5924SOL     OW18670   6.328   0.120   2.767
 5924SOL    HW118671   6.300   0.048   2.830
 5924SOL    HW218672   6.345   0.204   2.818
 5925SOL     OW18673   3.744   6.558   1.576
 5925SOL    HW118674   3.645   6.571   1.567
 5925SOL    HW218675   3.767   6.544   1.672
 5926SOL     OW18676   3.617   4.906   2.681
 5926SOL    HW118677   3.558   4.860   2.747
 5926SOL    HW218678   3.700   4.852   2.667
 5927SOL     OW18679   0.756   4.956   2.278
 5927SOL    HW118680   0.735   5.031   2.215
 5927SOL    HW218681   0.671   4.917   2.313
 5928SOL     OW18682   3.379   6.724   0.681
 5928SOL    HW118683   3.376   6.739   0.780
 5928SOL    HW218684   3.386   6.813   0.635
 5929SOL     OW18685   6.073   0.604   6.339
 5929SOL    HW118686   6.164   0.585   6.302
 5929SOL    HW218687   6.008   0.616   6.263
 5930SOL     OW18688   7.012   4.124   3.448
 5930SOL    HW118689   0.025   4.168   3.366
 5930SOL    HW218690   6.914   4.110   3.437
 5931SOL     OW18691   6.528   6.890   2.869
 5931SOL    HW118692   6.580   6.880   2.954
 5931SOL    HW218693   6.591   6.910   2.794
 5932SOL     OW18694   3.355   6.968   0.553
 5932SOL    HW118695   3.319   6.978   0.460
 5932SOL    HW218696   3.408   0.025   0.577
 5933SOL     OW18697   6.425   5.104   4.224
 5933SOL    HW118698   6.327   5.123   4.216
 5933SOL    HW218699   6.458   5.138   4.311
 5934SOL     OW18700   3.594   2.929   5.092
 5934SOL    HW118701   3.560   2.866   5.162
 5934SOL    HW218702   3.578   3.023   5.122
 5935SOL     OW18703   0.114   5.331   6.369
 5935SOL    HW118704   0.024   5.342   6.411
 5935SOL    HW218705   0.183   5.374   6.427
 5936SOL     OW18706   3.292   3.003   1.497
 5936SOL    HW118707   3.198   2.994   1.466
 5936SOL    HW218708   3.300   2.973   1.592
 5937SOL     OW18709   5.947   3.265   1.734
 5937SOL    HW118710   5.943   3.323   1.653
 5937SOL    HW218711   5.901   3.311   1.810
 5938SOL     OW18712   6.383   5.736   3.597
 5938SOL    HW118713   6.330   5.783   3.668
 5938SOL    HW218714   6.398   5.641   3.624
 5939SOL     OW18715   2.032   5.579   3.271
 5939SOL    HW118716   2.092   5.618   3.200
 5939SOL    HW218717   1.948   5.633   3.276
 5940SOL     OW18718   4.529   5.384   3.013
 5940SOL    HW118719   4.592   5.309   3.029
 5940SOL    HW218720   4.573   5.452   2.955
 5941SOL     OW18721   5.914   3.691   2.347
 5941SOL    HW118722   5.830   3.637   2.341
 5941SOL    HW218723   5.912   3.765   2.280
 5942SOL     OW18724   5.126   3.671   6.858
 5942SOL    HW118725   5.121   3.584   6.907
 5942SOL    HW218726   5.161   3.742   6.919
 5943SOL     OW18727   3.185   3.890   6.209
 5943SOL    HW118728   3.212   3.811   6.155
 5943SOL    HW218729   3.091   3.917   6.187
 5944SOL     OW18730   6.780   2.220   6.958
 5944SOL    HW118731   6.860   2.251   6.906
 5944SOL    HW218732   6.790   2.123   6.981
 5945SOL     OW18733   6.621   4.702   4.955
 5945SOL    HW118734   6.652   4.751   4.873
 5945SOL    HW218735   6.603   4.607   4.932
 5946SOL     OW18736   3.298   3.665   6.066
 5946SOL    HW118737   3.348   3.684   5.982
 5946SOL    HW218738   3.211   3.620   6.045
 5947SOL     OW18739   3.730   3.538   3.205
 5947SOL    HW118740   3.747   3.471   3.133
 5947SOL    HW218741   3.817   3.561   3.250
 5948SOL     OW18742   3.803   4.945   2.943
 5948SOL    HW118743   3.744   4.949   3.024
 5948SOL    HW218744   3.759   4.993   2.867
 5949SOL     OW18745   5.198   4.326   1.839
 5949SOL    HW118746   5.220   4.375   1.755
 5949SOL    HW218747   5.225   4.382   1.918
 5950SOL     OW18748   5.462   1.401   4.902
 5950SOL    HW118749   5.494   1.489   4.867
 5950SOL    HW218750   5.540   1.340   4.916
 5951SOL     OW18751   1.345   5.141   4.511
 5951SOL    HW118752   1.249   5.168   4.511
 5951SOL    HW218753   1.369   5.102   4.423
 5952SOL     OW18754   5.150   5.759   3.460
 5952SOL    HW118755   5.123   5.841   3.410
 5952SOL    HW218756   5.070   5.703   3.479
 5953SOL     OW18757   6.761   4.019   5.119
 5953SOL    HW118758   6.743   4.031   5.022
 5953SOL    HW218759   6.828   3.945   5.132
 5954SOL     OW18760   6.323   5.557   5.655
 5954SOL    HW118761   6.240   5.553   5.598
 5954SOL    HW218762   6.342   5.652   5.680
 5955SOL     OW18763   4.329   5.219   1.905
 5955SOL    HW118764   4.369   5.152   1.842
 5955SOL    HW218765   4.389   5.229   1.985
 5956SOL     OW18766   5.012   2.354   4.069
 5956SOL    HW118767   4.912   2.347   4.071
 5956SOL    HW218768   5.043   2.411   4.145
 5957SOL     OW18769   3.250   1.157   4.565
 5957SOL    HW118770   3.199   1.142   4.480
 5957SOL    HW218771   3.340   1.113   4.557
 5958SOL     OW18772   4.517   6.947   2.662
 5958SOL    HW118773   4.525   6.900   2.750
 5958SOL    HW218774   4.420   6.954   2.637
 5959SOL     OW18775   4.640   2.793   5.696
 5959SOL    HW118776   4.649   2.815   5.793
 5959SOL    HW218777   4.685   2.864   5.642
 5960SOL     OW18778   4.025   5.631   5.054
 5960SOL    HW118779   3.986   5.675   4.973
 5960SOL    HW218780   4.023   5.531   5.041
 5961SOL     OW18781   4.484   2.079   2.960
 5961SOL    HW118782   4.441   2.067   2.871
 5961SOL    HW218783   4.581   2.054   2.954
 5962SOL     OW18784   5.987   6.296   6.878
 5962SOL    HW118785   5.927   6.324   6.803
 5962SOL    HW218786   6.082   6.298   6.848
 5963SOL     OW18787   3.099   3.519   6.428
 5963SOL    HW118788   3.186   3.548   6.467
 5963SOL    HW218789   3.102   3.421   6.407
 5964SOL     OW18790   1.248   6.778   4.912
 5964SOL    HW118791   1.265   6.812   5.005
 5964SOL    HW218792   1.153   6.746   4.906
 5965SOL     OW18793   1.696   1.546   6.813
 5965SOL    HW118794   1.774   1.597   6.776
 5965SOL    HW218795   1.611   1.596   6.795
 5966SOL     OW18796   2.649   6.060   6.252
 5966SOL    HW118797   2.596   6.142   6.275
 5966SOL    HW218798   2.645   6.044   6.154
 5967SOL     OW18799   2.735   0.270   6.035
 5967SOL    HW118800   2.731   0.346   5.970
 5967SOL    HW218801   2.698   0.188   5.991
 5968SOL     OW18802   5.443   2.215   0.372
 5968SOL    HW118803   5.513   2.182   0.436
 5968SOL    HW218804   5.353   2.213   0.417
 5969SOL     OW18805   6.046   0.391   6.939
 5969SOL    HW118806   5.973   0.457   6.922
 5969SOL    HW218807   6.124   0.436   6.982
 5970SOL     OW18808   0.021   4.491   2.374
 5970SOL    HW118809   6.950   4.512   2.398
 5970SOL    HW218810   0.022   4.416   2.307
 5971SOL     OW18811   0.062   0.918   1.922
 5971SOL    HW118812   0.042   0.902   2.018
 5971SOL    HW218813   7.007   0.963   1.879
 5972SOL     OW18814   4.813   6.074   6.548
 5972SOL    HW118815   4.721   6.044   6.572
 5972SOL    HW218816   4.867   5.994   6.521
 5973SOL     OW18817   1.978   2.884   1.881
 5973SOL    HW118818   1.996   2.911   1.976
 5973SOL    HW218819   1.882   2.858   1.872
 5974SOL     OW18820   5.358   5.858   0.366
 5974SOL    HW118821   5.456   5.870   0.379
 5974SOL    HW218822   5.334   5.878   0.271
 5975SOL     OW18823   3.975   6.850   0.740
 5975SOL    HW118824   4.049   6.814   0.683
 5975SOL    HW218825   3.898   6.787   0.737
 5976SOL     OW18826   3.763   2.769   5.805
 5976SOL    HW118827   3.701   2.847   5.797
 5976SOL    HW218828   3.839   2.779   5.741
 5977SOL     OW18829   1.363   6.416   0.878
 5977SOL    HW118830   1.379   6.479   0.954
 5977SOL    HW218831   1.442   6.356   0.867
 5978SOL     OW18832   3.671   5.483   0.948
 5978SOL    HW118833   3.714   5.571   0.967
 5978SOL    HW218834   3.666   5.468   0.850
 5979SOL     OW18835   6.671   0.656   2.945
 5979SOL    HW118836   6.592   0.623   2.997
 5979SOL    HW218837   6.670   0.618   2.853
 5980SOL     OW18838   3.925   4.213   1.687
 5980SOL    HW118839   3.881   4.303   1.694
 5980SOL    HW218840   3.864   4.149   1.641
 5981SOL     OW18841   5.188   1.855   0.571
 5981SOL    HW118842   5.211   1.836   0.666
 5981SOL    HW218843   5.268   1.837   0.513
 5982SOL     OW18844   6.348   2.223   2.056
 5982SOL    HW118845   6.314   2.158   1.988
 5982SOL    HW218846   6.288   2.223   2.136
 5983SOL     OW18847   1.311   1.004   4.307
 5983SOL    HW118848   1.220   1.042   4.289
 5983SOL    HW218849   1.332   0.935   4.237
 5984SOL     OW18850   5.782   6.036   3.527
 5984SOL    HW118851   5.876   6.008   3.547
 5984SOL    HW218852   5.718   5.971   3.567
 5985SOL     OW18853   6.883   3.127   3.927
 5985SOL    HW118854   6.983   3.130   3.931
 5985SOL    HW218855   6.855   3.048   3.873
 5986SOL     OW18856   2.928   3.918   4.941
 5986SOL    HW118857   2.922   3.835   4.885
 5986SOL    HW218858   2.870   3.989   4.901
 5987SOL     OW18859   5.737   0.523   4.238
 5987SOL    HW118860   5.718   0.447   4.301
 5987SOL    HW218861   5.796   0.590   4.284
 5988SOL     OW18862   4.463   0.884   5.593
 5988SOL    HW118863   4.494   0.969   5.551
 5988SOL    HW218864   4.542   0.829   5.620
 5989SOL     OW18865   1.936   5.686   6.473
 5989SOL    HW118866   1.906   5.751   6.403
 5989SOL    HW218867   2.004   5.624   6.434
 5990SOL     OW18868   3.552   3.323   0.723
 5990SOL    HW118869   3.480   3.350   0.659
 5990SOL    HW218870   3.577   3.228   0.704
 5991SOL     OW18871   4.188   5.604   0.040
 5991SOL    HW118872   4.137   5.532   7.018
 5991SOL    HW218873   4.158   5.693   0.006
 5992SOL     OW18874   3.420   0.088   1.907
 5992SOL    HW118875   3.441   0.182   1.936
 5992SOL    HW218876   3.331   0.061   1.943
 5993SOL     OW18877   3.845   4.071   5.836
 5993SOL    HW118878   3.817   3.987   5.884
 5993SOL    HW218879   3.809   4.150   5.886
 5994SOL     OW18880   6.547   2.339   0.239
 5994SOL    HW118881   6.529   2.247   0.205
 5994SOL    HW218882   6.641   2.346   0.270
 5995SOL     OW18883   4.933   3.177   2.388
 5995SOL    HW118884   4.923   3.082   2.359
 5995SOL    HW218885   4.909   3.237   2.312
 5996SOL     OW18886   0.241   6.802   0.693
 5996SOL    HW118887   0.214   6.706   0.689
 5996SOL    HW218888   0.328   6.814   0.644
 5997SOL     OW18889   0.294   5.043   2.647
 5997SOL    HW118890   0.269   4.961   2.596
 5997SOL    HW218891   0.307   5.020   2.743
 5998SOL     OW18892   6.184   1.730   2.076
 5998SOL    HW118893   6.259   1.744   2.140
 5998SOL    HW218894   6.156   1.634   2.078
 5999SOL     OW18895   2.996   3.192   1.966
 5999SOL    HW118896   3.011   3.205   1.868
 5999SOL    HW218897   3.071   3.234   2.017
 6000SOL     OW18898   2.282   6.060   6.749
 6000SOL    HW118899   2.189   6.022   6.747
 6000SOL    HW218900   2.339   6.003   6.807
 6001SOL     OW18901   6.963   5.113   0.066
 6001SOL    HW118902   7.015   5.117   0.152
 6001SOL    HW218903   6.977   5.198   0.016
 6002SOL     OW18904   5.701   0.373   0.129
 6002SOL    HW118905   5.705   0.331   0.038
 6002SOL    HW218906   5.782   0.348   0.182
 6003SOL     OW18907   5.412   2.203   4.915
 6003SOL    HW118908   5.378   2.193   5.009
 6003SOL    HW218909   5.506   2.169   4.910
 6004SOL     OW18910   0.085   3.813   2.785
 6004SOL    HW118911   0.151   3.774   2.721
 6004SOL    HW218912   7.021   3.768   2.775
 6005SOL     OW18913   5.184   5.586   4.643
 6005SOL    HW118914   5.149   5.494   4.661
 6005SOL    HW218915   5.180   5.640   4.727
 6006SOL     OW18916   2.244   0.473   5.646
 6006SOL    HW118917   2.314   0.483   5.717
 6006SOL    HW218918   2.155   0.499   5.684
 6007SOL     OW18919   5.890   3.942   5.459
 6007SOL    HW118920   5.819   3.906   5.520
 6007SOL    HW218921   5.975   3.890   5.473
 6008SOL     OW18922   2.638   5.270   5.463
 6008SOL    HW118923   2.596   5.282   5.373
 6008SOL    HW218924   2.719   5.328   5.470
 6009SOL     OW18925   2.864   0.551   3.172
 6009SOL    HW118926   2.779   0.570   3.220
 6009SOL    HW218927   2.913   0.637   3.155
 6010SOL     OW18928   1.279   5.424   3.687
 6010SOL    HW118929   1.351   5.478   3.731
 6010SOL    HW218930   1.213   5.394   3.756
 6011SOL     OW18931   6.284   2.967   3.531
 6011SOL    HW118932   6.356   3.010   3.587
 6011SOL    HW218933   6.276   2.871   3.558
 6012SOL     OW18934   5.930   1.097   0.855
 6012SOL    HW118935   5.965   1.170   0.795
 6012SOL    HW218936   5.851   1.130   0.906
 6013SOL     OW18937   5.192   0.967   2.698
 6013SOL    HW118938   5.248   0.889   2.726
 6013SOL    HW218939   5.196   1.038   2.767
 6014SOL     OW18940   3.688   3.950   3.353
 6014SOL    HW118941   3.632   4.022   3.393
 6014SOL    HW218942   3.629   3.874   3.325
 6015SOL     OW18943   5.543   3.899   4.191
 6015SOL    HW118944   5.583   3.893   4.099
 6015SOL    HW218945   5.485   3.981   4.196
 6016SOL     OW18946   6.580   2.593   5.982
 6016SOL    HW118947   6.602   2.681   5.939
 6016SOL    HW218948   6.519   2.541   5.922
 6017SOL     OW18949   6.208   4.954   3.227
 6017SOL    HW118950   6.302   4.956   3.260
 6017SOL    HW218951   6.208   4.947   3.127
 6018SOL     OW18952   3.585   1.133   6.573
 6018SOL    HW118953   3.536   1.062   6.624
 6018SOL    HW218954   3.668   1.094   6.532
 6019SOL     OW18955   0.884   2.806   4.717
 6019SOL    HW118956   0.793   2.791   4.756
 6019SOL    HW218957   0.937   2.863   4.780
 6020SOL     OW18958   0.449   4.984   0.408
 6020SOL    HW118959   0.538   4.938   0.403
 6020SOL    HW218960   0.391   4.951   0.334
 6021SOL     OW18961   4.626   1.089   3.286
 6021SOL    HW118962   4.596   1.183   3.270
 6021SOL    HW218963   4.612   1.035   3.204
 6022SOL     OW18964   6.728   1.874   3.460
 6022SOL    HW118965   6.667   1.848   3.536
 6022SOL    HW218966   6.681   1.860   3.373
 6023SOL     OW18967   5.921   1.191   1.784
 6023SOL    HW118968   5.964   1.238   1.860
 6023SOL    HW218969   5.984   1.122   1.747
 6024SOL     OW18970   1.356   4.220   1.920
 6024SOL    HW118971   1.326   4.281   1.994
 6024SOL    HW218972   1.345   4.125   1.949
 6025SOL     OW18973   3.174   1.682   3.426
 6025SOL    HW118974   3.165   1.655   3.330
 6025SOL    HW218975   3.134   1.773   3.438
 6026SOL     OW18976   0.035   5.307   5.772
 6026SOL    HW118977   6.965   5.317   5.742
 6026SOL    HW218978   0.061   5.210   5.770
 6027SOL     OW18979   0.219   3.508   5.769
 6027SOL    HW118980   0.151   3.563   5.720
 6027SOL    HW218981   0.243   3.554   5.855
 6028SOL     OW18982   5.896   4.722   0.969
 6028SOL    HW118983   5.840   4.800   0.939
 6028SOL    HW218984   5.992   4.742   0.955
 6029SOL     OW18985   2.677   6.488   4.334
 6029SOL    HW118986   2.596   6.547   4.333
 6029SOL    HW218987   2.702   6.463   4.241
 6030SOL     OW18988   4.253   4.979   2.720
 6030SOL    HW118989   4.258   5.078   2.713
 6030SOL    HW218990   4.165   4.952   2.758
 6031SOL     OW18991   3.577   5.612   4.583
 6031SOL    HW118992   3.516   5.601   4.662
 6031SOL    HW218993   3.524   5.644   4.505
 6032SOL     OW18994   2.093   4.633   2.109
 6032SOL    HW118995   2.039   4.549   2.118
 6032SOL    HW218996   2.189   4.609   2.093
 6033SOL     OW18997   2.491   2.416   3.580
 6033SOL    HW118998   2.471   2.396   3.484
 6033SOL    HW218999   2.588   2.441   3.590
 6034SOL     OW19000   1.120   0.699   5.392
 6034SOL    HW119001   1.186   0.656   5.330
 6034SOL    HW219002   1.158   0.785   5.427
 6035SOL     OW19003   1.353   1.239   2.065
 6035SOL    HW119004   1.363   1.330   2.026
 6035SOL    HW219005   1.426   1.222   2.131
 6036SOL     OW19006   4.981   5.213   2.899
 6036SOL    HW119007   5.015   5.303   2.870
 6036SOL    HW219008   5.018   5.142   2.839
 6037SOL     OW19009   3.898   7.000   0.398
 6037SOL    HW119010   3.858   6.914   0.367
 6037SOL    HW219011   3.989   6.983   0.435
 6038SOL     OW19012   1.561   3.031   6.036
 6038SOL    HW119013   1.586   2.943   6.077
 6038SOL    HW219014   1.468   3.055   6.063
 6039SOL     OW19015   4.015   3.133   2.794
 6039SOL    HW119016   3.942   3.081   2.748
 6039SOL    HW219017   4.056   3.196   2.728
 6040SOL     OW19018   1.686   2.435   1.315
 6040SOL    HW119019   1.756   2.381   1.362
 6040SOL    HW219020   1.695   2.421   1.216
 6041SOL     OW19021   2.861   1.040   5.281
 6041SOL    HW119022   2.925   1.104   5.325
 6041SOL    HW219023   2.776   1.037   5.333
 6042SOL     OW19024   4.307   6.646   2.530
 6042SOL    HW119025   4.332   6.647   2.627
 6042SOL    HW219026   4.298   6.551   2.500
 6043SOL     OW19027   1.007   6.412   5.320
 6043SOL    HW119028   0.949   6.475   5.370
 6043SOL    HW219029   1.042   6.456   5.238
 6044SOL     OW19030   1.495   2.585   1.444
 6044SOL    HW119031   1.561   2.513   1.418
 6044SOL    HW219032   1.444   2.556   1.524
 6045SOL     OW19033   6.099   3.566   3.004
 6045SOL    HW119034   6.135   3.603   2.919
 6045SOL    HW219035   6.036   3.632   3.046
 6046SOL     OW19036   3.374   2.574   1.295
 6046SOL    HW119037   3.301   2.616   1.348
 6046SOL    HW219038   3.401   2.635   1.220
 6047SOL     OW19039   5.226   2.134   1.840
 6047SOL    HW119040   5.187   2.161   1.928
 6047SOL    HW219041   5.288   2.057   1.854
 6048SOL     OW19042   4.664   4.985   5.392
 6048SOL    HW119043   4.600   5.050   5.433
 6048SOL    HW219044   4.744   5.033   5.358
 6049SOL     OW19045   4.755   3.471   6.955
 6049SOL    HW119046   4.660   3.455   6.928
 6049SOL    HW219047   4.758   3.504   0.024
 6050SOL     OW19048   3.214   4.620   5.917
 6050SOL    HW119049   3.297   4.663   5.882
 6050SOL    HW219050   3.187   4.545   5.856
 6051SOL     OW19051   1.894   7.000   3.102
 6051SOL    HW119052   1.961   0.018   3.041
 6051SOL    HW219053   1.818   6.963   3.049
 6052SOL     OW19054   5.682   1.524   1.306
 6052SOL    HW119055   5.589   1.493   1.326
 6052SOL    HW219056   5.745   1.487   1.374
 6053SOL     OW19057   4.328   1.383   6.288
 6053SOL    HW119058   4.263   1.458   6.301
 6053SOL    HW219059   4.417   1.409   6.325
 6054SOL     OW19060   2.722   3.050   0.078
 6054SOL    HW119061   2.735   3.146   0.056
 6054SOL    HW219062   2.793   2.995   0.034
 6055SOL     OW19063   5.209   0.018   5.293
 6055SOL    HW119064   5.270   6.965   5.310
 6055SOL    HW219065   5.258   0.088   5.242
 6056SOL     OW19066   4.865   3.262   4.949
 6056SOL    HW119067   4.799   3.277   5.023
 6056SOL    HW219068   4.898   3.350   4.915
 6057SOL     OW19069   0.131   1.081   2.409
 6057SOL    HW119070   0.173   1.124   2.329
 6057SOL    HW219071   0.079   1.149   2.460
 6058SOL     OW19072   4.773   3.834   1.811
 6058SOL    HW119073   4.737   3.745   1.781
 6058SOL    HW219074   4.719   3.907   1.770
 6059SOL     OW19075   5.100   5.373   6.470
 6059SOL    HW119076   5.087   5.275   6.454
 6059SOL    HW219077   5.096   5.422   6.383
 6060SOL     OW19078   3.006   3.324   6.112
 6060SOL    HW119079   3.098   3.335   6.073
 6060SOL    HW219080   2.949   3.272   6.048
 6061SOL     OW19081   5.032   3.383   0.779
 6061SOL    HW119082   5.065   3.297   0.817
 6061SOL    HW219083   4.953   3.415   0.833
 6062SOL     OW19084   2.513   1.381   5.735
 6062SOL    HW119085   2.525   1.454   5.668
 6062SOL    HW219086   2.563   1.403   5.818
 6063SOL     OW19087   4.641   2.292   6.406
 6063SOL    HW119088   4.577   2.248   6.342
 6063SOL    HW219089   4.624   2.390   6.408
 6064SOL     OW19090   1.272   0.198   1.418
 6064SOL    HW119091   1.239   0.115   1.375
 6064SOL    HW219092   1.196   0.249   1.457
 6065SOL     OW19093   1.008   6.136   3.141
 6065SOL    HW119094   0.919   6.165   3.175
 6065SOL    HW219095   1.059   6.090   3.214
 6066SOL     OW19096   5.073   1.848   5.234
 6066SOL    HW119097   5.087   1.749   5.233
 6066SOL    HW219098   5.161   1.895   5.227
 6067SOL     OW19099   5.448   0.586   6.031
 6067SOL    HW119100   5.364   0.630   6.001
 6067SOL    HW219101   5.505   0.653   6.080
 6068SOL     OW19102   4.702   2.750   4.662
 6068SOL    HW119103   4.744   2.725   4.749
 6068SOL    HW219104   4.666   2.843   4.667
 6069SOL     OW19105   6.018   2.802   4.931
 6069SOL    HW119106   5.949   2.763   4.870
 6069SOL    HW219107   6.000   2.899   4.944
 6070SOL     OW19108   3.059   2.000   1.736
 6070SOL    HW119109   3.098   1.975   1.647
 6070SOL    HW219110   3.064   2.099   1.748
 6071SOL     OW19111   6.374   5.637   5.374
 6071SOL    HW119112   6.344   5.731   5.355
 6071SOL    HW219113   6.378   5.623   5.473
 6072SOL     OW19114   6.921   0.166   1.949
 6072SOL    HW119115   6.863   0.234   1.907
 6072SOL    HW219116   6.945   0.096   1.881
 6073SOL     OW19117   5.684   3.000   0.663
 6073SOL    HW119118   5.599   3.039   0.699
 6073SOL    HW219119   5.674   2.980   0.566
 6074SOL     OW19120   1.202   5.665   1.990
 6074SOL    HW119121   1.238   5.578   1.956
 6074SOL    HW219122   1.104   5.657   2.006
 6075SOL     OW19123   4.764   0.267   5.945
 6075SOL    HW119124   4.827   0.189   5.944
 6075SOL    HW219125   4.671   0.233   5.929
 6076SOL     OW19126   3.262   5.416   3.435
 6076SOL    HW119127   3.344   5.453   3.393
 6076SOL    HW219128   3.275   5.409   3.534
 6077SOL     OW19129   6.405   4.977   1.127
 6077SOL    HW119130   6.495   5.016   1.145
 6077SOL    HW219131   6.399   4.886   1.168
 6078SOL     OW19132   5.014   5.380   0.566
 6078SOL    HW119133   5.079   5.314   0.528
 6078SOL    HW219134   4.995   5.452   0.499
 6079SOL     OW19135   4.591   3.544   5.744
 6079SOL    HW119136   4.608   3.461   5.691
 6079SOL    HW219137   4.659   3.551   5.818
 6080SOL     OW19138   0.058   6.159   0.928
 6080SOL    HW119139   0.114   6.238   0.901
 6080SOL    HW219140   0.116   6.078   0.935
 6081SOL     OW19141   6.683   2.853   5.077
 6081SOL    HW119142   6.697   2.787   5.003
 6081SOL    HW219143   6.712   2.944   5.046
 6082SOL     OW19144   2.608   0.354   3.315
 6082SOL    HW119145   2.635   0.309   3.399
 6082SOL    HW219146   2.590   0.451   3.333
 6083SOL     OW19147   6.042   5.836   0.498
 6083SOL    HW119148   6.136   5.801   0.496
 6083SOL    HW219149   5.997   5.815   0.411
 6084SOL     OW19150   1.035   6.667   3.264
 6084SOL    HW119151   0.971   6.611   3.211
 6084SOL    HW219152   0.984   6.739   3.312
 6085SOL     OW19153   0.013   6.927   0.236
 6085SOL    HW119154   0.055   6.897   0.322
 6085SOL    HW219155   0.084   6.960   0.174
 6086SOL     OW19156   3.006   1.363   5.651
 6086SOL    HW119157   3.008   1.346   5.749
 6086SOL    HW219158   2.925   1.417   5.628
 6087SOL     OW19159   3.699   6.074   1.155
 6087SOL    HW119160   3.795   6.058   1.177
 6087SOL    HW219161   3.673   6.014   1.078
 6088SOL     OW19162   5.200   6.538   4.631
 6088SOL    HW119163   5.156   6.478   4.699
 6088SOL    HW219164   5.279   6.582   4.673
 6089SOL     OW19165   5.683   2.611   2.605
 6089SOL    HW119166   5.605   2.569   2.653
 6089SOL    HW219167   5.725   2.680   2.664
 6090SOL     OW19168   2.475   5.588   4.574
 6090SOL    HW119169   2.518   5.644   4.645
 6090SOL    HW219170   2.406   5.641   4.526
 6091SOL     OW19171   1.919   1.629   0.135
 6091SOL    HW119172   1.922   1.668   0.043
 6091SOL    HW219173   1.826   1.638   0.173
 6092SOL     OW19174   4.614   0.739   2.746
 6092SOL    HW119175   4.647   0.644   2.751
 6092SOL    HW219176   4.520   0.743   2.781
 6093SOL     OW19177   2.225   3.082   1.866
 6093SOL    HW119178   2.155   3.105   1.934
 6093SOL    HW219179   2.226   3.151   1.794
 6094SOL     OW19180   1.629   5.814   2.453
 6094SOL    HW119181   1.651   5.823   2.550
 6094SOL    HW219182   1.553   5.876   2.431
 6095SOL     OW19183   5.288   4.719   0.411
 6095SOL    HW119184   5.374   4.677   0.380
 6095SOL    HW219185   5.309   4.799   0.468
 6096SOL     OW19186   6.132   0.014   3.754
 6096SOL    HW119187   6.141   6.997   3.663
 6096SOL    HW219188   6.065   6.986   3.808
 6097SOL     OW19189   1.895   5.654   2.031
 6097SOL    HW119190   1.797   5.654   2.047
 6097SOL    HW219191   1.943   5.687   2.112
 6098SOL     OW19192   0.591   1.532   5.347
 6098SOL    HW119193   0.679   1.510   5.306
 6098SOL    HW219194   0.571   1.465   5.419
 6099SOL     OW19195   5.352   6.431   6.961
 6099SOL    HW119196   5.313   6.350   7.006
 6099SOL    HW219197   5.444   6.409   6.929
 6100SOL     OW19198   5.684   6.392   1.562
 6100SOL    HW119199   5.721   6.338   1.487
 6100SOL    HW219200   5.691   6.340   1.647
 6101SOL     OW19201   0.012   2.877   3.348
 6101SOL    HW119202   6.963   2.930   3.306
 6101SOL    HW219203   0.005   2.883   3.448
 6102SOL     OW19204   3.392   5.755   3.296
 6102SOL    HW119205   3.402   5.853   3.311
 6102SOL    HW219206   3.319   5.738   3.230
 6103SOL     OW19207   6.437   1.922   1.742
 6103SOL    HW119208   6.525   1.912   1.787
 6103SOL    HW219209   6.440   1.998   1.678
 6104SOL     OW19210   5.317   0.270   5.651
 6104SOL    HW119211   5.356   0.299   5.563
 6104SOL    HW219212   5.225   0.309   5.661
 6105SOL     OW19213   3.487   5.778   6.745
 6105SOL    HW119214   3.399   5.745   6.779
 6105SOL    HW219215   3.512   5.727   6.663
 6106SOL     OW19216   1.207   4.716   6.197
 6106SOL    HW119217   1.213   4.671   6.109
 6106SOL    HW219218   1.114   4.708   6.233
 6107SOL     OW19219   4.464   6.116   4.916
 6107SOL    HW119220   4.524   6.192   4.940
 6107SOL    HW219221   4.516   6.031   4.917
 6108SOL     OW19222   2.233   2.835   2.013
 6108SOL    HW119223   2.203   2.911   1.955
 6108SOL    HW219224   2.333   2.835   2.019
 6109SOL     OW19225   5.907   1.905   4.975
 6109SOL    HW119226   5.952   1.845   4.908
 6109SOL    HW219227   5.931   1.876   5.067
 6110SOL     OW19228   3.188   3.987   1.042
 6110SOL    HW119229   3.238   3.929   0.978
 6110SOL    HW219230   3.090   3.981   1.021
 6111SOL     OW19231   1.391   3.306   2.702
 6111SOL    HW119232   1.348   3.231   2.752
 6111SOL    HW219233   1.323   3.377   2.683
 6112SOL     OW19234   2.717   0.060   2.989
 6112SOL    HW119235   2.751   0.061   2.894
 6112SOL    HW219236   2.770   7.019   3.042
 6113SOL     OW19237   3.257   2.545   6.217
 6113SOL    HW119238   3.199   2.502   6.286
 6113SOL    HW219239   3.324   2.604   6.262
 6114SOL     OW19240   5.040   4.707   2.482
 6114SOL    HW119241   4.962   4.762   2.453
 6114SOL    HW219242   5.088   4.754   2.557
 6115SOL     OW19243   5.997   0.821   4.161
 6115SOL    HW119244   6.097   0.811   4.164
 6115SOL    HW219245   5.968   0.826   4.065
 6116SOL     OW19246   4.402   1.447   5.929
 6116SOL    HW119247   4.386   1.533   5.979
 6116SOL    HW219248   4.495   1.448   5.892
 6117SOL     OW19249   1.367   1.147   3.356
 6117SOL    HW119250   1.337   1.071   3.414
 6117SOL    HW219251   1.428   1.206   3.409
 6118SOL     OW19252   6.839   1.102   1.450
 6118SOL    HW119253   6.754   1.149   1.429
 6118SOL    HW219254   6.915   1.147   1.403
 6119SOL     OW19255   0.957   4.003   0.031
 6119SOL    HW119256   0.923   3.913   0.002
 6119SOL    HW219257   1.031   4.031   6.994
 6120SOL     OW19258   3.864   6.267   5.499
 6120SOL    HW119259   3.950   6.228   5.529
 6120SOL    HW219260   3.840   6.231   5.408
 6121SOL     OW19261   0.698   3.650   5.101
 6121SOL    HW119262   0.785   3.620   5.141
 6121SOL    HW219263   0.628   3.582   5.121
 6122SOL     OW19264   4.551   5.407   0.617
 6122SOL    HW119265   4.544   5.407   0.517
 6122SOL    HW219266   4.633   5.358   0.644
 6123SOL     OW19267   5.377   0.156   6.149
 6123SOL    HW119268   5.320   0.190   6.074
 6123SOL    HW219269   5.375   0.221   6.225
 6124SOL     OW19270   1.561   6.843   5.691
 6124SOL    HW119271   1.620   6.827   5.769
 6124SOL    HW219272   1.612   6.889   5.619
 6125SOL     OW19273   2.274   4.195   0.380
 6125SOL    HW119274   2.292   4.228   0.472
 6125SOL    HW219275   2.241   4.101   0.383
 6126SOL     OW19276   0.903   0.405   4.461
 6126SOL    HW119277   0.880   0.417   4.365
 6126SOL    HW219278   0.988   0.353   4.469
 6127SOL     OW19279   3.152   6.988   1.148
 6127SOL    HW119280   3.082   0.029   1.176
 6127SOL    HW219281   3.210   6.966   1.227
 6128SOL     OW19282   6.422   3.879   0.738
 6128SOL    HW119283   6.380   3.836   0.657
 6128SOL    HW219284   6.365   3.955   0.769
 6129SOL     OW19285   7.014   3.455   2.089
 6129SOL    HW119286   6.962   3.375   2.058
 6129SOL    HW219287   6.951   3.522   2.129
 6130SOL     OW19288   5.799   2.996   2.369
 6130SOL    HW119289   5.822   2.984   2.273
 6130SOL    HW219290   5.726   2.933   2.395
 6131SOL     OW19291   0.692   1.416   4.108
 6131SOL    HW119292   0.785   1.442   4.083
 6131SOL    HW219293   0.657   1.478   4.178
 6132SOL     OW19294   4.759   2.075   0.013
 6132SOL    HW119295   4.839   2.092   6.979
 6132SOL    HW219296   4.706   1.999   7.001
 6133SOL     OW19297   2.109   3.223   2.862
 6133SOL    HW119298   2.084   3.128   2.882
 6133SOL    HW219299   2.128   3.272   2.947
 6134SOL     OW19300   4.118   5.087   6.763
 6134SOL    HW119301   4.024   5.121   6.757
 6134SOL    HW219302   4.166   5.136   6.835
 6135SOL     OW19303   6.969   0.231   0.441
 6135SOL    HW119304   6.989   0.228   0.343
 6135SOL    HW219305   6.871   0.248   0.454
 6136SOL     OW19306   1.059   3.115   2.150
 6136SOL    HW119307   1.144   3.135   2.200
 6136SOL    HW219308   1.080   3.057   2.071
 6137SOL     OW19309   6.380   4.086   2.198
 6137SOL    HW119310   6.337   4.150   2.261
 6137SOL    HW219311   6.325   4.080   2.114
 6138SOL     OW19312   3.673   6.745   2.781
 6138SOL    HW119313   3.648   6.839   2.760
 6138SOL    HW219314   3.761   6.724   2.740
 6139SOL     OW19315   1.599   6.691   5.933
 6139SOL    HW119316   1.501   6.709   5.925
 6139SOL    HW219317   1.612   6.604   5.980
 6140SOL     OW19318   0.805   6.707   2.277
 6140SOL    HW119319   0.863   6.672   2.351
 6140SOL    HW219320   0.863   6.740   2.202
 6141SOL     OW19321   0.686   6.891   6.364
 6141SOL    HW119322   0.775   6.938   6.365
 6141SOL    HW219323   0.640   6.906   6.452
 6142SOL     OW19324   0.581   6.338   6.691
 6142SOL    HW119325   0.678   6.320   6.680
 6142SOL    HW219326   0.569   6.422   6.744
 6143SOL     OW19327   6.372   3.041   0.978
 6143SOL    HW119328   6.331   2.971   0.920
 6143SOL    HW219329   6.411   2.998   1.059
 6144SOL     OW19330   4.779   4.916   4.386
 6144SOL    HW119331   4.784   4.870   4.298
 6144SOL    HW219332   4.697   4.972   4.390
 6145SOL     OW19333   5.363   4.961   4.453
 6145SOL    HW119334   5.346   5.046   4.402
 6145SOL    HW219335   5.425   4.903   4.400
 6146SOL     OW19336   3.020   5.635   3.867
 6146SOL    HW119337   3.092   5.603   3.927
 6146SOL    HW219338   2.949   5.680   3.921
 6147SOL     OW19339   2.283   2.027   4.701
 6147SOL    HW119340   2.343   2.034   4.781
 6147SOL    HW219341   2.289   2.112   4.648
 6148SOL     OW19342   4.740   6.937   5.350
 6148SOL    HW119343   4.759   6.850   5.306
 6148SOL    HW219344   4.814   6.960   5.413
 6149SOL     OW19345   2.818   6.667   1.144
 6149SOL    HW119346   2.803   6.647   1.047
 6149SOL    HW219347   2.761   6.606   1.199
 6150SOL     OW19348   5.566   5.186   0.868
 6150SOL    HW119349   5.530   5.272   0.904
 6150SOL    HW219350   5.666   5.183   0.882
 6151SOL     OW19351   6.342   5.055   6.163
 6151SOL    HW119352   6.416   5.073   6.229
 6151SOL    HW219353   6.374   4.988   6.096
 6152SOL     OW19354   6.549   5.657   4.729
 6152SOL    HW119355   6.579   5.669   4.824
 6152SOL    HW219356   6.603   5.716   4.669
 6153SOL     OW19357   5.177   4.860   1.497
 6153SOL    HW119358   5.129   4.775   1.476
 6153SOL    HW219359   5.244   4.844   1.569
 6154SOL     OW19360   6.400   2.479   2.518
 6154SOL    HW119361   6.465   2.438   2.454
 6154SOL    HW219362   6.339   2.541   2.468
 6155SOL     OW19363   1.570   1.378   3.145
 6155SOL    HW119364   1.478   1.412   3.160
 6155SOL    HW219365   1.572   1.325   3.060
 6156SOL     OW19366   4.322   4.572   1.969
 6156SOL    HW119367   4.366   4.520   2.041
 6156SOL    HW219368   4.348   4.534   1.880
 6157SOL     OW19369   6.922   2.037   4.550
 6157SOL    HW119370   6.823   2.049   4.537
 6157SOL    HW219371   6.970   2.105   4.494
 6158SOL     OW19372   3.742   2.059   6.386
 6158SOL    HW119373   3.646   2.088   6.388
 6158SOL    HW219374   3.746   1.959   6.386
 6159SOL     OW19375   4.437   2.078   1.711
 6159SOL    HW119376   4.456   1.988   1.671
 6159SOL    HW219377   4.340   2.100   1.700
 6160SOL     OW19378   5.314   1.334   6.451
 6160SOL    HW119379   5.329   1.315   6.354
 6160SOL    HW219380   5.400   1.365   6.493
 6161SOL     OW19381   5.514   1.500   5.435
 6161SOL    HW119382   5.606   1.504   5.396
 6161SOL    HW219383   5.467   1.587   5.419
 6162SOL     OW19384   6.849   6.375   3.405
 6162SOL    HW119385   6.835   6.368   3.307
 6162SOL    HW219386   6.766   6.345   3.453
 6163SOL     OW19387   6.063   6.551   1.321
 6163SOL    HW119388   5.992   6.524   1.255
 6163SOL    HW219389   6.053   6.648   1.342
 6164SOL     OW19390   3.312   3.829   3.729
 6164SOL    HW119391   3.397   3.866   3.767
 6164SOL    HW219392   3.234   3.867   3.779
 6165SOL     OW19393   4.668   1.741   6.694
 6165SOL    HW119394   4.736   1.687   6.643
 6165SOL    HW219395   4.606   1.679   6.742
 6166SOL     OW19396   5.624   2.002   6.316
 6166SOL    HW119397   5.555   2.042   6.376
 6166SOL    HW219398   5.603   1.905   6.300
 6167SOL     OW19399   1.147   5.003   3.046
 6167SOL    HW119400   1.053   5.025   3.022
 6167SOL    HW219401   1.164   4.906   3.028
 6168SOL     OW19402   1.545   3.613   2.531
 6168SOL    HW119403   1.473   3.617   2.462
 6168SOL    HW219404   1.571   3.517   2.545
 6169SOL     OW19405   1.226   2.078   6.977
 6169SOL    HW119406   1.227   2.021   0.035
 6169SOL    HW219407   1.301   2.145   6.981
 6170SOL     OW19408   2.181   4.161   5.237
 6170SOL    HW119409   2.252   4.099   5.205
 6170SOL    HW219410   2.123   4.189   5.160
 6171SOL     OW19411   1.620   3.733   1.001
 6171SOL    HW119412   1.636   3.679   0.919
 6171SOL    HW219413   1.530   3.711   1.038
 6172SOL     OW19414   2.047   1.535   2.992
 6172SOL    HW119415   2.120   1.478   2.954
 6172SOL    HW219416   2.045   1.526   3.092
 6173SOL     OW19417   6.388   5.727   2.016
 6173SOL    HW119418   6.348   5.806   2.062
 6173SOL    HW219419   6.453   5.682   2.078
 6174SOL     OW19420   5.233   5.088   3.773
 6174SOL    HW119421   5.167   5.143   3.722
 6174SOL    HW219422   5.206   5.083   3.869
 6175SOL     OW19423   4.698   0.835   3.673
 6175SOL    HW119424   4.714   0.844   3.575
 6175SOL    HW219425   4.601   0.817   3.690
 6176SOL     OW19426   5.521   3.234   6.340
 6176SOL    HW119427   5.457   3.250   6.265
 6176SOL    HW219428   5.496   3.291   6.418
 6177SOL     OW19429   5.464   0.741   1.029
 6177SOL    HW119430   5.548   0.781   0.992
 6177SOL    HW219431   5.403   0.813   1.061
 6178SOL     OW19432   4.859   4.765   3.191
 6178SOL    HW119433   4.765   4.796   3.180
 6178SOL    HW219434   4.908   4.829   3.251
 6179SOL     OW19435   6.974   5.047   4.396
 6179SOL    HW119436   6.946   5.091   4.311
 6179SOL    HW219437   6.909   4.975   4.420
 6180SOL     OW19438   4.108   4.701   0.188
 6180SOL    HW119439   4.008   4.694   0.181
 6180SOL    HW219440   4.142   4.763   0.117
 6181SOL     OW19441   3.734   6.715   0.742
 6181SOL    HW119442   3.676   6.771   0.801
 6181SOL    HW219443   3.720   6.618   0.763
 6182SOL     OW19444   5.113   3.197   5.563
 6182SOL    HW119445   5.057   3.247   5.497
 6182SOL    HW219446   5.195   3.250   5.584
 6183SOL     OW19447   2.102   1.355   3.324
 6183SOL    HW119448   2.168   1.423   3.359
 6183SOL    HW219449   2.010   1.382   3.352
 6184SOL     OW19450   2.003   6.685   6.222
 6184SOL    HW119451   2.077   6.731   6.173
 6184SOL    HW219452   2.019   6.587   6.223
 6185SOL     OW19453   0.185   4.023   6.541
 6185SOL    HW119454   0.173   4.043   6.444
 6185SOL    HW219455   0.248   4.089   6.582
 6186SOL     OW19456   6.719   6.971   5.813
 6186SOL    HW119457   6.673   6.944   5.897
 6186SOL    HW219458   6.817   6.982   5.831
 6187SOL     OW19459   4.596   4.827   3.109
 6187SOL    HW119460   4.607   4.869   3.019
 6187SOL    HW219461   4.500   4.830   3.136
 6188SOL     OW19462   2.457   0.002   0.889
 6188SOL    HW119463   2.492   0.096   0.881
 6188SOL    HW219464   2.365   7.022   0.851
 6189SOL     OW19465   5.053   4.206   3.708
 6189SOL    HW119466   5.015   4.146   3.638
 6189SOL    HW219467   5.133   4.254   3.672
 6190SOL     OW19468   0.524   3.970   5.633
 6190SOL    HW119469   0.616   3.957   5.668
 6190SOL    HW219470   0.527   3.992   5.536
 6191SOL     OW19471   3.795   1.810   6.945
 6191SOL    HW119472   3.802   1.845   6.852
 6191SOL    HW219473   3.884   1.816   6.990
 6192SOL     OW19474   3.783   2.420   6.428
 6192SOL    HW119475   3.717   2.402   6.355
 6192SOL    HW219476   3.819   2.333   6.463
 6193SOL     OW19477   4.893   1.366   2.318
 6193SOL    HW119478   4.879   1.268   2.335
 6193SOL    HW219479   4.827   1.397   2.249
 6194SOL     OW19480   1.642   0.130   1.159
 6194SOL    HW119481   1.712   0.061   1.180
 6194SOL    HW219482   1.687   0.212   1.124
 6195SOL     OW19483   4.640   6.519   5.487
 6195SOL    HW119484   4.604   6.462   5.561
 6195SOL    HW219485   4.587   6.502   5.404
 6196SOL     OW19486   5.651   2.703   1.730
 6196SOL    HW119487   5.745   2.716   1.699
 6196SOL    HW219488   5.651   2.656   1.818
 6197SOL     OW19489   4.197   4.884   0.694
 6197SOL    HW119490   4.108   4.840   0.683
 6197SOL    HW219491   4.259   4.852   0.623
 6198SOL     OW19492   3.878   6.247   2.188
 6198SOL    HW119493   3.954   6.215   2.131
 6198SOL    HW219494   3.868   6.185   2.267
 6199SOL     OW19495   1.096   0.557   0.975
 6199SOL    HW119496   1.180   0.606   0.953
 6199SOL    HW219497   1.020   0.595   0.921
 6200SOL     OW19498   1.284   1.205   5.503
 6200SOL    HW119499   1.266   1.296   5.539
 6200SOL    HW219500   1.374   1.174   5.532
 6201SOL     OW19501   0.918   3.363   5.503
 6201SOL    HW119502   0.858   3.442   5.510
 6201SOL    HW219503   0.905   3.304   5.582
 6202SOL     OW19504   3.788   1.735   2.468
 6202SOL    HW119505   3.856   1.797   2.508
 6202SOL    HW219506   3.705   1.786   2.446
 6203SOL     OW19507   7.011   6.666   2.901
 6203SOL    HW119508   6.995   6.727   2.823
 6203SOL    HW219509   0.085   6.655   2.914
 6204SOL     OW19510   0.432   5.398   5.128
 6204SOL    HW119511   0.448   5.331   5.056
 6204SOL    HW219512   0.341   5.382   5.168
 6205SOL     OW19513   6.085   6.178   0.774
 6205SOL    HW119514   6.141   6.232   0.711
 6205SOL    HW219515   5.991   6.213   0.774
 6206SOL     OW19516   0.015   1.035   3.361
 6206SOL    HW119517   0.048   1.120   3.322
 6206SOL    HW219518   6.962   1.054   3.422
 6207SOL     OW19519   1.511   4.868   5.337
 6207SOL    HW119520   1.421   4.826   5.336
 6207SOL    HW219521   1.502   4.967   5.329
 6208SOL     OW19522   5.801   1.473   6.062
 6208SOL    HW119523   5.795   1.424   6.149
 6208SOL    HW219524   5.859   1.423   5.999
 6209SOL     OW19525   4.657   5.792   6.993
 6209SOL    HW119526   4.637   5.695   6.976
 6209SOL    HW219527   4.595   5.848   6.938
 6210SOL     OW19528   5.218   3.311   3.131
 6210SOL    HW119529   5.272   3.227   3.128
 6210SOL    HW219530   5.147   3.307   3.060
 6211SOL     OW19531   3.110   6.289   5.154
 6211SOL    HW119532   3.150   6.245   5.235
 6211SOL    HW219533   3.012   6.267   5.150
 6212SOL     OW19534   1.865   5.347   3.665
 6212SOL    HW119535   1.928   5.423   3.650
 6212SOL    HW219536   1.887   5.302   3.751
 6213SOL     OW19537   5.905   0.336   0.502
 6213SOL    HW119538   5.964   0.287   0.567
 6213SOL    HW219539   5.823   0.281   0.485
 6214SOL     OW19540   5.043   4.618   4.170
 6214SOL    HW119541   5.057   4.526   4.206
 6214SOL    HW219542   4.964   4.660   4.216
 6215SOL     OW19543   4.238   1.315   0.596
 6215SOL    HW119544   4.318   1.335   0.652
 6215SOL    HW219545   4.234   1.217   0.578
 6216SOL     OW19546   5.902   1.330   2.068
 6216SOL    HW119547   5.902   1.251   2.130
 6216SOL    HW219548   5.810   1.366   2.060
 6217SOL     OW19549   0.129   4.039   2.565
 6217SOL    HW119550   0.141   4.120   2.507
 6217SOL    HW219551   0.032   4.023   2.580
 6218SOL     OW19552   3.855   5.676   6.197
 6218SOL    HW119553   3.943   5.635   6.172
 6218SOL    HW219554   3.835   5.657   6.293
 6219SOL     OW19555   0.777   2.699   4.309
 6219SOL    HW119556   0.797   2.602   4.297
 6219SOL    HW219557   0.839   2.737   4.378
 6220SOL     OW19558   1.862   1.790   5.321
 6220SOL    HW119559   1.911   1.717   5.275
 6220SOL    HW219560   1.763   1.775   5.313
 6221SOL     OW19561   5.772   5.668   6.818
 6221SOL    HW119562   5.715   5.675   6.900
 6221SOL    HW219563   5.867   5.686   6.841
 6222SOL     OW19564   0.834   6.810   1.776
 6222SOL    HW119565   0.870   6.873   1.707
 6222SOL    HW219566   0.777   6.741   1.731
 6223SOL     OW19567   0.867   4.939   4.217
 6223SOL    HW119568   0.813   4.994   4.153
 6223SOL    HW219569   0.865   4.982   4.308
 6224SOL     OW19570   2.597   1.839   5.942
 6224SOL    HW119571   2.605   1.934   5.913
 6224SOL    HW219572   2.687   1.805   5.969
 6225SOL     OW19573   3.789   4.131   6.483
 6225SOL    HW119574   3.825   4.101   6.395
 6225SOL    HW219575   3.863   4.132   6.551
 6226SOL     OW19576   6.727   1.587   4.943
 6226SOL    HW119577   6.786   1.647   4.997
 6226SOL    HW219578   6.699   1.509   4.999
 6227SOL     OW19579   3.662   5.903   5.371
 6227SOL    HW119580   3.692   5.959   5.293
 6227SOL    HW219581   3.574   5.936   5.403
 6228SOL     OW19582   1.379   2.433   2.888
 6228SOL    HW119583   1.357   2.447   2.791
 6228SOL    HW219584   1.365   2.519   2.937
 6229SOL     OW19585   0.390   2.006   2.927
 6229SOL    HW119586   0.327   2.001   3.005
 6229SOL    HW219587   0.337   2.004   2.842
 6230SOL     OW19588   0.611   1.733   3.638
 6230SOL    HW119589   0.616   1.820   3.588
 6230SOL    HW219590   0.623   1.658   3.573
 6231SOL     OW19591   6.175   5.916   1.290
 6231SOL    HW119592   6.211   5.978   1.220
 6231SOL    HW219593   6.182   5.822   1.258
 6232SOL     OW19594   6.926   0.596   0.983
 6232SOL    HW119595   6.958   0.659   0.913
 6232SOL    HW219596   6.860   0.643   1.042
 6233SOL     OW19597   7.014   0.915   1.030
 6233SOL    HW119598   6.990   0.886   0.937
 6233SOL    HW219599   6.989   0.843   1.095
 6234SOL     OW19600   6.390   0.979   5.643
 6234SOL    HW119601   6.366   0.910   5.575
 6234SOL    HW219602   6.394   1.069   5.599
 6235SOL     OW19603   1.030   6.493   1.241
 6235SOL    HW119604   1.103   6.499   1.309
 6235SOL    HW219605   1.036   6.405   1.193
 6236SOL     OW19606   0.490   3.740   0.891
 6236SOL    HW119607   0.555   3.728   0.816
 6236SOL    HW219608   0.484   3.837   0.915
 6237SOL     OW19609   3.110   6.940   6.439
 6237SOL    HW119610   3.184   6.872   6.444
 6237SOL    HW219611   3.042   6.920   6.509
 6238SOL     OW19612   3.897   4.802   2.638
 6238SOL    HW119613   3.981   4.757   2.608
 6238SOL    HW219614   3.898   4.810   2.738
 6239SOL     OW19615   2.340   0.306   1.492
 6239SOL    HW119616   2.311   0.211   1.476
 6239SOL    HW219617   2.262   0.360   1.523
 6240SOL     OW19618   2.009   3.070   5.554
 6240SOL    HW119619   1.927   3.111   5.592
 6240SOL    HW219620   2.079   3.140   5.540
 6241SOL     OW19621   3.578   6.894   1.842
 6241SOL    HW119622   3.540   6.980   1.878
 6241SOL    HW219623   3.625   6.846   1.916
 6242SOL     OW19624   4.625   0.633   3.871
 6242SOL    HW119625   4.704   0.687   3.844
 6242SOL    HW219626   4.543   0.669   3.827
 6243SOL     OW19627   6.012   6.064   4.119
 6243SOL    HW119628   5.968   6.080   4.207
 6243SOL    HW219629   5.948   6.084   4.045
 6244SOL     OW19630   6.912   2.436   1.636
 6244SOL    HW119631   7.009   2.462   1.631
 6244SOL    HW219632   6.898   2.349   1.590
 6245SOL     OW19633   1.586   4.163   0.509
 6245SOL    HW119634   1.571   4.159   0.608
 6245SOL    HW219635   1.681   4.141   0.489
 6246SOL     OW19636   2.136   1.918   5.758
 6246SOL    HW119637   2.147   1.882   5.665
 6246SOL    HW219638   2.046   1.961   5.766
 6247SOL     OW19639   0.253   6.318   4.737
 6247SOL    HW119640   0.269   6.335   4.834
 6247SOL    HW219641   0.340   6.316   4.688
 6248SOL     OW19642   3.663   3.063   0.706
 6248SOL    HW119643   3.609   2.980   0.691
 6248SOL    HW219644   3.681   3.074   0.804
 6249SOL     OW19645   0.802   3.928   0.738
 6249SOL    HW119646   0.723   3.869   0.722
 6249SOL    HW219647   0.848   3.900   0.822
 6250SOL     OW19648   6.794   0.034   0.235
 6250SOL    HW119649   6.742   7.011   0.305
 6250SOL    HW219650   6.892   0.017   0.249
 6251SOL     OW19651   4.167   5.517   6.268
 6251SOL    HW119652   4.199   5.494   6.177
 6251SOL    HW219653   4.082   5.468   6.287
 6252SOL     OW19654   1.933   6.294   5.499
 6252SOL    HW119655   1.903   6.222   5.561
 6252SOL    HW219656   1.866   6.368   5.498
 6253SOL     OW19657   2.284   4.162   3.657
 6253SOL    HW119658   2.202   4.105   3.660
 6253SOL    HW219659   2.278   4.224   3.579
 6254SOL     OW19660   5.235   1.558   1.431
 6254SOL    HW119661   5.153   1.532   1.379
 6254SOL    HW219662   5.259   1.652   1.409
 6255SOL     OW19663   3.472   0.361   1.001
 6255SOL    HW119664   3.513   0.450   1.018
 6255SOL    HW219665   3.415   0.335   1.079
 6256SOL     OW19666   3.366   5.328   1.733
 6256SOL    HW119667   3.333   5.292   1.646
 6256SOL    HW219668   3.324   5.417   1.750
 6257SOL     OW19669   4.779   1.942   0.921
 6257SOL    HW119670   4.730   2.007   0.980
 6257SOL    HW219671   4.768   1.970   0.826
 6258SOL     OW19672   3.531   0.476   3.648
 6258SOL    HW119673   3.594   0.399   3.641
 6258SOL    HW219674   3.581   0.559   3.671
 6259SOL     OW19675   2.152   2.408   7.012
 6259SOL    HW119676   2.222   2.461   6.964
 6259SOL    HW219677   2.115   2.463   0.063
 6260SOL     OW19678   3.025   5.383   0.123
 6260SOL    HW119679   3.108   5.436   0.137
 6260SOL    HW219680   3.036   5.324   0.043
 6261SOL     OW19681   3.667   1.168   6.938
 6261SOL    HW119682   3.600   1.111   6.985
 6261SOL    HW219683   3.673   1.257   6.983
 6262SOL     OW19684   2.734   6.531   1.383
 6262SOL    HW119685   2.775   6.447   1.347
 6262SOL    HW219686   2.724   6.523   1.483
 6263SOL     OW19687   6.902   0.825   5.704
 6263SOL    HW119688   6.808   0.847   5.679
 6263SOL    HW219689   6.953   0.801   5.621
 6264SOL     OW19690   1.554   0.074   1.934
 6264SOL    HW119691   1.479   0.098   1.873
 6264SOL    HW219692   1.517   0.028   2.015
 6265SOL     OW19693   3.670   3.463   0.345
 6265SOL    HW119694   3.714   3.515   0.271
 6265SOL    HW219695   3.740   3.420   0.402
 6266SOL     OW19696   3.903   0.966   4.755
 6266SOL    HW119697   3.906   0.990   4.852
 6266SOL    HW219698   3.904   1.050   4.700
 6267SOL     OW19699   2.195   6.967   6.314
 6267SOL    HW119700   2.180   0.012   6.385
 6267SOL    HW219701   2.203   6.877   6.356
 6268SOL     OW19702   2.452   0.034   3.280
 6268SOL    HW119703   2.523   0.092   3.319
 6268SOL    HW219704   2.374   0.090   3.254
 6269SOL     OW19705   6.961   6.599   1.938
 6269SOL    HW119706   7.003   6.636   2.021
 6269SOL    HW219707   0.006   6.591   1.867
 6270SOL     OW19708   1.979   6.943   5.805
 6270SOL    HW119709   1.932   6.873   5.860
 6270SOL    HW219710   1.968   0.008   5.849
 6271SOL     OW19711   6.584   2.474   6.398
 6271SOL    HW119712   6.580   2.571   6.422
 6271SOL    HW219713   6.623   2.423   6.475
 6272SOL     OW19714   0.498   3.054   7.017
 6272SOL    HW119715   0.446   3.069   6.933
 6272SOL    HW219716   0.443   3.083   0.071
 6273SOL     OW19717   1.254   6.740   2.587
 6273SOL    HW119718   1.309   6.769   2.509
 6273SOL    HW219719   1.287   6.652   2.621
 6274SOL     OW19720   3.219   5.459   5.680
 6274SOL    HW119721   3.291   5.499   5.623
 6274SOL    HW219722   3.261   5.406   5.754
 6275SOL     OW19723   2.336   6.049   6.276
 6275SOL    HW119724   2.402   6.124   6.277
 6275SOL    HW219725   2.336   6.005   6.186
 6276SOL     OW19726   1.362   4.225   3.229
 6276SOL    HW119727   1.294   4.177   3.174
 6276SOL    HW219728   1.397   4.164   3.300
 6277SOL     OW19729   5.359   4.048   2.080
 6277SOL    HW119730   5.271   4.091   2.098
 6277SOL    HW219731   5.384   4.062   1.985
 6278SOL     OW19732   4.911   5.816   4.734
 6278SOL    HW119733   4.956   5.849   4.816
 6278SOL    HW219734   4.890   5.719   4.744
 6279SOL     OW19735   3.707   6.926   6.782
 6279SOL    HW119736   3.753   6.896   6.866
 6279SOL    HW219737   3.632   6.863   6.761
 6280SOL     OW19738   0.948   2.341   5.099
 6280SOL    HW119739   0.904   2.253   5.084
 6280SOL    HW219740   0.926   2.375   5.191
 6281SOL     OW19741   0.983   5.245   4.105
 6281SOL    HW119742   0.990   5.333   4.153
 6281SOL    HW219743   0.983   5.171   4.172
 6282SOL     OW19744   0.849   6.188   5.256
 6282SOL    HW119745   0.779   6.181   5.327
 6282SOL    HW219746   0.911   6.263   5.278
 6283SOL     OW19747   6.208   3.331   5.402
 6283SOL    HW119748   6.307   3.326   5.418
 6283SOL    HW219749   6.169   3.403   5.458
 6284SOL     OW19750   0.825   5.426   4.792
 6284SOL    HW119751   0.739   5.377   4.805
 6284SOL    HW219752   0.832   5.500   4.858
 6285SOL     OW19753   0.322   3.845   4.787
 6285SOL    HW119754   0.393   3.793   4.834
 6285SOL    HW219755   0.235   3.797   4.795
 6286SOL     OW19756   5.807   1.534   3.593
 6286SOL    HW119757   5.770   1.502   3.680
 6286SOL    HW219758   5.792   1.632   3.585
 6287SOL     OW19759   3.696   4.939   4.554
 6287SOL    HW119760   3.780   4.905   4.596
 6287SOL    HW219761   3.718   4.984   4.468
 6288SOL     OW19762   5.245   4.312   3.006
 6288SOL    HW119763   5.269   4.226   2.961
 6288SOL    HW219764   5.319   4.340   3.067
 6289SOL     OW19765   1.905   4.770   1.185
 6289SOL    HW119766   1.922   4.774   1.284
 6289SOL    HW219767   1.977   4.819   1.137
 6290SOL     OW19768   6.383   5.061   5.579
 6290SOL    HW119769   6.368   5.158   5.600
 6290SOL    HW219770   6.455   5.025   5.638
 6291SOL     OW19771   4.102   3.444   4.522
 6291SOL    HW119772   4.014   3.399   4.539
 6291SOL    HW219773   4.161   3.431   4.602
 6292SOL     OW19774   1.509   2.134   4.543
 6292SOL    HW119775   1.462   2.193   4.477
 6292SOL    HW219776   1.574   2.076   4.495
 6293SOL     OW19777   3.304   0.921   0.530
 6293SOL    HW119778   3.220   0.963   0.565
 6293SOL    HW219779   3.375   0.991   0.521
 6294SOL     OW19780   3.604   6.212   4.067
 6294SOL    HW119781   3.522   6.221   4.010
 6294SOL    HW219782   3.623   6.115   4.083
 6295SOL     OW19783   5.522   4.793   6.260
 6295SOL    HW119784   5.434   4.751   6.282
 6295SOL    HW219785   5.509   4.891   6.247
 6296SOL     OW19786   0.585   6.641   5.871
 6296SOL    HW119787   0.582   6.698   5.953
 6296SOL    HW219788   0.648   6.681   5.805
 6297SOL     OW19789   5.420   0.450   3.917
 6297SOL    HW119790   5.380   0.507   3.988
 6297SOL    HW219791   5.359   0.373   3.897
 6298SOL     OW19792   1.465   2.746   0.047
 6298SOL    HW119793   1.430   2.776   6.982
 6298SOL    HW219794   1.475   2.826   0.106
 6299SOL     OW19795   5.875   1.984   0.387
 6299SOL    HW119796   5.924   2.052   0.442
 6299SOL    HW219797   5.890   2.002   0.290
 6300SOL     OW19798   6.097   0.517   0.350
 6300SOL    HW119799   6.078   0.610   0.380
 6300SOL    HW219800   6.049   0.453   0.410
 6301SOL     OW19801   3.831   6.830   7.005
 6301SOL    HW119802   3.828   6.914   0.034
 6301SOL    HW219803   3.789   6.756   0.033
 6302SOL     OW19804   1.798   0.745   3.065
 6302SOL    HW119805   1.842   0.787   2.986
 6302SOL    HW219806   1.793   0.811   3.140
 6303SOL     OW19807   2.070   1.377   4.097
 6303SOL    HW119808   2.104   1.403   4.187
 6303SOL    HW219809   2.013   1.450   4.061
 6304SOL     OW19810   2.425   0.589   1.374
 6304SOL    HW119811   2.383   0.519   1.432
 6304SOL    HW219812   2.515   0.612   1.411
 6305SOL     OW19813   6.833   7.023   1.321
 6305SOL    HW119814   6.816   6.967   1.240
 6305SOL    HW219815   6.854   6.963   1.399
 6306SOL     OW19816   0.507   4.324   3.843
 6306SOL    HW119817   0.530   4.239   3.890
 6306SOL    HW219818   0.429   4.367   3.887
 6307SOL     OW19819   3.665   4.282   5.256
 6307SOL    HW119820   3.644   4.185   5.268
 6307SOL    HW219821   3.584   4.337   5.275
 6308SOL     OW19822   2.283   2.254   4.557
 6308SOL    HW119823   2.307   2.306   4.475
 6308SOL    HW219824   2.237   2.314   4.623
 6309SOL     OW19825   5.746   4.436   5.341
 6309SOL    HW119826   5.727   4.394   5.252
 6309SOL    HW219827   5.790   4.525   5.327
 6310SOL     OW19828   2.105   6.107   2.650
 6310SOL    HW119829   2.165   6.035   2.685
 6310SOL    HW219830   2.089   6.091   2.552
 6311SOL     OW19831   4.933   1.244   6.192
 6311SOL    HW119832   4.902   1.200   6.277
 6311SOL    HW219833   4.876   1.213   6.116
 6312SOL     OW19834   6.368   6.093   5.521
 6312SOL    HW119835   6.446   6.113   5.462
 6312SOL    HW219836   6.309   6.026   5.476
 6313SOL     OW19837   0.376   6.373   4.987
 6313SOL    HW119838   0.328   6.344   5.069
 6313SOL    HW219839   0.358   6.470   4.969
 6314SOL     OW19840   4.042   6.910   1.832
 6314SOL    HW119841   4.002   6.920   1.741
 6314SOL    HW219842   3.970   6.891   1.899
 6315SOL     OW19843   2.064   2.556   5.339
 6315SOL    HW119844   2.040   2.639   5.391
 6315SOL    HW219845   2.063   2.478   5.401
 6316SOL     OW19846   5.035   1.726   0.019
 6316SOL    HW119847   4.988   1.640   7.020
 6316SOL    HW219848   5.090   1.755   6.965
 6317SOL     OW19849   4.301   5.162   1.566
 6317SOL    HW119850   4.219   5.139   1.619
 6317SOL    HW219851   4.276   5.219   1.488
 6318SOL     OW19852   3.787   0.998   5.411
 6318SOL    HW119853   3.801   0.966   5.505
 6318SOL    HW219854   3.702   0.959   5.375
 6319SOL     OW19855   6.346   1.299   4.834
 6319SOL    HW119856   6.417   1.347   4.783
 6319SOL    HW219857   6.258   1.311   4.789
 6320SOL     OW19858   5.931   6.395   5.162
 6320SOL    HW119859   6.015   6.343   5.147
 6320SOL    HW219860   5.929   6.475   5.102
 6321SOL     OW19861   3.483   2.944   1.317
 6321SOL    HW119862   3.422   2.961   1.395
 6321SOL    HW219863   3.492   3.028   1.263
 6322SOL     OW19864   1.778   2.481   0.757
 6322SOL    HW119865   1.876   2.467   0.745
 6322SOL    HW219866   1.739   2.517   0.673
 6323SOL     OW19867   3.010   2.664   1.753
 6323SOL    HW119868   2.920   2.657   1.711
 6323SOL    HW219869   3.017   2.597   1.828
 6324SOL     OW19870   5.205   0.410   6.827
 6324SOL    HW119871   5.253   0.441   6.909
 6324SOL    HW219872   5.212   0.310   6.820
 6325SOL     OW19873   1.862   2.168   2.354
 6325SOL    HW119874   1.876   2.133   2.261
 6325SOL    HW219875   1.920   2.248   2.368
 6326SOL     OW19876   4.601   5.030   1.964
 6326SOL    HW119877   4.693   5.063   1.940
 6326SOL    HW219878   4.581   5.054   2.059
 6327SOL     OW19879   6.442   0.743   4.942
 6327SOL    HW119880   6.537   0.775   4.942
 6327SOL    HW219881   6.401   0.762   4.853
 6328SOL     OW19882   3.250   3.319   0.546
 6328SOL    HW119883   3.304   3.354   0.470
 6328SOL    HW219884   3.264   3.220   0.556
 6329SOL     OW19885   2.114   2.345   3.471
 6329SOL    HW119886   2.070   2.303   3.550
 6329SOL    HW219887   2.045   2.394   3.417
 6330SOL     OW19888   5.246   0.915   1.106
 6330SOL    HW119889   5.229   0.892   1.201
 6330SOL    HW219890   5.186   0.990   1.078
 6331SOL     OW19891   6.525   3.069   5.524
 6331SOL    HW119892   6.456   3.037   5.590
 6331SOL    HW219893   6.524   3.009   5.444
 6332SOL     OW19894   7.021   3.495   0.847
 6332SOL    HW119895   0.076   3.498   0.907
 6332SOL    HW219896   6.961   3.420   0.874
 6333SOL     OW19897   4.575   5.867   4.864
 6333SOL    HW119898   4.485   5.844   4.900
 6333SOL    HW219899   4.645   5.817   4.915
 6334SOL     OW19900   2.956   0.364   2.258
 6334SOL    HW119901   2.985   0.460   2.255
 6334SOL    HW219902   2.869   0.354   2.210
 6335SOL     OW19903   3.376   0.558   0.320
 6335SOL    HW119904   3.303   0.620   0.345
 6335SOL    HW219905   3.411   0.582   0.230
 6336SOL     OW19906   0.651   2.042   5.745
 6336SOL    HW119907   0.623   2.083   5.832
 6336SOL    HW219908   0.743   2.075   5.721
 6337SOL     OW19909   5.153   4.864   5.683
 6337SOL    HW119910   5.071   4.845   5.629
 6337SOL    HW219911   5.192   4.777   5.715
 6338SOL     OW19912   3.268   1.843   4.554
 6338SOL    HW119913   3.208   1.806   4.484
 6338SOL    HW219914   3.363   1.816   4.534
 6339SOL     OW19915   1.221   3.560   3.193
 6339SOL    HW119916   1.260   3.628   3.131
 6339SOL    HW219917   1.230   3.592   3.288
 6340SOL     OW19918   1.505   5.147   2.506
 6340SOL    HW119919   1.419   5.166   2.554
 6340SOL    HW219920   1.491   5.071   2.443
 6341SOL     OW19921   0.743   4.284   4.408
 6341SOL    HW119922   0.676   4.213   4.430
 6341SOL    HW219923   0.703   4.374   4.424
 6342SOL     OW19924   2.010   1.481   1.804
 6342SOL    HW119925   2.070   1.406   1.832
 6342SOL    HW219926   2.050   1.527   1.724
 6343SOL     OW19927   4.856   2.419   6.742
 6343SOL    HW119928   4.869   2.321   6.722
 6343SOL    HW219929   4.944   2.466   6.735
 6344SOL     OW19930   5.685   2.858   4.355
 6344SOL    HW119931   5.714   2.864   4.260
 6344SOL    HW219932   5.700   2.946   4.400
 6345SOL     OW19933   5.822   2.952   2.106
 6345SOL    HW119934   5.868   3.039   2.093
 6345SOL    HW219935   5.748   2.943   2.039
 6346SOL     OW19936   6.700   5.274   4.034
 6346SOL    HW119937   6.704   5.198   4.099
 6346SOL    HW219938   6.657   5.243   3.949
 6347SOL     OW19939   1.817   6.993   0.284
 6347SOL    HW119940   1.910   0.005   0.284
 6347SOL    HW219941   1.760   0.019   0.219
 6348SOL     OW19942   0.897   3.761   5.377
 6348SOL    HW119943   0.973   3.709   5.415
 6348SOL    HW219944   0.913   3.859   5.391
 6349SOL     OW19945   2.134   0.423   1.262
 6349SOL    HW119946   2.124   0.437   1.361
 6349SOL    HW219947   2.228   0.392   1.243
 6350SOL     OW19948   0.773   5.555   4.067
 6350SOL    HW119949   0.811   5.489   4.003
 6350SOL    HW219950   0.677   5.531   4.087
 6351SOL     OW19951   6.529   3.972   3.796
 6351SOL    HW119952   6.514   4.008   3.705
 6351SOL    HW219953   6.625   3.946   3.806
 6352SOL     OW19954   4.102   6.299   4.936
 6352SOL    HW119955   4.066   6.359   4.864
 6352SOL    HW219956   4.187   6.257   4.905
 6353SOL     OW19957   0.664   6.821   6.080
 6353SOL    HW119958   0.752   6.836   6.034
 6353SOL    HW219959   0.677   6.824   6.179
 6354SOL     OW19960   2.184   5.593   2.598
 6354SOL    HW119961   2.236   5.532   2.658
 6354SOL    HW219962   2.137   5.662   2.653
 6355SOL     OW19963   0.843   5.313   6.862
 6355SOL    HW119964   0.769   5.381   6.862
 6355SOL    HW219965   0.803   5.222   6.856
 6356SOL     OW19966   4.550   5.564   1.920
 6356SOL    HW119967   4.452   5.553   1.936
 6356SOL    HW219968   4.565   5.634   1.851
 6357SOL     OW19969   6.232   3.485   3.228
 6357SOL    HW119970   6.177   3.514   3.149
 6357SOL    HW219971   6.286   3.404   3.203
 6358SOL     OW19972   0.618   2.277   6.382
 6358SOL    HW119973   0.525   2.307   6.404
 6358SOL    HW219974   0.615   2.187   6.337
 6359SOL     OW19975   5.872   6.842   6.906
 6359SOL    HW119976   5.910   6.931   6.931
 6359SOL    HW219977   5.945   6.775   6.902
 6360SOL     OW19978   1.463   4.333   3.548
 6360SOL    HW119979   1.381   4.380   3.516
 6360SOL    HW219980   1.469   4.342   3.648
 6361SOL     OW19981   0.870   0.005   1.607
 6361SOL    HW119982   0.822   0.000   1.519
 6361SOL    HW219983   0.823   0.068   1.668
 6362SOL     OW19984   6.564   6.005   0.254
 6362SOL    HW119985   6.578   6.074   0.182
 6362SOL    HW219986   6.649   5.954   0.267
 6363SOL     OW19987   1.520   4.991   3.385
 6363SOL    HW119988   1.561   5.069   3.433
 6363SOL    HW219989   1.565   4.907   3.415
 6364SOL     OW19990   2.912   0.999   5.777
 6364SOL    HW119991   2.874   0.963   5.861
 6364SOL    HW219992   2.924   0.925   5.711
 6365SOL     OW19993   5.564   0.318   4.115
 6365SOL    HW119994   5.505   0.371   4.054
 6365SOL    HW219995   5.653   0.364   4.123
 6366SOL     OW19996   0.895   6.110   6.062
 6366SOL    HW119997   0.864   6.024   6.022
 6366SOL    HW219998   0.819   6.157   6.106
 6367SOL     OW19999   4.463   1.407   5.533
 6367SOL    HW120000   4.459   1.457   5.619
 6367SOL    HW220001   4.510   1.463   5.464
 6368SOL     OW20002   3.770   4.933   3.880
 6368SOL    HW120003   3.761   5.001   3.807
 6368SOL    HW220004   3.845   4.958   3.941
 6369SOL     OW20005   2.343   5.486   3.282
 6369SOL    HW120006   2.308   5.413   3.224
 6369SOL    HW220007   2.298   5.482   3.372
 6370SOL     OW20008   0.157   3.003   3.644
 6370SOL    HW120009   0.239   3.010   3.587
 6370SOL    HW220010   0.117   3.094   3.654
 6371SOL     OW20011   5.127   4.628   3.841
 6371SOL    HW120012   5.191   4.551   3.844
 6371SOL    HW220013   5.071   4.621   3.758
 6372SOL     OW20014   1.906   0.745   1.795
 6372SOL    HW120015   1.993   0.773   1.834
 6372SOL    HW220016   1.895   0.787   1.705
 6373SOL     OW20017   4.963   3.803   2.702
 6373SOL    HW120018   4.958   3.749   2.618
 6373SOL    HW220019   4.913   3.757   2.775
 6374SOL     OW20020   3.122   4.096   3.648
 6374SOL    HW120021   3.106   4.184   3.604
 6374SOL    HW220022   3.113   4.023   3.581
 6375SOL     OW20023   0.161   2.149   3.791
 6375SOL    HW120024   0.113   2.207   3.725
 6375SOL    HW220025   0.122   2.057   3.788
 6376SOL     OW20026   5.986   2.192   4.639
 6376SOL    HW120027   5.911   2.257   4.633
 6376SOL    HW220028   5.972   2.118   4.573
 6377SOL     OW20029   6.301   1.930   5.250
 6377SOL    HW120030   6.293   1.924   5.151
 6377SOL    HW220031   6.301   1.838   5.289
 6378SOL     OW20032   4.190   5.525   4.031
 6378SOL    HW120033   4.268   5.518   4.092
 6378SOL    HW220034   4.194   5.612   3.981
 6379SOL     OW20035   1.505   3.621   4.288
 6379SOL    HW120036   1.555   3.707   4.276
 6379SOL    HW220037   1.523   3.561   4.210
 6380SOL     OW20038   0.450   1.766   5.443
 6380SOL    HW120039   0.490   1.696   5.383
 6380SOL    HW220040   0.396   1.721   5.514
 6381SOL     OW20041   3.915   3.230   1.661
 6381SOL    HW120042   3.991   3.170   1.685
 6381SOL    HW220043   3.829   3.178   1.664
 6382SOL     OW20044   1.809   2.077   1.036
 6382SOL    HW120045   1.820   1.978   1.043
 6382SOL    HW220046   1.743   2.108   1.105
 6383SOL     OW20047   1.697   2.109   2.577
 6383SOL    HW120048   1.754   2.043   2.625
 6383SOL    HW220049   1.742   2.136   2.492
 6384SOL     OW20050   6.088   4.315   2.100
 6384SOL    HW120051   6.024   4.260   2.046
 6384SOL    HW220052   6.180   4.305   2.062
 6385SOL     OW20053   0.358   4.513   3.990
 6385SOL    HW120054   0.269   4.515   3.943
 6385SOL    HW220055   0.410   4.595   3.965
 6386SOL     OW20056   2.298   4.670   6.057
 6386SOL    HW120057   2.276   4.762   6.089
 6386SOL    HW220058   2.213   4.619   6.042
 6387SOL     OW20059   6.897   2.046   6.352
 6387SOL    HW120060   6.875   1.950   6.335
 6387SOL    HW220061   6.981   2.070   6.303
 6388SOL     OW20062   3.624   5.359   1.780
 6388SOL    HW120063   3.526   5.347   1.797
 6388SOL    HW220064   3.660   5.430   1.840
 6389SOL     OW20065   0.909   5.837   2.159
 6389SOL    HW120066   0.969   5.915   2.140
 6389SOL    HW220067   0.886   5.836   2.256
 6390SOL     OW20068   1.127   1.157   6.008
 6390SOL    HW120069   1.099   1.251   5.986
 6390SOL    HW220070   1.226   1.148   5.995
 6391SOL     OW20071   2.725   6.865   6.003
 6391SOL    HW120072   2.710   6.963   5.990
 6391SOL    HW220073   2.789   6.850   6.078
 6392SOL     OW20074   2.766   5.315   2.404
 6392SOL    HW120075   2.692   5.250   2.390
 6392SOL    HW220076   2.731   5.397   2.449
 6393SOL     OW20077   6.911   6.899   2.451
 6393SOL    HW120078   6.892   6.990   2.414
 6393SOL    HW220079   6.933   6.837   2.376
 6394SOL     OW20080   1.956   5.162   0.527
 6394SOL    HW120081   1.920   5.250   0.559
 6394SOL    HW220082   2.052   5.153   0.555
 6395SOL     OW20083   0.135   2.158   0.661
 6395SOL    HW120084   0.067   2.143   0.732
 6395SOL    HW220085   0.146   2.075   0.606
 6396SOL     OW20086   4.563   3.000   5.926
 6396SOL    HW120087   4.467   3.005   5.898
 6396SOL    HW220088   4.595   3.092   5.949
 6397SOL     OW20089   5.862   2.078   0.122
 6397SOL    HW120090   5.951   2.032   0.116
 6397SOL    HW220091   5.844   2.126   0.037
 6398SOL     OW20092   2.188   6.790   1.756
 6398SOL    HW120093   2.173   6.776   1.658
 6398SOL    HW220094   2.213   6.702   1.798
 6399SOL     OW20095   1.174   6.268   6.795
 6399SOL    HW120096   1.204   6.274   6.700
 6399SOL    HW220097   1.214   6.344   6.847
 6400SOL     OW20098   2.376   6.385   2.421
 6400SOL    HW120099   2.467   6.404   2.382
 6400SOL    HW220100   2.312   6.456   2.391
 6401SOL     OW20101   5.834   4.820   3.208
 6401SOL    HW120102   5.737   4.828   3.230
 6401SOL    HW220103   5.878   4.910   3.218
 6402SOL     OW20104   3.394   1.834   3.324
 6402SOL    HW120105   3.440   1.907   3.273
 6402SOL    HW220106   3.306   1.813   3.281
 6403SOL     OW20107   6.641   6.167   0.050
 6403SOL    HW120108   6.617   6.256   0.013
 6403SOL    HW220109   6.610   6.095   7.011
 6404SOL     OW20110   4.220   1.582   1.962
 6404SOL    HW120111   4.193   1.670   1.921
 6404SOL    HW220112   4.142   1.520   1.960
 6405SOL     OW20113   2.925   0.307   3.846
 6405SOL    HW120114   2.847   0.264   3.892
 6405SOL    HW220115   2.932   0.403   3.874
 6406SOL     OW20116   0.506   2.656   3.096
 6406SOL    HW120117   0.581   2.610   3.144
 6406SOL    HW220118   0.468   2.595   3.027
 6407SOL     OW20119   2.637   6.026   4.618
 6407SOL    HW120120   2.632   6.124   4.597
 6407SOL    HW220121   2.545   5.988   4.624
 6408SOL     OW20122   5.652   1.969   6.986
 6408SOL    HW120123   5.684   2.009   0.048
 6408SOL    HW220124   5.651   2.040   6.915
 6409SOL     OW20125   0.048   4.805   3.763
 6409SOL    HW120126   7.003   4.842   3.701
 6409SOL    HW220127   0.031   4.838   3.856
 6410SOL     OW20128   1.602   1.652   0.095
 6410SOL    HW120129   1.626   1.703   0.012
 6410SOL    HW220130   1.565   1.562   0.069
 6411SOL     OW20131   1.049   2.612   3.023
 6411SOL    HW120132   1.076   2.706   3.004
 6411SOL    HW220133   0.974   2.611   3.090
 6412SOL     OW20134   0.614   2.498   5.226
 6412SOL    HW120135   0.612   2.398   5.229
 6412SOL    HW220136   0.568   2.536   5.306
 6413SOL     OW20137   4.311   4.691   4.115
 6413SOL    HW120138   4.249   4.754   4.162
 6413SOL    HW220139   4.365   4.641   4.182
 6414SOL     OW20140   5.674   1.186   0.687
 6414SOL    HW120141   5.609   1.262   0.687
 6414SOL    HW220142   5.655   1.125   0.610
 6415SOL     OW20143   2.024   2.975   2.939
 6415SOL    HW120144   1.959   2.933   2.876
 6415SOL    HW220145   2.117   2.947   2.914
 6416SOL     OW20146   0.934   1.221   6.463
 6416SOL    HW120147   0.980   1.229   6.552
 6416SOL    HW220148   1.000   1.236   6.390
 6417SOL     OW20149   6.568   5.177   1.259
 6417SOL    HW120150   6.525   5.250   1.313
 6417SOL    HW220151   6.649   5.213   1.212
 6418SOL     OW20152   4.765   4.213   1.912
 6418SOL    HW120153   4.812   4.289   1.957
 6418SOL    HW220154   4.667   4.218   1.930
 6419SOL     OW20155   2.297   4.670   3.339
 6419SOL    HW120156   2.301   4.759   3.293
 6419SOL    HW220157   2.232   4.676   3.415
 6420SOL     OW20158   3.383   5.077   4.741
 6420SOL    HW120159   3.481   5.090   4.758
 6420SOL    HW220160   3.332   5.150   4.786
 6421SOL     OW20161   4.986   0.463   2.922
 6421SOL    HW120162   4.978   0.559   2.948
 6421SOL    HW220163   5.079   0.444   2.890
 6422SOL     OW20164   0.217   0.929   4.479
 6422SOL    HW120165   0.203   0.833   4.503
 6422SOL    HW220166   0.141   0.984   4.512
 6423SOL     OW20167   4.771   5.505   2.931
 6423SOL    HW120168   4.770   5.502   3.031
 6423SOL    HW220169   4.865   5.502   2.898
 6424SOL     OW20170   6.801   5.931   6.108
 6424SOL    HW120171   6.760   5.957   6.021
 6424SOL    HW220172   6.729   5.896   6.169
 6425SOL     OW20173   6.465   6.633   2.867
 6425SOL    HW120174   6.492   6.728   2.883
 6425SOL    HW220175   6.539   6.585   2.819
 6426SOL     OW20176   1.260   5.168   2.644
 6426SOL    HW120177   1.190   5.099   2.666
 6426SOL    HW220178   1.338   5.156   2.705
 6427SOL     OW20179   3.539   3.170   4.627
 6427SOL    HW120180   3.561   3.082   4.586
 6427SOL    HW220181   3.468   3.158   4.696
 6428SOL     OW20182   5.775   3.594   6.306
 6428SOL    HW120183   5.813   3.657   6.238
 6428SOL    HW220184   5.684   3.626   6.334
 6429SOL     OW20185   1.904   1.834   6.213
 6429SOL    HW120186   1.943   1.863   6.301
 6429SOL    HW220187   1.828   1.770   6.229
 6430SOL     OW20188   6.211   1.201   2.307
 6430SOL    HW120189   6.115   1.211   2.280
 6430SOL    HW220190   6.235   1.276   2.369
 6431SOL     OW20191   5.158   0.001   3.727
 6431SOL    HW120192   5.076   6.983   3.687
 6431SOL    HW220193   5.228   0.010   3.657
 6432SOL     OW20194   4.039   4.158   6.625
 6432SOL    HW120195   4.129   4.125   6.595
 6432SOL    HW220196   4.027   4.253   6.596
 6433SOL     OW20197   2.539   4.717   6.509
 6433SOL    HW120198   2.445   4.728   6.478
 6433SOL    HW220199   2.579   4.807   6.528
 6434SOL     OW20200   2.360   4.176   6.937
 6434SOL    HW120201   2.266   4.206   6.921
 6434SOL    HW220202   2.421   4.222   6.872
 6435SOL     OW20203   4.897   6.899   0.186
 6435SOL    HW120204   4.972   6.838   0.210
 6435SOL    HW220205   4.896   6.977   0.249
 6436SOL     OW20206   2.199   3.055   3.164
 6436SOL    HW120207   2.260   2.976   3.157
 6436SOL    HW220208   2.124   3.045   3.099
 6437SOL     OW20209   2.303   2.002   0.537
 6437SOL    HW120210   2.332   1.915   0.496
 6437SOL    HW220211   2.377   2.038   0.595
 6438SOL     OW20212   6.574   4.855   6.303
 6438SOL    HW120213   6.482   4.819   6.320
 6438SOL    HW220214   6.641   4.792   6.341
 6439SOL     OW20215   5.657   1.257   1.735
 6439SOL    HW120216   5.755   1.259   1.751
 6439SOL    HW220217   5.628   1.164   1.712
 6440SOL     OW20218   2.403   1.575   6.273
 6440SOL    HW120219   2.400   1.479   6.244
 6440SOL    HW220220   2.346   1.630   6.211
 6441SOL     OW20221   0.037   6.112   2.289
 6441SOL    HW120222   7.007   6.169   2.351
 6441SOL    HW220223   0.101   6.169   2.238
 6442SOL     OW20224   2.240   0.670   4.690
 6442SOL    HW120225   2.239   0.626   4.600
 6442SOL    HW220226   2.332   0.664   4.729
 6443SOL     OW20227   3.940   2.489   5.372
 6443SOL    HW120228   4.023   2.530   5.333
 6443SOL    HW220229   3.899   2.427   5.305
 6444SOL     OW20230   6.447   2.780   3.984
 6444SOL    HW120231   6.353   2.800   4.013
 6444SOL    HW220232   6.506   2.856   4.007
 6445SOL     OW20233   3.936   3.377   5.313
 6445SOL    HW120234   4.035   3.377   5.326
 6445SOL    HW220235   3.897   3.458   5.356
 6446SOL     OW20236   1.498   0.972   6.496
 6446SOL    HW120237   1.563   1.036   6.538
 6446SOL    HW220238   1.426   0.950   6.561
 6447SOL     OW20239   5.395   5.250   3.081
 6447SOL    HW120240   5.407   5.158   3.044
 6447SOL    HW220241   5.394   5.316   3.006
 6448SOL     OW20242   4.026   5.576   1.987
 6448SOL    HW120243   4.068   5.635   1.918
 6448SOL    HW220244   3.945   5.532   1.947
 6449SOL     OW20245   3.403   4.892   0.283
 6449SOL    HW120246   3.401   4.909   0.381
 6449SOL    HW220247   3.344   4.959   0.236
 6450SOL     OW20248   0.919   3.953   1.058
 6450SOL    HW120249   0.862   4.034   1.073
 6450SOL    HW220250   0.863   3.879   1.022
 6451SOL     OW20251   2.794   0.444   4.683
 6451SOL    HW120252   2.870   0.390   4.646
 6451SOL    HW220253   2.811   0.541   4.665
 6452SOL     OW20254   3.890   6.755   4.221
 6452SOL    HW120255   3.960   6.691   4.252
 6452SOL    HW220256   3.853   6.804   4.299
 6453SOL     OW20257   2.367   6.182   1.169
 6453SOL    HW120258   2.423   6.167   1.088
 6453SOL    HW220259   2.425   6.177   1.251
 6454SOL     OW20260   2.061   1.761   3.549
 6454SOL    HW120261   2.038   1.855   3.527
 6454SOL    HW220262   1.994   1.699   3.505
 6455SOL     OW20263   0.467   2.738   3.822
 6455SOL    HW120264   0.451   2.653   3.872
 6455SOL    HW220265   0.461   2.720   3.724
 6456SOL     OW20266   1.202   0.923   3.475
 6456SOL    HW120267   1.214   0.826   3.458
 6456SOL    HW220268   1.130   0.937   3.543
 6457SOL     OW20269   5.068   1.749   0.804
 6457SOL    HW120270   5.025   1.719   0.889
 6457SOL    HW220271   5.091   1.846   0.811
 6458SOL     OW20272   0.445   6.576   3.867
 6458SOL    HW120273   0.421   6.673   3.859
 6458SOL    HW220274   0.370   6.520   3.832
 6459SOL     OW20275   6.116   3.773   0.378
 6459SOL    HW120276   6.046   3.778   0.449
 6459SOL    HW220277   6.073   3.781   0.288
 6460SOL     OW20278   5.220   6.234   6.122
 6460SOL    HW120279   5.173   6.182   6.051
 6460SOL    HW220280   5.184   6.328   6.124
 6461SOL     OW20281   2.363   4.968   5.749
 6461SOL    HW120282   2.434   5.031   5.718
 6461SOL    HW220283   2.273   5.010   5.736
 6462SOL     OW20284   2.592   2.449   4.494
 6462SOL    HW120285   2.587   2.377   4.425
 6462SOL    HW220286   2.569   2.537   4.452
 6463SOL     OW20287   6.370   3.650   6.535
 6463SOL    HW120288   6.428   3.579   6.495
 6463SOL    HW220289   6.422   3.736   6.540
 6464SOL     OW20290   1.299   5.920   4.454
 6464SOL    HW120291   1.300   5.908   4.354
 6464SOL    HW220292   1.320   5.832   4.497
 6465SOL     OW20293   6.738   3.099   2.852
 6465SOL    HW120294   6.831   3.093   2.889
 6465SOL    HW220295   6.743   3.123   2.755
 6466SOL     OW20296   1.348   1.517   6.249
 6466SOL    HW120297   1.298   1.593   6.208
 6466SOL    HW220298   1.402   1.471   6.179
 6467SOL     OW20299   3.061   1.473   0.264
 6467SOL    HW120300   3.098   1.508   0.179
 6467SOL    HW220301   3.009   1.390   0.246
 6468SOL     OW20302   3.763   6.082   0.333
 6468SOL    HW120303   3.688   6.125   0.384
 6468SOL    HW220304   3.844   6.139   0.337
 6469SOL     OW20305   5.230   1.123   4.723
 6469SOL    HW120306   5.230   1.220   4.747
 6469SOL    HW220307   5.221   1.113   4.624
 6470SOL     OW20308   6.003   3.992   0.662
 6470SOL    HW120309   6.086   4.035   0.627
 6470SOL    HW220310   6.027   3.911   0.716
 6471SOL     OW20311   6.328   6.900   5.870
 6471SOL    HW120312   6.329   6.962   5.792
 6471SOL    HW220313   6.263   6.825   5.851
 6472SOL     OW20314   0.485   5.939   1.066
 6472SOL    HW120315   0.502   5.964   1.161
 6472SOL    HW220316   0.386   5.928   1.053
 6473SOL     OW20317   3.621   0.762   4.705
 6473SOL    HW120318   3.628   0.673   4.660
 6473SOL    HW220319   3.706   0.813   4.693
 6474SOL     OW20320   2.043   4.609   6.003
 6474SOL    HW120321   2.021   4.576   6.095
 6474SOL    HW220322   2.028   4.535   5.937
 6475SOL     OW20323   6.378   5.012   3.871
 6475SOL    HW120324   6.337   5.009   3.780
 6475SOL    HW220325   6.308   5.038   3.938
 6476SOL     OW20326   4.554   3.534   0.925
 6476SOL    HW120327   4.488   3.602   0.889
 6476SOL    HW220328   4.553   3.536   1.025
 6477SOL     OW20329   6.513   4.677   1.494
 6477SOL    HW120330   6.526   4.692   1.592
 6477SOL    HW220331   6.595   4.634   1.456
 6478SOL     OW20332   3.370   0.228   2.253
 6478SOL    HW120333   3.453   0.253   2.204
 6478SOL    HW220334   3.372   0.131   2.276
 6479SOL     OW20335   4.102   5.875   4.141
 6479SOL    HW120336   4.156   5.812   4.085
 6479SOL    HW220337   4.010   5.839   4.153
 6480SOL     OW20338   2.675   2.074   5.846
 6480SOL    HW120339   2.660   2.162   5.891
 6480SOL    HW220340   2.761   2.077   5.796
 6481SOL     OW20341   3.819   1.901   1.787
 6481SOL    HW120342   3.838   1.854   1.873
 6481SOL    HW220343   3.826   2.000   1.800
 6482SOL     OW20344   0.277   0.871   6.418
 6482SOL    HW120345   0.272   0.783   6.369
 6482SOL    HW220346   0.255   0.857   6.514
 6483SOL     OW20347   0.778   6.243   1.506
 6483SOL    HW120348   0.739   6.291   1.428
 6483SOL    HW220349   0.806   6.309   1.576
 6484SOL     OW20350   3.465   6.652   1.539
 6484SOL    HW120351   3.418   6.704   1.610
 6484SOL    HW220352   3.398   6.603   1.483
 6485SOL     OW20353   1.992   4.798   3.750
 6485SOL    HW120354   1.894   4.799   3.734
 6485SOL    HW220355   2.040   4.840   3.672
 6486SOL     OW20356   2.381   4.803   3.677
 6486SOL    HW120357   2.324   4.858   3.615
 6486SOL    HW220358   2.468   4.782   3.632
 6487SOL     OW20359   0.028   6.661   4.874
 6487SOL    HW120360   6.994   6.737   4.844
 6487SOL    HW220361   0.124   6.682   4.853
 6488SOL     OW20362   4.029   6.367   4.109
 6488SOL    HW120363   4.090   6.428   4.160
 6488SOL    HW220364   3.964   6.324   4.172
 6489SOL     OW20365   2.906   2.637   6.715
 6489SOL    HW120366   2.829   2.574   6.722
 6489SOL    HW220367   2.926   2.675   6.805
 6490SOL     OW20368   4.134   1.187   6.495
 6490SOL    HW120369   4.149   1.271   6.546
 6490SOL    HW220370   4.137   1.206   6.397
 6491SOL     OW20371   3.343   0.698   0.655
 6491SOL    HW120372   3.442   0.694   0.665
 6491SOL    HW220373   3.318   0.781   0.605
 6492SOL     OW20374   4.734   5.143   0.407
 6492SOL    HW120375   4.817   5.088   0.407
 6492SOL    HW220376   4.703   5.156   0.313
 6493SOL     OW20377   1.361   5.160   5.014
 6493SOL    HW120378   1.406   5.150   4.925
 6493SOL    HW220379   1.355   5.256   5.038
 6494SOL     OW20380   0.107   0.782   3.355
 6494SOL    HW120381   0.132   0.761   3.260
 6494SOL    HW220382   0.078   0.877   3.361
 6495SOL     OW20383   5.343   6.786   4.475
 6495SOL    HW120384   5.280   6.817   4.546
 6495SOL    HW220385   5.299   6.714   4.420
 6496SOL     OW20386   6.809   0.663   3.238
 6496SOL    HW120387   6.733   0.665   3.303
 6496SOL    HW220388   6.793   0.732   3.167
 6497SOL     OW20389   2.156   2.729   0.955
 6497SOL    HW120390   2.110   2.715   1.043
 6497SOL    HW220391   2.124   2.814   0.913
 6498SOL     OW20392   2.205   4.046   3.361
 6498SOL    HW120393   2.188   4.057   3.263
 6498SOL    HW220394   2.261   4.122   3.394
 6499SOL     OW20395   5.006   2.866   4.989
 6499SOL    HW120396   4.997   2.872   5.089
 6499SOL    HW220397   4.938   2.802   4.953
 6500SOL     OW20398   6.993   4.332   3.986
 6500SOL    HW120399   6.901   4.360   4.012
 6500SOL    HW220400   6.988   4.250   3.929
 6501SOL     OW20401   6.769   2.411   6.596
 6501SOL    HW120402   6.742   2.495   6.644
 6501SOL    HW220403   6.763   2.334   6.659
 6502SOL     OW20404   5.909   2.813   1.594
 6502SOL    HW120405   5.940   2.773   1.680
 6502SOL    HW220406   5.927   2.750   1.519
 6503SOL     OW20407   4.620   1.507   3.036
 6503SOL    HW120408   4.620   1.409   3.054
 6503SOL    HW220409   4.614   1.524   2.938
 6504SOL     OW20410   4.912   5.897   5.823
 6504SOL    HW120411   4.884   5.854   5.737
 6504SOL    HW220412   4.854   5.976   5.841
 6505SOL     OW20413   5.506   6.050   1.592
 6505SOL    HW120414   5.557   6.122   1.637
 6505SOL    HW220415   5.408   6.073   1.590
 6506SOL     OW20416   6.519   2.556   1.806
 6506SOL    HW120417   6.434   2.507   1.785
 6506SOL    HW220418   6.501   2.624   1.877
 6507SOL     OW20419   2.187   5.053   5.395
 6507SOL    HW120420   2.284   5.063   5.372
 6507SOL    HW220421   2.142   4.997   5.325
 6508SOL     OW20422   1.232   0.897   2.706
 6508SOL    HW120423   1.183   0.818   2.741
 6508SOL    HW220424   1.182   0.980   2.730
 6509SOL     OW20425   2.884   1.928   4.734
 6509SOL    HW120426   2.791   1.931   4.697
 6509SOL    HW220427   2.895   1.847   4.791
 6510SOL     OW20428   6.652   4.936   6.855
 6510SOL    HW120429   6.613   4.952   6.764
 6510SOL    HW220430   6.679   4.840   6.863
 6511SOL     OW20431   4.414   1.274   4.444
 6511SOL    HW120432   4.489   1.291   4.379
 6511SOL    HW220433   4.443   1.303   4.535
 6512SOL     OW20434   4.888   6.211   1.947
 6512SOL    HW120435   4.814   6.231   1.882
 6512SOL    HW220436   4.967   6.268   1.925
 6513SOL     OW20437   3.060   5.326   3.299
 6513SOL    HW120438   2.981   5.314   3.359
 6513SOL    HW220439   3.135   5.367   3.351
 6514SOL     OW20440   5.724   1.167   4.032
 6514SOL    HW120441   5.637   1.179   4.080
 6514SOL    HW220442   5.729   1.074   3.995
 6515SOL     OW20443   0.481   4.958   4.780
 6515SOL    HW120444   0.553   5.013   4.738
 6515SOL    HW220445   0.503   4.942   4.877
 6516SOL     OW20446   0.149   3.367   1.503
 6516SOL    HW120447   0.228   3.412   1.546
 6516SOL    HW220448   0.162   3.367   1.403
 6517SOL     OW20449   6.118   0.050   0.839
 6517SOL    HW120450   6.099   6.977   0.854
 6517SOL    HW220451   6.126   0.067   0.741
 6518SOL     OW20452   0.002   6.711   6.590
 6518SOL    HW120453   0.007   6.622   6.545
 6518SOL    HW220454   0.053   6.778   6.536
 6519SOL     OW20455   1.771   1.244   3.572
 6519SOL    HW120456   1.798   1.148   3.563
 6519SOL    HW220457   1.819   1.285   3.649
 6520SOL     OW20458   5.505   5.598   2.595
 6520SOL    HW120459   5.517   5.544   2.679
 6520SOL    HW220460   5.594   5.629   2.562
 6521SOL     OW20461   2.305   2.903   4.343
 6521SOL    HW120462   2.362   2.848   4.405
 6521SOL    HW220463   2.209   2.880   4.358
 6522SOL     OW20464   4.045   4.578   0.446
 6522SOL    HW120465   4.089   4.625   0.369
 6522SOL    HW220466   4.069   4.625   0.532
 6523SOL     OW20467   4.164   1.443   6.561
 6523SOL    HW120468   4.097   1.487   6.621
 6523SOL    HW220469   4.139   1.459   6.466
 6524SOL     OW20470   2.892   4.054   1.696
 6524SOL    HW120471   2.796   4.078   1.683
 6524SOL    HW220472   2.931   4.025   1.609
 6525SOL     OW20473   2.048   4.775   2.361
 6525SOL    HW120474   2.121   4.805   2.422
 6525SOL    HW220475   2.071   4.797   2.266
 6526SOL     OW20476   2.072   6.639   6.739
 6526SOL    HW120477   2.077   6.546   6.701
 6526SOL    HW220478   2.017   6.638   6.822
 6527SOL     OW20479   0.806   2.431   4.705
 6527SOL    HW120480   0.897   2.460   4.734
 6527SOL    HW220481   0.737   2.489   4.748
 6528SOL     OW20482   6.694   0.822   4.993
 6528SOL    HW120483   6.719   0.829   4.897
 6528SOL    HW220484   6.760   0.874   5.048
 6529SOL     OW20485   1.234   1.571   2.462
 6529SOL    HW120486   1.184   1.564   2.376
 6529SOL    HW220487   1.324   1.610   2.446
 6530SOL     OW20488   7.023   3.747   0.424
 6530SOL    HW120489   6.936   3.778   0.460
 6530SOL    HW220490   0.000   3.647   0.422
 6531SOL     OW20491   5.730   2.906   5.123
 6531SOL    HW120492   5.699   2.860   5.040
 6531SOL    HW220493   5.829   2.910   5.124
 6532SOL     OW20494   6.325   0.753   0.155
 6532SOL    HW120495   6.347   0.850   0.153
 6532SOL    HW220496   6.328   0.721   0.250
 6533SOL     OW20497   4.672   0.035   1.541
 6533SOL    HW120498   4.744   0.017   1.608
 6533SOL    HW220499   4.686   0.125   1.499
 6534SOL     OW20500   3.362   4.322   1.256
 6534SOL    HW120501   3.383   4.232   1.294
 6534SOL    HW220502   3.312   4.311   1.170
 6535SOL     OW20503   6.144   4.129   4.334
 6535SOL    HW120504   6.140   4.164   4.241
 6535SOL    HW220505   6.236   4.096   4.353
 6536SOL     OW20506   1.217   1.457   5.653
 6536SOL    HW120507   1.118   1.444   5.644
 6536SOL    HW220508   1.236   1.553   5.674
 6537SOL     OW20509   6.698   5.255   0.188
 6537SOL    HW120510   6.659   5.198   0.116
 6537SOL    HW220511   6.794   5.275   0.167
 6538SOL     OW20512   2.644   3.093   6.547
 6538SOL    HW120513   2.564   3.123   6.599
 6538SOL    HW220514   2.719   3.076   6.610
 6539SOL     OW20515   3.585   0.876   6.140
 6539SOL    HW120516   3.583   0.776   6.138
 6539SOL    HW220517   3.492   0.911   6.127
 6540SOL     OW20518   4.605   1.730   5.272
 6540SOL    HW120519   4.530   1.736   5.338
 6540SOL    HW220520   4.642   1.638   5.272
 6541SOL     OW20521   4.742   1.508   5.535
 6541SOL    HW120522   4.829   1.460   5.543
 6541SOL    HW220523   4.733   1.547   5.443
 6542SOL     OW20524   6.322   4.485   4.231
 6542SOL    HW120525   6.356   4.573   4.197
 6542SOL    HW220526   6.399   4.424   4.247
 6543SOL     OW20527   5.785   3.474   5.805
 6543SOL    HW120528   5.738   3.416   5.872
 6543SOL    HW220529   5.823   3.554   5.852
 6544SOL     OW20530   0.538   6.063   2.671
 6544SOL    HW120531   0.627   6.022   2.691
 6544SOL    HW220532   0.512   6.042   2.577
 6545SOL     OW20533   4.733   1.884   0.279
 6545SOL    HW120534   4.756   1.932   0.195
 6545SOL    HW220535   4.785   1.923   0.355
 6546SOL     OW20536   3.676   4.335   6.797
 6546SOL    HW120537   3.722   4.408   6.745
 6546SOL    HW220538   3.623   4.376   6.871
 6547SOL     OW20539   4.628   1.596   5.764
 6547SOL    HW120540   4.667   1.575   5.674
 6547SOL    HW220541   4.701   1.623   5.827
 6548SOL     OW20542   0.996   4.496   6.956
 6548SOL    HW120543   0.955   4.435   0.000
 6548SOL    HW220544   1.072   4.449   6.911
 6549SOL     OW20545   4.695   1.023   1.244
 6549SOL    HW120546   4.667   0.929   1.225
 6549SOL    HW220547   4.789   1.024   1.277
 6550SOL     OW20548   0.599   6.886   4.158
 6550SOL    HW120549   0.568   6.791   4.155
 6550SOL    HW220550   0.522   6.947   4.139
 6551SOL     OW20551   1.082   4.921   2.700
 6551SOL    HW120552   1.026   4.871   2.633
 6551SOL    HW220553   1.098   4.863   2.779
 6552SOL     OW20554   1.969   6.697   5.687
 6552SOL    HW120555   1.971   6.792   5.716
 6552SOL    HW220556   1.881   6.677   5.644
 6553SOL     OW20557   0.199   1.907   3.105
 6553SOL    HW120558   0.195   1.820   3.153
 6553SOL    HW220559   0.125   1.967   3.138
 6554SOL     OW20560   6.516   0.972   5.354
 6554SOL    HW120561   6.428   1.014   5.330
 6554SOL    HW220562   6.515   0.876   5.328
 6555SOL     OW20563   0.212   2.170   2.060
 6555SOL    HW120564   0.150   2.214   2.125
 6555SOL    HW220565   0.305   2.173   2.096
 6556SOL     OW20566   5.078   4.397   4.767
 6556SOL    HW120567   5.005   4.426   4.829
 6556SOL    HW220568   5.162   4.446   4.789
 6557SOL     OW20569   3.530   6.124   1.392
 6557SOL    HW120570   3.606   6.126   1.328
 6557SOL    HW220571   3.465   6.054   1.366
 6558SOL     OW20572   6.232   4.802   0.315
 6558SOL    HW120573   6.233   4.900   0.337
 6558SOL    HW220574   6.249   4.791   0.217
 6559SOL     OW20575   1.073   4.305   6.085
 6559SOL    HW120576   1.023   4.373   6.138
 6559SOL    HW220577   1.167   4.299   6.119
 6560SOL     OW20578   4.270   5.364   1.017
 6560SOL    HW120579   4.316   5.294   0.962
 6560SOL    HW220580   4.329   5.391   1.093
 6561SOL     OW20581   3.772   4.083   1.929
 6561SOL    HW120582   3.808   4.173   1.954
 6561SOL    HW220583   3.790   4.065   1.833
 6562SOL     OW20584   5.658   4.084   1.190
 6562SOL    HW120585   5.659   4.063   1.092
 6562SOL    HW220586   5.588   4.028   1.235
 6563SOL     OW20587   6.072   6.789   0.591
 6563SOL    HW120588   6.004   6.716   0.591
 6563SOL    HW220589   6.069   6.837   0.503
 6564SOL     OW20590   7.010   4.046   3.003
 6564SOL    HW120591   6.946   3.972   3.024
 6564SOL    HW220592   0.056   4.012   2.940
 6565SOL     OW20593   6.781   2.892   3.825
 6565SOL    HW120594   6.776   2.804   3.872
 6565SOL    HW220595   6.828   2.880   3.737
 6566SOL     OW20596   3.550   6.160   2.680
 6566SOL    HW120597   3.542   6.153   2.779
 6566SOL    HW220598   3.646   6.162   2.654
 6567SOL     OW20599   4.009   1.434   1.554
 6567SOL    HW120600   3.994   1.499   1.628
 6567SOL    HW220601   3.954   1.352   1.570
 6568SOL     OW20602   4.222   0.699   3.941
 6568SOL    HW120603   4.299   0.724   3.999
 6568SOL    HW220604   4.176   0.782   3.909
 6569SOL     OW20605   3.025   3.864   6.924
 6569SOL    HW120606   3.002   3.910   6.839
 6569SOL    HW220607   3.005   3.925   7.001
 6570SOL     OW20608   3.820   0.162   2.376
 6570SOL    HW120609   3.903   0.153   2.320
 6570SOL    HW220610   3.835   0.229   2.448
 6571SOL     OW20611   2.692   5.646   2.311
 6571SOL    HW120612   2.716   5.592   2.392
 6571SOL    HW220613   2.677   5.741   2.337
 6572SOL     OW20614   6.541   5.181   5.975
 6572SOL    HW120615   6.461   5.206   5.920
 6572SOL    HW220616   6.532   5.086   6.005
 6573SOL     OW20617   2.654   1.622   2.007
 6573SOL    HW120618   2.580   1.575   2.055
 6573SOL    HW220619   2.665   1.714   2.045
 6574SOL     OW20620   3.694   5.821   3.075
 6574SOL    HW120621   3.706   5.725   3.098
 6574SOL    HW220622   3.603   5.835   3.035
 6575SOL     OW20623   1.358   0.562   2.054
 6575SOL    HW120624   1.313   0.601   1.973
 6575SOL    HW220625   1.289   0.523   2.115
 6576SOL     OW20626   2.461   5.897   6.554
 6576SOL    HW120627   2.419   5.988   6.546
 6576SOL    HW220628   2.475   5.859   6.463
 6577SOL     OW20629   0.950   1.075   3.979
 6577SOL    HW120630   0.934   0.983   3.943
 6577SOL    HW220631   1.027   1.118   3.930
 6578SOL     OW20632   1.183   4.258   2.974
 6578SOL    HW120633   1.170   4.240   2.876
 6578SOL    HW220634   1.127   4.336   3.001
 6579SOL     OW20635   0.080   3.432   5.258
 6579SOL    HW120636   7.013   3.471   5.270
 6579SOL    HW220637   0.147   3.506   5.257
 6580SOL     OW20638   6.641   2.124   0.677
 6580SOL    HW120639   6.680   2.213   0.654
 6580SOL    HW220640   6.570   2.101   0.610
 6581SOL     OW20641   2.396   1.381   0.117
 6581SOL    HW120642   2.405   1.301   0.176
 6581SOL    HW220643   2.305   1.421   0.129
 6582SOL     OW20644   1.373   1.282   1.477
 6582SOL    HW120645   1.422   1.202   1.513
 6582SOL    HW220646   1.315   1.321   1.548
 6583SOL     OW20647   3.421   6.946   4.671
 6583SOL    HW120648   3.433   6.847   4.686
 6583SOL    HW220649   3.326   6.971   4.690
 6584SOL     OW20650   4.445   1.866   0.348
 6584SOL    HW120651   4.534   1.852   0.304
 6584SOL    HW220652   4.378   1.892   0.278
 6585SOL     OW20653   6.692   6.496   0.241
 6585SOL    HW120654   6.593   6.487   0.230
 6585SOL    HW220655   6.719   6.589   0.216
 6586SOL     OW20656   6.601   1.689   5.443
 6586SOL    HW120657   6.624   1.592   5.436
 6586SOL    HW220658   6.680   1.740   5.475
 6587SOL     OW20659   2.630   6.038   4.998
 6587SOL    HW120660   2.607   6.103   4.926
 6587SOL    HW220661   2.727   6.016   4.993
 6588SOL     OW20662   1.285   3.953   2.034
 6588SOL    HW120663   1.296   3.908   1.945
 6588SOL    HW220664   1.249   3.888   2.100
 6589SOL     OW20665   4.970   0.481   0.818
 6589SOL    HW120666   5.042   0.548   0.838
 6589SOL    HW220667   4.883   0.513   0.857
 6590SOL     OW20668   1.010   0.850   5.032
 6590SOL    HW120669   0.929   0.897   5.068
 6590SOL    HW220670   1.044   0.900   4.952
 6591SOL     OW20671   5.427   6.042   1.907
 6591SOL    HW120672   5.396   6.113   1.969
 6591SOL    HW220673   5.510   5.999   1.944
 6592SOL     OW20674   5.913   6.890   4.051
 6592SOL    HW120675   5.908   6.983   4.015
 6592SOL    HW220676   5.878   6.889   4.145
 6593SOL     OW20677   2.811   1.787   2.767
 6593SOL    HW120678   2.812   1.703   2.822
 6593SOL    HW220679   2.750   1.854   2.809
 6594SOL     OW20680   3.728   1.961   0.153
 6594SOL    HW120681   3.677   2.040   0.118
 6594SOL    HW220682   3.769   1.912   0.076
 6595SOL     OW20683   1.048   3.395   0.340
 6595SOL    HW120684   0.987   3.474   0.347
 6595SOL    HW220685   1.054   3.367   0.244
 6596SOL     OW20686   3.221   6.443   4.282
 6596SOL    HW120687   3.293   6.501   4.321
 6596SOL    HW220688   3.253   6.348   4.281
 6597SOL     OW20689   2.945   5.675   2.510
 6597SOL    HW120690   3.044   5.666   2.503
 6597SOL    HW220691   2.916   5.644   2.601
 6598SOL     OW20692   1.132   6.798   4.178
 6598SOL    HW120693   1.056   6.733   4.178
 6598SOL    HW220694   1.204   6.765   4.240
 6599SOL     OW20695   5.037   0.013   5.521
 6599SOL    HW120696   5.041   6.948   5.567
 6599SOL    HW220697   5.117   0.025   5.463
 6600SOL     OW20698   5.064   5.201   6.147
 6600SOL    HW120699   5.051   5.232   6.052
 6600SOL    HW220700   4.975   5.196   6.192
 6601SOL     OW20701   1.021   1.870   5.517
 6601SOL    HW120702   0.973   1.814   5.450
 6601SOL    HW220703   1.095   1.919   5.472
 6602SOL     OW20704   0.692   1.326   1.423
 6602SOL    HW120705   0.766   1.259   1.419
 6602SOL    HW220706   0.695   1.383   1.341
 6603SOL     OW20707   0.692   2.897   3.868
 6603SOL    HW120708   0.675   2.992   3.842
 6603SOL    HW220709   0.610   2.842   3.849
 6604SOL     OW20710   2.089   6.720   1.214
 6604SOL    HW120711   2.097   6.811   1.172
 6604SOL    HW220712   2.019   6.668   1.166
 6605SOL     OW20713   5.552   3.980   1.493
 6605SOL    HW120714   5.651   3.980   1.505
 6605SOL    HW220715   5.518   4.074   1.499
 6606SOL     OW20716   6.811   6.232   2.439
 6606SOL    HW120717   6.729   6.197   2.482
 6606SOL    HW220718   6.787   6.276   2.352
 6607SOL     OW20719   1.220   3.073   2.702
 6607SOL    HW120720   1.286   2.998   2.693
 6607SOL    HW220721   1.146   3.061   2.636
 6608SOL     OW20722   6.261   6.691   1.587
 6608SOL    HW120723   6.351   6.702   1.546
 6608SOL    HW220724   6.208   6.624   1.535
 6609SOL     OW20725   4.840   1.335   5.836
 6609SOL    HW120726   4.790   1.312   5.752
 6609SOL    HW220727   4.799   1.416   5.877
 6610SOL     OW20728   2.236   0.583   6.970
 6610SOL    HW120729   2.208   0.650   6.902
 6610SOL    HW220730   2.227   0.623   0.037
 6611SOL     OW20731   6.329   3.150   3.833
 6611SOL    HW120732   6.419   3.153   3.790
 6611SOL    HW220733   6.340   3.156   3.932
 6612SOL     OW20734   6.296   1.717   6.591
 6612SOL    HW120735   6.333   1.719   6.498
 6612SOL    HW220736   6.292   1.810   6.627
 6613SOL     OW20737   6.485   6.555   5.151
 6613SOL    HW120738   6.459   6.639   5.199
 6613SOL    HW220739   6.530   6.578   5.065
 6614SOL     OW20740   5.519   5.916   1.100
 6614SOL    HW120741   5.556   5.936   1.010
 6614SOL    HW220742   5.524   5.818   1.118
 6615SOL     OW20743   1.181   4.616   2.335
 6615SOL    HW120744   1.260   4.646   2.389
 6615SOL    HW220745   1.115   4.690   2.330
 6616SOL     OW20746   3.589   1.363   6.168
 6616SOL    HW120747   3.688   1.347   6.177
 6616SOL    HW220748   3.543   1.338   6.253
 6617SOL     OW20749   3.824   5.190   2.780
 6617SOL    HW120750   3.738   5.238   2.760
 6617SOL    HW220751   3.862   5.223   2.866
 6618SOL     OW20752   0.948   2.807   2.672
 6618SOL    HW120753   0.991   2.801   2.763
 6618SOL    HW220754   0.961   2.721   2.623
 6619SOL     OW20755   5.971   0.169   4.219
 6619SOL    HW120756   5.905   0.107   4.261
 6619SOL    HW220757   5.995   0.241   4.284
 6620SOL     OW20758   1.483   2.669   5.779
 6620SOL    HW120759   1.553   2.724   5.733
 6620SOL    HW220760   1.516   2.575   5.790
 6621SOL     OW20761   2.193   3.113   6.107
 6621SOL    HW120762   2.253   3.114   6.027
 6621SOL    HW220763   2.249   3.106   6.190
 6622SOL     OW20764   5.885   0.125   1.420
 6622SOL    HW120765   5.842   0.209   1.454
 6622SOL    HW220766   5.856   0.109   1.325
 6623SOL     OW20767   2.365   3.046   6.291
 6623SOL    HW120768   2.462   3.055   6.311
 6623SOL    HW220769   2.346   2.953   6.259
 6624SOL     OW20770   0.666   5.829   4.837
 6624SOL    HW120771   0.764   5.847   4.852
 6624SOL    HW220772   0.655   5.756   4.771
 6625SOL     OW20773   5.215   1.855   5.619
 6625SOL    HW120774   5.246   1.802   5.698
 6625SOL    HW220775   5.115   1.859   5.619
 6626SOL     OW20776   4.756   5.467   5.647
 6626SOL    HW120777   4.836   5.454   5.705
 6626SOL    HW220778   4.785   5.478   5.552
 6627SOL     OW20779   2.357   7.020   5.342
 6627SOL    HW120780   2.395   0.083   5.312
 6627SOL    HW220781   2.305   0.010   5.426
 6628SOL     OW20782   4.661   4.314   4.714
 6628SOL    HW120783   4.706   4.331   4.626
 6628SOL    HW220784   4.715   4.250   4.768
 6629SOL     OW20785   4.415   5.963   0.244
 6629SOL    HW120786   4.484   5.893   0.227
 6629SOL    HW220787   4.447   6.026   0.315
 6630SOL     OW20788   4.051   1.148   1.329
 6630SOL    HW120789   4.039   1.227   1.268
 6630SOL    HW220790   4.145   1.147   1.363
 6631SOL     OW20791   2.493   5.856   2.869
 6631SOL    HW120792   2.529   5.918   2.799
 6631SOL    HW220793   2.477   5.907   2.954
 6632SOL     OW20794   0.405   6.167   1.480
 6632SOL    HW120795   0.453   6.252   1.502
 6632SOL    HW220796   0.316   6.166   1.525
 6633SOL     OW20797   0.736   4.225   6.563
 6633SOL    HW120798   0.764   4.245   6.469
 6633SOL    HW220799   0.643   4.187   6.562
 6634SOL     OW20800   6.333   2.169   4.008
 6634SOL    HW120801   6.264   2.204   3.944
 6634SOL    HW220802   6.299   2.179   4.102
 6635SOL     OW20803   4.111   4.766   3.058
 6635SOL    HW120804   4.098   4.858   3.021
 6635SOL    HW220805   4.073   4.699   2.995
 6636SOL     OW20806   4.788   2.415   5.574
 6636SOL    HW120807   4.692   2.443   5.569
 6636SOL    HW220808   4.803   2.361   5.656
 6637SOL     OW20809   1.406   0.248   6.427
 6637SOL    HW120810   1.448   0.158   6.418
 6637SOL    HW220811   1.456   0.314   6.371
 6638SOL     OW20812   3.249   3.823   4.140
 6638SOL    HW120813   3.265   3.745   4.200
 6638SOL    HW220814   3.234   3.791   4.047
 6639SOL     OW20815   5.776   4.910   6.572
 6639SOL    HW120816   5.799   4.926   6.476
 6639SOL    HW220817   5.838   4.962   6.630
 6640SOL     OW20818   1.181   1.809   5.280
 6640SOL    HW120819   1.200   1.896   5.326
 6640SOL    HW220820   1.094   1.814   5.233
 6641SOL     OW20821   2.200   2.182   0.133
 6641SOL    HW120822   2.182   2.251   0.063
 6641SOL    HW220823   2.297   2.159   0.133
 6642SOL     OW20824   3.336   4.989   6.342
 6642SOL    HW120825   3.420   5.012   6.294
 6642SOL    HW220826   3.286   4.919   6.290
 6643SOL     OW20827   6.123   5.292   0.239
 6643SOL    HW120828   6.144   5.337   0.326
 6643SOL    HW220829   6.098   5.197   0.256
 6644SOL     OW20830   2.579   4.757   2.035
 6644SOL    HW120831   2.673   4.722   2.028
 6644SOL    HW220832   2.515   4.682   2.018
 6645SOL     OW20833   6.633   5.098   0.437
 6645SOL    HW120834   6.562   5.057   0.379
 6645SOL    HW220835   6.675   5.175   0.389
 6646SOL     OW20836   4.152   0.087   5.098
 6646SOL    HW120837   4.169   0.169   5.043
 6646SOL    HW220838   4.060   0.053   5.081
 6647SOL     OW20839   4.508   0.823   2.115
 6647SOL    HW120840   4.563   0.773   2.048
 6647SOL    HW220841   4.418   0.780   2.123
 6648SOL     OW20842   3.882   6.809   2.387
 6648SOL    HW120843   3.905   6.714   2.367
 6648SOL    HW220844   3.783   6.823   2.378
 6649SOL     OW20845   5.623   0.701   6.815
 6649SOL    HW120846   5.532   0.661   6.805
 6649SOL    HW220847   5.635   0.734   6.909
 6650SOL     OW20848   3.206   1.360   5.018
 6650SOL    HW120849   3.279   1.413   4.975
 6650SOL    HW220850   3.129   1.353   4.955
 6651SOL     OW20851   2.023   1.534   6.052
 6651SOL    HW120852   2.059   1.501   5.965
 6651SOL    HW220853   2.076   1.612   6.083
 6652SOL     OW20854   0.118   4.201   0.599
 6652SOL    HW120855   0.142   4.114   0.557
 6652SOL    HW220856   0.059   4.185   0.678
 6653SOL     OW20857   3.401   2.844   2.250
 6653SOL    HW120858   3.324   2.891   2.207
 6653SOL    HW220859   3.373   2.809   2.339
 6654SOL     OW20860   1.945   3.539   1.659
 6654SOL    HW120861   1.927   3.441   1.650
 6654SOL    HW220862   2.001   3.569   1.582
 6655SOL     OW20863   1.648   6.822   2.621
 6655SOL    HW120864   1.627   6.909   2.666
 6655SOL    HW220865   1.720   6.836   2.553
 6656SOL     OW20866   6.035   2.056   2.302
 6656SOL    HW120867   6.132   2.071   2.287
 6656SOL    HW220868   6.001   2.119   2.372
 6657SOL     OW20869   5.852   6.361   6.660
 6657SOL    HW120870   5.765   6.355   6.612
 6657SOL    HW220871   5.880   6.456   6.668
 6658SOL     OW20872   6.081   0.966   5.246
 6658SOL    HW120873   6.018   1.002   5.315
 6658SOL    HW220874   6.040   0.975   5.155
 6659SOL     OW20875   2.153   2.857   0.502
 6659SOL    HW120876   2.239   2.902   0.477
 6659SOL    HW220877   2.169   2.759   0.515
 6660SOL     OW20878   1.052   5.725   0.532
 6660SOL    HW120879   1.033   5.642   0.583
 6660SOL    HW220880   0.967   5.760   0.491
 6661SOL     OW20881   1.062   6.677   4.687
 6661SOL    HW120882   0.978   6.689   4.635
 6661SOL    HW220883   1.131   6.632   4.630
 6662SOL     OW20884   0.958   1.171   0.205
 6662SOL    HW120885   0.990   1.111   0.279
 6662SOL    HW220886   0.960   1.266   0.237
 6663SOL     OW20887   0.297   5.649   3.881
 6663SOL    HW120888   0.223   5.629   3.946
 6663SOL    HW220889   0.289   5.589   3.802
 6664SOL     OW20890   2.822   6.217   0.158
 6664SOL    HW120891   2.774   6.130   0.146
 6664SOL    HW220892   2.844   6.255   0.068
 6665SOL     OW20893   1.455   6.638   4.030
 6665SOL    HW120894   1.503   6.639   4.118
 6665SOL    HW220895   1.413   6.727   4.014
 6666SOL     OW20896   5.319   6.945   5.973
 6666SOL    HW120897   5.268   7.006   5.912
 6666SOL    HW220898   5.345   6.995   6.056
 6667SOL     OW20899   6.444   5.845   6.653
 6667SOL    HW120900   6.443   5.925   6.593
 6667SOL    HW220901   6.420   5.764   6.599
 6668SOL     OW20902   6.914   5.938   1.639
 6668SOL    HW120903   6.992   5.950   1.700
 6668SOL    HW220904   6.886   6.027   1.603
 6669SOL     OW20905   1.885   2.447   3.689
 6669SOL    HW120906   1.790   2.479   3.679
 6669SOL    HW220907   1.946   2.526   3.691
 6670SOL     OW20908   3.980   2.615   5.628
 6670SOL    HW120909   4.009   2.529   5.670
 6670SOL    HW220910   3.972   2.602   5.529
 6671SOL     OW20911   5.915   5.637   1.419
 6671SOL    HW120912   5.845   5.706   1.437
 6671SOL    HW220913   5.967   5.620   1.502
 6672SOL     OW20914   6.841   1.719   5.966
 6672SOL    HW120915   6.840   1.628   6.006
 6672SOL    HW220916   6.770   1.727   5.896
 6673SOL     OW20917   5.240   5.691   3.804
 6673SOL    HW120918   5.328   5.665   3.845
 6673SOL    HW220919   5.195   5.610   3.768
 6674SOL     OW20920   0.858   5.010   5.778
 6674SOL    HW120921   0.830   4.991   5.872
 6674SOL    HW220922   0.793   4.968   5.714
 6675SOL     OW20923   4.924   3.480   1.833
 6675SOL    HW120924   4.988   3.511   1.903
 6675SOL    HW220925   4.965   3.405   1.781
 6676SOL     OW20926   6.840   4.353   5.380
 6676SOL    HW120927   6.823   4.410   5.461
 6676SOL    HW220928   6.757   4.346   5.326
 6677SOL     OW20929   0.712   1.858   6.092
 6677SOL    HW120930   0.630   1.845   6.037
 6677SOL    HW220931   0.733   1.774   6.142
 6678SOL     OW20932   3.059   3.296   6.714
 6678SOL    HW120933   2.970   3.304   6.760
 6678SOL    HW220934   3.128   3.346   6.766
 6679SOL     OW20935   2.421   1.825   3.599
 6679SOL    HW120936   2.381   1.738   3.630
 6679SOL    HW220937   2.349   1.895   3.594
 6680SOL     OW20938   4.375   0.316   6.478
 6680SOL    HW120939   4.364   0.380   6.555
 6680SOL    HW220940   4.334   0.228   6.502
 6681SOL     OW20941   4.375   5.608   0.577
 6681SOL    HW120942   4.323   5.602   0.492
 6681SOL    HW220943   4.443   5.534   0.580
 6682SOL     OW20944   1.237   4.446   3.461
 6682SOL    HW120945   1.145   4.407   3.449
 6682SOL    HW220946   1.243   4.532   3.410
 6683SOL     OW20947   6.016   2.928   5.365
 6683SOL    HW120948   6.062   2.911   5.452
 6683SOL    HW220949   6.055   2.869   5.294
 6684SOL     OW20950   2.593   6.758   1.389
 6684SOL    HW120951   2.525   6.769   1.316
 6684SOL    HW220952   2.651   6.679   1.369
 6685SOL     OW20953   5.950   3.395   6.240
 6685SOL    HW120954   5.869   3.449   6.260
 6685SOL    HW220955   5.923   3.302   6.215
 6686SOL     OW20956   5.530   5.940   4.611
 6686SOL    HW120957   5.599   6.002   4.647
 6686SOL    HW220958   5.539   5.851   4.655
 6687SOL     OW20959   0.938   3.131   0.430
 6687SOL    HW120960   0.972   3.217   0.390
 6687SOL    HW220961   0.886   3.151   0.512
 6688SOL     OW20962   6.986   4.409   1.520
 6688SOL    HW120963   0.021   4.407   1.440
 6688SOL    HW220964   6.925   4.329   1.518
 6689SOL     OW20965   4.584   3.112   0.093
 6689SOL    HW120966   4.564   3.035   0.033
 6689SOL    HW220967   4.542   3.195   0.056
 6690SOL     OW20968   2.572   1.011   1.144
 6690SOL    HW120969   2.615   1.075   1.080
 6690SOL    HW220970   2.602   0.918   1.122
 6691SOL     OW20971   2.910   6.329   1.344
 6691SOL    HW120972   2.910   6.235   1.310
 6691SOL    HW220973   2.990   6.343   1.403
 6692SOL     OW20974   4.100   3.699   5.459
 6692SOL    HW120975   4.011   3.680   5.500
 6692SOL    HW220976   4.094   3.783   5.405
 6693SOL     OW20977   4.338   4.019   5.437
 6693SOL    HW120978   4.249   4.005   5.393
 6693SOL    HW220979   4.411   4.005   5.369
 6694SOL     OW20980   4.770   5.241   0.670
 6694SOL    HW120981   4.770   5.233   0.570
 6694SOL    HW220982   4.826   5.167   0.709
 6695SOL     OW20983   2.794   1.320   6.608
 6695SOL    HW120984   2.889   1.343   6.588
 6695SOL    HW220985   2.767   1.240   6.555
 6696SOL     OW20986   1.101   3.023   5.953
 6696SOL    HW120987   1.034   3.094   5.973
 6696SOL    HW220988   1.181   3.035   6.012
 6697SOL     OW20989   4.515   2.295   2.306
 6697SOL    HW120990   4.587   2.363   2.292
 6697SOL    HW220991   4.538   2.239   2.386
 6698SOL     OW20992   2.998   2.624   1.348
 6698SOL    HW120993   2.973   2.571   1.429
 6698SOL    HW220994   2.930   2.610   1.276
 6699SOL     OW20995   2.976   5.406   5.874
 6699SOL    HW120996   3.054   5.396   5.814
 6699SOL    HW220997   2.892   5.389   5.823
 6700SOL     OW20998   6.987   6.799   0.550
 6700SOL    HW120999   7.009   6.713   0.505
 6700SOL    HW221000   7.015   6.795   0.646
 6701SOL     OW21001   5.446   2.847   1.608
 6701SOL    HW121002   5.496   2.762   1.622
 6701SOL    HW221003   5.505   2.925   1.630
 6702SOL     OW21004   2.754   2.136   1.754
 6702SOL    HW121005   2.807   2.151   1.670
 6702SOL    HW221006   2.717   2.224   1.786
 6703SOL     OW21007   6.432   2.105   6.363
 6703SOL    HW121008   6.518   2.120   6.315
 6703SOL    HW221009   6.436   2.148   6.453
 6704SOL     OW21010   3.408   2.057   3.064
 6704SOL    HW121011   3.322   2.044   3.015
 6704SOL    HW221012   3.470   2.112   3.008
 6705SOL     OW21013   6.643   2.027   1.074
 6705SOL    HW121014   6.580   2.084   1.022
 6705SOL    HW221015   6.729   2.077   1.089
 6706SOL     OW21016   1.503   3.697   2.075
 6706SOL    HW121017   1.525   3.770   2.010
 6706SOL    HW221018   1.587   3.664   2.117
 6707SOL     OW21019   7.008   6.178   3.737
 6707SOL    HW121020   7.002   6.153   3.641
 6707SOL    HW221021   6.984   6.099   3.794
 6708SOL     OW21022   6.818   5.314   2.238
 6708SOL    HW121023   6.786   5.306   2.143
 6708SOL    HW221024   6.904   5.365   2.239
 6709SOL     OW21025   2.872   6.848   2.166
 6709SOL    HW121026   2.871   6.847   2.266
 6709SOL    HW221027   2.786   6.887   2.132
 6710SOL     OW21028   3.044   1.185   5.424
 6710SOL    HW121029   3.006   1.240   5.498
 6710SOL    HW221030   3.119   1.236   5.380
 6711SOL     OW21031   4.968   5.240   0.072
 6711SOL    HW121032   4.984   5.143   0.051
 6711SOL    HW221033   5.043   5.274   0.129
 6712SOL     OW21034   4.834   4.778   7.022
 6712SOL    HW121035   4.807   4.820   6.936
 6712SOL    HW221036   4.763   4.792   0.066
 6713SOL     OW21037   2.547   0.749   2.141
 6713SOL    HW121038   2.596   0.726   2.225
 6713SOL    HW221039   2.476   0.680   2.124
 6714SOL     OW21040   6.291   1.124   6.598
 6714SOL    HW121041   6.307   1.193   6.669
 6714SOL    HW221042   6.226   1.056   6.632
 6715SOL     OW21043   7.010   0.057   6.195
 6715SOL    HW121044   6.979   0.083   6.286
 6715SOL    HW221045   0.002   6.983   6.192
 6716SOL     OW21046   0.515   5.724   1.909
 6716SOL    HW121047   0.549   5.630   1.906
 6716SOL    HW221048   0.525   5.767   1.819
 6717SOL     OW21049   4.290   2.419   0.414
 6717SOL    HW121050   4.255   2.508   0.386
 6717SOL    HW221051   4.364   2.432   0.481
 6718SOL     OW21052   4.827   0.267   6.318
 6718SOL    HW121053   4.877   0.341   6.272
 6718SOL    HW221054   4.844   0.181   6.270
 6719SOL     OW21055   1.603   6.807   6.505
 6719SOL    HW121056   1.575   6.893   6.463
 6719SOL    HW221057   1.703   6.806   6.516
 6720SOL     OW21058   0.636   5.968   3.649
 6720SOL    HW121059   0.564   5.901   3.667
 6720SOL    HW221060   0.601   6.061   3.665
 6721SOL     OW21061   6.212   0.535   5.925
 6721SOL    HW121062   6.189   0.611   5.986
 6721SOL    HW221063   6.307   0.507   5.941
 6722SOL     OW21064   6.994   3.614   1.327
 6722SOL    HW121065   6.926   3.685   1.311
 6722SOL    HW221066   6.982   3.539   1.262
 6723SOL     OW21067   1.950   6.747   3.216
 6723SOL    HW121068   1.926   6.840   3.191
 6723SOL    HW221069   2.048   6.741   3.232
 6724SOL     OW21070   1.041   3.824   5.698
 6724SOL    HW121071   1.068   3.733   5.667
 6724SOL    HW221072   0.951   3.846   5.661
 6725SOL     OW21073   1.333   4.029   1.057
 6725SOL    HW121074   1.426   4.062   1.075
 6725SOL    HW221075   1.333   3.976   0.972
 6726SOL     OW21076   0.779   2.123   5.045
 6726SOL    HW121077   0.743   2.081   4.962
 6726SOL    HW221078   0.705   2.174   5.090
 6727SOL     OW21079   6.225   3.840   6.064
 6727SOL    HW121080   6.259   3.855   5.971
 6727SOL    HW221081   6.289   3.779   6.112
 6728SOL     OW21082   4.150   1.413   3.835
 6728SOL    HW121083   4.121   1.467   3.914
 6728SOL    HW221084   4.234   1.364   3.857
 6729SOL     OW21085   0.044   1.670   2.533
 6729SOL    HW121086   0.102   1.616   2.471
 6729SOL    HW221087   0.023   1.758   2.491
 6730SOL     OW21088   2.720   6.164   6.759
 6730SOL    HW121089   2.809   6.150   6.803
 6730SOL    HW221090   2.729   6.148   6.661
 6731SOL     OW21091   1.108   5.355   1.319
 6731SOL    HW121092   1.087   5.452   1.331
 6731SOL    HW221093   1.203   5.338   1.343
 6732SOL     OW21094   4.667   4.906   5.861
 6732SOL    HW121095   4.590   4.961   5.894
 6732SOL    HW221096   4.747   4.966   5.850
 6733SOL     OW21097   4.015   4.900   0.471
 6733SOL    HW121098   3.951   4.895   0.394
 6733SOL    HW221099   4.044   4.995   0.485
 6734SOL     OW21100   6.569   2.489   4.799
 6734SOL    HW121101   6.527   2.505   4.889
 6734SOL    HW221102   6.551   2.567   4.740
 6735SOL     OW21103   6.993   4.810   4.643
 6735SOL    HW121104   0.043   4.811   4.575
 6735SOL    HW221105   6.909   4.846   4.601
 6736SOL     OW21106   3.431   3.903   0.036
 6736SOL    HW121107   3.405   3.935   6.969
 6736SOL    HW221108   3.379   3.953   0.105
 6737SOL     OW21109   2.066   2.965   0.748
 6737SOL    HW121110   2.103   3.054   0.723
 6737SOL    HW221111   2.097   2.897   0.681
 6738SOL     OW21112   1.890   4.158   2.994
 6738SOL    HW121113   1.830   4.133   3.070
 6738SOL    HW221114   1.883   4.090   2.921
 6739SOL     OW21115   3.740   4.929   5.880
 6739SOL    HW121116   3.678   4.964   5.950
 6739SOL    HW221117   3.695   4.928   5.791
 6740SOL     OW21118   1.764   1.335   4.151
 6740SOL    HW121119   1.808   1.409   4.100
 6740SOL    HW221120   1.690   1.296   4.096
 6741SOL     OW21121   4.274   1.173   5.858
 6741SOL    HW121122   4.298   1.262   5.897
 6741SOL    HW221123   4.197   1.134   5.909
 6742SOL     OW21124   6.490   6.035   2.949
 6742SOL    HW121125   6.469   6.124   2.990
 6742SOL    HW221126   6.405   5.989   2.923
 6743SOL     OW21127   4.350   4.565   0.591
 6743SOL    HW121128   4.359   4.640   0.526
 6743SOL    HW221129   4.425   4.569   0.657
 6744SOL     OW21130   5.432   6.056   6.094
 6744SOL    HW121131   5.355   6.104   6.136
 6744SOL    HW221132   5.477   6.000   6.164
 6745SOL     OW21133   0.347   6.758   2.372
 6745SOL    HW121134   0.440   6.786   2.348
 6745SOL    HW221135   0.346   6.661   2.394
 6746SOL     OW21136   0.660   1.258   3.025
 6746SOL    HW121137   0.682   1.276   2.929
 6746SOL    HW221138   0.685   1.337   3.080
 6747SOL     OW21139   5.476   0.520   4.952
 6747SOL    HW121140   5.546   0.564   5.009
 6747SOL    HW221141   5.385   0.539   4.990
 6748SOL     OW21142   1.224   0.019   3.433
 6748SOL    HW121143   1.281   7.022   3.354
 6748SOL    HW221144   1.128   0.022   3.405
 6749SOL     OW21145   2.725   5.952   0.193
 6749SOL    HW121146   2.658   5.910   0.132
 6749SOL    HW221147   2.757   5.884   0.259
 6750SOL     OW21148   4.553   1.283   5.126
 6750SOL    HW121149   4.508   1.288   5.037
 6750SOL    HW221150   4.606   1.198   5.133
 6751SOL     OW21151   3.644   1.268   3.369
 6751SOL    HW121152   3.642   1.193   3.436
 6751SOL    HW221153   3.602   1.349   3.409
 6752SOL     OW21154   7.006   3.112   2.926
 6752SOL    HW121155   7.012   3.211   2.912
 6752SOL    HW221156   0.060   3.067   2.882
 6753SOL     OW21157   4.110   1.207   6.240
 6753SOL    HW121158   4.102   1.175   6.146
 6753SOL    HW221159   4.179   1.279   6.245
 6754SOL     OW21160   6.725   1.343   0.115
 6754SOL    HW121161   6.741   1.377   0.022
 6754SOL    HW221162   6.808   1.302   0.150
 6755SOL     OW21163   4.474   1.617   3.279
 6755SOL    HW121164   4.404   1.608   3.209
 6755SOL    HW221165   4.564   1.622   3.235
 6756SOL     OW21166   4.120   5.042   4.693
 6756SOL    HW121167   4.085   4.967   4.749
 6756SOL    HW221168   4.044   5.101   4.664
 6757SOL     OW21169   4.263   0.175   1.484
 6757SOL    HW121170   4.224   0.087   1.458
 6757SOL    HW221171   4.356   0.182   1.450
 6758SOL     OW21172   0.075   3.192   0.788
 6758SOL    HW121173   0.026   3.191   0.701
 6758SOL    HW221174   0.022   3.241   0.856
 6759SOL     OW21175   1.053   4.130   4.763
 6759SOL    HW121176   1.061   4.229   4.777
 6759SOL    HW221177   1.024   4.111   4.669
 6760SOL     OW21178   6.730   5.082   4.210
 6760SOL    HW121179   6.714   5.138   4.291
 6760SOL    HW221180   6.663   5.008   4.206
 6761SOL     OW21181   6.383   2.369   6.246
 6761SOL    HW121182   6.294   2.335   6.274
 6761SOL    HW221183   6.439   2.387   6.327
 6762SOL     OW21184   6.711   5.415   3.381
 6762SOL    HW121185   6.676   5.389   3.291
 6762SOL    HW221186   6.673   5.505   3.406
 6763SOL     OW21187   6.736   5.511   3.848
 6763SOL    HW121188   6.775   5.449   3.780
 6763SOL    HW221189   6.711   5.459   3.930
 6764SOL     OW21190   3.179   5.215   6.254
 6764SOL    HW121191   3.138   5.159   6.181
 6764SOL    HW221192   3.238   5.157   6.310
 6765SOL     OW21193   4.838   5.011   3.857
 6765SOL    HW121194   4.920   4.959   3.878
 6765SOL    HW221195   4.780   5.016   3.938
 6766SOL     OW21196   4.255   6.714   6.669
 6766SOL    HW121197   4.340   6.710   6.617
 6766SOL    HW221198   4.274   6.746   6.762
 6767SOL     OW21199   1.093   2.673   0.782
 6767SOL    HW121200   1.117   2.582   0.749
 6767SOL    HW221201   0.993   2.685   0.777
 6768SOL     OW21202   0.230   6.361   3.789
 6768SOL    HW121203   0.178   6.439   3.825
 6768SOL    HW221204   0.169   6.283   3.777
 6769SOL     OW21205   2.902   0.730   5.410
 6769SOL    HW121206   2.910   0.701   5.314
 6769SOL    HW221207   2.978   0.791   5.433
 6770SOL     OW21208   6.731   1.866   3.038
 6770SOL    HW121209   6.694   1.774   3.052
 6770SOL    HW221210   6.715   1.895   2.944
 6771SOL     OW21211   3.830   1.176   2.893
 6771SOL    HW121212   3.882   1.183   2.808
 6771SOL    HW221213   3.745   1.126   2.875
 6772SOL     OW21214   5.421   2.446   2.733
 6772SOL    HW121215   5.373   2.432   2.819
 6772SOL    HW221216   5.389   2.380   2.665
 6773SOL     OW21217   6.853   6.820   1.504
 6773SOL    HW121218   6.758   6.789   1.504
 6773SOL    HW221219   6.914   6.742   1.487
 6774SOL     OW21220   2.157   2.419   4.758
 6774SOL    HW121221   2.198   2.510   4.753
 6774SOL    HW221222   2.058   2.428   4.771
 6775SOL     OW21223   0.400   1.938   3.605
 6775SOL    HW121224   0.495   1.971   3.604
 6775SOL    HW221225   0.359   1.955   3.694
 6776SOL     OW21226   4.121   3.230   1.373
 6776SOL    HW121227   4.070   3.145   1.381
 6776SOL    HW221228   4.123   3.259   1.278
 6777SOL     OW21229   4.271   5.710   0.880
 6777SOL    HW121230   4.328   5.632   0.907
 6777SOL    HW221231   4.311   5.756   0.801
 6778SOL     OW21232   6.260   3.408   2.663
 6778SOL    HW121233   6.245   3.506   2.677
 6778SOL    HW221234   6.199   3.355   2.722
 6779SOL     OW21235   5.406   4.852   6.717
 6779SOL    HW121236   5.476   4.799   6.669
 6779SOL    HW221237   5.401   4.944   6.678
 6780SOL     OW21238   1.969   3.481   2.949
 6780SOL    HW121239   1.891   3.460   2.889
 6780SOL    HW221240   1.990   3.400   3.004
 6781SOL     OW21241   6.734   1.460   3.650
 6781SOL    HW121242   6.786   1.377   3.668
 6781SOL    HW221243   6.705   1.461   3.555
 6782SOL     OW21244   0.789   1.035   3.360
 6782SOL    HW121245   0.831   0.945   3.370
 6782SOL    HW221246   0.861   1.104   3.347
 6783SOL     OW21247   0.827   3.967   4.902
 6783SOL    HW121248   0.768   3.982   4.822
 6783SOL    HW221249   0.919   3.998   4.881
 6784SOL     OW21250   2.062   4.139   1.954
 6784SOL    HW121251   2.162   4.138   1.948
 6784SOL    HW221252   2.028   4.045   1.949
 6785SOL     OW21253   5.532   5.487   5.884
 6785SOL    HW121254   5.443   5.518   5.851
 6785SOL    HW221255   5.561   5.407   5.832
 6786SOL     OW21256   6.869   3.084   6.390
 6786SOL    HW121257   6.887   3.081   6.488
 6786SOL    HW221258   6.776   3.115   6.373
 6787SOL     OW21259   3.197   2.202   1.513
 6787SOL    HW121260   3.197   2.236   1.607
 6787SOL    HW221261   3.152   2.112   1.510
 6788SOL     OW21262   0.206   4.300   2.418
 6788SOL    HW121263   0.154   4.378   2.452
 6788SOL    HW221264   0.298   4.300   2.458
 6789SOL     OW21265   0.034   4.414   4.336
 6789SOL    HW121266   7.015   4.366   4.412
 6789SOL    HW221267   7.022   4.380   4.250
 6790SOL     OW21268   0.405   4.112   6.716
 6790SOL    HW121269   0.398   4.135   6.813
 6790SOL    HW221270   0.417   4.196   6.663
 6791SOL     OW21271   4.130   1.903   3.404
 6791SOL    HW121272   4.230   1.896   3.411
 6791SOL    HW221273   4.098   1.844   3.330
 6792SOL     OW21274   4.473   0.333   5.412
 6792SOL    HW121275   4.517   0.286   5.489
 6792SOL    HW221276   4.374   0.331   5.424
 6793SOL     OW21277   3.505   1.792   6.968
 6793SOL    HW121278   3.603   1.786   6.949
 6793SOL    HW221279   3.473   1.886   6.954
 6794SOL     OW21280   4.640   1.202   5.618
 6794SOL    HW121281   4.564   1.260   5.586
 6794SOL    HW221282   4.701   1.183   5.542
 6795SOL     OW21283   1.002   6.872   6.999
 6795SOL    HW121284   1.068   6.878   0.050
 6795SOL    HW221285   0.909   6.867   0.012
 6796SOL     OW21286   5.635   0.437   2.454
 6796SOL    HW121287   5.707   0.427   2.385
 6796SOL    HW221288   5.677   0.464   2.541
 6797SOL     OW21289   6.619   1.451   0.533
 6797SOL    HW121290   6.552   1.444   0.607
 6797SOL    HW221291   6.710   1.466   0.571
 6798SOL     OW21292   6.363   0.582   1.215
 6798SOL    HW121293   6.415   0.588   1.301
 6798SOL    HW221294   6.304   0.663   1.206
 6799SOL     OW21295   5.373   0.570   2.529
 6799SOL    HW121296   5.335   0.488   2.572
 6799SOL    HW221297   5.464   0.549   2.493
 6800SOL     OW21298   2.168   2.394   1.518
 6800SOL    HW121299   2.225   2.342   1.582
 6800SOL    HW221300   2.224   2.464   1.473
 6801SOL     OW21301   0.382   6.680   3.596
 6801SOL    HW121302   0.476   6.711   3.605
 6801SOL    HW221303   0.345   6.708   3.508
 6802SOL     OW21304   3.784   5.836   0.462
 6802SOL    HW121305   3.764   5.920   0.411
 6802SOL    HW221306   3.802   5.762   0.398
 6803SOL     OW21307   4.540   3.499   0.299
 6803SOL    HW121308   4.565   3.428   0.232
 6803SOL    HW221309   4.441   3.498   0.313
 6804SOL     OW21310   3.428   5.125   2.647
 6804SOL    HW121311   3.381   5.086   2.568
 6804SOL    HW221312   3.503   5.064   2.674
 6805SOL     OW21313   0.792   5.169   0.261
 6805SOL    HW121314   0.700   5.180   0.223
 6805SOL    HW221315   0.860   5.205   0.198
 6806SOL     OW21316   6.951   0.664   4.288
 6806SOL    HW121317   0.003   0.642   4.227
 6806SOL    HW221318   6.887   0.588   4.290
 6807SOL     OW21319   3.734   4.109   3.681
 6807SOL    HW121320   3.696   4.135   3.770
 6807SOL    HW221321   3.666   4.126   3.610
 6808SOL     OW21322   5.862   0.755   4.931
 6808SOL    HW121323   5.812   0.675   4.965
 6808SOL    HW221324   5.949   0.726   4.892
 6809SOL     OW21325   5.935   4.107   1.036
 6809SOL    HW121326   6.004   4.048   1.078
 6809SOL    HW221327   5.882   4.054   0.969
 6810SOL     OW21328   3.631   0.982   2.928
 6810SOL    HW121329   3.572   1.041   2.984
 6810SOL    HW221330   3.582   0.898   2.905
 6811SOL     OW21331   6.655   3.231   1.797
 6811SOL    HW121332   6.717   3.192   1.864
 6811SOL    HW221333   6.664   3.331   1.798
 6812SOL     OW21334   3.497   3.702   4.811
 6812SOL    HW121335   3.509   3.777   4.746
 6812SOL    HW221336   3.448   3.627   4.767
 6813SOL     OW21337   5.726   3.472   2.714
 6813SOL    HW121338   5.713   3.452   2.617
 6813SOL    HW221339   5.758   3.390   2.762
 6814SOL     OW21340   4.871   1.596   6.569
 6814SOL    HW121341   4.841   1.506   6.601
 6814SOL    HW221342   4.969   1.593   6.550
 6815SOL     OW21343   1.145   5.664   6.582
 6815SOL    HW121344   1.080   5.658   6.507
 6815SOL    HW221345   1.232   5.622   6.555
 6816SOL     OW21346   6.770   1.519   4.523
 6816SOL    HW121347   6.727   1.605   4.551
 6816SOL    HW221348   6.800   1.526   4.428
 6817SOL     OW21349   2.523   2.557   3.979
 6817SOL    HW121350   2.613   2.517   3.996
 6817SOL    HW221351   2.505   2.628   4.047
 6818SOL     OW21352   2.260   6.450   6.978
 6818SOL    HW121353   2.258   6.362   0.001
 6818SOL    HW221354   2.343   6.456   6.922
 6819SOL     OW21355   4.421   0.270   2.628
 6819SOL    HW121356   4.403   0.294   2.724
 6819SOL    HW221357   4.334   0.256   2.581
 6820SOL     OW21358   1.335   5.732   1.741
 6820SOL    HW121359   1.401   5.661   1.716
 6820SOL    HW221360   1.296   5.710   1.830
 6821SOL     OW21361   4.686   2.771   6.007
 6821SOL    HW121362   4.612   2.834   5.983
 6821SOL    HW221363   4.772   2.806   5.972
 6822SOL     OW21364   6.913   2.758   6.366
 6822SOL    HW121365   6.815   2.760   6.385
 6822SOL    HW221366   6.930   2.801   6.277
 6823SOL     OW21367   5.011   4.403   6.473
 6823SOL    HW121368   5.000   4.371   6.567
 6823SOL    HW221369   4.922   4.422   6.433
 6824SOL     OW21370   1.565   1.702   0.352
 6824SOL    HW121371   1.538   1.610   0.379
 6824SOL    HW221372   1.575   1.706   0.252
 6825SOL     OW21373   6.362   5.962   0.648
 6825SOL    HW121374   6.391   5.909   0.568
 6825SOL    HW221375   6.301   6.036   0.618
 6826SOL     OW21376   0.786   3.483   3.732
 6826SOL    HW121377   0.784   3.566   3.676
 6826SOL    HW221378   0.732   3.412   3.688
 6827SOL     OW21379   5.005   5.442   5.813
 6827SOL    HW121380   5.065   5.381   5.762
 6827SOL    HW221381   5.060   5.502   5.872
 6828SOL     OW21382   3.681   1.436   2.621
 6828SOL    HW121383   3.765   1.490   2.614
 6828SOL    HW221384   3.617   1.484   2.681
 6829SOL     OW21385   5.337   0.239   5.143
 6829SOL    HW121386   5.241   0.268   5.145
 6829SOL    HW221387   5.358   0.201   5.053
 6830SOL     OW21388   5.930   1.079   3.690
 6830SOL    HW121389   6.024   1.113   3.692
 6830SOL    HW221390   5.877   1.130   3.623
 6831SOL     OW21391   1.452   0.987   6.023
 6831SOL    HW121392   1.413   0.898   6.047
 6831SOL    HW221393   1.413   1.058   6.083
 6832SOL     OW21394   2.500   3.576   0.319
 6832SOL    HW121395   2.453   3.660   0.292
 6832SOL    HW221396   2.492   3.508   0.246
 6833SOL     OW21397   3.394   5.363   5.854
 6833SOL    HW121398   3.487   5.401   5.854
 6833SOL    HW221399   3.398   5.266   5.879
 6834SOL     OW21400   5.443   0.253   0.907
 6834SOL    HW121401   5.473   0.285   0.997
 6834SOL    HW221402   5.352   0.212   0.915
 6835SOL     OW21403   3.932   1.548   4.964
 6835SOL    HW121404   4.013   1.593   4.927
 6835SOL    HW221405   3.853   1.568   4.906
 6836SOL     OW21406   2.147   4.352   6.151
 6836SOL    HW121407   2.163   4.390   6.243
 6836SOL    HW221408   2.071   4.287   6.154
 6837SOL     OW21409   0.397   1.058   2.985
 6837SOL    HW121410   0.342   1.048   3.068
 6837SOL    HW221411   0.479   1.001   2.992
 6838SOL     OW21412   2.268   4.460   5.298
 6838SOL    HW121413   2.337   4.423   5.360
 6838SOL    HW221414   2.202   4.388   5.274
 6839SOL     OW21415   5.734   1.786   3.498
 6839SOL    HW121416   5.649   1.795   3.551
 6839SOL    HW221417   5.745   1.866   3.439
 6840SOL     OW21418   2.610   6.261   5.474
 6840SOL    HW121419   2.591   6.164   5.461
 6840SOL    HW221420   2.566   6.314   5.401
 6841SOL     OW21421   3.843   4.625   1.188
 6841SOL    HW121422   3.845   4.720   1.157
 6841SOL    HW221423   3.930   4.604   1.234
 6842SOL     OW21424   1.877   2.535   6.740
 6842SOL    HW121425   1.929   2.615   6.712
 6842SOL    HW221426   1.855   2.542   6.838
 6843SOL     OW21427   5.071   1.063   1.636
 6843SOL    HW121428   5.009   1.083   1.711
 6843SOL    HW221429   5.127   1.143   1.615
 6844SOL     OW21430   5.359   5.942   4.251
 6844SOL    HW121431   5.315   5.890   4.325
 6844SOL    HW221432   5.425   5.884   4.204
 6845SOL     OW21433   5.110   4.167   2.494
 6845SOL    HW121434   5.181   4.157   2.425
 6845SOL    HW221435   5.104   4.263   2.522
 6846SOL     OW21436   4.246   2.810   1.394
 6846SOL    HW121437   4.290   2.898   1.413
 6846SOL    HW221438   4.180   2.789   1.466
 6847SOL     OW21439   6.062   3.898   1.658
 6847SOL    HW121440   6.063   3.801   1.681
 6847SOL    HW221441   5.968   3.927   1.638
 6848SOL     OW21442   2.414   6.226   3.500
 6848SOL    HW121443   2.448   6.226   3.406
 6848SOL    HW221444   2.338   6.162   3.508
 6849SOL     OW21445   3.187   5.691   4.248
 6849SOL    HW121446   3.135   5.768   4.211
 6849SOL    HW221447   3.220   5.634   4.172
 6850SOL     OW21448   5.562   3.136   2.705
 6850SOL    HW121449   5.553   3.036   2.702
 6850SOL    HW221450   5.570   3.165   2.801
 6851SOL     OW21451   1.382   3.345   4.685
 6851SOL    HW121452   1.455   3.400   4.645
 6851SOL    HW221453   1.419   3.291   4.761
 6852SOL     OW21454   1.233   4.654   1.098
 6852SOL    HW121455   1.248   4.689   1.006
 6852SOL    HW221456   1.238   4.554   1.096
 6853SOL     OW21457   6.667   3.707   6.926
 6853SOL    HW121458   6.735   3.775   6.897
 6853SOL    HW221459   6.685   3.620   6.881
 6854SOL     OW21460   5.703   0.973   6.072
 6854SOL    HW121461   5.660   1.000   5.986
 6854SOL    HW221462   5.798   1.004   6.072
 6855SOL     OW21463   3.353   6.087   2.257
 6855SOL    HW121464   3.262   6.078   2.216
 6855SOL    HW221465   3.413   6.136   2.193
 6856SOL     OW21466   4.766   4.526   5.470
 6856SOL    HW121467   4.805   4.530   5.562
 6856SOL    HW221468   4.667   4.513   5.476
 6857SOL     OW21469   3.333   1.584   6.852
 6857SOL    HW121470   3.320   1.591   6.753
 6857SOL    HW221471   3.411   1.641   6.879
 6858SOL     OW21472   4.122   3.724   4.702
 6858SOL    HW121473   4.119   3.661   4.624
 6858SOL    HW221474   4.128   3.672   4.787
 6859SOL     OW21475   1.659   6.382   1.343
 6859SOL    HW121476   1.741   6.366   1.288
 6859SOL    HW221477   1.661   6.322   1.424
 6860SOL     OW21478   5.519   5.494   2.000
 6860SOL    HW121479   5.472   5.520   2.084
 6860SOL    HW221480   5.547   5.398   2.006
 6861SOL     OW21481   5.448   4.250   1.481
 6861SOL    HW121482   5.358   4.285   1.455
 6861SOL    HW221483   5.515   4.324   1.475
 6862SOL     OW21484   2.295   4.339   4.593
 6862SOL    HW121485   2.309   4.318   4.496
 6862SOL    HW221486   2.383   4.356   4.636
 6863SOL     OW21487   5.564   1.482   4.536
 6863SOL    HW121488   5.530   1.517   4.623
 6863SOL    HW221489   5.638   1.541   4.502
 6864SOL     OW21490   3.464   5.915   3.745
 6864SOL    HW121491   3.377   5.871   3.724
 6864SOL    HW221492   3.450   5.982   3.817
 6865SOL     OW21493   6.302   5.881   2.845
 6865SOL    HW121494   6.252   5.819   2.904
 6865SOL    HW221495   6.242   5.914   2.772
 6866SOL     OW21496   6.550   4.391   2.248
 6866SOL    HW121497   6.594   4.304   2.268
 6866SOL    HW221498   6.450   4.380   2.253
 6867SOL     OW21499   1.442   4.815   1.476
 6867SOL    HW121500   1.507   4.816   1.400
 6867SOL    HW221501   1.472   4.748   1.544
 6868SOL     OW21502   1.683   5.151   5.143
 6868SOL    HW121503   1.671   5.069   5.088
 6868SOL    HW221504   1.765   5.200   5.114
 6869SOL     OW21505   5.897   2.485   5.277
 6869SOL    HW121506   5.906   2.393   5.314
 6869SOL    HW221507   5.957   2.495   5.197
 6870SOL     OW21508   6.628   3.697   2.319
 6870SOL    HW121509   6.575   3.613   2.312
 6870SOL    HW221510   6.707   3.693   2.258
 6871SOL     OW21511   6.145   5.114   2.429
 6871SOL    HW121512   6.156   5.070   2.340
 6871SOL    HW221513   6.175   5.052   2.501
 6872SOL     OW21514   1.656   3.555   0.792
 6872SOL    HW121515   1.681   3.467   0.832
 6872SOL    HW221516   1.677   3.555   0.695
 6873SOL     OW21517   5.789   3.634   4.908
 6873SOL    HW121518   5.800   3.628   5.008
 6873SOL    HW221519   5.737   3.716   4.885
 6874SOL     OW21520   0.514   4.484   3.186
 6874SOL    HW121521   0.610   4.487   3.160
 6874SOL    HW221522   0.473   4.398   3.155
 6875SOL     OW21523   1.483   2.757   3.448
 6875SOL    HW121524   1.533   2.837   3.482
 6875SOL    HW221525   1.503   2.744   3.350
 6876SOL     OW21526   4.110   5.262   5.768
 6876SOL    HW121527   4.065   5.325   5.832
 6876SOL    HW221528   4.167   5.314   5.705
 6877SOL     OW21529   2.323   4.157   6.118
 6877SOL    HW121530   2.248   4.223   6.122
 6877SOL    HW221531   2.337   4.127   6.024
 6878SOL     OW21532   2.174   2.160   5.356
 6878SOL    HW121533   2.238   2.135   5.428
 6878SOL    HW221534   2.108   2.227   5.391
 6879SOL     OW21535   1.145   1.745   0.023
 6879SOL    HW121536   1.052   1.780   0.035
 6879SOL    HW221537   1.142   1.646   0.013
 6880SOL     OW21538   2.035   3.242   5.198
 6880SOL    HW121539   2.126   3.280   5.213
 6880SOL    HW221540   2.038   3.143   5.213
 6881SOL     OW21541   6.868   3.661   2.166
 6881SOL    HW121542   6.910   3.732   2.224
 6881SOL    HW221543   6.847   3.700   2.076
 6882SOL     OW21544   3.024   0.209   5.990
 6882SOL    HW121545   2.938   0.249   6.021
 6882SOL    HW221546   3.096   0.279   5.993
 6883SOL     OW21547   3.651   1.318   1.306
 6883SOL    HW121548   3.653   1.228   1.351
 6883SOL    HW221549   3.586   1.314   1.229
 6884SOL     OW21550   1.726   3.412   4.308
 6884SOL    HW121551   1.683   3.448   4.225
 6884SOL    HW221552   1.677   3.446   4.388
 6885SOL     OW21553   3.858   5.734   4.866
 6885SOL    HW121554   3.766   5.753   4.831
 6885SOL    HW221555   3.917   5.812   4.851
 6886SOL     OW21556   0.161   0.665   2.938
 6886SOL    HW121557   0.256   0.698   2.938
 6886SOL    HW221558   0.159   0.570   2.905
 6887SOL     OW21559   4.875   0.248   5.596
 6887SOL    HW121560   4.903   0.156   5.570
 6887SOL    HW221561   4.779   0.247   5.626
 6888SOL     OW21562   5.623   6.594   6.654
 6888SOL    HW121563   5.665   6.666   6.598
 6888SOL    HW221564   5.533   6.571   6.617
 6889SOL     OW21565   1.094   2.284   6.200
 6889SOL    HW121566   1.158   2.350   6.240
 6889SOL    HW221567   1.144   2.209   6.158
 6890SOL     OW21568   3.494   6.124   1.650
 6890SOL    HW121569   3.427   6.054   1.674
 6890SOL    HW221570   3.516   6.117   1.552
 6891SOL     OW21571   2.159   3.697   4.646
 6891SOL    HW121572   2.137   3.601   4.627
 6891SOL    HW221573   2.184   3.707   4.742
 6892SOL     OW21574   3.204   0.676   3.341
 6892SOL    HW121575   3.282   0.735   3.321
 6892SOL    HW221576   3.127   0.701   3.283
 6893SOL     OW21577   5.444   6.055   1.320
 6893SOL    HW121578   5.505   6.057   1.399
 6893SOL    HW221579   5.482   5.996   1.249
 6894SOL     OW21580   6.194   5.386   7.012
 6894SOL    HW121581   6.199   5.355   0.082
 6894SOL    HW221582   6.101   5.377   6.978
 6895SOL     OW21583   2.821   5.187   6.697
 6895SOL    HW121584   2.835   5.091   6.720
 6895SOL    HW221585   2.751   5.226   6.757
 6896SOL     OW21586   2.624   6.759   4.101
 6896SOL    HW121587   2.647   6.833   4.164
 6896SOL    HW221588   2.697   6.750   4.033
 6897SOL     OW21589   1.989   3.675   0.191
 6897SOL    HW121590   2.058   3.652   0.123
 6897SOL    HW221591   1.933   3.751   0.158
 6898SOL     OW21592   3.566   1.614   2.054
 6898SOL    HW121593   3.558   1.637   2.151
 6898SOL    HW221594   3.482   1.638   2.007
 6899SOL     OW21595   4.981   0.174   0.928
 6899SOL    HW121596   5.022   0.248   0.875
 6899SOL    HW221597   4.888   0.157   0.895
 6900SOL     OW21598   5.935   0.724   6.123
 6900SOL    HW121599   5.958   0.821   6.125
 6900SOL    HW221600   5.884   0.703   6.040
 6901SOL     OW21601   0.844   0.364   6.057
 6901SOL    HW121602   0.930   0.350   6.007
 6901SOL    HW221603   0.769   0.376   5.991
 6902SOL     OW21604   6.911   6.168   0.731
 6902SOL    HW121605   6.924   6.243   0.667
 6902SOL    HW221606   6.978   6.175   0.805
 6903SOL     OW21607   4.202   4.971   5.545
 6903SOL    HW121608   4.289   4.937   5.509
 6903SOL    HW221609   4.182   4.926   5.632
 6904SOL     OW21610   5.986   1.505   4.089
 6904SOL    HW121611   6.073   1.456   4.099
 6904SOL    HW221612   5.998   1.600   4.116
 6905SOL     OW21613   6.234   6.562   0.513
 6905SOL    HW121614   6.201   6.652   0.542
 6905SOL    HW221615   6.288   6.572   0.429
 6906SOL     OW21616   3.961   0.802   3.599
 6906SOL    HW121617   3.989   0.830   3.690
 6906SOL    HW221618   3.968   0.879   3.536
 6907SOL     OW21619   5.089   1.210   1.215
 6907SOL    HW121620   5.181   1.236   1.186
 6907SOL    HW221621   5.091   1.120   1.258
 6908SOL     OW21622   1.084   6.700   5.416
 6908SOL    HW121623   1.013   6.717   5.485
 6908SOL    HW221624   1.107   6.786   5.370
 6909SOL     OW21625   5.283   4.837   1.778
 6909SOL    HW121626   5.300   4.827   1.876
 6909SOL    HW221627   5.352   4.897   1.738
 6910SOL     OW21628   6.662   2.676   3.410
 6910SOL    HW121629   6.592   2.648   3.476
 6910SOL    HW221630   6.751   2.639   3.438
 6911SOL     OW21631   4.072   0.072   3.256
 6911SOL    HW121632   4.130   0.094   3.178
 6911SOL    HW221633   4.122   0.012   3.319
 6912SOL     OW21634   4.608   4.728   1.228
 6912SOL    HW121635   4.604   4.658   1.299
 6912SOL    HW221636   4.567   4.813   1.260
 6913SOL     OW21637   4.885   5.100   5.836
 6913SOL    HW121638   4.945   5.140   5.766
 6913SOL    HW221639   4.827   5.171   5.875
 6914SOL     OW21640   6.208   4.767   0.058
 6914SOL    HW121641   6.226   4.808   6.993
 6914SOL    HW221642   6.180   4.672   0.046
 6915SOL     OW21643   6.593   4.672   1.751
 6915SOL    HW121644   6.689   4.671   1.780
 6915SOL    HW221645   6.543   4.601   1.801
 6916SOL     OW21646   5.926   4.054   0.301
 6916SOL    HW121647   6.026   4.045   0.301
 6916SOL    HW221648   5.885   3.969   0.270
 6917SOL     OW21649   3.187   5.375   0.597
 6917SOL    HW121650   3.151   5.442   0.661
 6917SOL    HW221651   3.120   5.360   0.523
 6918SOL     OW21652   1.113   3.298   4.639
 6918SOL    HW121653   1.208   3.319   4.662
 6918SOL    HW221654   1.107   3.271   4.543
 6919SOL     OW21655   0.386   5.782   3.348
 6919SOL    HW121656   0.317   5.827   3.405
 6919SOL    HW221657   0.393   5.830   3.261
 6920SOL     OW21658   4.485   6.200   5.956
 6920SOL    HW121659   4.502   6.199   6.055
 6920SOL    HW221660   4.403   6.253   5.937
 6921SOL     OW21661   4.792   5.470   3.244
 6921SOL    HW121662   4.764   5.376   3.265
 6921SOL    HW221663   4.727   5.534   3.286
 6922SOL     OW21664   1.382   5.852   6.768
 6922SOL    HW121665   1.380   5.833   6.670
 6922SOL    HW221666   1.448   5.925   6.785
 6923SOL     OW21667   5.411   6.392   3.555
 6923SOL    HW121668   5.431   6.422   3.649
 6923SOL    HW221669   5.497   6.382   3.505
 6924SOL     OW21670   0.776   4.157   6.869
 6924SOL    HW121671   0.864   4.125   6.904
 6924SOL    HW221672   0.750   4.241   6.916
 6925SOL     OW21673   3.651   6.608   4.175
 6925SOL    HW121674   3.721   6.656   4.227
 6925SOL    HW221675   3.566   6.606   4.228
 6926SOL     OW21676   2.976   3.267   2.985
 6926SOL    HW121677   2.937   3.184   3.025
 6926SOL    HW221678   3.075   3.268   2.999
 6927SOL     OW21679   5.266   4.325   5.796
 6927SOL    HW121680   5.340   4.279   5.747
 6927SOL    HW221681   5.273   4.306   5.894
 6928SOL     OW21682   6.553   6.484   0.811
 6928SOL    HW121683   6.479   6.535   0.856
 6928SOL    HW221684   6.542   6.386   0.829
 6929SOL     OW21685   4.883   5.638   1.170
 6929SOL    HW121686   4.841   5.707   1.229
 6929SOL    HW221687   4.878   5.669   1.075
 6930SOL     OW21688   6.958   7.018   1.734
 6930SOL    HW121689   0.015   6.962   1.721
 6930SOL    HW221690   6.884   6.983   1.676
 6931SOL     OW21691   1.515   0.634   2.311
 6931SOL    HW121692   1.432   0.624   2.367
 6931SOL    HW221693   1.561   0.546   2.304
 6932SOL     OW21694   3.889   0.620   0.782
 6932SOL    HW121695   3.924   0.688   0.719
 6932SOL    HW221696   3.899   0.529   0.742
 6933SOL     OW21697   4.056   6.265   4.544
 6933SOL    HW121698   3.993   6.309   4.608
 6933SOL    HW221699   4.132   6.226   4.595
 6934SOL     OW21700   4.736   4.483   5.767
 6934SOL    HW121701   4.678   4.402   5.760
 6934SOL    HW221702   4.831   4.455   5.777
 6935SOL     OW21703   4.538   6.099   3.656
 6935SOL    HW121704   4.481   6.071   3.578
 6935SOL    HW221705   4.552   6.198   3.654
 6936SOL     OW21706   6.877   2.974   2.402
 6936SOL    HW121707   6.961   3.027   2.394
 6936SOL    HW221708   6.886   2.909   2.478
 6937SOL     OW21709   6.338   6.185   0.305
 6937SOL    HW121710   6.430   6.168   0.339
 6937SOL    HW221711   6.301   6.100   0.266
 6938SOL     OW21712   4.827   3.814   5.269
 6938SOL    HW121713   4.848   3.779   5.360
 6938SOL    HW221714   4.808   3.737   5.208
 6939SOL     OW21715   6.940   4.315   1.173
 6939SOL    HW121716   7.018   4.351   1.223
 6939SOL    HW221717   6.907   4.384   1.108
 6940SOL     OW21718   5.107   1.278   0.387
 6940SOL    HW121719   5.055   1.244   0.309
 6940SOL    HW221720   5.044   1.295   0.463
 6941SOL     OW21721   3.744   3.360   2.990
 6941SOL    HW121722   3.841   3.338   2.998
 6941SOL    HW221723   3.734   3.441   2.931
 6942SOL     OW21724   6.834   2.509   0.342
 6942SOL    HW121725   6.872   2.599   0.362
 6942SOL    HW221726   6.882   2.468   0.265
 6943SOL     OW21727   4.717   6.586   0.052
 6943SOL    HW121728   4.689   6.682   0.046
 6943SOL    HW221729   4.807   6.574   0.011
 6944SOL     OW21730   1.509   4.734   5.959
 6944SOL    HW121731   1.589   4.779   5.921
 6944SOL    HW221732   1.471   4.789   6.033
 6945SOL     OW21733   6.031   2.903   6.267
 6945SOL    HW121734   5.995   2.950   6.187
 6945SOL    HW221735   5.990   2.942   6.350
 6946SOL     OW21736   6.453   6.496   2.176
 6946SOL    HW121737   6.454   6.533   2.083
 6946SOL    HW221738   6.542   6.457   2.197
 6947SOL     OW21739   2.830   6.590   5.556
 6947SOL    HW121740   2.858   6.668   5.612
 6947SOL    HW221741   2.731   6.586   5.551
 6948SOL     OW21742   6.678   0.660   6.955
 6948SOL    HW121743   6.685   0.611   6.868
 6948SOL    HW221744   6.621   0.609   7.018
 6949SOL     OW21745   5.297   0.221   3.885
 6949SOL    HW121746   5.237   0.172   3.822
 6949SOL    HW221747   5.382   0.170   3.897
 6950SOL     OW21748   2.162   0.340   3.764
 6950SOL    HW121749   2.213   0.330   3.679
 6950SOL    HW221750   2.076   0.388   3.746
 6951SOL     OW21751   6.220   6.337   6.131
 6951SOL    HW121752   6.211   6.393   6.049
 6951SOL    HW221753   6.131   6.300   6.157
 6952SOL     OW21754   0.003   5.606   3.612
 6952SOL    HW121755   7.009   5.524   3.666
 6952SOL    HW221756   6.949   5.624   3.552
 6953SOL     OW21757   4.716   0.599   6.757
 6953SOL    HW121758   4.692   0.505   6.782
 6953SOL    HW221759   4.674   0.622   6.670
 6954SOL     OW21760   1.110   3.774   4.466
 6954SOL    HW121761   1.036   3.831   4.429
 6954SOL    HW221762   1.074   3.686   4.495
 6955SOL     OW21763   6.907   0.459   3.087
 6955SOL    HW121764   6.880   0.472   2.992
 6955SOL    HW221765   6.874   0.535   3.142
 6956SOL     OW21766   4.785   6.361   2.176
 6956SOL    HW121767   4.811   6.315   2.091
 6956SOL    HW221768   4.787   6.295   2.251
 6957SOL     OW21769   5.712   4.965   1.878
 6957SOL    HW121770   5.702   4.867   1.894
 6957SOL    HW221771   5.750   4.981   1.786
 6958SOL     OW21772   3.086   4.063   5.254
 6958SOL    HW121773   3.065   3.976   5.210
 6958SOL    HW221774   3.000   4.109   5.279
 6959SOL     OW21775   2.828   1.186   4.785
 6959SOL    HW121776   2.923   1.217   4.786
 6959SOL    HW221777   2.781   1.219   4.867
 6960SOL     OW21778   1.361   5.526   1.431
 6960SOL    HW121779   1.306   5.586   1.373
 6960SOL    HW221780   1.303   5.481   1.498
 6961SOL     OW21781   6.684   2.952   4.114
 6961SOL    HW121782   6.712   2.935   4.019
 6961SOL    HW221783   6.752   3.011   4.158
 6962SOL     OW21784   4.992   5.546   2.419
 6962SOL    HW121785   4.997   5.640   2.452
 6962SOL    HW221786   5.021   5.542   2.323
 6963SOL     OW21787   0.057   5.211   0.856
 6963SOL    HW121788   0.027   5.168   0.941
 6963SOL    HW221789   0.110   5.294   0.876
 6964SOL     OW21790   4.197   5.411   4.429
 6964SOL    HW121791   4.198   5.410   4.329
 6964SOL    HW221792   4.177   5.504   4.460
 6965SOL     OW21793   0.820   3.650   6.415
 6965SOL    HW121794   0.794   3.661   6.319
 6965SOL    HW221795   0.794   3.732   6.466
 6966SOL     OW21796   6.526   2.443   2.984
 6966SOL    HW121797   6.620   2.416   2.965
 6966SOL    HW221798   6.477   2.458   2.898
 6967SOL     OW21799   1.632   0.357   5.785
 6967SOL    HW121800   1.587   0.267   5.781
 6967SOL    HW221801   1.627   0.392   5.879
 6968SOL     OW21802   3.615   6.701   2.341
 6968SOL    HW121803   3.541   6.636   2.323
 6968SOL    HW221804   3.579   6.778   2.394
 6969SOL     OW21805   3.006   2.111   1.187
 6969SOL    HW121806   3.067   2.035   1.212
 6969SOL    HW221807   3.059   2.186   1.149
 6970SOL     OW21808   4.381   3.739   0.194
 6970SOL    HW121809   4.386   3.780   0.285
 6970SOL    HW221810   4.449   3.783   0.135
 6971SOL     OW21811   6.580   4.320   1.378
 6971SOL    HW121812   6.637   4.402   1.378
 6971SOL    HW221813   6.612   4.258   1.307
 6972SOL     OW21814   5.169   5.050   4.132
 6972SOL    HW121815   5.113   5.132   4.123
 6972SOL    HW221816   5.265   5.076   4.144
 6973SOL     OW21817   1.181   3.672   5.289
 6973SOL    HW121818   1.184   3.752   5.228
 6973SOL    HW221819   1.237   3.599   5.251
 6974SOL     OW21820   3.899   2.974   3.039
 6974SOL    HW121821   3.987   2.947   2.999
 6974SOL    HW221822   3.825   2.941   2.981
 6975SOL     OW21823   2.399   6.021   5.691
 6975SOL    HW121824   2.464   5.981   5.755
 6975SOL    HW221825   2.358   6.103   5.732
 6976SOL     OW21826   4.493   5.555   5.700
 6976SOL    HW121827   4.586   5.528   5.675
 6976SOL    HW221828   4.429   5.487   5.665
 6977SOL     OW21829   4.333   2.400   1.789
 6977SOL    HW121830   4.257   2.345   1.823
 6977SOL    HW221831   4.309   2.439   1.700
 6978SOL     OW21832   6.026   2.349   1.664
 6978SOL    HW121833   5.998   2.328   1.570
 6978SOL    HW221834   6.106   2.409   1.662
 6979SOL     OW21835   1.541   4.957   0.715
 6979SOL    HW121836   1.625   4.950   0.661
 6979SOL    HW221837   1.462   4.949   0.655
 6980SOL     OW21838   1.702   0.733   3.613
 6980SOL    HW121839   1.732   0.639   3.624
 6980SOL    HW221840   1.782   0.794   3.619
 6981SOL     OW21841   2.714   2.806   6.280
 6981SOL    HW121842   2.679   2.900   6.278
 6981SOL    HW221843   2.807   2.805   6.243
 6982SOL     OW21844   1.161   0.858   3.808
 6982SOL    HW121845   1.062   0.860   3.793
 6982SOL    HW221846   1.192   0.763   3.818
 6983SOL     OW21847   5.197   2.021   3.256
 6983SOL    HW121848   5.221   1.943   3.199
 6983SOL    HW221849   5.278   2.055   3.303
 6984SOL     OW21850   2.719   2.118   4.094
 6984SOL    HW121851   2.747   2.040   4.039
 6984SOL    HW221852   2.739   2.101   4.190
 6985SOL     OW21853   4.022   5.803   1.386
 6985SOL    HW121854   3.936   5.843   1.419
 6985SOL    HW221855   4.042   5.837   1.294
 6986SOL     OW21856   1.817   6.310   6.419
 6986SOL    HW121857   1.900   6.278   6.372
 6986SOL    HW221858   1.822   6.409   6.432
 6987SOL     OW21859   6.825   2.069   5.930
 6987SOL    HW121860   6.849   2.159   5.893
 6987SOL    HW221861   6.728   2.051   5.912
 6988SOL     OW21862   6.819   1.148   5.892
 6988SOL    HW121863   6.790   1.176   5.984
 6988SOL    HW221864   6.744   1.099   5.847
 6989SOL     OW21865   0.603   3.329   3.623
 6989SOL    HW121866   0.553   3.336   3.538
 6989SOL    HW221867   0.599   3.235   3.658
 6990SOL     OW21868   5.284   2.185   1.189
 6990SOL    HW121869   5.237   2.235   1.117
 6990SOL    HW221870   5.363   2.138   1.151
 6991SOL     OW21871   2.942   4.827   4.158
 6991SOL    HW121872   3.007   4.799   4.228
 6991SOL    HW221873   2.986   4.827   4.069
 6992SOL     OW21874   5.120   6.677   5.050
 6992SOL    HW121875   5.169   6.753   5.092
 6992SOL    HW221876   5.083   6.706   4.961
 6993SOL     OW21877   0.072   0.872   3.077
 6993SOL    HW121878   6.996   0.867   3.079
 6993SOL    HW221879   0.108   0.794   3.026
 6994SOL     OW21880   0.895   3.340   4.812
 6994SOL    HW121881   0.911   3.389   4.898
 6994SOL    HW221882   0.970   3.359   4.748
 6995SOL     OW21883   6.563   5.230   6.268
 6995SOL    HW121884   6.658   5.248   6.294
 6995SOL    HW221885   6.548   5.259   6.173
 6996SOL     OW21886   2.591   0.144   6.332
 6996SOL    HW121887   2.525   0.162   6.405
 6996SOL    HW221888   2.684   0.163   6.366
 6997SOL     OW21889   6.186   6.457   5.436
 6997SOL    HW121890   6.180   6.557   5.446
 6997SOL    HW221891   6.096   6.421   5.411
 6998SOL     OW21892   2.376   2.608   1.419
 6998SOL    HW121893   2.373   2.637   1.323
 6998SOL    HW221894   2.370   2.689   1.477
 6999SOL     OW21895   2.317   2.808   6.176
 6999SOL    HW121896   2.253   2.795   6.100
 6999SOL    HW221897   2.410   2.788   6.145
 7000SOL     OW21898   6.174   5.876   1.561
 7000SOL    HW121899   6.175   5.879   1.462
 7000SOL    HW221900   6.110   5.945   1.596
 7001SOL     OW21901   2.614   3.253   5.332
 7001SOL    HW121902   2.607   3.181   5.263
 7001SOL    HW221903   2.523   3.294   5.346
 7002SOL     OW21904   1.914   4.944   2.758
 7002SOL    HW121905   1.875   4.982   2.842
 7002SOL    HW221906   1.935   5.018   2.694
 7003SOL     OW21907   3.985   5.338   0.129
 7003SOL    HW121908   3.984   5.387   0.042
 7003SOL    HW221909   4.049   5.262   0.124
 7004SOL     OW21910   1.718   4.815   1.704
 7004SOL    HW121911   1.719   4.914   1.691
 7004SOL    HW221912   1.810   4.783   1.725
 7005SOL     OW21913   1.466   6.580   6.799
 7005SOL    HW121914   1.551   6.601   6.848
 7005SOL    HW221915   1.390   6.578   6.864
 7006SOL     OW21916   4.888   4.418   4.585
 7006SOL    HW121917   4.834   4.502   4.583
 7006SOL    HW221918   4.962   4.428   4.652
 7007SOL     OW21919   4.910   6.711   3.724
 7007SOL    HW121920   4.910   6.634   3.661
 7007SOL    HW221921   4.940   6.794   3.676
 7008SOL     OW21922   1.788   4.815   5.291
 7008SOL    HW121923   1.701   4.862   5.302
 7008SOL    HW221924   1.784   4.725   5.336
 7009SOL     OW21925   6.036   5.706   2.638
 7009SOL    HW121926   5.937   5.694   2.652
 7009SOL    HW221927   6.062   5.799   2.665
 7010SOL     OW21928   4.279   4.300   5.976
 7010SOL    HW121929   4.185   4.334   5.968
 7010SOL    HW221930   4.279   4.214   6.026
 7011SOL     OW21931   2.833   0.263   6.297
 7011SOL    HW121932   2.927   0.296   6.288
 7011SOL    HW221933   2.782   0.285   6.214
 7012SOL     OW21934   1.820   1.079   2.509
 7012SOL    HW121935   1.728   1.041   2.502
 7012SOL    HW221936   1.849   1.112   2.419
 7013SOL     OW21937   0.654   0.177   0.228
 7013SOL    HW121938   0.681   0.214   0.139
 7013SOL    HW221939   0.735   0.174   0.288
 7014SOL     OW21940   4.992   2.873   1.396
 7014SOL    HW121941   4.989   2.885   1.495
 7014SOL    HW221942   4.923   2.806   1.368
 7015SOL     OW21943   6.142   4.731   2.540
 7015SOL    HW121944   6.191   4.798   2.594
 7015SOL    HW221945   6.176   4.731   2.446
 7016SOL     OW21946   3.751   4.700   1.664
 7016SOL    HW121947   3.735   4.672   1.570
 7016SOL    HW221948   3.665   4.696   1.716
 7017SOL     OW21949   2.093   6.776   2.431
 7017SOL    HW121950   2.061   6.772   2.525
 7017SOL    HW221951   2.192   6.790   2.430
 7018SOL     OW21952   5.828   4.309   4.916
 7018SOL    HW121953   5.804   4.249   4.840
 7018SOL    HW221954   5.775   4.284   4.996
 7019SOL     OW21955   2.573   3.614   6.492
 7019SOL    HW121956   2.661   3.598   6.448
 7019SOL    HW221957   2.506   3.644   6.423
 7020SOL     OW21958   6.215   6.838   6.496
 7020SOL    HW121959   6.236   6.862   6.591
 7020SOL    HW221960   6.118   6.853   6.479
 7021SOL     OW21961   2.101   1.165   5.896
 7021SOL    HW121962   2.181   1.181   5.838
 7021SOL    HW221963   2.051   1.085   5.862
 7022SOL     OW21964   4.543   5.821   0.668
 7022SOL    HW121965   4.468   5.769   0.626
 7022SOL    HW221966   4.598   5.760   0.725
 7023SOL     OW21967   0.471   1.773   3.901
 7023SOL    HW121968   0.511   1.799   3.813
 7023SOL    HW221969   0.473   1.673   3.911
 7024SOL     OW21970   1.469   4.459   5.707
 7024SOL    HW121971   1.436   4.442   5.800
 7024SOL    HW221972   1.483   4.557   5.694
 7025SOL     OW21973   2.455   1.486   6.881
 7025SOL    HW121974   2.432   1.464   6.976
 7025SOL    HW221975   2.527   1.556   6.880
 7026SOL     OW21976   2.933   1.724   2.188
 7026SOL    HW121977   2.964   1.695   2.097
 7026SOL    HW221978   2.847   1.776   2.179
 7027SOL     OW21979   2.767   4.698   3.766
 7027SOL    HW121980   2.739   4.690   3.671
 7027SOL    HW221981   2.701   4.651   3.825
 7028SOL     OW21982   5.215   6.605   4.315
 7028SOL    HW121983   5.222   6.646   4.224
 7028SOL    HW221984   5.180   6.512   4.307
 7029SOL     OW21985   4.285   5.978   6.221
 7029SOL    HW121986   4.271   5.968   6.122
 7029SOL    HW221987   4.319   6.070   6.241
 7030SOL     OW21988   6.894   2.545   5.046
 7030SOL    HW121989   6.912   2.451   5.018
 7030SOL    HW221990   6.902   2.605   4.966
 7031SOL     OW21991   2.326   6.412   4.779
 7031SOL    HW121992   2.243   6.385   4.829
 7031SOL    HW221993   2.304   6.486   4.716
 7032SOL     OW21994   3.488   0.033   3.473
 7032SOL    HW121995   3.470   6.980   3.534
 7032SOL    HW221996   3.418   0.104   3.488
 7033SOL     OW21997   0.883   2.056   3.747
 7033SOL    HW121998   0.935   1.975   3.717
 7033SOL    HW221999   0.925   2.138   3.708
 7034SOL     OW22000   6.050   0.019   3.244
 7034SOL    HW122001   6.110   0.097   3.264
 7034SOL    HW222002   5.980   0.047   3.179
 7035SOL     OW22003   1.362   6.268   1.564
 7035SOL    HW122004   1.415   6.303   1.642
 7035SOL    HW222005   1.267   6.253   1.592
 7036SOL     OW22006   0.050   0.854   2.228
 7036SOL    HW122007   0.137   0.833   2.184
 7036SOL    HW222008   0.067   0.895   2.318
 7037SOL     OW22009   1.580   0.452   6.402
 7037SOL    HW122010   1.574   0.418   6.496
 7037SOL    HW222011   1.495   0.498   6.377
 7038SOL     OW22012   1.787   3.139   4.339
 7038SOL    HW122013   1.705   3.093   4.376
 7038SOL    HW222014   1.762   3.230   4.308
 7039SOL     OW22015   2.808   5.218   1.423
 7039SOL    HW122016   2.855   5.209   1.510
 7039SOL    HW222017   2.764   5.131   1.399
 7040SOL     OW22018   5.672   1.825   4.387
 7040SOL    HW122019   5.692   1.898   4.322
 7040SOL    HW222020   5.756   1.773   4.405
 7041SOL     OW22021   0.963   2.097   1.737
 7041SOL    HW122022   0.986   2.029   1.667
 7041SOL    HW222023   0.864   2.100   1.748
 7042SOL     OW22024   5.458   5.693   6.559
 7042SOL    HW122025   5.520   5.691   6.481
 7042SOL    HW222026   5.465   5.607   6.610
 7043SOL     OW22027   2.306   2.730   3.160
 7043SOL    HW122028   2.378   2.662   3.157
 7043SOL    HW222029   2.253   2.719   3.244
 7044SOL     OW22030   4.836   5.062   2.629
 7044SOL    HW122031   4.848   4.982   2.570
 7044SOL    HW222032   4.818   5.142   2.572
 7045SOL     OW22033   4.654   5.561   2.624
 7045SOL    HW122034   4.575   5.609   2.663
 7045SOL    HW222035   4.700   5.509   2.696
 7046SOL     OW22036   3.537   1.456   2.936
 7046SOL    HW122037   3.537   1.530   2.870
 7046SOL    HW222038   3.622   1.458   2.989
 7047SOL     OW22039   0.871   2.687   2.382
 7047SOL    HW122040   0.827   2.609   2.427
 7047SOL    HW222041   0.970   2.674   2.380
 7048SOL     OW22042   0.053   5.746   2.576
 7048SOL    HW122043   0.115   5.752   2.498
 7048SOL    HW222044   0.004   5.833   2.588
 7049SOL     OW22045   2.669   1.590   1.083
 7049SOL    HW122046   2.759   1.552   1.105
 7049SOL    HW222047   2.672   1.690   1.093
 7050SOL     OW22048   3.886   3.655   2.139
 7050SOL    HW122049   3.917   3.592   2.067
 7050SOL    HW222050   3.965   3.682   2.195
 7051SOL     OW22051   0.299   0.433   1.137
 7051SOL    HW122052   0.215   0.383   1.116
 7051SOL    HW222053   0.285   0.531   1.119
 7052SOL     OW22054   6.247   2.650   3.578
 7052SOL    HW122055   6.286   2.643   3.486
 7052SOL    HW222056   6.318   2.631   3.646
 7053SOL     OW22057   1.237   3.815   4.704
 7053SOL    HW122058   1.272   3.908   4.702
 7053SOL    HW222059   1.175   3.800   4.627
 7054SOL     OW22060   0.589   6.582   0.766
 7054SOL    HW122061   0.523   6.579   0.841
 7054SOL    HW222062   0.626   6.675   0.758
 7055SOL     OW22063   4.137   6.034   5.339
 7055SOL    HW122064   4.194   6.073   5.267
 7055SOL    HW222065   4.089   5.953   5.304
 7056SOL     OW22066   5.292   5.751   2.555
 7056SOL    HW122067   5.365   5.693   2.591
 7056SOL    HW222068   5.322   5.794   2.469
 7057SOL     OW22069   1.062   5.966   3.557
 7057SOL    HW122070   1.104   5.885   3.596
 7057SOL    HW222071   0.997   5.940   3.485
 7058SOL     OW22072   6.555   6.060   6.233
 7058SOL    HW122073   6.534   6.059   6.331
 7058SOL    HW222074   6.472   6.039   6.181
 7059SOL     OW22075   6.808   0.811   3.478
 7059SOL    HW122076   6.860   0.798   3.394
 7059SOL    HW222077   6.785   0.722   3.517
 7060SOL     OW22078   4.296   0.499   1.832
 7060SOL    HW122079   4.351   0.483   1.914
 7060SOL    HW222080   4.303   0.595   1.805
 7061SOL     OW22081   0.310   3.371   4.243
 7061SOL    HW122082   0.380   3.436   4.275
 7061SOL    HW222083   0.354   3.291   4.204
 7062SOL     OW22084   5.145   1.575   5.243
 7062SOL    HW122085   5.151   1.483   5.203
 7062SOL    HW222086   5.172   1.571   5.339
 7063SOL     OW22087   0.780   0.336   1.461
 7063SOL    HW122088   0.688   0.342   1.422
 7063SOL    HW222089   0.833   0.415   1.431
 7064SOL     OW22090   4.180   1.936   2.316
 7064SOL    HW122091   4.269   1.905   2.283
 7064SOL    HW222092   4.121   1.958   2.238
 7065SOL     OW22093   3.967   3.148   6.409
 7065SOL    HW122094   3.888   3.197   6.372
 7065SOL    HW222095   4.051   3.197   6.385
 7066SOL     OW22096   4.273   0.219   0.363
 7066SOL    HW122097   4.362   0.182   0.386
 7066SOL    HW222098   4.267   0.314   0.394
 7067SOL     OW22099   1.562   1.446   5.494
 7067SOL    HW122100   1.563   1.437   5.594
 7067SOL    HW222101   1.592   1.538   5.469
 7068SOL     OW22102   0.664   4.543   4.470
 7068SOL    HW122103   0.629   4.636   4.481
 7068SOL    HW222104   0.763   4.543   4.484
 7069SOL     OW22105   6.028   1.988   3.432
 7069SOL    HW122106   6.079   2.063   3.390
 7069SOL    HW222107   5.947   1.967   3.376
 7070SOL     OW22108   6.394   6.132   4.610
 7070SOL    HW122109   6.464   6.203   4.607
 7070SOL    HW222110   6.364   6.119   4.704
 7071SOL     OW22111   1.366   6.210   6.190
 7071SOL    HW122112   1.311   6.285   6.226
 7071SOL    HW222113   1.312   6.160   6.122
 7072SOL     OW22114   0.688   6.273   6.166
 7072SOL    HW122115   0.655   6.322   6.085
 7072SOL    HW222116   0.642   6.308   6.248
 7073SOL     OW22117   5.144   6.902   4.638
 7073SOL    HW122118   5.122   6.933   4.545
 7073SOL    HW222119   5.077   6.835   4.668
 7074SOL     OW22120   4.558   2.286   1.535
 7074SOL    HW122121   4.592   2.192   1.535
 7074SOL    HW222122   4.470   2.291   1.581
 7075SOL     OW22123   1.623   5.335   5.341
 7075SOL    HW122124   1.537   5.330   5.392
 7075SOL    HW222125   1.618   5.273   5.262
 7076SOL     OW22126   5.742   2.413   6.169
 7076SOL    HW122127   5.675   2.426   6.095
 7076SOL    HW222128   5.731   2.486   6.237
 7077SOL     OW22129   2.218   4.273   4.311
 7077SOL    HW122130   2.196   4.176   4.303
 7077SOL    HW222131   2.138   4.327   4.287
 7078SOL     OW22132   6.729   0.655   1.159
 7078SOL    HW122133   6.683   0.567   1.168
 7078SOL    HW222134   6.752   0.690   1.250
 7079SOL     OW22135   6.573   6.231   5.071
 7079SOL    HW122136   6.501   6.163   5.086
 7079SOL    HW222137   6.544   6.320   5.106
 7080SOL     OW22138   3.048   2.229   4.106
 7080SOL    HW122139   3.142   2.260   4.119
 7080SOL    HW222140   3.000   2.228   4.194
 7081SOL     OW22141   2.595   1.729   6.825
 7081SOL    HW122142   2.582   1.828   6.822
 7081SOL    HW222143   2.649   1.700   6.747
 7082SOL     OW22144   6.484   4.556   6.729
 7082SOL    HW122145   6.421   4.632   6.743
 7082SOL    HW222146   6.468   4.485   6.798
 7083SOL     OW22147   2.895   0.587   0.412
 7083SOL    HW122148   2.799   0.560   0.408
 7083SOL    HW222149   2.941   0.562   0.327
 7084SOL     OW22150   0.561   6.388   5.507
 7084SOL    HW122151   0.611   6.305   5.485
 7084SOL    HW222152   0.490   6.404   5.438
 7085SOL     OW22153   1.590   2.229   1.912
 7085SOL    HW122154   1.582   2.238   2.011
 7085SOL    HW222155   1.602   2.320   1.871
 7086SOL     OW22156   5.385   1.233   5.131
 7086SOL    HW122157   5.422   1.298   5.065
 7086SOL    HW222158   5.286   1.245   5.139
 7087SOL     OW22159   6.133   4.568   3.611
 7087SOL    HW122160   6.097   4.475   3.618
 7087SOL    HW222161   6.105   4.608   3.524
 7088SOL     OW22162   5.785   2.747   3.566
 7088SOL    HW122163   5.868   2.735   3.621
 7088SOL    HW222164   5.705   2.734   3.625
 7089SOL     OW22165   3.322   2.098   4.827
 7089SOL    HW122166   3.283   2.178   4.872
 7089SOL    HW222167   3.307   2.105   4.728
 7090SOL     OW22168   2.178   0.822   6.783
 7090SOL    HW122169   2.112   0.842   6.710
 7090SOL    HW222170   2.239   0.900   6.795
 7091SOL     OW22171   0.239   1.575   6.486
 7091SOL    HW122172   0.240   1.672   6.512
 7091SOL    HW222173   0.244   1.567   6.387
 7092SOL     OW22174   4.437   2.713   6.303
 7092SOL    HW122175   4.405   2.701   6.208
 7092SOL    HW222176   4.383   2.784   6.348
 7093SOL     OW22177   2.959   3.785   3.650
 7093SOL    HW122178   3.015   3.816   3.573
 7093SOL    HW222179   2.946   3.860   3.715
 7094SOL     OW22180   1.079   5.775   5.806
 7094SOL    HW122181   0.995   5.814   5.845
 7094SOL    HW222182   1.056   5.694   5.752
 7095SOL     OW22183   2.926   4.004   5.816
 7095SOL    HW122184   2.903   4.046   5.729
 7095SOL    HW222185   2.979   3.921   5.801
 7096SOL     OW22186   6.514   0.762   3.548
 7096SOL    HW122187   6.552   0.790   3.460
 7096SOL    HW222188   6.433   0.706   3.533
 7097SOL     OW22189   5.973   1.561   1.277
 7097SOL    HW122190   5.897   1.544   1.214
 7097SOL    HW222191   5.992   1.477   1.328
 7098SOL     OW22192   0.696   0.721   4.843
 7098SOL    HW122193   0.695   0.819   4.863
 7098SOL    HW222194   0.760   0.702   4.769
 7099SOL     OW22195   2.443   0.954   5.052
 7099SOL    HW122196   2.414   1.045   5.083
 7099SOL    HW222197   2.541   0.956   5.030
 7100SOL     OW22198   5.503   2.703   0.820
 7100SOL    HW122199   5.521   2.605   0.830
 7100SOL    HW222200   5.509   2.728   0.723
 7101SOL     OW22201   2.275   0.964   4.847
 7101SOL    HW122202   2.315   0.957   4.938
 7101SOL    HW222203   2.347   0.988   4.781
 7102SOL     OW22204   4.526   0.454   0.885
 7102SOL    HW122205   4.434   0.489   0.865
 7102SOL    HW222206   4.582   0.458   0.802
 7103SOL     OW22207   4.598   5.182   1.514
 7103SOL    HW122208   4.499   5.182   1.527
 7103SOL    HW222209   4.637   5.264   1.556
 7104SOL     OW22210   0.909   2.942   4.497
 7104SOL    HW122211   0.880   3.036   4.512
 7104SOL    HW222212   0.908   2.892   4.584
 7105SOL     OW22213   2.722   2.577   5.421
 7105SOL    HW122214   2.652   2.580   5.349
 7105SOL    HW222215   2.795   2.515   5.394
 7106SOL     OW22216   2.910   3.308   3.453
 7106SOL    HW122217   2.914   3.272   3.546
 7106SOL    HW222218   2.897   3.407   3.455
 7107SOL     OW22219   2.602   2.026   0.397
 7107SOL    HW122220   2.555   1.945   0.360
 7107SOL    HW222221   2.536   2.100   0.408
 7108SOL     OW22222   3.814   6.443   2.812
 7108SOL    HW122223   3.873   6.456   2.892
 7108SOL    HW222224   3.807   6.345   2.792
 7109SOL     OW22225   2.995   0.513   6.377
 7109SOL    HW122226   3.050   0.430   6.362
 7109SOL    HW222227   3.055   0.593   6.375
 7110SOL     OW22228   3.450   5.737   4.384
 7110SOL    HW122229   3.354   5.733   4.356
 7110SOL    HW222230   3.477   5.833   4.394
 7111SOL     OW22231   1.772   1.748   4.213
 7111SOL    HW122232   1.727   1.710   4.293
 7111SOL    HW222233   1.844   1.686   4.182
 7112SOL     OW22234   1.388   5.794   4.192
 7112SOL    HW122235   1.439   5.708   4.190
 7112SOL    HW222236   1.383   5.831   4.099
 7113SOL     OW22237   3.616   4.140   4.954
 7113SOL    HW122238   3.669   4.159   5.037
 7113SOL    HW222239   3.674   4.095   4.886
 7114SOL     OW22240   4.028   6.651   1.548
 7114SOL    HW122241   3.952   6.591   1.523
 7114SOL    HW222242   3.996   6.746   1.546
 7115SOL     OW22243   5.517   3.622   2.114
 7115SOL    HW122244   5.437   3.676   2.140
 7115SOL    HW222245   5.487   3.538   2.069
 7116SOL     OW22246   5.554   4.106   3.363
 7116SOL    HW122247   5.561   4.176   3.434
 7116SOL    HW222248   5.460   4.099   3.332
 7117SOL     OW22249   6.759   6.219   4.883
 7117SOL    HW122250   6.711   6.231   4.970
 7117SOL    HW222251   6.830   6.289   4.875
 7118SOL     OW22252   2.745   3.647   1.335
 7118SOL    HW122253   2.661   3.695   1.359
 7118SOL    HW222254   2.738   3.613   1.241
 7119SOL     OW22255   4.910   1.762   2.722
 7119SOL    HW122256   4.879   1.668   2.710
 7119SOL    HW222257   4.881   1.817   2.643
 7120SOL     OW22258   3.936   2.137   2.909
 7120SOL    HW122259   3.971   2.173   2.822
 7120SOL    HW222260   3.858   2.077   2.891
 7121SOL     OW22261   1.676   6.602   2.803
 7121SOL    HW122262   1.774   6.593   2.820
 7121SOL    HW222263   1.661   6.656   2.720
 7122SOL     OW22264   1.231   0.119   5.900
 7122SOL    HW122265   1.241   0.028   5.860
 7122SOL    HW222266   1.147   0.161   5.866
 7123SOL     OW22267   2.528   4.877   3.058
 7123SOL    HW122268   2.570   4.954   3.107
 7123SOL    HW222269   2.451   4.911   3.003
 7124SOL     OW22270   6.939   2.208   0.354
 7124SOL    HW122271   6.873   2.133   0.363
 7124SOL    HW222272   6.945   2.256   0.442
 7125SOL     OW22273   6.319   6.792   0.677
 7125SOL    HW122274   6.321   6.763   0.772
 7125SOL    HW222275   6.224   6.792   0.644
 7126SOL     OW22276   3.415   4.628   6.978
 7126SOL    HW122277   3.453   4.536   6.990
 7126SOL    HW222278   3.468   4.693   0.008
 7127SOL     OW22279   1.678   5.657   4.699
 7127SOL    HW122280   1.736   5.582   4.666
 7127SOL    HW222281   1.598   5.618   4.745
 7128SOL     OW22282   3.152   4.506   0.084
 7128SOL    HW122283   3.224   4.536   0.147
 7128SOL    HW222284   3.066   4.497   0.134
 7129SOL     OW22285   2.183   1.535   0.169
 7129SOL    HW122286   2.195   1.633   0.185
 7129SOL    HW222287   2.088   1.518   0.141
 7130SOL     OW22288   4.205   5.628   5.480
 7130SOL    HW122289   4.261   5.678   5.414
 7130SOL    HW222290   4.148   5.693   5.532
 7131SOL     OW22291   2.353   1.162   0.711
 7131SOL    HW122292   2.326   1.178   0.616
 7131SOL    HW222293   2.440   1.112   0.714
 7132SOL     OW22294   3.960   3.640   6.774
 7132SOL    HW122295   3.989   3.732   6.801
 7132SOL    HW222296   3.989   3.575   6.843
 7133SOL     OW22297   5.287   5.436   5.183
 7133SOL    HW122298   5.376   5.459   5.143
 7133SOL    HW222299   5.295   5.438   5.283
 7134SOL     OW22300   5.895   6.943   2.013
 7134SOL    HW122301   5.946   6.867   2.053
 7134SOL    HW222302   5.819   6.908   1.959
 7135SOL     OW22303   0.890   3.223   2.900
 7135SOL    HW122304   0.893   3.322   2.914
 7135SOL    HW222305   0.982   3.189   2.881
 7136SOL     OW22306   1.968   2.677   1.272
 7136SOL    HW122307   2.032   2.739   1.317
 7136SOL    HW222308   1.879   2.682   1.317
 7137SOL     OW22309   3.758   0.082   6.551
 7137SOL    HW122310   3.847   0.072   6.506
 7137SOL    HW222311   3.749   0.014   6.623
 7138SOL     OW22312   1.706   3.332   6.919
 7138SOL    HW122313   1.707   3.415   6.976
 7138SOL    HW222314   1.614   3.294   6.917
 7139SOL     OW22315   5.558   4.053   2.302
 7139SOL    HW122316   5.499   4.065   2.222
 7139SOL    HW222317   5.516   3.987   2.365
 7140SOL     OW22318   5.544   4.790   4.352
 7140SOL    HW122319   5.598   4.723   4.403
 7140SOL    HW222320   5.498   4.745   4.276
 7141SOL     OW22321   3.744   6.247   1.519
 7141SOL    HW122322   3.739   6.346   1.527
 7141SOL    HW222323   3.653   6.210   1.498
 7142SOL     OW22324   4.371   0.113   3.675
 7142SOL    HW122325   4.464   0.113   3.712
 7142SOL    HW222326   4.339   0.019   3.664
 7143SOL     OW22327   1.007   2.789   5.888
 7143SOL    HW122328   0.935   2.816   5.825
 7143SOL    HW222329   1.054   2.870   5.924
 7144SOL     OW22330   1.878   1.951   2.672
 7144SOL    HW122331   1.953   1.991   2.618
 7144SOL    HW222332   1.916   1.889   2.740
 7145SOL     OW22333   4.204   6.876   0.267
 7145SOL    HW122334   4.263   6.806   0.308
 7145SOL    HW222335   4.172   6.938   0.339
 7146SOL     OW22336   2.291   0.362   0.661
 7146SOL    HW122337   2.296   0.327   0.567
 7146SOL    HW222338   2.206   0.333   0.703
 7147SOL     OW22339   0.201   6.552   2.985
 7147SOL    HW122340   0.211   6.457   2.957
 7147SOL    HW222341   0.146   6.557   3.068
 7148SOL     OW22342   0.739   6.483   0.175
 7148SOL    HW122343   0.779   6.461   0.086
 7148SOL    HW222344   0.800   6.546   0.223
 7149SOL     OW22345   6.038   6.762   2.822
 7149SOL    HW122346   6.023   6.722   2.732
 7149SOL    HW222347   5.988   6.710   2.891
 7150SOL     OW22348   3.229   1.540   2.439
 7150SOL    HW122349   3.149   1.481   2.448
 7150SOL    HW222350   3.311   1.483   2.437
 7151SOL     OW22351   2.019   6.153   0.287
 7151SOL    HW122352   2.044   6.176   0.193
 7151SOL    HW222353   2.101   6.135   0.340
 7152SOL     OW22354   1.242   1.292   4.834
 7152SOL    HW122355   1.160   1.326   4.787
 7152SOL    HW222356   1.261   1.348   4.914
 7153SOL     OW22357   3.359   5.649   1.777
 7153SOL    HW122358   3.271   5.607   1.800
 7153SOL    HW222359   3.401   5.686   1.861
 7154SOL     OW22360   3.340   0.369   3.883
 7154SOL    HW122361   3.364   0.435   3.812
 7154SOL    HW222362   3.420   0.314   3.906
 7155SOL     OW22363   1.980   3.606   1.933
 7155SOL    HW122364   1.972   3.588   1.835
 7155SOL    HW222365   2.069   3.574   1.965
 7156SOL     OW22366   0.592   4.081   4.474
 7156SOL    HW122367   0.639   4.040   4.552
 7156SOL    HW222368   0.552   4.010   4.417
 7157SOL     OW22369   6.207   4.058   2.002
 7157SOL    HW122370   6.120   4.090   1.963
 7157SOL    HW222371   6.189   3.989   2.071
 7158SOL     OW22372   1.365   6.869   2.855
 7158SOL    HW122373   1.377   6.836   2.761
 7158SOL    HW222374   1.326   6.961   2.854
 7159SOL     OW22375   0.575   4.206   2.321
 7159SOL    HW122376   0.658   4.210   2.377
 7159SOL    HW222377   0.596   4.233   2.228
 7160SOL     OW22378   5.423   0.222   2.886
 7160SOL    HW122379   5.361   0.214   2.964
 7160SOL    HW222380   5.495   0.288   2.908
 7161SOL     OW22381   2.934   3.434   4.881
 7161SOL    HW122382   2.962   3.342   4.853
 7161SOL    HW222383   2.865   3.428   4.952
 7162SOL     OW22384   1.694   5.635   5.891
 7162SOL    HW122385   1.760   5.705   5.921
 7162SOL    HW222386   1.740   5.571   5.829
 7163SOL     OW22387   2.784   6.577   3.087
 7163SOL    HW122388   2.766   6.515   3.010
 7163SOL    HW222389   2.871   6.552   3.130
 7164SOL     OW22390   1.840   0.691   4.149
 7164SOL    HW122391   1.939   0.706   4.139
 7164SOL    HW222392   1.810   0.726   4.238
 7165SOL     OW22393   0.109   1.603   1.880
 7165SOL    HW122394   0.118   1.525   1.819
 7165SOL    HW222395   0.089   1.571   1.973
 7166SOL     OW22396   5.894   3.169   0.489
 7166SOL    HW122397   5.843   3.132   0.412
 7166SOL    HW222398   5.986   3.130   0.490
 7167SOL     OW22399   5.199   3.315   4.116
 7167SOL    HW122400   5.256   3.341   4.038
 7167SOL    HW222401   5.104   3.305   4.085
 7168SOL     OW22402   1.900   1.981   3.492
 7168SOL    HW122403   1.894   2.074   3.527
 7168SOL    HW222404   1.835   1.922   3.540
 7169SOL     OW22405   6.271   3.059   5.230
 7169SOL    HW122406   6.200   3.103   5.286
 7169SOL    HW222407   6.232   3.031   5.143
 7170SOL     OW22408   4.980   5.911   3.112
 7170SOL    HW122409   5.051   5.927   3.043
 7170SOL    HW222410   4.996   5.823   3.156
 7171SOL     OW22411   5.247   3.847   0.165
 7171SOL    HW122412   5.270   3.944   0.172
 7171SOL    HW222413   5.214   3.827   0.073
 7172SOL     OW22414   1.497   0.793   5.466
 7172SOL    HW122415   1.569   0.855   5.434
 7172SOL    HW222416   1.488   0.717   5.402
 7173SOL     OW22417   0.115   4.452   5.842
 7173SOL    HW122418   0.125   4.365   5.890
 7173SOL    HW222419   0.091   4.434   5.747
 7174SOL     OW22420   0.422   4.678   0.768
 7174SOL    HW122421   0.509   4.727   0.780
 7174SOL    HW222422   0.368   4.685   0.852
 7175SOL     OW22423   5.014   2.447   6.487
 7175SOL    HW122424   5.059   2.450   6.577
 7175SOL    HW222425   4.955   2.366   6.483
 7176SOL     OW22426   1.184   6.223   2.680
 7176SOL    HW122427   1.180   6.123   2.683
 7176SOL    HW222428   1.181   6.259   2.774
 7177SOL     OW22429   1.914   5.821   4.060
 7177SOL    HW122430   1.925   5.729   4.021
 7177SOL    HW222431   2.004   5.865   4.066
 7178SOL     OW22432   1.767   2.537   5.529
 7178SOL    HW122433   1.761   2.608   5.459
 7178SOL    HW222434   1.842   2.559   5.592
 7179SOL     OW22435   1.957   3.490   4.207
 7179SOL    HW122436   1.887   3.440   4.258
 7179SOL    HW222437   1.955   3.586   4.233
 7180SOL     OW22438   2.435   5.127   6.951
 7180SOL    HW122439   2.484   5.044   6.925
 7180SOL    HW222440   2.337   5.115   6.935
 7181SOL     OW22441   2.298   6.265   0.313
 7181SOL    HW122442   2.340   6.215   0.238
 7181SOL    HW222443   2.275   6.201   0.387
 7182SOL     OW22444   1.412   2.646   5.438
 7182SOL    HW122445   1.449   2.705   5.366
 7182SOL    HW222446   1.484   2.623   5.503
 7183SOL     OW22447   2.448   5.756   0.368
 7183SOL    HW122448   2.368   5.729   0.423
 7183SOL    HW222449   2.496   5.831   0.414
 7184SOL     OW22450   0.045   1.325   3.075
 7184SOL    HW122451   0.113   1.311   3.147
 7184SOL    HW222452   0.042   1.244   3.017
 7185SOL     OW22453   5.440   0.292   5.412
 7185SOL    HW122454   5.503   0.349   5.359
 7185SOL    HW222455   5.367   0.258   5.352
 7186SOL     OW22456   6.267   0.465   0.093
 7186SOL    HW122457   6.238   0.492   0.184
 7186SOL    HW222458   6.259   0.543   0.031
 7187SOL     OW22459   3.618   3.976   6.660
 7187SOL    HW122460   3.545   4.033   6.698
 7187SOL    HW222461   3.671   4.030   6.595
 7188SOL     OW22462   6.448   0.372   0.728
 7188SOL    HW122463   6.470   0.278   0.702
 7188SOL    HW222464   6.417   0.374   0.822
 7189SOL     OW22465   0.483   1.060   5.909
 7189SOL    HW122466   0.398   1.043   5.857
 7189SOL    HW222467   0.534   0.974   5.918
 7190SOL     OW22468   6.962   3.773   3.445
 7190SOL    HW122469   0.031   3.808   3.432
 7190SOL    HW222470   6.946   3.696   3.384
 7191SOL     OW22471   0.365   4.316   2.730
 7191SOL    HW122472   0.289   4.257   2.759
 7191SOL    HW222473   0.330   4.408   2.711
 7192SOL     OW22474   3.476   4.718   5.435
 7192SOL    HW122475   3.385   4.750   5.410
 7192SOL    HW222476   3.469   4.655   5.512
 7193SOL     OW22477   1.773   2.774   2.436
 7193SOL    HW122478   1.811   2.682   2.426
 7193SOL    HW222479   1.755   2.812   2.345
 7194SOL     OW22480   2.886   2.313   0.912
 7194SOL    HW122481   2.826   2.356   0.980
 7194SOL    HW222482   2.868   2.351   0.822
 7195SOL     OW22483   6.854   4.273   6.868
 7195SOL    HW122484   6.782   4.205   6.851
 7195SOL    HW222485   6.942   4.236   6.839
 7196SOL     OW22486   3.270   4.242   1.007
 7196SOL    HW122487   3.309   4.254   0.916
 7196SOL    HW222488   3.262   4.144   1.026
 7197SOL     OW22489   6.919   2.654   5.827
 7197SOL    HW122490   6.894   2.558   5.820
 7197SOL    HW222491   6.995   2.664   5.891
 7198SOL     OW22492   0.629   0.732   6.553
 7198SOL    HW122493   0.632   0.809   6.617
 7198SOL    HW222494   0.589   0.761   6.466
 7199SOL     OW22495   2.292   1.117   2.512
 7199SOL    HW122496   2.277   1.075   2.602
 7199SOL    HW222497   2.346   1.200   2.523
 7200SOL     OW22498   2.744   2.097   0.632
 7200SOL    HW122499   2.698   2.084   0.544
 7200SOL    HW222500   2.677   2.130   0.700
 7201SOL     OW22501   1.050   5.687   4.136
 7201SOL    HW122502   1.056   5.598   4.180
 7201SOL    HW222503   1.078   5.679   4.040
 7202SOL     OW22504   4.185   0.726   6.257
 7202SOL    HW122505   4.248   0.801   6.240
 7202SOL    HW222506   4.170   0.674   6.174
 7203SOL     OW22507   6.693   1.905   0.823
 7203SOL    HW122508   6.640   1.973   0.772
 7203SOL    HW222509   6.724   1.946   0.909
 7204SOL     OW22510   0.250   0.074   5.564
 7204SOL    HW122511   0.191   0.046   5.488
 7204SOL    HW222512   0.288   7.018   5.609
 7205SOL     OW22513   1.054   5.425   3.484
 7205SOL    HW122514   1.052   5.327   3.467
 7205SOL    HW222515   1.116   5.444   3.560
 7206SOL     OW22516   1.932   0.252   1.168
 7206SOL    HW122517   1.872   0.319   1.124
 7206SOL    HW222518   2.016   0.298   1.199
 7207SOL     OW22519   3.612   0.260   2.144
 7207SOL    HW122520   3.670   0.230   2.220
 7207SOL    HW222521   3.666   0.313   2.080
 7208SOL     OW22522   4.098   6.203   3.463
 7208SOL    HW122523   4.002   6.181   3.479
 7208SOL    HW222524   4.123   6.284   3.516
 7209SOL     OW22525   2.952   3.659   2.650
 7209SOL    HW122526   2.931   3.565   2.678
 7209SOL    HW222527   2.930   3.672   2.554
 7210SOL     OW22528   4.409   0.749   4.108
 7210SOL    HW122529   4.508   0.744   4.125
 7210SOL    HW222530   4.361   0.698   4.178
 7211SOL     OW22531   2.549   5.668   4.053
 7211SOL    HW122532   2.453   5.689   4.035
 7211SOL    HW222533   2.594   5.645   3.967
 7212SOL     OW22534   0.537   6.531   4.672
 7212SOL    HW122535   0.576   6.449   4.632
 7212SOL    HW222536   0.510   6.595   4.600
 7213SOL     OW22537   5.394   0.389   0.009
 7213SOL    HW122538   5.413   0.485   0.028
 7213SOL    HW222539   5.476   0.346   6.996
 7214SOL     OW22540   0.444   5.246   5.428
 7214SOL    HW122541   0.350   5.215   5.438
 7214SOL    HW222542   0.451   5.309   5.351
 7215SOL     OW22543   0.265   3.345   5.420
 7215SOL    HW122544   0.284   3.424   5.478
 7215SOL    HW222545   0.200   3.370   5.349
 7216SOL     OW22546   3.250   6.156   6.867
 7216SOL    HW122547   3.308   6.127   6.791
 7216SOL    HW222548   3.295   6.136   6.953
 7217SOL     OW22549   2.196   3.976   2.853
 7217SOL    HW122550   2.106   3.997   2.817
 7217SOL    HW222551   2.253   4.059   2.851
 7218SOL     OW22552   5.005   2.269   5.433
 7218SOL    HW122553   4.935   2.318   5.485
 7218SOL    HW222554   5.072   2.334   5.396
 7219SOL     OW22555   4.411   6.505   4.767
 7219SOL    HW122556   4.361   6.543   4.845
 7219SOL    HW222557   4.490   6.454   4.800
 7220SOL     OW22558   0.447   5.972   4.869
 7220SOL    HW122559   0.453   6.071   4.859
 7220SOL    HW222560   0.538   5.934   4.884
 7221SOL     OW22561   4.216   5.697   4.487
 7221SOL    HW122562   4.288   5.721   4.552
 7221SOL    HW222563   4.203   5.771   4.422
 7222SOL     OW22564   6.092   0.403   2.881
 7222SOL    HW122565   6.051   0.457   2.807
 7222SOL    HW222566   6.192   0.406   2.873
 7223SOL     OW22567   2.934   2.401   1.501
 7223SOL    HW122568   2.883   2.342   1.438
 7223SOL    HW222569   3.030   2.374   1.501
 7224SOL     OW22570   5.747   2.310   4.236
 7224SOL    HW122571   5.779   2.375   4.167
 7224SOL    HW222572   5.825   2.277   4.289
 7225SOL     OW22573   0.843   6.302   6.687
 7225SOL    HW122574   0.865   6.344   6.599
 7225SOL    HW222575   0.884   6.211   6.691
 7226SOL     OW22576   7.000   1.214   0.733
 7226SOL    HW122577   6.917   1.161   0.721
 7226SOL    HW222578   0.054   1.164   0.695
 7227SOL     OW22579   0.319   2.151   1.052
 7227SOL    HW122580   0.339   2.242   1.090
 7227SOL    HW222581   0.356   2.146   0.959
 7228SOL     OW22582   0.927   1.017   2.141
 7228SOL    HW122583   0.847   0.985   2.092
 7228SOL    HW222584   0.899   1.072   2.219
 7229SOL     OW22585   1.586   7.003   4.980
 7229SOL    HW122586   1.505   6.948   5.002
 7229SOL    HW222587   1.636   7.024   5.064
 7230SOL     OW22588   4.602   5.150   4.440
 7230SOL    HW122589   4.695   5.185   4.429
 7230SOL    HW222590   4.541   5.225   4.465
 7231SOL     OW22591   4.949   0.123   0.310
 7231SOL    HW122592   4.944   0.140   0.408
 7231SOL    HW222593   4.929   0.207   0.260
 7232SOL     OW22594   5.031   5.657   3.201
 7232SOL    HW122595   4.950   5.599   3.207
 7232SOL    HW222596   5.100   5.613   3.143
 7233SOL     OW22597   0.409   2.526   4.565
 7233SOL    HW122598   0.455   2.579   4.494
 7233SOL    HW222599   0.405   2.580   4.649
 7234SOL     OW22600   5.402   3.192   3.471
 7234SOL    HW122601   5.485   3.190   3.415
 7234SOL    HW222602   5.402   3.113   3.533
 7235SOL     OW22603   6.836   4.148   2.031
 7235SOL    HW122604   6.833   4.050   2.051
 7235SOL    HW222605   6.866   4.161   1.936
 7236SOL     OW22606   2.493   1.346   2.324
 7236SOL    HW122607   2.475   1.409   2.249
 7236SOL    HW222608   2.543   1.267   2.290
 7237SOL     OW22609   6.078   6.888   5.058
 7237SOL    HW122610   6.006   6.946   5.096
 7237SOL    HW222611   6.062   6.793   5.085
 7238SOL     OW22612   3.089   1.974   1.454
 7238SOL    HW122613   3.134   1.920   1.383
 7238SOL    HW222614   2.994   1.944   1.464
 7239SOL     OW22615   2.204   1.821   2.685
 7239SOL    HW122616   2.287   1.864   2.720
 7239SOL    HW222617   2.163   1.880   2.614
 7240SOL     OW22618   2.194   4.989   6.043
 7240SOL    HW122619   2.238   5.075   6.016
 7240SOL    HW222620   2.133   4.959   5.969
 7241SOL     OW22621   3.009   0.755   0.612
 7241SOL    HW122622   3.035   0.691   0.684
 7241SOL    HW222623   2.986   0.704   0.529
 7242SOL     OW22624   6.406   5.566   0.582
 7242SOL    HW122625   6.436   5.650   0.539
 7242SOL    HW222626   6.365   5.587   0.671
 7243SOL     OW22627   6.710   4.642   6.071
 7243SOL    HW122628   6.718   4.650   6.170
 7243SOL    HW222629   6.626   4.593   6.049
 7244SOL     OW22630   5.721   0.437   1.171
 7244SOL    HW122631   5.803   0.493   1.154
 7244SOL    HW222632   5.698   0.441   1.268
 7245SOL     OW22633   0.344   2.201   4.995
 7245SOL    HW122634   0.267   2.250   5.037
 7245SOL    HW222635   0.314   2.112   4.962
 7246SOL     OW22636   6.255   0.373   4.246
 7246SOL    HW122637   6.305   0.427   4.314
 7246SOL    HW222638   6.162   0.357   4.279
 7247SOL     OW22639   2.958   6.695   3.960
 7247SOL    HW122640   3.054   6.715   3.946
 7247SOL    HW222641   2.906   6.722   3.878
 7248SOL     OW22642   3.851   0.792   3.182
 7248SOL    HW122643   3.828   0.888   3.200
 7248SOL    HW222644   3.837   0.738   3.265
 7249SOL     OW22645   5.311   4.505   2.016
 7249SOL    HW122646   5.243   4.576   2.033
 7249SOL    HW222647   5.391   4.521   2.074
 7250SOL     OW22648   3.998   6.193   6.155
 7250SOL    HW122649   4.060   6.171   6.080
 7250SOL    HW222650   3.928   6.257   6.122
 7251SOL     OW22651   0.415   6.805   5.317
 7251SOL    HW122652   0.436   6.805   5.219
 7251SOL    HW222653   0.439   6.893   5.357
 7252SOL     OW22654   4.002   3.067   3.621
 7252SOL    HW122655   3.919   3.011   3.630
 7252SOL    HW222656   4.026   3.075   3.525
 7253SOL     OW22657   1.896   6.352   6.724
 7253SOL    HW122658   1.798   6.335   6.736
 7253SOL    HW222659   1.919   6.345   6.627
 7254SOL     OW22660   4.734   5.705   5.016
 7254SOL    HW122661   4.702   5.654   5.096
 7254SOL    HW222662   4.776   5.642   4.951
 7255SOL     OW22663   3.675   3.376   1.194
 7255SOL    HW122664   3.743   3.397   1.125
 7255SOL    HW222665   3.698   3.424   1.279
 7256SOL     OW22666   4.517   4.595   4.303
 7256SOL    HW122667   4.444   4.650   4.344
 7256SOL    HW222668   4.593   4.655   4.277
 7257SOL     OW22669   4.931   3.317   3.977
 7257SOL    HW122670   4.856   3.353   4.033
 7257SOL    HW222671   4.926   3.217   3.974
 7258SOL     OW22672   3.873   1.095   3.227
 7258SOL    HW122673   3.848   1.128   3.136
 7258SOL    HW222674   3.822   1.145   3.297
 7259SOL     OW22675   3.334   3.206   1.903
 7259SOL    HW122676   3.254   3.192   1.844
 7259SOL    HW222677   3.303   3.225   1.996
 7260SOL     OW22678   2.676   2.179   3.133
 7260SOL    HW122679   2.576   2.187   3.127
 7260SOL    HW222680   2.711   2.251   3.194
 7261SOL     OW22681   2.132   3.120   1.264
 7261SOL    HW122682   2.110   3.212   1.296
 7261SOL    HW222683   2.108   3.112   1.167
 7262SOL     OW22684   5.410   1.929   4.362
 7262SOL    HW122685   5.414   2.029   4.356
 7262SOL    HW222686   5.501   1.892   4.377
 7263SOL     OW22687   0.389   6.246   2.434
 7263SOL    HW122688   0.476   6.209   2.401
 7263SOL    HW222689   0.314   6.197   2.391
 7264SOL     OW22690   6.173   1.477   6.588
 7264SOL    HW122691   6.212   1.569   6.578
 7264SOL    HW222692   6.246   1.412   6.608
 7265SOL     OW22693   5.626   6.123   5.909
 7265SOL    HW122694   5.563   6.086   5.978
 7265SOL    HW222695   5.617   6.223   5.907
 7266SOL     OW22696   4.241   6.936   1.233
 7266SOL    HW122697   4.163   6.981   1.190
 7266SOL    HW222698   4.225   6.930   1.332
 7267SOL     OW22699   6.702   5.707   5.741
 7267SOL    HW122700   6.652   5.758   5.670
 7267SOL    HW222701   6.785   5.756   5.765
 7268SOL     OW22702   4.493   4.812   2.832
 7268SOL    HW122703   4.447   4.724   2.836
 7268SOL    HW222704   4.430   4.882   2.797
 7269SOL     OW22705   6.886   6.079   1.355
 7269SOL    HW122706   6.894   5.980   1.354
 7269SOL    HW222707   6.870   6.112   1.262
 7270SOL     OW22708   1.375   2.848   4.812
 7270SOL    HW122709   1.367   2.778   4.741
 7270SOL    HW222710   1.337   2.934   4.779
 7271SOL     OW22711   0.514   4.877   4.220
 7271SOL    HW122712   0.558   4.836   4.140
 7271SOL    HW222713   0.451   4.811   4.261
 7272SOL     OW22714   5.634   4.690   1.813
 7272SOL    HW122715   5.584   4.604   1.801
 7272SOL    HW222716   5.571   4.761   1.842
 7273SOL     OW22717   5.757   4.733   2.563
 7273SOL    HW122718   5.759   4.690   2.654
 7273SOL    HW222719   5.823   4.808   2.560
 7274SOL     OW22720   1.076   6.199   6.300
 7274SOL    HW122721   1.107   6.136   6.371
 7274SOL    HW222722   1.003   6.156   6.247
 7275SOL     OW22723   6.901   1.312   2.465
 7275SOL    HW122724   6.991   1.316   2.507
 7275SOL    HW222725   6.830   1.315   2.536
 7276SOL     OW22726   3.294   1.315   3.410
 7276SOL    HW122727   3.355   1.377   3.459
 7276SOL    HW222728   3.245   1.366   3.339
 7277SOL     OW22729   5.375   1.436   4.283
 7277SOL    HW122730   5.437   1.466   4.355
 7277SOL    HW222731   5.280   1.453   4.312
 7278SOL     OW22732   3.173   1.804   2.309
 7278SOL    HW122733   3.176   1.705   2.321
 7278SOL    HW222734   3.081   1.832   2.283
 7279SOL     OW22735   4.026   3.034   6.840
 7279SOL    HW122736   4.041   2.965   6.911
 7279SOL    HW222737   3.930   3.032   6.812
 7280SOL     OW22738   6.649   2.161   4.346
 7280SOL    HW122739   6.649   2.152   4.446
 7280SOL    HW222740   6.575   2.222   4.318
 7281SOL     OW22741   2.229   0.269   0.414
 7281SOL    HW122742   2.166   0.346   0.400
 7281SOL    HW222743   2.191   0.187   0.370
 7282SOL     OW22744   6.572   6.678   0.567
 7282SOL    HW122745   6.478   6.712   0.568
 7282SOL    HW222746   6.577   6.591   0.617
 7283SOL     OW22747   2.620   6.738   1.902
 7283SOL    HW122748   2.720   6.734   1.908
 7283SOL    HW222749   2.586   6.813   1.958
 7284SOL     OW22750   0.340   3.269   4.677
 7284SOL    HW122751   0.338   3.173   4.650
 7284SOL    HW222752   0.324   3.326   4.597
 7285SOL     OW22753   5.622   3.608   1.776
 7285SOL    HW122754   5.608   3.552   1.857
 7285SOL    HW222755   5.535   3.648   1.748
 7286SOL     OW22756   0.884   0.215   0.389
 7286SOL    HW122757   0.955   0.148   0.409
 7286SOL    HW222758   0.925   0.306   0.381
 7287SOL     OW22759   6.733   3.412   4.906
 7287SOL    HW122760   6.709   3.387   5.000
 7287SOL    HW222761   6.688   3.498   4.882
 7288SOL     OW22762   1.040   2.804   2.118
 7288SOL    HW122763   1.056   2.728   2.181
 7288SOL    HW222764   0.943   2.824   2.113
 7289SOL     OW22765   6.601   2.589   2.718
 7289SOL    HW122766   6.580   2.677   2.759
 7289SOL    HW222767   6.532   2.567   2.649
 7290SOL     OW22768   3.110   0.920   5.478
 7290SOL    HW122769   3.163   0.911   5.562
 7290SOL    HW222770   3.112   1.016   5.448
 7291SOL     OW22771   3.167   0.129   0.814
 7291SOL    HW122772   3.108   0.198   0.773
 7291SOL    HW222773   3.112   0.052   0.847
 7292SOL     OW22774   2.540   6.791   3.271
 7292SOL    HW122775   2.597   6.828   3.345
 7292SOL    HW222776   2.505   6.867   3.216
 7293SOL     OW22777   1.687   1.166   5.967
 7293SOL    HW122778   1.726   1.226   5.897
 7293SOL    HW222779   1.614   1.110   5.926
 7294SOL     OW22780   3.023   4.222   0.198
 7294SOL    HW122781   2.936   4.242   0.244
 7294SOL    HW222782   3.098   4.263   0.250
 7295SOL     OW22783   6.833   4.191   1.564
 7295SOL    HW122784   6.741   4.219   1.591
 7295SOL    HW222785   6.830   4.099   1.526
 7296SOL     OW22786   4.527   4.746   2.551
 7296SOL    HW122787   4.541   4.753   2.650
 7296SOL    HW222788   4.493   4.833   2.516
 7297SOL     OW22789   2.621   6.577   2.821
 7297SOL    HW122790   2.700   6.577   2.760
 7297SOL    HW222791   2.597   6.672   2.844
 7298SOL     OW22792   5.028   5.550   0.325
 7298SOL    HW122793   5.123   5.559   0.354
 7298SOL    HW222794   5.020   5.578   0.229
 7299SOL     OW22795   0.978   1.798   0.619
 7299SOL    HW122796   1.047   1.735   0.584
 7299SOL    HW222797   0.909   1.814   0.549
 7300SOL     OW22798   0.515   5.451   2.152
 7300SOL    HW122799   0.463   5.450   2.066
 7300SOL    HW222800   0.558   5.362   2.166
 7301SOL     OW22801   6.624   1.715   5.796
 7301SOL    HW122802   6.531   1.748   5.807
 7301SOL    HW222803   6.653   1.727   5.701
 7302SOL     OW22804   0.398   2.023   5.342
 7302SOL    HW122805   0.422   1.934   5.380
 7302SOL    HW222806   0.312   2.016   5.291
 7303SOL     OW22807   3.471   0.988   0.008
 7303SOL    HW122808   3.490   0.920   6.962
 7303SOL    HW222809   3.384   0.968   0.052
 7304SOL     OW22810   2.047   5.509   1.875
 7304SOL    HW122811   2.132   5.508   1.929
 7304SOL    HW222812   1.976   5.556   1.927
 7305SOL     OW22813   6.098   2.287   1.242
 7305SOL    HW122814   6.043   2.357   1.196
 7305SOL    HW222815   6.045   2.247   1.316
 7306SOL     OW22816   3.660   1.471   1.546
 7306SOL    HW122817   3.610   1.557   1.557
 7306SOL    HW222818   3.646   1.436   1.454
 7307SOL     OW22819   4.195   7.010   2.203
 7307SOL    HW122820   4.199   6.970   2.295
 7307SOL    HW222821   4.276   6.982   2.152
 7308SOL     OW22822   6.991   1.594   3.346
 7308SOL    HW122823   0.001   1.542   3.424
 7308SOL    HW222824   0.028   1.581   3.268
 7309SOL     OW22825   2.553   6.473   1.821
 7309SOL    HW122826   2.602   6.540   1.877
 7309SOL    HW222827   2.604   6.455   1.737
 7310SOL     OW22828   1.770   3.446   6.241
 7310SOL    HW122829   1.828   3.410   6.313
 7310SOL    HW222830   1.749   3.374   6.175
 7311SOL     OW22831   0.900   6.966   0.559
 7311SOL    HW122832   0.827   6.929   0.502
 7311SOL    HW222833   0.982   6.981   0.504
 7312SOL     OW22834   0.911   1.893   5.175
 7312SOL    HW122835   0.870   1.842   5.251
 7312SOL    HW222836   0.852   1.970   5.151
 7313SOL     OW22837   2.549   1.801   0.640
 7313SOL    HW122838   2.552   1.705   0.669
 7313SOL    HW222839   2.535   1.805   0.541
 7314SOL     OW22840   6.983   3.965   6.024
 7314SOL    HW122841   6.905   3.992   6.080
 7314SOL    HW222842   0.007   3.889   6.068
 7315SOL     OW22843   5.784   5.479   2.512
 7315SOL    HW122844   5.861   5.416   2.524
 7315SOL    HW222845   5.778   5.540   2.591
 7316SOL     OW22846   3.421   2.070   6.344
 7316SOL    HW122847   3.341   2.025   6.303
 7316SOL    HW222848   3.399   2.165   6.364
 7317SOL     OW22849   3.635   1.150   1.944
 7317SOL    HW122850   3.732   1.153   1.921
 7317SOL    HW222851   3.594   1.068   1.904
 7318SOL     OW22852   3.164   6.371   2.530
 7318SOL    HW122853   3.253   6.324   2.525
 7318SOL    HW222854   3.178   6.470   2.526
 7319SOL     OW22855   5.998   3.761   6.187
 7319SOL    HW122856   6.033   3.716   6.269
 7319SOL    HW222857   6.074   3.781   6.125
 7320SOL     OW22858   0.879   3.766   6.947
 7320SOL    HW122859   0.836   3.779   6.858
 7320SOL    HW222860   0.818   3.713   7.006
 7321SOL     OW22861   2.119   6.378   6.209
 7321SOL    HW122862   2.062   6.296   6.214
 7321SOL    HW222863   2.142   6.397   6.113
 7322SOL     OW22864   0.201   2.972   2.786
 7322SOL    HW122865   0.278   3.016   2.739
 7322SOL    HW222866   0.140   2.931   2.719
 7323SOL     OW22867   2.797   2.209   1.292
 7323SOL    HW122868   2.871   2.178   1.233
 7323SOL    HW222869   2.740   2.130   1.318
 7324SOL     OW22870   6.058   4.463   2.768
 7324SOL    HW122871   6.153   4.492   2.775
 7324SOL    HW222872   5.997   4.538   2.796
 7325SOL     OW22873   2.767   7.019   5.411
 7325SOL    HW122874   2.837   6.977   5.469
 7325SOL    HW222875   2.739   6.954   5.340
 7326SOL     OW22876   3.763   0.723   6.390
 7326SOL    HW122877   3.773   0.630   6.356
 7326SOL    HW222878   3.813   0.786   6.332
 7327SOL     OW22879   5.799   3.470   3.996
 7327SOL    HW122880   5.775   3.475   4.092
 7327SOL    HW222881   5.856   3.549   3.971
 7328SOL     OW22882   4.525   6.541   6.128
 7328SOL    HW122883   4.620   6.563   6.147
 7328SOL    HW222884   4.507   6.549   6.030
 7329SOL     OW22885   1.192   2.808   0.298
 7329SOL    HW122886   1.196   2.713   0.268
 7329SOL    HW222887   1.257   2.823   0.373
 7330SOL     OW22888   2.701   2.645   1.333
 7330SOL    HW122889   2.668   2.737   1.315
 7330SOL    HW222890   2.678   2.619   1.427
 7331SOL     OW22891   4.956   5.978   2.158
 7331SOL    HW122892   4.950   6.069   2.118
 7331SOL    HW222893   4.872   5.927   2.137
 7332SOL     OW22894   3.887   4.154   6.859
 7332SOL    HW122895   3.805   4.210   6.847
 7332SOL    HW222896   3.949   4.169   6.782
 7333SOL     OW22897   6.022   3.395   3.377
 7333SOL    HW122898   6.084   3.450   3.322
 7333SOL    HW222899   6.049   3.299   3.372
 7334SOL     OW22900   2.932   5.331   5.527
 7334SOL    HW122901   3.003   5.369   5.468
 7334SOL    HW222902   2.927   5.232   5.514
 7335SOL     OW22903   0.106   2.490   3.033
 7335SOL    HW122904   0.033   2.423   3.048
 7335SOL    HW222905   0.191   2.443   3.011
 7336SOL     OW22906   2.149   6.083   1.312
 7336SOL    HW122907   2.232   6.117   1.267
 7336SOL    HW222908   2.095   6.161   1.344
 7337SOL     OW22909   2.654   3.080   1.364
 7337SOL    HW122910   2.666   3.169   1.409
 7337SOL    HW222911   2.735   3.024   1.378
 7338SOL     OW22912   6.069   2.044   1.473
 7338SOL    HW122913   5.994   2.111   1.470
 7338SOL    HW222914   6.033   1.957   1.507
 7339SOL     OW22915   6.733   6.736   5.562
 7339SOL    HW122916   6.649   6.787   5.585
 7339SOL    HW222917   6.811   6.798   5.562
 7340SOL     OW22918   4.016   1.852   0.078
 7340SOL    HW122919   4.090   1.802   0.032
 7340SOL    HW222920   4.051   1.940   0.110
 7341SOL     OW22921   1.390   5.102   5.291
 7341SOL    HW122922   1.390   5.187   5.344
 7341SOL    HW222923   1.381   5.124   5.194
 7342SOL     OW22924   6.053   6.923   0.359
 7342SOL    HW122925   6.118   6.930   0.284
 7342SOL    HW222926   5.959   6.929   0.323
 7343SOL     OW22927   5.545   3.131   2.006
 7343SOL    HW122928   5.510   3.062   2.069
 7343SOL    HW222929   5.582   3.086   1.924
 7344SOL     OW22930   1.775   0.098   6.530
 7344SOL    HW122931   1.792   0.177   6.589
 7344SOL    HW222932   1.823   0.018   6.567
 7345SOL     OW22933   5.092   5.786   5.447
 7345SOL    HW122934   5.068   5.721   5.375
 7345SOL    HW222935   5.008   5.822   5.488
 7346SOL     OW22936   3.848   3.924   1.127
 7346SOL    HW122937   3.853   3.825   1.114
 7346SOL    HW222938   3.753   3.952   1.133
 7347SOL     OW22939   6.639   2.228   1.350
 7347SOL    HW122940   6.724   2.210   1.301
 7347SOL    HW222941   6.561   2.219   1.287
 7348SOL     OW22942   1.557   3.357   3.734
 7348SOL    HW122943   1.490   3.374   3.806
 7348SOL    HW222944   1.525   3.399   3.649
 7349SOL     OW22945   3.428   1.806   1.432
 7349SOL    HW122946   3.402   1.781   1.339
 7349SOL    HW222947   3.368   1.760   1.497
 7350SOL     OW22948   1.289   3.102   3.986
 7350SOL    HW122949   1.237   3.026   4.024
 7350SOL    HW222950   1.277   3.104   3.887
 7351SOL     OW22951   4.379   4.917   6.423
 7351SOL    HW122952   4.478   4.928   6.432
 7351SOL    HW222953   4.336   4.920   6.513
 7352SOL     OW22954   1.945   2.509   3.313
 7352SOL    HW122955   1.961   2.603   3.342
 7352SOL    HW222956   2.009   2.486   3.239
 7353SOL     OW22957   0.659   0.513   5.716
 7353SOL    HW122958   0.688   0.440   5.654
 7353SOL    HW222959   0.631   0.474   5.803
 7354SOL     OW22960   0.229   1.283   6.036
 7354SOL    HW122961   0.312   1.280   6.092
 7354SOL    HW222962   0.255   1.283   5.939
 7355SOL     OW22963   1.245   6.469   6.958
 7355SOL    HW122964   1.314   6.406   6.993
 7355SOL    HW222965   1.170   6.477   7.024
 7356SOL     OW22966   5.089   3.032   6.328
 7356SOL    HW122967   5.144   3.106   6.367
 7356SOL    HW222968   5.144   2.949   6.322
 7357SOL     OW22969   4.624   1.199   1.050
 7357SOL    HW122970   4.638   1.137   1.128
 7357SOL    HW222971   4.680   1.281   1.062
 7358SOL     OW22972   1.827   2.510   2.392
 7358SOL    HW122973   1.808   2.482   2.298
 7358SOL    HW222974   1.919   2.479   2.418
 7359SOL     OW22975   3.354   2.547   0.862
 7359SOL    HW122976   3.387   2.504   0.946
 7359SOL    HW222977   3.270   2.501   0.832
 7360SOL     OW22978   3.124   2.130   6.117
 7360SOL    HW122979   3.048   2.163   6.173
 7360SOL    HW222980   3.167   2.052   6.161
 7361SOL     OW22981   3.921   6.913   2.098
 7361SOL    HW122982   3.879   6.917   2.189
 7361SOL    HW222983   4.018   6.938   2.105
 7362SOL     OW22984   0.623   0.056   5.040
 7362SOL    HW122985   0.588   6.987   5.028
 7362SOL    HW222986   0.633   0.099   4.951
 7363SOL     OW22987   4.030   1.600   1.358
 7363SOL    HW122988   4.025   1.531   1.430
 7363SOL    HW222989   3.960   1.581   1.289
 7364SOL     OW22990   4.186   6.917   1.489
 7364SOL    HW122991   4.106   6.952   1.538
 7364SOL    HW222992   4.239   6.857   1.550
 7365SOL     OW22993   1.562   5.942   1.986
 7365SOL    HW122994   1.646   5.995   2.001
 7365SOL    HW222995   1.507   5.986   1.915
 7366SOL     OW22996   1.562   5.829   0.587
 7366SOL    HW122997   1.582   5.733   0.572
 7366SOL    HW222998   1.505   5.864   0.512
 7367SOL     OW22999   4.452   4.022   1.103
 7367SOL    HW123000   4.536   3.984   1.143
 7367SOL    HW223001   4.433   4.111   1.144
 7368SOL     OW23002   3.696   2.962   4.174
 7368SOL    HW123003   3.621   3.023   4.148
 7368SOL    HW223004   3.708   2.963   4.274
 7369SOL     OW23005   5.135   3.163   0.947
 7369SOL    HW123006   5.060   3.144   1.012
 7369SOL    HW223007   5.216   3.112   0.975
 7370SOL     OW23008   2.281   0.262   5.458
 7370SOL    HW123009   2.274   0.345   5.514
 7370SOL    HW223010   2.319   0.188   5.513
 7371SOL     OW23011   2.493   5.632   3.606
 7371SOL    HW123012   2.567   5.639   3.673
 7371SOL    HW223013   2.531   5.640   3.514
 7372SOL     OW23014   3.144   0.809   5.770
 7372SOL    HW123015   3.089   0.729   5.744
 7372SOL    HW223016   3.238   0.781   5.787
 7373SOL     OW23017   5.244   1.766   3.548
 7373SOL    HW123018   5.290   1.677   3.543
 7373SOL    HW223019   5.232   1.792   3.643
 7374SOL     OW23020   2.937   2.344   5.350
 7374SOL    HW123021   3.016   2.348   5.289
 7374SOL    HW223022   2.931   2.252   5.390
 7375SOL     OW23023   2.012   1.960   3.239
 7375SOL    HW123024   1.936   1.914   3.194
 7375SOL    HW223025   1.997   1.961   3.338
 7376SOL     OW23026   3.946   1.586   0.505
 7376SOL    HW123027   3.925   1.561   0.600
 7376SOL    HW223028   3.987   1.677   0.503
 7377SOL     OW23029   4.851   5.696   1.907
 7377SOL    HW123030   4.786   5.706   1.832
 7377SOL    HW223031   4.812   5.733   1.991
 7378SOL     OW23032   6.960   2.296   4.878
 7378SOL    HW123033   6.910   2.214   4.908
 7378SOL    HW223034   6.949   2.307   4.779
 7379SOL     OW23035   4.127   2.232   3.074
 7379SOL    HW123036   4.048   2.222   3.014
 7379SOL    HW223037   4.206   2.263   3.020
 7380SOL     OW23038   6.663   3.360   5.180
 7380SOL    HW123039   6.571   3.329   5.155
 7380SOL    HW223040   6.717   3.282   5.210
 7381SOL     OW23041   5.052   4.061   2.740
 7381SOL    HW123042   5.033   3.964   2.724
 7381SOL    HW223043   5.089   4.102   2.657
 7382SOL     OW23044   0.143   5.859   6.066
 7382SOL    HW123045   0.211   5.932   6.058
 7382SOL    HW223046   0.161   5.789   5.996
 7383SOL     OW23047   0.439   6.700   1.728
 7383SOL    HW123048   0.515   6.764   1.714
 7383SOL    HW223049   0.382   6.698   1.645
 7384SOL     OW23050   4.948   0.979   2.317
 7384SOL    HW123051   5.035   1.015   2.351
 7384SOL    HW223052   4.966   0.913   2.244
 7385SOL     OW23053   4.242   6.471   2.021
 7385SOL    HW123054   4.233   6.375   1.992
 7385SOL    HW223055   4.334   6.485   2.059
 7386SOL     OW23056   0.199   2.377   5.365
 7386SOL    HW123057   0.155   2.467   5.371
 7386SOL    HW223058   0.182   2.338   5.274
 7387SOL     OW23059   4.170   0.049   4.650
 7387SOL    HW123060   4.228   0.112   4.702
 7387SOL    HW223061   4.217   0.021   4.567
 7388SOL     OW23062   6.521   5.236   3.492
 7388SOL    HW123063   6.592   5.297   3.455
 7388SOL    HW223064   6.432   5.262   3.453
 7389SOL     OW23065   1.017   4.966   0.086
 7389SOL    HW123066   0.992   4.919   0.171
 7389SOL    HW223067   0.987   5.062   0.092
 7390SOL     OW23068   1.510   1.320   0.085
 7390SOL    HW123069   1.477   1.344   7.018
 7390SOL    HW223070   1.609   1.332   0.089
 7391SOL     OW23071   4.889   3.954   4.573
 7391SOL    HW123072   4.903   3.941   4.671
 7391SOL    HW223073   4.855   3.869   4.533
 7392SOL     OW23074   3.105   5.835   6.513
 7392SOL    HW123075   3.022   5.779   6.515
 7392SOL    HW223076   3.081   5.932   6.516
 7393SOL     OW23077   6.103   5.506   1.586
 7393SOL    HW123078   6.191   5.546   1.610
 7393SOL    HW223079   6.116   5.428   1.525
 7394SOL     OW23080   3.231   2.521   6.518
 7394SOL    HW123081   3.139   2.543   6.486
 7394SOL    HW223082   3.233   2.524   6.618
 7395SOL     OW23083   2.125   1.038   0.098
 7395SOL    HW123084   2.123   1.122   0.043
 7395SOL    HW223085   2.066   0.969   0.055
 7396SOL     OW23086   1.140   0.060   0.465
 7396SOL    HW123087   1.193   0.090   0.386
 7396SOL    HW223088   1.176   0.100   0.548
 7397SOL     OW23089   5.078   5.325   4.660
 7397SOL    HW123090   5.000   5.317   4.598
 7397SOL    HW223091   5.120   5.236   4.672
 7398SOL     OW23092   3.339   5.224   4.140
 7398SOL    HW123093   3.367   5.297   4.202
 7398SOL    HW223094   3.308   5.145   4.193
 7399SOL     OW23095   0.277   3.589   5.492
 7399SOL    HW123096   0.221   3.638   5.558
 7399SOL    HW223097   0.260   3.625   5.400
 7400SOL     OW23098   2.652   3.875   6.634
 7400SOL    HW123099   2.586   3.877   6.710
 7400SOL    HW223100   2.660   3.782   6.600
 7401SOL     OW23101   0.879   0.862   3.819
 7401SOL    HW123102   0.822   0.912   3.754
 7401SOL    HW223103   0.869   0.764   3.804
 7402SOL     OW23104   1.897   5.301   5.031
 7402SOL    HW123105   1.908   5.396   5.003
 7402SOL    HW223106   1.987   5.257   5.034
 7403SOL     OW23107   1.506   3.396   3.363
 7403SOL    HW123108   1.603   3.409   3.387
 7403SOL    HW223109   1.458   3.483   3.372
 7404SOL     OW23110   2.667   5.817   1.870
 7404SOL    HW123111   2.698   5.823   1.775
 7404SOL    HW223112   2.570   5.839   1.874
 7405SOL     OW23113   2.243   4.910   4.521
 7405SOL    HW123114   2.246   4.819   4.480
 7405SOL    HW223115   2.331   4.956   4.508
 7406SOL     OW23116   1.277   3.578   3.464
 7406SOL    HW123117   1.356   3.603   3.519
 7406SOL    HW223118   1.211   3.528   3.521
 7407SOL     OW23119   6.876   6.070   5.187
 7407SOL    HW123120   6.931   6.121   5.121
 7407SOL    HW223121   6.815   6.133   5.235
 7408SOL     OW23122   1.085   3.598   5.528
 7408SOL    HW123123   1.073   3.499   5.543
 7408SOL    HW223124   1.130   3.613   5.440
 7409SOL     OW23125   0.419   1.369   4.986
 7409SOL    HW123126   0.494   1.436   4.986
 7409SOL    HW223127   0.449   1.285   4.940
 7410SOL     OW23128   6.973   4.561   0.962
 7410SOL    HW123129   6.940   4.510   0.883
 7410SOL    HW223130   7.001   4.653   0.934
 7411SOL     OW23131   2.980   6.511   4.179
 7411SOL    HW123132   3.076   6.506   4.205
 7411SOL    HW223133   2.968   6.578   4.106
 7412SOL     OW23134   4.250   0.714   2.144
 7412SOL    HW123135   4.260   0.813   2.156
 7412SOL    HW223136   4.157   0.687   2.167
 7413SOL     OW23137   6.021   5.387   4.639
 7413SOL    HW123138   6.082   5.366   4.562
 7413SOL    HW223139   6.066   5.363   4.725
 7414SOL     OW23140   0.122   6.649   3.767
 7414SOL    HW123141   0.026   6.676   3.772
 7414SOL    HW223142   0.147   6.631   3.672
 7415SOL     OW23143   0.897   4.123   3.146
 7415SOL    HW123144   0.925   4.136   3.241
 7415SOL    HW223145   0.968   4.072   3.097
 7416SOL     OW23146   2.913   0.590   3.931
 7416SOL    HW123147   2.907   0.590   4.031
 7416SOL    HW223148   2.851   0.659   3.894
 7417SOL     OW23149   2.364   0.128   6.175
 7417SOL    HW123150   2.454   0.147   6.212
 7417SOL    HW223151   2.315   0.066   6.236
 7418SOL     OW23152   3.991   5.231   0.742
 7418SOL    HW123153   4.082   5.188   0.745
 7418SOL    HW223154   3.998   5.319   0.696
 7419SOL     OW23155   6.537   2.679   4.607
 7419SOL    HW123156   6.456   2.632   4.572
 7419SOL    HW223157   6.593   2.711   4.531
 7420SOL     OW23158   6.728   6.400   2.218
 7420SOL    HW123159   6.823   6.418   2.245
 7420SOL    HW223160   6.719   6.413   2.119
 7421SOL     OW23161   3.099   3.752   1.824
 7421SOL    HW123162   3.136   3.809   1.750
 7421SOL    HW223163   3.174   3.700   1.866
 7422SOL     OW23164   0.284   3.792   1.947
 7422SOL    HW123165   0.193   3.817   1.913
 7422SOL    HW223166   0.275   3.725   2.021
 7423SOL     OW23167   6.605   4.303   5.806
 7423SOL    HW123168   6.556   4.242   5.744
 7423SOL    HW223169   6.660   4.250   5.871
 7424SOL     OW23170   6.371   0.853   4.433
 7424SOL    HW123171   6.437   0.807   4.374
 7424SOL    HW223172   6.300   0.787   4.461
 7425SOL     OW23173   4.529   6.006   6.601
 7425SOL    HW123174   4.489   6.008   6.693
 7425SOL    HW223175   4.504   5.919   6.557
 7426SOL     OW23176   1.019   1.937   6.167
 7426SOL    HW123177   0.944   1.870   6.160
 7426SOL    HW223178   1.023   1.990   6.083
 7427SOL     OW23179   3.319   6.199   4.271
 7427SOL    HW123180   3.296   6.155   4.184
 7427SOL    HW223181   3.418   6.202   4.282
 7428SOL     OW23182   3.788   1.535   5.334
 7428SOL    HW123183   3.791   1.541   5.434
 7428SOL    HW223184   3.876   1.563   5.296
 7429SOL     OW23185   5.303   0.212   3.117
 7429SOL    HW123186   5.265   0.136   3.171
 7429SOL    HW223187   5.251   0.295   3.136
 7430SOL     OW23188   0.350   3.813   6.580
 7430SOL    HW123189   0.305   3.900   6.560
 7430SOL    HW223190   0.439   3.811   6.535
 7431SOL     OW23191   0.223   3.598   2.161
 7431SOL    HW123192   0.259   3.563   2.247
 7431SOL    HW223193   0.132   3.561   2.145
 7432SOL     OW23194   0.246   6.809   3.367
 7432SOL    HW123195   0.205   6.727   3.327
 7432SOL    HW223196   0.336   6.825   3.325
 7433SOL     OW23197   5.760   5.057   1.122
 7433SOL    HW123198   5.826   5.002   1.172
 7433SOL    HW223199   5.758   5.029   1.026
 7434SOL     OW23200   4.552   1.065   6.446
 7434SOL    HW123201   4.482   1.097   6.382
 7434SOL    HW223202   4.561   0.965   6.437
 7435SOL     OW23203   3.822   5.675   6.851
 7435SOL    HW123204   3.812   5.766   6.809
 7435SOL    HW223205   3.746   5.617   6.822
 7436SOL     OW23206   5.415   3.529   6.026
 7436SOL    HW123207   5.369   3.487   6.104
 7436SOL    HW223208   5.501   3.481   6.009
 7437SOL     OW23209   0.193   5.952   0.201
 7437SOL    HW123210   0.244   6.019   0.147
 7437SOL    HW223211   0.108   5.993   0.234
 7438SOL     OW23212   1.064   5.530   0.836
 7438SOL    HW123213   1.041   5.459   0.903
 7438SOL    HW223214   0.996   5.603   0.840
 7439SOL     OW23215   1.367   6.309   4.791
 7439SOL    HW123216   1.437   6.246   4.757
 7439SOL    HW223217   1.278   6.283   4.753
 7440SOL     OW23218   1.160   2.886   4.110
 7440SOL    HW123219   1.176   2.903   4.207
 7440SOL    HW223220   1.070   2.844   4.098
 7441SOL     OW23221   4.874   6.228   4.844
 7441SOL    HW123222   4.874   6.165   4.767
 7441SOL    HW223223   4.968   6.256   4.865
 7442SOL     OW23224   1.131   1.293   6.268
 7442SOL    HW123225   1.208   1.340   6.226
 7442SOL    HW223226   1.132   1.197   6.242
 7443SOL     OW23227   0.171   0.593   1.352
 7443SOL    HW123228   0.258   0.543   1.358
 7443SOL    HW223229   0.176   0.661   1.279
 7444SOL     OW23230   6.623   3.685   4.845
 7444SOL    HW123231   6.605   3.783   4.843
 7444SOL    HW223232   6.686   3.661   4.771
 7445SOL     OW23233   3.761   0.494   1.250
 7445SOL    HW123234   3.797   0.579   1.290
 7445SOL    HW223235   3.679   0.466   1.300
 7446SOL     OW23236   5.308   4.240   1.015
 7446SOL    HW123237   5.226   4.243   0.958
 7446SOL    HW223238   5.312   4.323   1.071
 7447SOL     OW23239   1.636   2.853   5.647
 7447SOL    HW123240   1.639   2.872   5.549
 7447SOL    HW223241   1.594   2.930   5.694
 7448SOL     OW23242   5.446   6.893   5.151
 7448SOL    HW123243   5.448   6.795   5.131
 7448SOL    HW223244   5.481   6.944   5.073
 7449SOL     OW23245   6.333   2.352   1.798
 7449SOL    HW123246   6.250   2.366   1.852
 7449SOL    HW223247   6.405   2.316   1.856
 7450SOL     OW23248   4.790   2.214   4.400
 7450SOL    HW123249   4.726   2.218   4.477
 7450SOL    HW223250   4.850   2.294   4.402
 7451SOL     OW23251   1.422   0.098   2.509
 7451SOL    HW123252   1.512   0.100   2.553
 7451SOL    HW223253   1.394   0.191   2.485
 7452SOL     OW23254   0.702   6.651   4.856
 7452SOL    HW123255   0.642   6.586   4.809
 7452SOL    HW223256   0.781   6.602   4.893
 7453SOL     OW23257   4.948   5.714   6.190
 7453SOL    HW123258   5.038   5.749   6.217
 7453SOL    HW223259   4.907   5.665   6.267
 7454SOL     OW23260   1.102   2.682   1.808
 7454SOL    HW123261   1.008   2.704   1.836
 7454SOL    HW223262   1.163   2.756   1.836
 7455SOL     OW23263   0.384   1.594   1.950
 7455SOL    HW123264   0.308   1.613   1.887
 7455SOL    HW223265   0.413   1.499   1.939
 7456SOL     OW23266   0.527   2.413   4.104
 7456SOL    HW123267   0.514   2.322   4.142
 7456SOL    HW223268   0.598   2.411   4.034
 7457SOL     OW23269   3.692   0.720   5.387
 7457SOL    HW123270   3.785   0.752   5.366
 7457SOL    HW223271   3.696   0.651   5.459
 7458SOL     OW23272   2.704   6.880   6.328
 7458SOL    HW123273   2.654   6.966   6.341
 7458SOL    HW223274   2.794   6.899   6.290
 7459SOL     OW23275   4.731   0.609   0.951
 7459SOL    HW123276   4.641   0.565   0.949
 7459SOL    HW223277   4.739   0.672   0.874
 7460SOL     OW23278   1.680   4.506   1.314
 7460SOL    HW123279   1.626   4.443   1.258
 7460SOL    HW223280   1.667   4.485   1.410
 7461SOL     OW23281   6.061   1.492   6.356
 7461SOL    HW123282   6.091   1.489   6.452
 7461SOL    HW223283   5.980   1.434   6.345
 7462SOL     OW23284   2.137   3.498   2.721
 7462SOL    HW123285   2.134   3.401   2.744
 7462SOL    HW223286   2.071   3.548   2.779
 7463SOL     OW23287   3.336   4.875   1.398
 7463SOL    HW123288   3.307   4.816   1.322
 7463SOL    HW223289   3.343   4.821   1.482
 7464SOL     OW23290   3.371   6.807   6.462
 7464SOL    HW123291   3.329   6.738   6.403
 7464SOL    HW223292   3.467   6.820   6.435
 7465SOL     OW23293   1.488   6.905   0.162
 7465SOL    HW123294   1.547   6.828   0.185
 7465SOL    HW223295   1.475   6.963   0.243
 7466SOL     OW23296   0.591   0.116   6.156
 7466SOL    HW123297   0.535   0.094   6.076
 7466SOL    HW223298   0.687   0.099   6.135
 7467SOL     OW23299   6.732   1.016   0.659
 7467SOL    HW123300   6.812   0.980   0.610
 7467SOL    HW223301   6.655   0.953   0.648
 7468SOL     OW23302   6.226   3.161   2.402
 7468SOL    HW123303   6.184   3.071   2.404
 7468SOL    HW223304   6.154   3.231   2.400
 7469SOL     OW23305   6.530   0.007   0.106
 7469SOL    HW123306   6.618   0.041   0.141
 7469SOL    HW223307   6.483   0.081   0.058
 7470SOL     OW23308   0.558   2.963   4.184
 7470SOL    HW123309   0.491   2.948   4.256
 7470SOL    HW223310   0.649   2.971   4.224
 7471SOL     OW23311   5.553   6.085   5.617
 7471SOL    HW123312   5.609   6.058   5.695
 7471SOL    HW223313   5.493   6.160   5.644
 7472SOL     OW23314   5.947   6.715   4.589
 7472SOL    HW123315   5.987   6.708   4.680
 7472SOL    HW223316   5.979   6.639   4.533
 7473SOL     OW23317   0.380   4.519   2.497
 7473SOL    HW123318   0.306   4.549   2.556
 7473SOL    HW223319   0.451   4.475   2.552
 7474SOL     OW23320   2.228   1.425   5.369
 7474SOL    HW123321   2.311   1.461   5.326
 7474SOL    HW223322   2.237   1.326   5.379
 7475SOL     OW23323   3.502   1.311   2.135
 7475SOL    HW123324   3.549   1.394   2.103
 7475SOL    HW223325   3.541   1.231   2.090
 7476SOL     OW23326   3.863   5.729   4.134
 7476SOL    HW123327   3.856   5.651   4.197
 7476SOL    HW223328   3.868   5.695   4.040
 7477SOL     OW23329   6.450   1.574   4.672
 7477SOL    HW123330   6.461   1.619   4.584
 7477SOL    HW223331   6.360   1.597   4.711
 7478SOL     OW23332   4.367   4.898   6.983
 7478SOL    HW123333   4.401   4.805   6.998
 7478SOL    HW223334   4.442   4.956   6.951
 7479SOL     OW23335   4.083   2.570   1.120
 7479SOL    HW123336   4.016   2.628   1.167
 7479SOL    HW223337   4.092   2.483   1.169
 7480SOL     OW23338   6.223   4.155   1.707
 7480SOL    HW123339   6.272   4.068   1.720
 7480SOL    HW223340   6.274   4.213   1.644
 7481SOL     OW23341   5.960   5.261   2.590
 7481SOL    HW123342   6.051   5.294   2.616
 7481SOL    HW223343   5.967   5.171   2.548
 7482SOL     OW23344   5.251   2.032   2.830
 7482SOL    HW123345   5.331   2.087   2.854
 7482SOL    HW223346   5.261   1.998   2.736
 7483SOL     OW23347   4.647   2.413   5.044
 7483SOL    HW123348   4.739   2.437   5.075
 7483SOL    HW223349   4.647   2.320   5.007
 7484SOL     OW23350   0.594   0.359   3.208
 7484SOL    HW123351   0.632   0.294   3.273
 7484SOL    HW223352   0.665   0.423   3.178
 7485SOL     OW23353   3.076   0.037   4.713
 7485SOL    HW123354   3.100   0.021   4.617
 7485SOL    HW223355   2.998   7.003   4.738
 7486SOL     OW23356   2.899   0.591   6.082
 7486SOL    HW123357   2.827   0.578   6.013
 7486SOL    HW223358   2.879   0.532   6.161
 7487SOL     OW23359   2.615   6.514   2.395
 7487SOL    HW123360   2.712   6.525   2.417
 7487SOL    HW223361   2.560   6.534   2.477
 7488SOL     OW23362   2.074   6.854   4.893
 7488SOL    HW123363   2.017   6.775   4.913
 7488SOL    HW223364   2.016   6.930   4.862
 7489SOL     OW23365   5.529   2.406   4.773
 7489SOL    HW123366   5.481   2.326   4.810
 7489SOL    HW223367   5.592   2.441   4.842
 7490SOL     OW23368   0.789   1.832   0.865
 7490SOL    HW123369   0.830   1.767   0.929
 7490SOL    HW223370   0.812   1.807   0.771
 7491SOL     OW23371   6.671   3.440   6.844
 7491SOL    HW123372   6.575   3.412   6.842
 7491SOL    HW223373   6.724   3.372   6.895
 7492SOL     OW23374   2.788   1.348   4.539
 7492SOL    HW123375   2.788   1.334   4.638
 7492SOL    HW223376   2.819   1.263   4.494
 7493SOL     OW23377   6.937   4.085   6.618
 7493SOL    HW123378   6.910   4.169   6.571
 7493SOL    HW223379   7.022   4.050   6.579
 7494SOL     OW23380   6.147   0.700   2.848
 7494SOL    HW123381   6.133   0.647   2.764
 7494SOL    HW223382   6.200   0.782   2.827
 7495SOL     OW23383   2.353   1.016   0.443
 7495SOL    HW123384   2.258   1.042   0.426
 7495SOL    HW223385   2.356   0.923   0.479
 7496SOL     OW23386   0.206   3.590   6.661
 7496SOL    HW123387   0.284   3.646   6.634
 7496SOL    HW223388   0.121   3.640   6.642
 7497SOL     OW23389   2.763   4.296   0.242
 7497SOL    HW123390   2.789   4.313   0.147
 7497SOL    HW223391   2.669   4.262   0.246
 7498SOL     OW23392   2.266   1.134   5.446
 7498SOL    HW123393   2.168   1.119   5.455
 7498SOL    HW223394   2.307   1.058   5.396
 7499SOL     OW23395   4.735   1.275   3.512
 7499SOL    HW123396   4.654   1.323   3.547
 7499SOL    HW223397   4.715   1.238   3.422
 7500SOL     OW23398   3.666   5.941   4.180
 7500SOL    HW123399   3.692   6.009   4.249
 7500SOL    HW223400   3.718   5.857   4.196
 7501SOL     OW23401   6.498   4.758   4.400
 7501SOL    HW123402   6.501   4.747   4.301
 7501SOL    HW223403   6.472   4.852   4.422
 7502SOL     OW23404   1.427   0.410   4.821
 7502SOL    HW123405   1.406   0.365   4.734
 7502SOL    HW223406   1.460   0.503   4.804
 7503SOL     OW23407   2.328   1.607   0.759
 7503SOL    HW123408   2.426   1.586   0.762
 7503SOL    HW223409   2.288   1.594   0.849
 7504SOL     OW23410   2.205   0.376   3.268
 7504SOL    HW123411   2.167   0.283   3.262
 7504SOL    HW223412   2.201   0.420   3.179
 7505SOL     OW23413   2.404   1.868   5.601
 7505SOL    HW123414   2.315   1.885   5.559
 7505SOL    HW223415   2.476   1.912   5.548
 7506SOL     OW23416   4.660   6.412   2.803
 7506SOL    HW123417   4.660   6.484   2.872
 7506SOL    HW223418   4.656   6.453   2.712
 7507SOL     OW23419   0.714   0.570   1.808
 7507SOL    HW123420   0.662   0.510   1.870
 7507SOL    HW223421   0.660   0.587   1.726
 7508SOL     OW23422   6.670   6.768   1.823
 7508SOL    HW123423   6.681   6.793   1.919
 7508SOL    HW223424   6.760   6.763   1.780
 7509SOL     OW23425   5.741   4.599   1.133
 7509SOL    HW123426   5.815   4.644   1.083
 7509SOL    HW223427   5.754   4.500   1.129
 7510SOL     OW23428   2.703   4.535   5.321
 7510SOL    HW123429   2.795   4.514   5.287
 7510SOL    HW223430   2.641   4.550   5.244
 7511SOL     OW23431   1.730   6.757   3.534
 7511SOL    HW123432   1.769   6.678   3.486
 7511SOL    HW223433   1.643   6.782   3.492
 7512SOL     OW23434   3.229   5.076   6.567
 7512SOL    HW123435   3.136   5.049   6.543
 7512SOL    HW223436   3.294   5.034   6.503
 7513SOL     OW23437   2.100   1.520   1.518
 7513SOL    HW123438   2.194   1.512   1.553
 7513SOL    HW223439   2.100   1.503   1.419
 7514SOL     OW23440   2.326   5.553   1.952
 7514SOL    HW123441   2.383   5.512   1.881
 7514SOL    HW223442   2.383   5.573   2.033
 7515SOL     OW23443   0.211   5.522   2.206
 7515SOL    HW123444   0.296   5.507   2.255
 7515SOL    HW223445   0.228   5.582   2.128
 7516SOL     OW23446   6.420   5.778   4.222
 7516SOL    HW123447   6.422   5.809   4.318
 7516SOL    HW223448   6.326   5.782   4.189
 7517SOL     OW23449   6.916   3.384   1.175
 7517SOL    HW123450   6.897   3.329   1.094
 7517SOL    HW223451   6.896   3.331   1.258
 7518SOL     OW23452   4.158   5.041   3.297
 7518SOL    HW123453   4.228   5.110   3.316
 7518SOL    HW223454   4.077   5.085   3.258
 7519SOL     OW23455   0.343   7.002   4.173
 7519SOL    HW123456   0.296   0.044   4.114
 7519SOL    HW223457   0.367   0.021   4.259
 7520SOL     OW23458   3.071   6.603   1.682
 7520SOL    HW123459   3.087   6.536   1.610
 7520SOL    HW223460   2.995   6.663   1.655
 7521SOL     OW23461   4.573   4.804   6.119
 7521SOL    HW123462   4.520   4.722   6.100
 7521SOL    HW223463   4.656   4.804   6.064
 7522SOL     OW23464   2.696   6.489   6.258
 7522SOL    HW123465   2.771   6.510   6.320
 7522SOL    HW223466   2.634   6.567   6.252
 7523SOL     OW23467   5.656   0.758   6.550
 7523SOL    HW123468   5.655   0.728   6.646
 7523SOL    HW223469   5.599   0.839   6.540
 7524SOL     OW23470   2.100   2.244   6.781
 7524SOL    HW123471   2.000   2.247   6.784
 7524SOL    HW223472   2.138   2.311   6.845
 7525SOL     OW23473   2.760   0.411   6.734
 7525SOL    HW123474   2.687   0.468   6.770
 7525SOL    HW223475   2.823   0.387   6.808
 7526SOL     OW23476   3.239   3.289   2.147
 7526SOL    HW123477   3.182   3.249   2.219
 7526SOL    HW223478   3.259   3.385   2.171
 7527SOL     OW23479   4.209   5.950   2.978
 7527SOL    HW123480   4.194   6.020   3.047
 7527SOL    HW223481   4.122   5.908   2.954
 7528SOL     OW23482   4.539   1.922   6.890
 7528SOL    HW123483   4.569   1.852   6.825
 7528SOL    HW223484   4.489   1.994   6.841
 7529SOL     OW23485   6.027   0.371   4.374
 7529SOL    HW123486   6.032   0.352   4.472
 7529SOL    HW223487   5.985   0.460   4.359
 7530SOL     OW23488   0.119   3.990   2.116
 7530SOL    HW123489   0.120   3.941   2.028
 7530SOL    HW223490   0.184   4.066   2.112
 7531SOL     OW23491   4.523   2.200   3.924
 7531SOL    HW123492   4.592   2.251   3.975
 7531SOL    HW223493   4.514   2.240   3.832
 7532SOL     OW23494   5.423   5.037   1.670
 7532SOL    HW123495   5.499   5.013   1.611
 7532SOL    HW223496   5.439   5.128   1.710
 7533SOL     OW23497   2.730   1.392   2.457
 7533SOL    HW123498   2.765   1.339   2.534
 7533SOL    HW223499   2.639   1.360   2.431
 7534SOL     OW23500   4.328   6.726   5.960
 7534SOL    HW123501   4.407   6.701   6.017
 7534SOL    HW223502   4.343   6.694   5.866
 7535SOL     OW23503   3.149   0.468   5.994
 7535SOL    HW123504   3.094   0.520   6.059
 7535SOL    HW223505   3.124   0.493   5.900
 7536SOL     OW23506   5.331   5.288   5.428
 7536SOL    HW123507   5.431   5.300   5.424
 7536SOL    HW223508   5.309   5.192   5.409
 7537SOL     OW23509   2.583   5.350   3.396
 7537SOL    HW123510   2.579   5.447   3.372
 7537SOL    HW223511   2.497   5.323   3.438
 7538SOL     OW23512   3.504   3.417   1.849
 7538SOL    HW123513   3.444   3.339   1.869
 7538SOL    HW223514   3.598   3.394   1.873
 7539SOL     OW23515   1.696   2.535   4.052
 7539SOL    HW123516   1.693   2.458   4.116
 7539SOL    HW223517   1.769   2.521   3.986
 7540SOL     OW23518   3.061   6.462   5.711
 7540SOL    HW123519   3.140   6.418   5.754
 7540SOL    HW223520   3.006   6.393   5.663
 7541SOL     OW23521   6.756   4.438   4.061
 7541SOL    HW123522   6.747   4.472   4.155
 7541SOL    HW223523   6.669   4.451   4.014
 7542SOL     OW23524   0.657   5.507   6.859
 7542SOL    HW123525   0.703   5.552   6.782
 7542SOL    HW223526   0.580   5.562   6.889
 7543SOL     OW23527   3.938   1.875   1.239
 7543SOL    HW123528   3.842   1.889   1.217
 7543SOL    HW223529   3.952   1.890   1.337
 7544SOL     OW23530   0.671   2.441   3.182
 7544SOL    HW123531   0.636   2.445   3.275
 7544SOL    HW223532   0.676   2.346   3.152
 7545SOL     OW23533   6.082   6.205   2.583
 7545SOL    HW123534   6.174   6.166   2.588
 7545SOL    HW223535   6.071   6.251   2.495
 7546SOL     OW23536   3.230   0.845   2.081
 7546SOL    HW123537   3.141   0.802   2.065
 7546SOL    HW223538   3.302   0.782   2.052
 7547SOL     OW23539   4.662   0.236   0.460
 7547SOL    HW123540   4.647   0.139   0.443
 7547SOL    HW223541   4.712   0.277   0.383
 7548SOL     OW23542   3.750   2.221   0.488
 7548SOL    HW123543   3.831   2.191   0.540
 7548SOL    HW223544   3.770   2.308   0.443
 7549SOL     OW23545   5.543   1.972   0.730
 7549SOL    HW123546   5.491   1.906   0.784
 7549SOL    HW223547   5.484   2.049   0.705
 7550SOL     OW23548   2.384   4.541   2.061
 7550SOL    HW123549   2.370   4.571   2.155
 7550SOL    HW223550   2.417   4.447   2.060
 7551SOL     OW23551   4.744   3.804   6.580
 7551SOL    HW123552   4.810   3.752   6.527
 7551SOL    HW223553   4.767   3.798   6.677
 7552SOL     OW23554   1.829   5.893   2.897
 7552SOL    HW123555   1.858   5.854   2.984
 7552SOL    HW223556   1.831   5.993   2.903
 7553SOL     OW23557   4.513   5.148   5.559
 7553SOL    HW123558   4.536   5.155   5.656
 7553SOL    HW223559   4.419   5.180   5.545
 7554SOL     OW23560   4.313   1.077   1.450
 7554SOL    HW123561   4.273   0.994   1.411
 7554SOL    HW223562   4.310   1.151   1.383
 7555SOL     OW23563   1.989   4.942   5.180
 7555SOL    HW123564   1.901   4.910   5.216
 7555SOL    HW223565   2.057   4.870   5.190
 7556SOL     OW23566   0.802   2.949   5.667
 7556SOL    HW123567   0.786   3.041   5.703
 7556SOL    HW223568   0.764   2.881   5.730
 7557SOL     OW23569   5.160   2.488   5.845
 7557SOL    HW123570   5.206   2.480   5.757
 7557SOL    HW223571   5.134   2.398   5.878
 7558SOL     OW23572   2.045   2.546   4.223
 7558SOL    HW123573   1.968   2.610   4.227
 7558SOL    HW223574   2.045   2.499   4.134
 7559SOL     OW23575   6.378   5.080   0.069
 7559SOL    HW123576   6.292   5.075   0.017
 7559SOL    HW223577   6.447   5.126   0.014
 7560SOL     OW23578   5.331   6.518   0.898
 7560SOL    HW123579   5.269   6.543   0.973
 7560SOL    HW223580   5.278   6.478   0.823
 7561SOL     OW23581   0.960   3.612   6.684
 7561SOL    HW123582   0.862   3.620   6.700
 7561SOL    HW223583   0.975   3.577   6.591
 7562SOL     OW23584   6.110   5.955   5.083
 7562SOL    HW123585   6.082   5.996   5.170
 7562SOL    HW223586   6.064   5.867   5.071
 7563SOL     OW23587   2.581   6.123   0.991
 7563SOL    HW123588   2.599   6.037   1.038
 7563SOL    HW223589   2.524   6.105   0.910
 7564SOL     OW23590   5.071   1.618   2.913
 7564SOL    HW123591   5.040   1.587   3.003
 7564SOL    HW223592   5.014   1.577   2.842
 7565SOL     OW23593   5.370   4.142   0.105
 7565SOL    HW123594   5.464   4.113   0.123
 7565SOL    HW223595   5.351   4.226   0.156
 7566SOL     OW23596   0.025   5.290   3.944
 7566SOL    HW123597   0.064   5.200   3.959
 7566SOL    HW223598   7.020   5.329   4.032
 7567SOL     OW23599   1.878   1.913   5.078
 7567SOL    HW123600   1.871   1.917   5.178
 7567SOL    HW223601   1.934   1.989   5.045
 7568SOL     OW23602   5.397   6.071   3.230
 7568SOL    HW123603   5.366   5.976   3.220
 7568SOL    HW223604   5.431   6.104   3.142
 7569SOL     OW23605   3.913   5.039   6.408
 7569SOL    HW123606   3.839   5.045   6.475
 7569SOL    HW223607   3.907   4.951   6.361
 7570SOL     OW23608   5.542   4.998   5.402
 7570SOL    HW123609   5.444   4.988   5.386
 7570SOL    HW223610   5.565   5.095   5.411
 7571SOL     OW23611   4.658   5.652   3.398
 7571SOL    HW123612   4.606   5.738   3.399
 7571SOL    HW223613   4.641   5.602   3.483
 7572SOL     OW23614   4.204   1.172   2.499
 7572SOL    HW123615   4.238   1.179   2.406
 7572SOL    HW223616   4.281   1.155   2.562
 7573SOL     OW23617   6.629   6.661   4.917
 7573SOL    HW123618   6.691   6.702   4.984
 7573SOL    HW223619   6.679   6.594   4.862
 7574SOL     OW23620   6.586   1.055   4.458
 7574SOL    HW123621   6.511   0.990   4.449
 7574SOL    HW223622   6.601   1.074   4.555
 7575SOL     OW23623   4.031   0.683   6.013
 7575SOL    HW123624   4.028   0.585   5.994
 7575SOL    HW223625   4.069   0.732   5.935
 7576SOL     OW23626   5.844   4.877   0.367
 7576SOL    HW123627   5.874   4.833   0.452
 7576SOL    HW223628   5.757   4.925   0.383
 7577SOL     OW23629   7.017   6.471   5.957
 7577SOL    HW123630   7.013   6.435   5.864
 7577SOL    HW223631   0.087   6.492   5.981
 7578SOL     OW23632   2.871   5.886   2.343
 7578SOL    HW123633   2.892   5.795   2.378
 7578SOL    HW223634   2.933   5.953   2.384
 7579SOL     OW23635   5.693   2.545   1.936
 7579SOL    HW123636   5.668   2.453   1.906
 7579SOL    HW223637   5.623   2.581   1.997
 7580SOL     OW23638   1.638   4.302   3.998
 7580SOL    HW123639   1.718   4.248   4.025
 7580SOL    HW223640   1.565   4.288   4.065
 7581SOL     OW23641   6.971   0.237   1.291
 7581SOL    HW123642   6.973   0.276   1.199
 7581SOL    HW223643   6.899   0.167   1.296
 7582SOL     OW23644   2.503   0.691   0.157
 7582SOL    HW123645   2.500   0.630   0.078
 7582SOL    HW223646   2.570   0.657   0.223
 7583SOL     OW23647   6.265   2.849   0.704
 7583SOL    HW123648   6.192   2.909   0.736
 7583SOL    HW223649   6.338   2.904   0.663
 7584SOL     OW23650   2.339   6.662   0.911
 7584SOL    HW123651   2.351   6.574   0.864
 7584SOL    HW223652   2.423   6.715   0.904
 7585SOL     OW23653   2.105   2.919   5.772
 7585SOL    HW123654   2.176   2.888   5.709
 7585SOL    HW223655   2.075   3.011   5.746
 7586SOL     OW23656   3.513   0.799   3.583
 7586SOL    HW123657   3.458   0.776   3.663
 7586SOL    HW223658   3.581   0.727   3.567
 7587SOL     OW23659   2.653   2.014   6.547
 7587SOL    HW123660   2.690   1.937   6.495
 7587SOL    HW223661   2.728   2.074   6.574
 7588SOL     OW23662   1.151   3.133   2.959
 7588SOL    HW123663   1.180   3.126   2.863
 7588SOL    HW223664   1.199   3.208   3.003
 7589SOL     OW23665   6.826   6.931   2.109
 7589SOL    HW123666   6.823   6.965   2.015
 7589SOL    HW223667   6.774   6.992   2.168
 7590SOL     OW23668   4.321   2.075   6.786
 7590SOL    HW123669   4.329   2.065   6.687
 7590SOL    HW223670   4.302   2.171   6.808
 7591SOL     OW23671   6.953   4.317   0.394
 7591SOL    HW123672   6.893   4.381   0.346
 7591SOL    HW223673   6.989   4.250   0.329
 7592SOL     OW23674   6.342   4.226   6.585
 7592SOL    HW123675   6.301   4.141   6.553
 7592SOL    HW223676   6.438   4.210   6.607
 7593SOL     OW23677   5.450   2.652   1.271
 7593SOL    HW123678   5.451   2.737   1.324
 7593SOL    HW223679   5.364   2.604   1.286
 7594SOL     OW23680   0.583   5.035   1.943
 7594SOL    HW123681   0.490   5.023   1.977
 7594SOL    HW223682   0.581   5.095   1.862
 7595SOL     OW23683   0.037   2.903   6.004
 7595SOL    HW123684   0.107   2.848   6.050
 7595SOL    HW223685   0.076   2.991   5.978
 7596SOL     OW23686   4.885   5.945   3.675
 7596SOL    HW123687   4.981   5.960   3.701
 7596SOL    HW223688   4.830   5.932   3.758
 7597SOL     OW23689   3.228   6.055   2.632
 7597SOL    HW123690   3.240   6.033   2.728
 7597SOL    HW223691   3.317   6.055   2.586
 7598SOL     OW23692   0.322   1.286   3.957
 7598SOL    HW123693   0.248   1.267   3.892
 7598SOL    HW223694   0.288   1.276   4.050
 7599SOL     OW23695   5.424   2.009   2.500
 7599SOL    HW123696   5.332   1.974   2.486
 7599SOL    HW223697   5.480   1.940   2.546
 7600SOL     OW23698   1.592   1.333   2.679
 7600SOL    HW123699   1.686   1.364   2.671
 7600SOL    HW223700   1.561   1.297   2.590
 7601SOL     OW23701   1.915   5.288   2.591
 7601SOL    HW123702   1.830   5.286   2.644
 7601SOL    HW223703   1.899   5.336   2.505
 7602SOL     OW23704   0.459   4.569   0.222
 7602SOL    HW123705   0.504   4.506   0.284
 7602SOL    HW223706   0.527   4.628   0.179
 7603SOL     OW23707   1.963   5.168   5.878
 7603SOL    HW123708   1.991   5.244   5.938
 7603SOL    HW223709   2.040   5.143   5.819
 7604SOL     OW23710   1.543   4.631   4.300
 7604SOL    HW123711   1.465   4.688   4.328
 7604SOL    HW223712   1.549   4.631   4.200
 7605SOL     OW23713   0.477   0.085   0.850
 7605SOL    HW123714   0.534   0.070   0.770
 7605SOL    HW223715   0.380   0.076   0.825
 7606SOL     OW23716   6.643   3.501   3.854
 7606SOL    HW123717   6.661   3.471   3.760
 7606SOL    HW223718   6.708   3.574   3.878
 7607SOL     OW23719   4.492   5.099   0.532
 7607SOL    HW123720   4.472   5.146   0.617
 7607SOL    HW223721   4.579   5.132   0.495
 7608SOL     OW23722   3.319   3.741   3.436
 7608SOL    HW123723   3.410   3.728   3.396
 7608SOL    HW223724   3.329   3.765   3.533
 7609SOL     OW23725   0.626   3.709   4.032
 7609SOL    HW123726   0.611   3.646   4.108
 7609SOL    HW223727   0.562   3.785   4.038
 7610SOL     OW23728   5.821   6.055   0.226
 7610SOL    HW123729   5.790   6.026   0.317
 7610SOL    HW223730   5.898   6.117   0.235
 7611SOL     OW23731   0.285   1.817   6.974
 7611SOL    HW123732   0.250   1.869   6.896
 7611SOL    HW223733   0.376   1.851   6.998
 7612SOL     OW23734   5.257   3.307   5.041
 7612SOL    HW123735   5.237   3.398   5.004
 7612SOL    HW223736   5.194   3.287   5.116
 7613SOL     OW23737   6.150   3.195   0.944
 7613SOL    HW123738   6.082   3.129   0.911
 7613SOL    HW223739   6.232   3.146   0.975
 7614SOL     OW23740   5.275   3.661   1.005
 7614SOL    HW123741   5.258   3.646   1.102
 7614SOL    HW223742   5.270   3.759   0.985
 7615SOL     OW23743   4.476   3.721   6.096
 7615SOL    HW123744   4.533   3.802   6.082
 7615SOL    HW223745   4.380   3.744   6.080
 7616SOL     OW23746   6.261   4.796   5.452
 7616SOL    HW123747   6.339   4.819   5.395
 7616SOL    HW223748   6.177   4.831   5.410
 7617SOL     OW23749   3.817   5.690   2.765
 7617SOL    HW123750   3.723   5.656   2.753
 7617SOL    HW223751   3.868   5.628   2.824
 7618SOL     OW23752   0.344   1.563   5.842
 7618SOL    HW123753   0.329   1.469   5.810
 7618SOL    HW223754   0.257   1.612   5.839
 7619SOL     OW23755   5.823   3.318   5.544
 7619SOL    HW123756   5.757   3.271   5.602
 7619SOL    HW223757   5.827   3.415   5.570
 7620SOL     OW23758   4.021   5.497   0.348
 7620SOL    HW123759   4.007   5.440   0.266
 7620SOL    HW223760   4.105   5.550   0.337
 7621SOL     OW23761   0.183   1.957   0.457
 7621SOL    HW123762   0.202   1.862   0.431
 7621SOL    HW223763   0.209   2.018   0.383
 7622SOL     OW23764   5.319   5.459   1.791
 7622SOL    HW123765   5.298   5.362   1.805
 7622SOL    HW223766   5.395   5.485   1.850
 7623SOL     OW23767   4.449   3.682   6.869
 7623SOL    HW123768   4.447   3.644   6.777
 7623SOL    HW223769   4.404   3.620   6.933
 7624SOL     OW23770   0.109   3.067   4.857
 7624SOL    HW123771   0.067   3.098   4.772
 7624SOL    HW223772   0.166   3.140   4.895
 7625SOL     OW23773   5.035   0.979   1.336
 7625SOL    HW123774   4.976   0.903   1.306
 7625SOL    HW223775   5.088   0.950   1.416
 7626SOL     OW23776   5.855   6.777   4.325
 7626SOL    HW123777   5.868   6.732   4.414
 7626SOL    HW223778   5.849   6.708   4.253
 7627SOL     OW23779   5.642   2.634   6.779
 7627SOL    HW123780   5.701   2.707   6.744
 7627SOL    HW223781   5.628   2.646   6.877
 7628SOL     OW23782   4.247   6.973   2.657
 7628SOL    HW123783   4.215   6.910   2.728
 7628SOL    HW223784   4.218   6.939   2.567
 7629SOL     OW23785   6.794   0.155   2.777
 7629SOL    HW123786   6.844   0.205   2.848
 7629SOL    HW223787   6.813   0.058   2.784
 7630SOL     OW23788   6.349   0.298   1.684
 7630SOL    HW123789   6.311   0.254   1.602
 7630SOL    HW223790   6.439   0.337   1.662
 7631SOL     OW23791   0.936   0.747   6.037
 7631SOL    HW123792   0.844   0.711   6.045
 7631SOL    HW223793   0.936   0.844   6.059
 7632SOL     OW23794   3.654   2.612   1.764
 7632SOL    HW123795   3.561   2.620   1.728
 7632SOL    HW223796   3.660   2.529   1.821
 7633SOL     OW23797   5.342   1.283   1.144
 7633SOL    HW123798   5.371   1.340   1.220
 7633SOL    HW223799   5.422   1.237   1.105
 7634SOL     OW23800   0.791   1.997   2.817
 7634SOL    HW123801   0.691   2.004   2.813
 7634SOL    HW223802   0.824   2.031   2.905
 7635SOL     OW23803   3.430   5.742   4.958
 7635SOL    HW123804   3.376   5.712   4.880
 7635SOL    HW223805   3.477   5.663   4.999
 7636SOL     OW23806   1.266   2.258   4.234
 7636SOL    HW123807   1.235   2.164   4.218
 7636SOL    HW223808   1.193   2.321   4.208
 7637SOL     OW23809   2.455   5.000   1.822
 7637SOL    HW123810   2.369   4.957   1.847
 7637SOL    HW223811   2.524   4.930   1.803
 7638SOL     OW23812   4.023   6.441   0.678
 7638SOL    HW123813   3.997   6.354   0.637
 7638SOL    HW223814   3.960   6.464   0.752
 7639SOL     OW23815   1.103   2.204   0.281
 7639SOL    HW123816   1.011   2.170   0.262
 7639SOL    HW223817   1.163   2.184   0.204
 7640SOL     OW23818   3.311   2.039   6.911
 7640SOL    HW123819   3.276   2.081   6.827
 7640SOL    HW223820   3.266   1.952   6.927
 7641SOL     OW23821   1.260   4.240   1.645
 7641SOL    HW123822   1.304   4.250   1.734
 7641SOL    HW223823   1.254   4.143   1.621
 7642SOL     OW23824   4.087   0.660   3.212
 7642SOL    HW123825   4.170   0.705   3.245
 7642SOL    HW223826   4.027   0.728   3.169
 7643SOL     OW23827   4.822   3.083   4.265
 7643SOL    HW123828   4.803   2.992   4.301
 7643SOL    HW223829   4.830   3.079   4.165
 7644SOL     OW23830   5.945   2.602   2.465
 7644SOL    HW123831   5.864   2.578   2.520
 7644SOL    HW223832   5.961   2.531   2.397
 7645SOL     OW23833   3.935   4.079   5.582
 7645SOL    HW123834   3.941   4.066   5.681
 7645SOL    HW223835   3.998   4.150   5.553
 7646SOL     OW23836   1.615   3.336   2.546
 7646SOL    HW123837   1.682   3.266   2.523
 7646SOL    HW223838   1.538   3.294   2.595
 7647SOL     OW23839   6.389   3.817   2.286
 7647SOL    HW123840   6.470   3.787   2.336
 7647SOL    HW223841   6.379   3.916   2.295
 7648SOL     OW23842   3.280   1.600   3.654
 7648SOL    HW123843   3.271   1.638   3.562
 7648SOL    HW223844   3.198   1.548   3.677
 7649SOL     OW23845   0.683   0.646   3.159
 7649SOL    HW123846   0.747   0.672   3.231
 7649SOL    HW223847   0.590   0.669   3.187
 7650SOL     OW23848   4.563   2.891   1.400
 7650SOL    HW123849   4.575   2.841   1.486
 7650SOL    HW223850   4.501   2.967   1.414
 7651SOL     OW23851   2.581   0.911   4.672
 7651SOL    HW123852   2.660   0.956   4.714
 7651SOL    HW223853   2.571   0.944   4.578
 7652SOL     OW23854   6.737   3.722   4.425
 7652SOL    HW123855   6.668   3.666   4.471
 7652SOL    HW223856   6.779   3.670   4.351
 7653SOL     OW23857   2.697   1.974   0.019
 7653SOL    HW123858   2.677   1.881   0.050
 7653SOL    HW223859   2.668   1.985   6.948
 7654SOL     OW23860   4.756   2.894   3.487
 7654SOL    HW123861   4.727   2.955   3.560
 7654SOL    HW223862   4.788   2.947   3.409
 7655SOL     OW23863   4.157   0.267   3.674
 7655SOL    HW123864   4.081   0.223   3.722
 7655SOL    HW223865   4.240   0.213   3.685
 7656SOL     OW23866   1.862   5.477   6.201
 7656SOL    HW123867   1.890   5.570   6.226
 7656SOL    HW223868   1.777   5.454   6.248
 7657SOL     OW23869   2.078   2.674   3.713
 7657SOL    HW123870   2.176   2.656   3.726
 7657SOL    HW223871   2.039   2.708   3.798
 7658SOL     OW23872   3.495   0.179   5.794
 7658SOL    HW123873   3.473   0.265   5.840
 7658SOL    HW223874   3.444   0.173   5.709
 7659SOL     OW23875   6.076   5.085   0.428
 7659SOL    HW123876   6.065   4.986   0.422
 7659SOL    HW223877   5.987   5.127   0.449
 7660SOL     OW23878   0.655   6.431   3.770
 7660SOL    HW123879   0.601   6.501   3.817
 7660SOL    HW223880   0.599   6.349   3.758
 7661SOL     OW23881   6.489   2.561   4.169
 7661SOL    HW123882   6.487   2.565   4.069
 7661SOL    HW223883   6.477   2.654   4.206
 7662SOL     OW23884   0.779   2.951   2.824
 7662SOL    HW123885   0.804   3.044   2.850
 7662SOL    HW223886   0.838   2.920   2.749
 7663SOL     OW23887   1.633   5.971   5.450
 7663SOL    HW123888   1.726   6.004   5.431
 7663SOL    HW223889   1.587   5.950   5.364
 7664SOL     OW23890   3.708   0.136   1.780
 7664SOL    HW123891   3.609   0.150   1.785
 7664SOL    HW223892   3.754   0.213   1.826
 7665SOL     OW23893   4.517   0.351   5.013
 7665SOL    HW123894   4.555   0.367   4.922
 7665SOL    HW223895   4.532   0.432   5.070
 7666SOL     OW23896   0.486   6.424   1.522
 7666SOL    HW123897   0.571   6.461   1.557
 7666SOL    HW223898   0.454   6.481   1.446
 7667SOL     OW23899   4.708   5.218   2.325
 7667SOL    HW123900   4.753   5.236   2.238
 7667SOL    HW223901   4.710   5.120   2.345
 7668SOL     OW23902   3.123   4.777   0.898
 7668SOL    HW123903   3.088   4.705   0.838
 7668SOL    HW223904   3.046   4.827   0.938
 7669SOL     OW23905   5.640   1.978   5.427
 7669SOL    HW123906   5.603   2.046   5.364
 7669SOL    HW223907   5.616   2.004   5.521
 7670SOL     OW23908   0.697   5.036   6.895
 7670SOL    HW123909   0.625   5.006   6.833
 7670SOL    HW223910   0.746   4.957   6.931
 7671SOL     OW23911   4.053   0.981   3.411
 7671SOL    HW123912   4.146   0.966   3.377
 7671SOL    HW223913   3.996   1.018   3.337
 7672SOL     OW23914   6.753   6.663   2.988
 7672SOL    HW123915   6.727   6.648   3.083
 7672SOL    HW223916   6.850   6.642   2.976
 7673SOL     OW23917   1.511   5.625   0.256
 7673SOL    HW123918   1.590   5.641   0.197
 7673SOL    HW223919   1.539   5.572   0.336
 7674SOL     OW23920   5.533   1.825   3.675
 7674SOL    HW123921   5.466   1.899   3.669
 7674SOL    HW223922   5.496   1.751   3.730
 7675SOL     OW23923   6.011   6.894   2.449
 7675SOL    HW123924   5.990   6.809   2.498
 7675SOL    HW223925   6.091   6.880   2.391
 7676SOL     OW23926   2.140   2.573   0.533
 7676SOL    HW123927   2.137   2.506   0.459
 7676SOL    HW223928   2.101   2.532   0.616
 7677SOL     OW23929   0.567   4.616   1.726
 7677SOL    HW123930   0.621   4.667   1.794
 7677SOL    HW223931   0.572   4.663   1.638
 7678SOL     OW23932   2.378   1.733   4.664
 7678SOL    HW123933   2.352   1.829   4.658
 7678SOL    HW223934   2.419   1.715   4.753
 7679SOL     OW23935   2.954   5.564   6.222
 7679SOL    HW123936   2.954   5.468   6.196
 7679SOL    HW223937   2.921   5.572   6.316
 7680SOL     OW23938   1.787   1.962   0.606
 7680SOL    HW123939   1.857   1.928   0.669
 7680SOL    HW223940   1.737   2.037   0.648
 7681SOL     OW23941   2.557   0.005   0.514
 7681SOL    HW123942   2.635   0.014   0.575
 7681SOL    HW223943   2.554   6.937   0.476
 7682SOL     OW23944   2.950   6.940   2.495
 7682SOL    HW123945   2.899   7.007   2.441
 7682SOL    HW223946   2.949   6.967   2.591
 7683SOL     OW23947   6.384   1.491   3.336
 7683SOL    HW123948   6.388   1.485   3.436
 7683SOL    HW223949   6.372   1.587   3.309
 7684SOL     OW23950   3.911   2.142   2.418
 7684SOL    HW123951   3.911   2.170   2.322
 7684SOL    HW223952   3.947   2.049   2.426
 7685SOL     OW23953   3.669   2.312   0.079
 7685SOL    HW123954   3.589   2.318   0.020
 7685SOL    HW223955   3.752   2.306   0.024
 7686SOL     OW23956   6.373   6.988   3.181
 7686SOL    HW123957   6.466   6.952   3.180
 7686SOL    HW223958   6.333   6.978   3.090
 7687SOL     OW23959   5.783   4.906   4.262
 7687SOL    HW123960   5.691   4.876   4.288
 7687SOL    HW223961   5.848   4.832   4.278
 7688SOL     OW23962   0.665   6.138   5.546
 7688SOL    HW123963   0.708   6.174   5.629
 7688SOL    HW223964   0.709   6.051   5.521
 7689SOL     OW23965   5.543   6.184   2.992
 7689SOL    HW123966   5.504   6.204   2.902
 7689SOL    HW223967   5.619   6.247   3.010
 7690SOL     OW23968   6.042   5.097   0.868
 7690SOL    HW123969   6.023   5.154   0.948
 7690SOL    HW223970   6.107   5.145   0.808
 7691SOL     OW23971   5.321   2.518   4.904
 7691SOL    HW123972   5.402   2.492   4.852
 7691SOL    HW223973   5.348   2.546   4.997
 7692SOL     OW23974   0.475   6.081   2.073
 7692SOL    HW123975   0.514   5.993   2.102
 7692SOL    HW223976   0.460   6.079   1.974
 7693SOL     OW23977   3.918   0.291   0.893
 7693SOL    HW123978   3.924   0.193   0.910
 7693SOL    HW223979   3.825   0.313   0.864
 7694SOL     OW23980   0.099   4.948   5.054
 7694SOL    HW123981   0.071   4.852   5.052
 7694SOL    HW223982   0.049   4.997   5.125
 7695SOL     OW23983   4.240   6.344   0.859
 7695SOL    HW123984   4.243   6.252   0.819
 7695SOL    HW223985   4.157   6.390   0.829
 7696SOL     OW23986   6.991   1.618   4.716
 7696SOL    HW123987   6.907   1.659   4.751
 7696SOL    HW223988   6.969   1.542   4.655
 7697SOL     OW23989   3.044   6.293   2.287
 7697SOL    HW123990   3.095   6.341   2.359
 7697SOL    HW223991   3.038   6.352   2.207
 7698SOL     OW23992   6.553   1.918   3.258
 7698SOL    HW123993   6.586   1.932   3.165
 7698SOL    HW223994   6.457   1.891   3.255
 7699SOL     OW23995   3.816   5.896   6.674
 7699SOL    HW123996   3.886   5.911   6.605
 7699SOL    HW223997   3.803   5.980   6.728
 7700SOL     OW23998   4.956   6.163   4.533
 7700SOL    HW123999   4.872   6.112   4.512
 7700SOL    HW224000   5.032   6.125   4.480
 7701SOL     OW24001   6.928   1.291   0.323
 7701SOL    HW124002   6.976   1.255   0.243
 7701SOL    HW224003   6.993   1.337   0.383
 7702SOL     OW24004   3.545   6.153   6.041
 7702SOL    HW124005   3.519   6.176   6.135
 7702SOL    HW224006   3.465   6.124   5.990
 7703SOL     OW24007   6.116   0.355   5.481
 7703SOL    HW124008   6.159   0.367   5.391
 7703SOL    HW224009   6.138   0.432   5.540
 7704SOL     OW24010   5.124   5.259   5.628
 7704SOL    HW124011   5.099   5.178   5.574
 7704SOL    HW224012   5.166   5.326   5.568
 7705SOL     OW24013   3.660   5.414   5.998
 7705SOL    HW124014   3.617   5.459   6.076
 7705SOL    HW224015   3.745   5.371   6.026
 7706SOL     OW24016   4.386   3.003   5.398
 7706SOL    HW124017   4.384   2.956   5.486
 7706SOL    HW224018   4.293   3.029   5.372
 7707SOL     OW24019   0.460   5.861   6.240
 7707SOL    HW124020   0.421   5.800   6.308
 7707SOL    HW224021   0.556   5.837   6.225
 7708SOL     OW24022   6.162   0.266   6.165
 7708SOL    HW124023   6.204   0.350   6.199
 7708SOL    HW224024   6.223   0.223   6.098
 7709SOL     OW24025   5.293   4.464   1.631
 7709SOL    HW124026   5.287   4.544   1.690
 7709SOL    HW224027   5.389   4.437   1.620
 7710SOL     OW24028   2.963   0.424   0.882
 7710SOL    HW124029   2.864   0.430   0.895
 7710SOL    HW224030   2.998   0.512   0.847
 7711SOL     OW24031   6.584   5.939   5.165
 7711SOL    HW124032   6.610   5.980   5.253
 7711SOL    HW224033   6.651   5.962   5.096
 7712SOL     OW24034   5.302   6.015   2.625
 7712SOL    HW124035   5.289   5.916   2.620
 7712SOL    HW224036   5.255   6.058   2.548
 7713SOL     OW24037   1.513   4.489   0.674
 7713SOL    HW124038   1.443   4.527   0.613
 7713SOL    HW224039   1.555   4.563   0.727
 7714SOL     OW24040   6.409   4.039   5.684
 7714SOL    HW124041   6.348   4.107   5.643
 7714SOL    HW224042   6.431   3.968   5.616
 7715SOL     OW24043   3.862   2.267   6.881
 7715SOL    HW124044   3.916   2.350   6.871
 7715SOL    HW224045   3.921   2.187   6.871
 7716SOL     OW24046   6.381   4.504   3.699
 7716SOL    HW124047   6.295   4.527   3.652
 7716SOL    HW224048   6.440   4.451   3.638
 7717SOL     OW24049   1.671   0.848   4.829
 7717SOL    HW124050   1.747   0.899   4.788
 7717SOL    HW224051   1.708   0.772   4.883
 7718SOL     OW24052   1.493   2.210   3.026
 7718SOL    HW124053   1.581   2.187   2.984
 7718SOL    HW224054   1.472   2.306   3.009
 7719SOL     OW24055   6.688   4.205   4.683
 7719SOL    HW124056   6.739   4.278   4.728
 7719SOL    HW224057   6.744   4.163   4.612
 7720SOL     OW24058   0.392   0.938   6.998
 7720SOL    HW124059   0.311   0.961   6.946
 7720SOL    HW224060   0.397   0.994   0.056
 7721SOL     OW24061   0.198   5.266   2.491
 7721SOL    HW124062   0.161   5.248   2.400
 7721SOL    HW224063   0.216   5.179   2.537
 7722SOL     OW24064   0.524   6.090   3.176
 7722SOL    HW124065   0.482   6.096   3.266
 7722SOL    HW224066   0.561   6.179   3.150
 7723SOL     OW24067   5.135   3.239   6.798
 7723SOL    HW124068   5.084   3.159   6.828
 7723SOL    HW224069   5.095   3.275   6.713
 7724SOL     OW24070   2.980   4.221   1.271
 7724SOL    HW124071   2.993   4.309   1.318
 7724SOL    HW224072   2.982   4.235   1.172
 7725SOL     OW24073   6.051   2.574   3.205
 7725SOL    HW124074   5.978   2.641   3.218
 7725SOL    HW224075   6.018   2.483   3.228
 7726SOL     OW24076   2.058   6.111   5.112
 7726SOL    HW124077   2.038   6.032   5.055
 7726SOL    HW224078   2.140   6.094   5.166
 7727SOL     OW24079   0.337   0.660   2.387
 7727SOL    HW124080   0.288   0.729   2.441
 7727SOL    HW224081   0.417   0.628   2.439
 7728SOL     OW24082   0.984   4.739   3.522
 7728SOL    HW124083   1.071   4.690   3.533
 7728SOL    HW224084   0.939   4.708   3.439
 7729SOL     OW24085   6.029   2.968   0.755
 7729SOL    HW124086   6.013   3.019   0.671
 7729SOL    HW224087   5.945   2.921   0.782
 7730SOL     OW24088   6.002   6.068   1.619
 7730SOL    HW124089   5.991   6.144   1.554
 7730SOL    HW224090   5.912   6.032   1.643
 7731SOL     OW24091   6.760   0.612   0.307
 7731SOL    HW124092   6.751   0.547   0.382
 7731SOL    HW224093   6.700   0.585   0.232
 7732SOL     OW24094   4.421   6.059   0.560
 7732SOL    HW124095   4.442   5.972   0.604
 7732SOL    HW224096   4.343   6.103   0.605
 7733SOL     OW24097   4.536   6.734   2.359
 7733SOL    HW124098   4.547   6.827   2.324
 7733SOL    HW224099   4.442   6.722   2.390
 7734SOL     OW24100   2.816   5.286   2.960
 7734SOL    HW124101   2.836   5.217   3.030
 7734SOL    HW224102   2.841   5.252   2.870
 7735SOL     OW24103   4.913   6.291   6.759
 7735SOL    HW124104   5.012   6.305   6.749
 7735SOL    HW224105   4.882   6.224   6.691
 7736SOL     OW24106   3.400   3.477   0.108
 7736SOL    HW124107   3.303   3.484   0.084
 7736SOL    HW224108   3.441   3.569   0.106
 7737SOL     OW24109   3.517   0.775   2.629
 7737SOL    HW124110   3.503   0.853   2.569
 7737SOL    HW224111   3.550   0.697   2.576
 7738SOL     OW24112   3.092   5.916   0.022
 7738SOL    HW124113   3.095   5.977   0.101
 7738SOL    HW224114   2.998   5.909   7.013
 7739SOL     OW24115   0.752   1.953   1.155
 7739SOL    HW124116   0.682   1.893   1.195
 7739SOL    HW224117   0.765   1.929   1.059
 7740SOL     OW24118   1.968   0.562   3.361
 7740SOL    HW124119   2.029   0.490   3.327
 7740SOL    HW224120   1.991   0.582   3.457
 7741SOL     OW24121   0.737   4.716   5.725
 7741SOL    HW124122   0.655   4.768   5.701
 7741SOL    HW224123   0.797   4.709   5.645
 7742SOL     OW24124   5.884   1.825   3.269
 7742SOL    HW124125   5.847   1.741   3.308
 7742SOL    HW224126   5.945   1.803   3.193
 7743SOL     OW24127   5.769   1.482   0.099
 7743SOL    HW124128   5.762   1.581   0.084
 7743SOL    HW224129   5.743   1.434   0.015
 7744SOL     OW24130   0.811   5.966   3.425
 7744SOL    HW124131   0.814   5.883   3.369
 7744SOL    HW224132   0.771   5.944   3.514
 7745SOL     OW24133   3.532   0.911   5.620
 7745SOL    HW124134   3.550   1.009   5.628
 7745SOL    HW224135   3.567   0.878   5.533
 7746SOL     OW24136   2.851   6.482   0.225
 7746SOL    HW124137   2.823   6.387   0.238
 7746SOL    HW224138   2.879   6.521   0.312
 7747SOL     OW24139   4.635   5.762   1.719
 7747SOL    HW124140   4.701   5.815   1.666
 7747SOL    HW224141   4.579   5.707   1.656
 7748SOL     OW24142   2.802   3.406   5.155
 7748SOL    HW124143   2.862   3.483   5.179
 7748SOL    HW224144   2.729   3.400   5.222
 7749SOL     OW24145   2.702   2.803   5.620
 7749SOL    HW124146   2.698   2.747   5.538
 7749SOL    HW224147   2.613   2.844   5.638
 7750SOL     OW24148   0.182   6.274   1.671
 7750SOL    HW124149   0.183   6.368   1.636
 7750SOL    HW224150   0.172   6.276   1.770
 7751SOL     OW24151   1.526   2.249   2.324
 7751SOL    HW124152   1.550   2.334   2.371
 7751SOL    HW224153   1.610   2.202   2.297
 7752SOL     OW24154   5.152   0.470   5.924
 7752SOL    HW124155   5.175   0.567   5.913
 7752SOL    HW224156   5.108   0.437   5.841
 7753SOL     OW24157   2.585   1.441   4.322
 7753SOL    HW124158   2.652   1.424   4.394
 7753SOL    HW224159   2.631   1.441   4.233
 7754SOL     OW24160   3.349   6.038   0.873
 7754SOL    HW124161   3.304   5.977   0.808
 7754SOL    HW224162   3.415   5.987   0.927
 7755SOL     OW24163   1.934   2.412   6.017
 7755SOL    HW124164   2.029   2.441   6.006
 7755SOL    HW224165   1.915   2.334   5.957
 7756SOL     OW24166   2.602   6.869   2.802
 7756SOL    HW124167   2.545   6.936   2.850
 7756SOL    HW224168   2.698   6.891   2.814
 7757SOL     OW24169   6.008   4.924   1.181
 7757SOL    HW124170   5.954   4.891   1.258
 7757SOL    HW224171   6.064   4.850   1.145
 7758SOL     OW24172   2.146   0.125   6.525
 7758SOL    HW124173   2.107   0.195   6.465
 7758SOL    HW224174   2.102   0.128   6.614
 7759SOL     OW24175   1.780   1.366   5.240
 7759SOL    HW124176   1.729   1.299   5.294
 7759SOL    HW224177   1.725   1.448   5.228
 7760SOL     OW24178   5.865   3.241   2.833
 7760SOL    HW124179   5.867   3.146   2.802
 7760SOL    HW224180   5.957   3.269   2.862
 7761SOL     OW24181   6.744   6.527   4.716
 7761SOL    HW124182   6.776   6.622   4.707
 7761SOL    HW224183   6.785   6.472   4.643
 7762SOL     OW24184   2.236   0.471   4.184
 7762SOL    HW124185   2.209   0.403   4.252
 7762SOL    HW224186   2.304   0.432   4.122
 7763SOL     OW24187   2.419   0.179   6.512
 7763SOL    HW124188   2.325   0.149   6.493
 7763SOL    HW224189   2.445   0.150   6.603
 7764SOL     OW24190   3.174   4.077   5.572
 7764SOL    HW124191   3.082   4.056   5.538
 7764SOL    HW224192   3.181   4.175   5.591
 7765SOL     OW24193   6.134   2.678   4.277
 7765SOL    HW124194   6.124   2.776   4.262
 7765SOL    HW224195   6.134   2.630   4.189
 7766SOL     OW24196   6.710   3.901   0.745
 7766SOL    HW124197   6.757   3.833   0.801
 7766SOL    HW224198   6.615   3.874   0.731
 7767SOL     OW24199   4.439   6.180   2.155
 7767SOL    HW124200   4.379   6.126   2.214
 7767SOL    HW224201   4.409   6.171   2.060
 7768SOL     OW24202   5.000   4.354   3.113
 7768SOL    HW124203   4.955   4.335   3.025
 7768SOL    HW224204   5.098   4.340   3.103
 7769SOL     OW24205   4.952   1.461   4.548
 7769SOL    HW124206   4.961   1.516   4.631
 7769SOL    HW224207   4.886   1.388   4.564
 7770SOL     OW24208   0.778   3.329   5.278
 7770SOL    HW124209   0.856   3.339   5.339
 7770SOL    HW224210   0.702   3.285   5.326
 7771SOL     OW24211   3.100   1.558   5.466
 7771SOL    HW124212   3.063   1.506   5.543
 7771SOL    HW224213   3.178   1.509   5.427
 7772SOL     OW24214   5.251   6.687   1.778
 7772SOL    HW124215   5.158   6.722   1.768
 7772SOL    HW224216   5.279   6.641   1.694
 7773SOL     OW24217   1.794   5.025   5.630
 7773SOL    HW124218   1.806   5.044   5.532
 7773SOL    HW224219   1.866   5.070   5.682
 7774SOL     OW24220   5.062   2.784   4.286
 7774SOL    HW124221   4.976   2.830   4.306
 7774SOL    HW224222   5.123   2.792   4.364
 7775SOL     OW24223   4.503   6.991   0.198
 7775SOL    HW124224   4.405   6.973   0.203
 7775SOL    HW224225   4.519   0.056   0.155
 7776SOL     OW24226   0.801   5.637   6.642
 7776SOL    HW124227   0.866   5.651   6.567
 7776SOL    HW224228   0.737   5.714   6.644
 7777SOL     OW24229   6.102   5.642   4.063
 7777SOL    HW124230   6.007   5.658   4.036
 7777SOL    HW224231   6.129   5.710   4.132
 7778SOL     OW24232   5.775   3.973   2.128
 7778SOL    HW124233   5.764   3.876   2.107
 7778SOL    HW224234   5.756   3.989   2.225
 7779SOL     OW24235   2.758   0.905   2.005
 7779SOL    HW124236   2.685   0.843   2.033
 7779SOL    HW224237   2.720   0.978   1.948
 7780SOL     OW24238   0.980   5.005   5.539
 7780SOL    HW124239   0.968   5.101   5.511
 7780SOL    HW224240   0.957   4.996   5.636
 7781SOL     OW24241   1.730   4.069   1.468
 7781SOL    HW124242   1.794   4.012   1.521
 7781SOL    HW224243   1.722   4.158   1.511
 7782SOL     OW24244   5.005   5.284   4.045
 7782SOL    HW124245   4.996   5.323   3.954
 7782SOL    HW224246   4.915   5.260   4.080
 7783SOL     OW24247   1.029   0.360   5.847
 7783SOL    HW124248   1.117   0.364   5.800
 7783SOL    HW224249   0.982   0.448   5.838
 7784SOL     OW24250   3.429   2.307   1.413
 7784SOL    HW124251   3.347   2.279   1.462
 7784SOL    HW224252   3.409   2.387   1.356
 7785SOL     OW24253   2.156   5.953   4.087
 7785SOL    HW124254   2.134   6.026   4.023
 7785SOL    HW224255   2.216   5.988   4.158
 7786SOL     OW24256   3.611   0.200   0.157
 7786SOL    HW124257   3.616   0.273   0.089
 7786SOL    HW224258   3.579   0.238   0.244
 7787SOL     OW24259   2.097   3.014   6.861
 7787SOL    HW124260   2.018   3.071   6.836
 7787SOL    HW224261   2.168   3.072   6.900
 7788SOL     OW24262   1.457   4.729   1.764
 7788SOL    HW124263   1.457   4.651   1.827
 7788SOL    HW224264   1.548   4.769   1.759
 7789SOL     OW24265   3.226   0.189   6.510
 7789SOL    HW124266   3.203   0.180   6.607
 7789SOL    HW224267   3.177   0.119   6.457
 7790SOL     OW24268   5.059   5.732   2.734
 7790SOL    HW124269   5.011   5.820   2.724
 7790SOL    HW224270   5.107   5.711   2.649
 7791SOL     OW24271   2.103   5.163   2.363
 7791SOL    HW124272   2.071   5.114   2.444
 7791SOL    HW224273   2.032   5.225   2.330
 7792SOL     OW24274   1.245   6.412   4.053
 7792SOL    HW124275   1.314   6.475   4.019
 7792SOL    HW224276   1.187   6.380   3.978
 7793SOL     OW24277   3.847   0.593   0.235
 7793SOL    HW124278   3.904   0.546   0.167
 7793SOL    HW224279   3.821   0.528   0.306
 7794SOL     OW24280   0.275   4.311   1.676
 7794SOL    HW124281   0.314   4.230   1.720
 7794SOL    HW224282   0.177   4.314   1.695
 7795SOL     OW24283   2.643   5.014   4.810
 7795SOL    HW124284   2.590   4.953   4.752
 7795SOL    HW224285   2.680   4.963   4.888
 7796SOL     OW24286   3.689   2.604   5.336
 7796SOL    HW124287   3.745   2.668   5.388
 7796SOL    HW224288   3.723   2.511   5.349
 7797SOL     OW24289   0.744   6.443   1.319
 7797SOL    HW124290   0.681   6.520   1.316
 7797SOL    HW224291   0.831   6.469   1.279
 7798SOL     OW24292   1.021   2.338   2.966
 7798SOL    HW124293   1.099   2.282   2.937
 7798SOL    HW224294   1.042   2.435   2.950
 7799SOL     OW24295   1.920   5.344   2.301
 7799SOL    HW124296   1.824   5.326   2.279
 7799SOL    HW224297   1.927   5.433   2.345
 7800SOL     OW24298   0.815   5.466   3.379
 7800SOL    HW124299   0.903   5.462   3.426
 7800SOL    HW224300   0.821   5.415   3.293
 7801SOL     OW24301   1.778   1.677   2.579
 7801SOL    HW124302   1.783   1.777   2.578
 7801SOL    HW224303   1.833   1.641   2.654
 7802SOL     OW24304   6.517   3.179   0.326
 7802SOL    HW124305   6.461   3.221   0.398
 7802SOL    HW224306   6.522   3.242   0.248
 7803SOL     OW24307   4.263   2.023   0.223
 7803SOL    HW124308   4.270   2.100   0.159
 7803SOL    HW224309   4.195   2.044   0.293
 7804SOL     OW24310   4.944   1.988   4.875
 7804SOL    HW124311   4.952   2.087   4.872
 7804SOL    HW224312   4.888   1.962   4.954
 7805SOL     OW24313   5.283   3.284   2.640
 7805SOL    HW124314   5.363   3.314   2.691
 7805SOL    HW224315   5.281   3.329   2.551
 7806SOL     OW24316   5.825   1.362   6.311
 7806SOL    HW124317   5.757   1.413   6.363
 7806SOL    HW224318   5.802   1.264   6.314
 7807SOL     OW24319   0.799   4.507   5.322
 7807SOL    HW124320   0.824   4.599   5.352
 7807SOL    HW224321   0.782   4.449   5.402
 7808SOL     OW24322   5.965   3.136   3.630
 7808SOL    HW124323   6.028   3.120   3.554
 7808SOL    HW224324   5.963   3.234   3.652
 7809SOL     OW24325   5.173   5.244   5.031
 7809SOL    HW124326   5.239   5.177   4.998
 7809SOL    HW224327   5.220   5.314   5.085
 7810SOL     OW24328   2.887   6.888   5.700
 7810SOL    HW124329   2.945   6.970   5.702
 7810SOL    HW224330   2.883   6.849   5.792
 7811SOL     OW24331   1.276   5.425   1.884
 7811SOL    HW124332   1.249   5.399   1.791
 7811SOL    HW224333   1.375   5.415   1.894
 7812SOL     OW24334   2.278   2.404   4.344
 7812SOL    HW124335   2.295   2.387   4.247
 7812SOL    HW224336   2.204   2.471   4.353
 7813SOL     OW24337   4.309   2.223   1.321
 7813SOL    HW124338   4.394   2.181   1.352
 7813SOL    HW224339   4.330   2.299   1.259
 7814SOL     OW24340   6.957   3.246   3.361
 7814SOL    HW124341   6.872   3.193   3.367
 7814SOL    HW224342   7.013   3.211   3.286
 7815SOL     OW24343   5.698   2.025   4.192
 7815SOL    HW124344   5.701   2.125   4.199
 7815SOL    HW224345   5.690   1.999   4.096
 7816SOL     OW24346   0.644   2.515   6.979
 7816SOL    HW124347   0.709   2.590   6.964
 7816SOL    HW224348   0.693   2.434   7.011
 7817SOL     OW24349   4.675   4.288   5.077
 7817SOL    HW124350   4.599   4.251   5.131
 7817SOL    HW224351   4.651   4.380   5.046
 7818SOL     OW24352   4.663   0.969   3.018
 7818SOL    HW124353   4.618   1.048   2.977
 7818SOL    HW224354   4.759   0.967   2.990
 7819SOL     OW24355   0.243   3.536   3.329
 7819SOL    HW124356   0.339   3.515   3.345
 7819SOL    HW224357   0.235   3.591   3.246
 7820SOL     OW24358   1.905   0.985   5.752
 7820SOL    HW124359   1.993   0.938   5.737
 7820SOL    HW224360   1.834   0.917   5.767
 7821SOL     OW24361   5.696   5.975   0.858
 7821SOL    HW124362   5.769   5.980   0.789
 7821SOL    HW224363   5.714   6.041   0.931
 7822SOL     OW24364   1.252   1.488   0.005
 7822SOL    HW124365   1.218   1.402   0.041
 7822SOL    HW224366   1.281   1.476   6.934
 7823SOL     OW24367   2.318   4.036   5.854
 7823SOL    HW124368   2.330   3.952   5.801
 7823SOL    HW224369   2.374   4.108   5.814
 7824SOL     OW24370   5.663   0.634   4.680
 7824SOL    HW124371   5.712   0.568   4.737
 7824SOL    HW224372   5.725   0.708   4.653
 7825SOL     OW24373   1.393   3.633   0.837
 7825SOL    HW124374   1.477   3.594   0.799
 7825SOL    HW224375   1.325   3.560   0.848
 7826SOL     OW24376   5.780   1.873   6.748
 7826SOL    HW124377   5.741   1.890   6.839
 7826SOL    HW224378   5.714   1.824   6.692
 7827SOL     OW24379   3.006   4.603   0.729
 7827SOL    HW124380   2.918   4.575   0.690
 7827SOL    HW224381   3.080   4.565   0.674
 7828SOL     OW24382   0.588   5.266   0.786
 7828SOL    HW124383   0.522   5.296   0.717
 7828SOL    HW224384   0.637   5.346   0.822
 7829SOL     OW24385   2.138   2.886   0.129
 7829SOL    HW124386   2.083   2.865   0.048
 7829SOL    HW224387   2.082   2.936   0.195
 7830SOL     OW24388   4.610   3.940   6.015
 7830SOL    HW124389   4.703   3.903   6.025
 7830SOL    HW224390   4.608   4.033   6.054
 7831SOL     OW24391   1.350   5.340   0.755
 7831SOL    HW124392   1.253   5.318   0.741
 7831SOL    HW224393   1.368   5.350   0.853
 7832SOL     OW24394   3.520   1.082   4.304
 7832SOL    HW124395   3.512   1.020   4.383
 7832SOL    HW224396   3.602   1.058   4.252
 7833SOL     OW24397   0.274   0.570   6.848
 7833SOL    HW124398   0.239   0.578   6.941
 7833SOL    HW224399   0.372   0.549   6.850
 7834SOL     OW24400   0.366   1.544   3.593
 7834SOL    HW124401   0.335   1.572   3.685
 7834SOL    HW224402   0.461   1.570   3.581
 7835SOL     OW24403   2.341   2.547   4.932
 7835SOL    HW124404   2.264   2.603   4.962
 7835SOL    HW224405   2.307   2.465   4.886
 7836SOL     OW24406   3.813   2.371   5.884
 7836SOL    HW124407   3.784   2.452   5.935
 7836SOL    HW224408   3.902   2.341   5.917
 7837SOL     OW24409   6.330   6.397   1.808
 7837SOL    HW124410   6.334   6.497   1.808
 7837SOL    HW224411   6.415   6.360   1.771
 7838SOL     OW24412   4.139   5.922   0.338
 7838SOL    HW124413   4.070   5.900   0.268
 7838SOL    HW224414   4.222   5.957   0.293
 7839SOL     OW24415   6.083   4.664   5.708
 7839SOL    HW124416   6.097   4.762   5.692
 7839SOL    HW224417   6.172   4.620   5.719
 7840SOL     OW24418   4.957   3.334   4.650
 7840SOL    HW124419   5.045   3.285   4.651
 7840SOL    HW224420   4.957   3.402   4.723
 7841SOL     OW24421   5.552   1.362   0.282
 7841SOL    HW124422   5.495   1.305   0.223
 7841SOL    HW224423   5.625   1.403   0.228
 7842SOL     OW24424   2.288   1.411   2.880
 7842SOL    HW124425   2.292   1.337   2.947
 7842SOL    HW224426   2.381   1.437   2.854
 7843SOL     OW24427   4.919   4.394   2.051
 7843SOL    HW124428   4.951   4.413   2.144
 7843SOL    HW224429   4.983   4.331   2.006
 7844SOL     OW24430   4.062   0.907   3.826
 7844SOL    HW124431   3.983   0.921   3.885
 7844SOL    HW224432   4.082   0.991   3.775
 7845SOL     OW24433   6.191   1.116   3.809
 7845SOL    HW124434   6.275   1.065   3.794
 7845SOL    HW224435   6.159   1.101   3.903
 7846SOL     OW24436   1.627   0.524   1.415
 7846SOL    HW124437   1.558   0.587   1.451
 7846SOL    HW224438   1.706   0.576   1.383
 7847SOL     OW24439   6.391   2.163   1.598
 7847SOL    HW124440   6.375   2.198   1.505
 7847SOL    HW224441   6.375   2.236   1.664
 7848SOL     OW24442   3.169   3.577   1.309
 7848SOL    HW124443   3.246   3.613   1.363
 7848SOL    HW224444   3.100   3.539   1.371
 7849SOL     OW24445   5.594   3.934   3.917
 7849SOL    HW124446   5.571   3.917   3.821
 7849SOL    HW224447   5.604   4.033   3.932
 7850SOL     OW24448   0.084   1.722   3.686
 7850SOL    HW124449   0.041   1.760   3.604
 7850SOL    HW224450   0.067   1.782   3.764
 7851SOL     OW24451   6.681   6.737   0.893
 7851SOL    HW124452   6.648   6.651   0.855
 7851SOL    HW224453   6.616   6.810   0.872
 7852SOL     OW24454   2.879   0.454   5.476
 7852SOL    HW124455   2.781   0.441   5.487
 7852SOL    HW224456   2.897   0.550   5.452
 7853SOL     OW24457   3.990   1.643   1.730
 7853SOL    HW124458   4.038   1.709   1.788
 7853SOL    HW224459   3.922   1.594   1.785
 7854SOL     OW24460   3.693   3.506   0.876
 7854SOL    HW124461   3.672   3.587   0.822
 7854SOL    HW224462   3.641   3.428   0.840
 7855SOL     OW24463   3.124   6.165   5.424
 7855SOL    HW124464   3.042   6.221   5.435
 7855SOL    HW224465   3.101   6.069   5.441
 7856SOL     OW24466   5.557   4.846   3.951
 7856SOL    HW124467   5.481   4.808   4.004
 7856SOL    HW224468   5.588   4.930   3.994
 7857SOL     OW24469   6.168   2.770   5.159
 7857SOL    HW124470   6.260   2.776   5.120
 7857SOL    HW224471   6.101   2.762   5.086
 7858SOL     OW24472   4.493   5.368   3.898
 7858SOL    HW124473   4.413   5.408   3.943
 7858SOL    HW224474   4.569   5.432   3.901
 7859SOL     OW24475   6.236   4.216   5.538
 7859SOL    HW124476   6.240   4.218   5.438
 7859SOL    HW224477   6.273   4.301   5.575
 7860SOL     OW24478   4.538   0.302   3.278
 7860SOL    HW124479   4.605   0.239   3.238
 7860SOL    HW224480   4.488   0.255   3.351
 7861SOL     OW24481   3.836   5.251   1.615
 7861SOL    HW124482   3.762   5.288   1.671
 7861SOL    HW224483   3.798   5.212   1.531
 7862SOL     OW24484   3.133   4.721   1.627
 7862SOL    HW124485   3.066   4.647   1.632
 7862SOL    HW224486   3.220   4.686   1.592
 7863SOL     OW24487   6.632   6.425   3.597
 7863SOL    HW124488   6.535   6.443   3.612
 7863SOL    HW224489   6.671   6.379   3.677
 7864SOL     OW24490   0.177   6.434   5.525
 7864SOL    HW124491   0.237   6.397   5.595
 7864SOL    HW224492   0.163   6.366   5.453
 7865SOL     OW24493   4.536   0.042   4.346
 7865SOL    HW124494   4.491   0.022   4.259
 7865SOL    HW224495   4.635   0.040   4.334
 7866SOL     OW24496   2.561   1.992   6.800
 7866SOL    HW124497   2.465   2.015   6.818
 7866SOL    HW224498   2.588   2.032   6.712
 7867SOL     OW24499   4.903   6.281   2.857
 7867SOL    HW124500   4.929   6.256   2.763
 7867SOL    HW224501   4.821   6.337   2.855
 7868SOL     OW24502   5.526   6.824   2.412
 7868SOL    HW124503   5.428   6.831   2.396
 7868SOL    HW224504   5.566   6.916   2.418
 7869SOL     OW24505   5.725   3.905   0.567
 7869SOL    HW124506   5.811   3.934   0.609
 7869SOL    HW224507   5.649   3.945   0.617
 7870SOL     OW24508   4.832   5.287   4.382
 7870SOL    HW124509   4.773   5.269   4.304
 7870SOL    HW224510   4.925   5.307   4.351
 7871SOL     OW24511   5.554   3.699   2.663
 7871SOL    HW124512   5.620   3.631   2.696
 7871SOL    HW224513   5.468   3.689   2.712
 7872SOL     OW24514   2.132   4.351   2.612
 7872SOL    HW124515   2.118   4.372   2.515
 7872SOL    HW224516   2.082   4.417   2.668
 7873SOL     OW24517   5.332   0.679   5.300
 7873SOL    HW124518   5.341   0.768   5.344
 7873SOL    HW224519   5.416   0.659   5.248
 7874SOL     OW24520   4.803   1.625   0.371
 7874SOL    HW124521   4.882   1.673   0.409
 7874SOL    HW224522   4.753   1.686   0.309
 7875SOL     OW24523   4.591   2.628   6.690
 7875SOL    HW124524   4.610   2.555   6.755
 7875SOL    HW224525   4.605   2.594   6.597
 7876SOL     OW24526   7.000   0.176   4.915
 7876SOL    HW124527   6.949   0.251   4.957
 7876SOL    HW224528   6.992   0.182   4.815
 7877SOL     OW24529   0.125   3.035   2.430
 7877SOL    HW124530   0.211   3.067   2.469
 7877SOL    HW224531   0.126   2.935   2.424
 7878SOL     OW24532   4.610   5.048   4.046
 7878SOL    HW124533   4.537   5.020   3.983
 7878SOL    HW224534   4.580   5.032   4.140
 7879SOL     OW24535   4.883   5.650   3.736
 7879SOL    HW124536   4.833   5.733   3.760
 7879SOL    HW224537   4.925   5.661   3.646
 7880SOL     OW24538   1.004   5.318   0.986
 7880SOL    HW124539   1.086   5.270   1.016
 7880SOL    HW224540   0.934   5.251   0.959
 7881SOL     OW24541   5.933   3.640   4.659
 7881SOL    HW124542   5.913   3.544   4.635
 7881SOL    HW224543   5.889   3.662   4.746
 7882SOL     OW24544   1.561   2.734   3.180
 7882SOL    HW124545   1.471   2.701   3.152
 7882SOL    HW224546   1.633   2.683   3.132
 7883SOL     OW24547   1.534   6.941   1.297
 7883SOL    HW124548   1.538   0.016   1.303
 7883SOL    HW224549   1.446   6.913   1.259
 7884SOL     OW24550   1.903   4.263   3.554
 7884SOL    HW124551   1.916   4.319   3.636
 7884SOL    HW224552   1.963   4.184   3.558
 7885SOL     OW24553   6.271   6.547   2.353
 7885SOL    HW124554   6.297   6.579   2.444
 7885SOL    HW224555   6.353   6.531   2.298
 7886SOL     OW24556   4.279   4.298   0.719
 7886SOL    HW124557   4.270   4.370   0.651
 7886SOL    HW224558   4.207   4.308   0.788
 7887SOL     OW24559   3.475   2.216   5.550
 7887SOL    HW124560   3.470   2.147   5.622
 7887SOL    HW224561   3.508   2.302   5.590
 7888SOL     OW24562   0.033   0.477   5.438
 7888SOL    HW124563   0.104   0.544   5.415
 7888SOL    HW224564   0.058   0.387   5.402
 7889SOL     OW24565   0.715   4.734   0.215
 7889SOL    HW124566   0.804   4.774   0.194
 7889SOL    HW224567   0.688   4.761   0.308
 7890SOL     OW24568   0.476   3.477   3.965
 7890SOL    HW124569   0.551   3.541   3.948
 7890SOL    HW224570   0.492   3.430   4.052
 7891SOL     OW24571   1.314   3.878   4.308
 7891SOL    HW124572   1.372   3.806   4.270
 7891SOL    HW224573   1.251   3.838   4.375
 7892SOL     OW24574   1.501   2.272   4.034
 7892SOL    HW124575   1.594   2.264   4.071
 7892SOL    HW224576   1.435   2.240   4.103
 7893SOL     OW24577   5.792   7.019   2.274
 7893SOL    HW124578   5.863   6.970   2.324
 7893SOL    HW224579   5.814   7.020   2.176
 7894SOL     OW24580   2.922   0.679   1.372
 7894SOL    HW124581   2.935   0.582   1.388
 7894SOL    HW224582   3.001   0.730   1.405
 7895SOL     OW24583   5.015   6.966   5.068
 7895SOL    HW124584   5.030   7.013   5.155
 7895SOL    HW224585   4.924   6.990   5.033
 7896SOL     OW24586   5.584   3.281   1.035
 7896SOL    HW124587   5.578   3.337   0.953
 7896SOL    HW224588   5.501   3.225   1.044
 7897SOL     OW24589   3.623   2.728   1.185
 7897SOL    HW124590   3.595   2.809   1.236
 7897SOL    HW224591   3.611   2.647   1.242
 7898SOL     OW24592   3.722   0.428   3.374
 7898SOL    HW124593   3.642   0.461   3.324
 7898SOL    HW224594   3.790   0.502   3.381
 7899SOL     OW24595   5.907   6.944   1.583
 7899SOL    HW124596   5.808   6.930   1.592
 7899SOL    HW224597   5.924   7.023   1.523
 7900SOL     OW24598   0.940   5.111   1.563
 7900SOL    HW124599   1.030   5.117   1.605
 7900SOL    HW224600   0.895   5.027   1.591
 7901SOL     OW24601   4.821   0.859   6.484
 7901SOL    HW124602   4.731   0.814   6.489
 7901SOL    HW224603   4.888   0.794   6.447
 7902SOL     OW24604   6.195   6.164   3.096
 7902SOL    HW124605   6.116   6.143   3.038
 7902SOL    HW224606   6.201   6.095   3.169
 7903SOL     OW24607   4.530   2.119   2.593
 7903SOL    HW124608   4.622   2.084   2.576
 7903SOL    HW224609   4.473   2.047   2.632
 7904SOL     OW24610   5.731   6.997   3.035
 7904SOL    HW124611   5.790   7.004   2.955
 7904SOL    HW224612   5.663   6.926   3.020
 7905SOL     OW24613   5.480   2.372   0.165
 7905SOL    HW124614   5.454   2.313   0.089
 7905SOL    HW224615   5.466   2.323   0.252
 7906SOL     OW24616   0.902   6.024   0.966
 7906SOL    HW124617   0.869   6.115   0.994
 7906SOL    HW224618   0.830   5.978   0.914
 7907SOL     OW24619   6.650   1.313   3.373
 7907SOL    HW124620   6.656   1.411   3.355
 7907SOL    HW224621   6.564   1.278   3.337
 7908SOL     OW24622   0.805   1.431   6.084
 7908SOL    HW124623   0.752   1.395   6.007
 7908SOL    HW224624   0.900   1.443   6.056
 7909SOL     OW24625   4.599   4.381   3.601
 7909SOL    HW124626   4.586   4.299   3.657
 7909SOL    HW224627   4.641   4.356   3.514
 7910SOL     OW24628   1.858   3.206   0.192
 7910SOL    HW124629   1.828   3.178   0.101
 7910SOL    HW224630   1.903   3.130   0.238
 7911SOL     OW24631   1.222   5.147   1.079
 7911SOL    HW124632   1.272   5.193   1.152
 7911SOL    HW224633   1.210   5.050   1.103
 7912SOL     OW24634   6.057   4.507   1.294
 7912SOL    HW124635   5.963   4.491   1.263
 7912SOL    HW224636   6.057   4.566   1.374
 7913SOL     OW24637   1.752   3.868   2.212
 7913SOL    HW124638   1.664   3.909   2.190
 7913SOL    HW224639   1.754   3.774   2.180
 7914SOL     OW24640   6.960   4.726   1.177
 7914SOL    HW124641   6.935   4.637   1.138
 7914SOL    HW224642   0.015   4.715   1.237
 7915SOL     OW24643   4.950   2.358   2.608
 7915SOL    HW124644   4.953   2.260   2.625
 7915SOL    HW224645   4.863   2.395   2.642
 7916SOL     OW24646   0.267   6.490   5.930
 7916SOL    HW124647   0.295   6.397   5.955
 7916SOL    HW224648   0.306   6.513   5.841
 7917SOL     OW24649   4.032   3.182   5.764
 7917SOL    HW124650   4.119   3.231   5.760
 7917SOL    HW224651   3.957   3.247   5.749
 7918SOL     OW24652   6.684   1.160   4.222
 7918SOL    HW124653   6.637   1.127   4.305
 7918SOL    HW224654   6.779   1.182   4.245
 7919SOL     OW24655   1.512   4.826   2.729
 7919SOL    HW124656   1.493   4.794   2.822
 7919SOL    HW224657   1.604   4.796   2.702
 7920SOL     OW24658   6.290   6.653   1.205
 7920SOL    HW124659   6.263   6.709   1.127
 7920SOL    HW224660   6.208   6.614   1.248
 7921SOL     OW24661   5.403   5.853   2.334
 7921SOL    HW124662   5.348   5.870   2.252
 7921SOL    HW224663   5.491   5.901   2.326
 7922SOL     OW24664   0.581   6.271   6.979
 7922SOL    HW124665   0.671   6.304   6.950
 7922SOL    HW224666   0.515   6.346   6.972
 7923SOL     OW24667   4.103   1.547   6.304
 7923SOL    HW124668   4.041   1.625   6.311
 7923SOL    HW224669   4.112   1.520   6.208
 7924SOL     OW24670   4.954   0.240   1.406
 7924SOL    HW124671   5.030   0.265   1.466
 7924SOL    HW224672   4.937   0.141   1.413
 7925SOL     OW24673   0.725   7.022   6.865
 7925SOL    HW124674   0.814   0.042   6.852
 7925SOL    HW224675   0.739   6.934   6.911
 7926SOL     OW24676   5.309   1.616   6.062
 7926SOL    HW124677   5.282   1.692   6.121
 7926SOL    HW224678   5.259   1.534   6.090
 7927SOL     OW24679   4.729   6.993   2.199
 7927SOL    HW124680   4.686   7.010   2.288
 7927SOL    HW224681   4.703   0.041   2.136
 7928SOL     OW24682   1.040   2.157   3.962
 7928SOL    HW124683   1.068   2.221   3.891
 7928SOL    HW224684   0.953   2.115   3.936
 7929SOL     OW24685   3.899   3.547   5.999
 7929SOL    HW124686   3.955   3.520   5.921
 7929SOL    HW224687   3.820   3.485   6.007
 7930SOL     OW24688   4.399   5.007   5.859
 7930SOL    HW124689   4.389   5.099   5.895
 7930SOL    HW224690   4.317   4.983   5.807
 7931SOL     OW24691   3.229   2.940   0.516
 7931SOL    HW124692   3.249   2.940   0.614
 7931SOL    HW224693   3.236   2.847   0.480
 7932SOL     OW24694   1.013   5.826   6.173
 7932SOL    HW124695   1.021   5.912   6.122
 7932SOL    HW224696   1.062   5.754   6.124
 7933SOL     OW24697   6.470   0.785   6.251
 7933SOL    HW124698   6.543   0.727   6.288
 7933SOL    HW224699   6.407   0.809   6.324
 7934SOL     OW24700   1.125   5.233   6.677
 7934SOL    HW124701   1.141   5.264   6.771
 7934SOL    HW224702   1.175   5.148   6.661
 7935SOL     OW24703   5.762   6.259   1.296
 7935SOL    HW124704   5.806   6.335   1.249
 7935SOL    HW224705   5.826   6.182   1.303
 7936SOL     OW24706   3.317   5.969   2.884
 7936SOL    HW124707   3.335   5.874   2.908
 7936SOL    HW224708   3.398   6.025   2.902
 7937SOL     OW24709   0.302   5.783   4.321
 7937SOL    HW124710   0.297   5.834   4.235
 7937SOL    HW224711   0.398   5.772   4.348
 7938SOL     OW24712   6.503   6.376   4.823
 7938SOL    HW124713   6.543   6.320   4.895
 7938SOL    HW224714   6.572   6.395   4.753
 7939SOL     OW24715   1.697   2.062   5.946
 7939SOL    HW124716   1.764   1.992   5.921
 7939SOL    HW224717   1.717   2.095   6.039
 7940SOL     OW24718   2.490   2.588   2.518
 7940SOL    HW124719   2.525   2.624   2.431
 7940SOL    HW224720   2.546   2.509   2.545
 7941SOL     OW24721   5.694   6.172   2.211
 7941SOL    HW124722   5.676   6.105   2.283
 7941SOL    HW224723   5.673   6.264   2.244
 7942SOL     OW24724   0.229   4.059   2.818
 7942SOL    HW124725   0.230   3.964   2.851
 7942SOL    HW224726   0.183   4.062   2.729
 7943SOL     OW24727   0.699   4.550   6.312
 7943SOL    HW124728   0.665   4.629   6.261
 7943SOL    HW224729   0.653   4.547   6.401
 7944SOL     OW24730   0.782   2.905   0.715
 7944SOL    HW124731   0.778   2.919   0.616
 7944SOL    HW224732   0.708   2.957   0.759
 7945SOL     OW24733   6.418   5.989   1.667
 7945SOL    HW124734   6.370   5.914   1.622
 7945SOL    HW224735   6.428   6.065   1.604
 7946SOL     OW24736   3.406   0.417   5.574
 7946SOL    HW124737   3.336   0.469   5.525
 7946SOL    HW224738   3.434   0.467   5.656
 7947SOL     OW24739   2.796   1.530   5.598
 7947SOL    HW124740   2.744   1.488   5.524
 7947SOL    HW224741   2.774   1.627   5.603
 7948SOL     OW24742   0.951   6.323   0.758
 7948SOL    HW124743   1.010   6.252   0.720
 7948SOL    HW224744   0.864   6.324   0.709
 7949SOL     OW24745   4.516   3.999   5.753
 7949SOL    HW124746   4.576   3.977   5.830
 7949SOL    HW224747   4.516   3.924   5.688
 7950SOL     OW24748   4.726   5.582   4.449
 7950SOL    HW124749   4.722   5.493   4.403
 7950SOL    HW224750   4.821   5.613   4.453
 7951SOL     OW24751   1.981   4.377   2.105
 7951SOL    HW124752   2.021   4.301   2.052
 7951SOL    HW224753   1.998   4.362   2.202
 7952SOL     OW24754   0.146   3.428   6.888
 7952SOL    HW124755   0.182   3.492   6.820
 7952SOL    HW224756   0.207   3.426   6.967
 7953SOL     OW24757   4.309   2.276   2.595
 7953SOL    HW124758   4.394   2.223   2.595
 7953SOL    HW224759   4.300   2.324   2.508
 7954SOL     OW24760   2.955   4.157   6.060
 7954SOL    HW124761   2.955   4.112   5.971
 7954SOL    HW224762   2.864   4.147   6.102
 7955SOL     OW24763   2.260   1.257   6.459
 7955SOL    HW124764   2.334   1.309   6.501
 7955SOL    HW224765   2.177   1.266   6.515
 7956SOL     OW24766   5.345   0.519   2.079
 7956SOL    HW124767   5.325   0.490   1.985
 7956SOL    HW224768   5.348   0.618   2.083
 7957SOL     OW24769   1.638   0.365   0.783
 7957SOL    HW124770   1.660   0.437   0.717
 7957SOL    HW224771   1.609   0.282   0.734
 7958SOL     OW24772   4.809   5.139   6.275
 7958SOL    HW124773   4.838   5.111   6.367
 7958SOL    HW224774   4.736   5.078   6.243
 7959SOL     OW24775   5.177   6.746   1.280
 7959SOL    HW124776   5.185   6.845   1.270
 7959SOL    HW224777   5.081   6.720   1.283
 7960SOL     OW24778   2.302   0.567   5.952
 7960SOL    HW124779   2.378   0.605   6.005
 7960SOL    HW224780   2.223   0.629   5.958
 7961SOL     OW24781   6.980   0.946   0.540
 7961SOL    HW124782   7.021   1.037   0.531
 7961SOL    HW224783   6.980   0.901   0.451
 7962SOL     OW24784   1.270   0.910   5.548
 7962SOL    HW124785   1.271   1.003   5.510
 7962SOL    HW224786   1.355   0.864   5.522
 7963SOL     OW24787   5.687   5.937   4.357
 7963SOL    HW124788   5.649   5.974   4.272
 7963SOL    HW224789   5.616   5.933   4.426
 7964SOL     OW24790   6.912   3.788   3.031
 7964SOL    HW124791   6.889   3.795   3.128
 7964SOL    HW224792   6.829   3.779   2.978
 7965SOL     OW24793   4.053   2.280   6.060
 7965SOL    HW124794   4.078   2.375   6.081
 7965SOL    HW224795   4.126   2.237   6.007
 7966SOL     OW24796   2.974   2.772   5.476
 7966SOL    HW124797   2.886   2.793   5.518
 7966SOL    HW224798   3.012   2.690   5.518
 7967SOL     OW24799   3.225   6.187   1.987
 7967SOL    HW124800   3.150   6.254   1.984
 7967SOL    HW224801   3.190   6.100   2.022
 7968SOL     OW24802   6.719   2.274   3.803
 7968SOL    HW124803   6.749   2.214   3.729
 7968SOL    HW224804   6.783   2.267   3.880
 7969SOL     OW24805   5.570   5.646   1.137
 7969SOL    HW124806   5.660   5.601   1.141
 7969SOL    HW224807   5.499   5.576   1.144
 7970SOL     OW24808   6.421   2.813   1.915
 7970SOL    HW124809   6.407   2.906   1.947
 7970SOL    HW224810   6.332   2.768   1.903
 7971SOL     OW24811   3.188   1.855   1.198
 7971SOL    HW124812   3.110   1.801   1.167
 7971SOL    HW224813   3.234   1.895   1.119
 7972SOL     OW24814   2.879   3.087   0.775
 7972SOL    HW124815   2.882   3.158   0.704
 7972SOL    HW224816   2.932   3.117   0.854
 7973SOL     OW24817   4.333   4.776   4.429
 7973SOL    HW124818   4.237   4.804   4.422
 7973SOL    HW224819   4.361   4.777   4.525
 7974SOL     OW24820   5.829   1.018   5.698
 7974SOL    HW124821   5.754   0.988   5.756
 7974SOL    HW224822   5.825   1.117   5.686
 7975SOL     OW24823   6.521   0.835   1.441
 7975SOL    HW124824   6.620   0.841   1.457
 7975SOL    HW224825   6.486   0.750   1.478
 7976SOL     OW24826   1.354   0.533   5.754
 7976SOL    HW124827   1.317   0.483   5.676
 7976SOL    HW224828   1.291   0.605   5.780
 7977SOL     OW24829   4.449   5.804   3.032
 7977SOL    HW124830   4.521   5.846   3.087
 7977SOL    HW224831   4.368   5.863   3.032
 7978SOL     OW24832   6.420   2.247   6.008
 7978SOL    HW124833   6.423   2.316   5.935
 7978SOL    HW224834   6.433   2.292   6.097
 7979SOL     OW24835   3.704   5.480   5.239
 7979SOL    HW124836   3.645   5.449   5.313
 7979SOL    HW224837   3.774   5.541   5.275
 7980SOL     OW24838   3.549   5.529   6.204
 7980SOL    HW124839   3.452   5.516   6.186
 7980SOL    HW224840   3.565   5.624   6.232
 7981SOL     OW24841   0.987   4.884   1.280
 7981SOL    HW124842   1.081   4.916   1.267
 7981SOL    HW224843   0.983   4.786   1.258
 7982SOL     OW24844   1.542   0.993   0.095
 7982SOL    HW124845   1.622   1.040   0.134
 7982SOL    HW224846   1.459   1.040   0.123
 7983SOL     OW24847   5.998   2.383   0.218
 7983SOL    HW124848   6.088   2.342   0.202
 7983SOL    HW224849   5.937   2.314   0.258
 7984SOL     OW24850   1.181   1.282   0.561
 7984SOL    HW124851   1.146   1.311   0.472
 7984SOL    HW224852   1.270   1.237   0.548
 7985SOL     OW24853   2.824   1.599   4.448
 7985SOL    HW124854   2.816   1.502   4.473
 7985SOL    HW224855   2.920   1.621   4.432
 7986SOL     OW24856   2.556   0.816   6.349
 7986SOL    HW124857   2.493   0.881   6.391
 7986SOL    HW224858   2.583   0.747   6.417
 7987SOL     OW24859   1.793   2.528   0.275
 7987SOL    HW124860   1.759   2.603   0.219
 7987SOL    HW224861   1.778   2.441   0.227
 7988SOL     OW24862   1.033   1.764   2.752
 7988SOL    HW124863   0.957   1.825   2.730
 7988SOL    HW224864   1.024   1.679   2.701
 7989SOL     OW24865   2.852   3.334   0.107
 7989SOL    HW124866   2.893   3.266   0.168
 7989SOL    HW224867   2.919   3.404   0.085
 7990SOL     OW24868   1.625   4.940   4.995
 7990SOL    HW124869   1.555   4.945   4.924
 7990SOL    HW224870   1.663   4.848   4.999
 7991SOL     OW24871   6.143   0.882   3.589
 7991SOL    HW124872   6.055   0.908   3.629
 7991SOL    HW224873   6.217   0.912   3.649
 7992SOL     OW24874   1.014   0.463   0.385
 7992SOL    HW124875   1.095   0.494   0.335
 7992SOL    HW224876   0.933   0.476   0.328
 7993SOL     OW24877   6.917   0.113   1.027
 7993SOL    HW124878   6.931   0.014   1.028
 7993SOL    HW224879   7.004   0.159   1.014
 7994SOL     OW24880   3.671   6.999   3.308
 7994SOL    HW124881   3.734   0.051   3.293
 7994SOL    HW224882   3.600   0.003   3.373
 7995SOL     OW24883   6.078   5.356   3.469
 7995SOL    HW124884   6.035   5.282   3.519
 7995SOL    HW224885   6.177   5.344   3.469
 7996SOL     OW24886   3.554   6.769   3.968
 7996SOL    HW124887   3.605   6.720   4.039
 7996SOL    HW224888   3.459   6.738   3.967
 7997SOL     OW24889   0.083   1.156   1.037
 7997SOL    HW124890   0.054   1.060   1.034
 7997SOL    HW224891   0.179   1.162   1.008
 7998SOL     OW24892   2.616   0.609   0.413
 7998SOL    HW124893   2.569   0.685   0.457
 7998SOL    HW224894   2.593   0.524   0.460
 7999SOL     OW24895   0.903   0.983   6.146
 7999SOL    HW124896   0.949   1.052   6.090
 7999SOL    HW224897   0.809   1.011   6.164
 8000SOL     OW24898   5.002   0.081   6.626
 8000SOL    HW124899   4.940   0.156   6.604
 8000SOL    HW224900   5.061   0.107   6.703
 8001SOL     OW24901   4.401   6.295   1.696
 8001SOL    HW124902   4.342   6.369   1.665
 8001SOL    HW224903   4.467   6.273   1.624
 8002SOL     OW24904   1.768   0.740   6.579
 8002SOL    HW124905   1.677   0.750   6.620
 8002SOL    HW224906   1.758   0.713   6.484
 8003SOL     OW24907   2.812   5.261   1.732
 8003SOL    HW124908   2.876   5.204   1.783
 8003SOL    HW224909   2.719   5.244   1.764
 8004SOL     OW24910   2.273   2.856   2.912
 8004SOL    HW124911   2.334   2.788   2.871
 8004SOL    HW224912   2.294   2.865   3.009
 8005SOL     OW24913   2.950   1.014   3.455
 8005SOL    HW124914   2.936   0.976   3.546
 8005SOL    HW224915   3.045   0.998   3.427
 8006SOL     OW24916   2.309   6.127   5.460
 8006SOL    HW124917   2.369   6.076   5.521
 8006SOL    HW224918   2.283   6.214   5.503
 8007SOL     OW24919   5.974   1.457   5.802
 8007SOL    HW124920   6.005   1.552   5.808
 8007SOL    HW224921   6.044   1.397   5.843
 8008SOL     OW24922   4.041   6.232   6.419
 8008SOL    HW124923   4.124   6.285   6.436
 8008SOL    HW224924   4.022   6.230   6.321
 8009SOL     OW24925   5.914   0.649   1.200
 8009SOL    HW124926   5.947   0.619   1.290
 8009SOL    HW224927   5.846   0.722   1.212
 8010SOL     OW24928   2.007   1.547   5.249
 8010SOL    HW124929   2.091   1.506   5.285
 8010SOL    HW224930   1.934   1.478   5.248
 8011SOL     OW24931   3.122   2.355   1.070
 8011SOL    HW124932   3.149   2.451   1.071
 8011SOL    HW224933   3.052   2.340   1.001
 8012SOL     OW24934   2.548   3.402   0.118
 8012SOL    HW124935   2.524   3.406   0.021
 8012SOL    HW224936   2.648   3.397   0.127
 8013SOL     OW24937   1.442   5.422   3.155
 8013SOL    HW124938   1.350   5.444   3.124
 8013SOL    HW224939   1.440   5.398   3.252
 8014SOL     OW24940   1.253   6.579   4.500
 8014SOL    HW124941   1.226   6.496   4.451
 8014SOL    HW224942   1.313   6.634   4.442
 8015SOL     OW24943   2.541   0.428   6.241
 8015SOL    HW124944   2.459   0.442   6.296
 8015SOL    HW224945   2.581   0.339   6.263
 8016SOL     OW24946   3.940   0.422   5.918
 8016SOL    HW124947   3.926   0.381   6.009
 8016SOL    HW224948   3.855   0.465   5.888
 8017SOL     OW24949   5.759   0.092   0.463
 8017SOL    HW124950   5.757   0.094   0.563
 8017SOL    HW224951   5.672   0.125   0.427
 8018SOL     OW24952   3.433   2.281   6.974
 8018SOL    HW124953   3.358   2.343   6.998
 8018SOL    HW224954   3.396   2.189   6.960
 8019SOL     OW24955   2.444   4.887   1.005
 8019SOL    HW124956   2.541   4.862   1.005
 8019SOL    HW224957   2.404   4.866   0.915
 8020SOL     OW24958   6.189   0.145   6.856
 8020SOL    HW124959   6.187   0.125   6.758
 8020SOL    HW224960   6.134   0.227   6.875
 8021SOL     OW24961   0.926   3.053   0.878
 8021SOL    HW124962   1.023   3.063   0.901
 8021SOL    HW224963   0.914   2.973   0.819
 8022SOL     OW24964   5.890   0.740   2.203
 8022SOL    HW124965   5.881   0.655   2.149
 8022SOL    HW224966   5.945   0.722   2.284
 8023SOL     OW24967   6.323   4.735   2.988
 8023SOL    HW124968   6.355   4.691   2.904
 8023SOL    HW224969   6.280   4.822   2.965
 8024SOL     OW24970   1.208   5.098   5.675
 8024SOL    HW124971   1.147   5.054   5.609
 8024SOL    HW224972   1.184   5.068   5.767
 8025SOL     OW24973   2.240   5.897   0.845
 8025SOL    HW124974   2.173   5.894   0.770
 8025SOL    HW224975   2.194   5.923   0.929
 8026SOL     OW24976   6.809   4.211   0.581
 8026SOL    HW124977   6.858   4.170   0.657
 8026SOL    HW224978   6.873   4.260   0.522
 8027SOL     OW24979   4.027   0.172   5.367
 8027SOL    HW124980   3.953   0.113   5.399
 8027SOL    HW224981   4.067   0.134   5.284
 8028SOL     OW24982   4.385   5.846   5.556
 8028SOL    HW124983   4.289   5.850   5.583
 8028SOL    HW224984   4.433   5.781   5.616
 8029SOL     OW24985   5.392   3.197   1.491
 8029SOL    HW124986   5.456   3.246   1.550
 8029SOL    HW224987   5.324   3.150   1.548
 8030SOL     OW24988   5.175   5.127   0.476
 8030SOL    HW124989   5.236   5.126   0.398
 8030SOL    HW224990   5.083   5.101   0.447
 8031SOL     OW24991   6.204   6.799   2.254
 8031SOL    HW124992   6.213   6.700   2.265
 8031SOL    HW224993   6.288   6.843   2.285
 8032SOL     OW24994   6.254   4.557   1.636
 8032SOL    HW124995   6.268   4.458   1.634
 8032SOL    HW224996   6.317   4.601   1.573
 8033SOL     OW24997   4.657   2.480   6.915
 8033SOL    HW124998   4.623   2.396   6.957
 8033SOL    HW224999   4.732   2.459   6.852
 8034SOL     OW25000   4.251   0.724   5.093
 8034SOL    HW125001   4.293   0.657   5.155
 8034SOL    HW225002   4.283   0.707   5.000
 8035SOL     OW25003   5.136   1.658   2.376
 8035SOL    HW125004   5.142   1.567   2.336
 8035SOL    HW225005   5.177   1.657   2.468
 8036SOL     OW25006   6.720   4.121   4.072
 8036SOL    HW125007   6.621   4.115   4.088
 8036SOL    HW225008   6.749   4.216   4.086
 8037SOL     OW25009   2.501   3.401   6.832
 8037SOL    HW125010   2.408   3.433   6.846
 8037SOL    HW225011   2.500   3.304   6.807
 8038SOL     OW25012   4.776   0.466   2.346
 8038SOL    HW125013   4.731   0.405   2.412
 8038SOL    HW225014   4.800   0.551   2.391
 8039SOL     OW25015   0.252   1.514   5.300
 8039SOL    HW125016   0.311   1.443   5.339
 8039SOL    HW225017   0.235   1.493   5.204
 8040SOL     OW25018   1.268   5.566   0.289
 8040SOL    HW125019   1.358   5.590   0.252
 8040SOL    HW225020   1.275   5.554   0.389
 8041SOL     OW25021   3.277   0.784   2.970
 8041SOL    HW125022   3.283   0.883   2.984
 8041SOL    HW225023   3.370   0.746   2.969
 8042SOL     OW25024   3.891   2.882   5.163
 8042SOL    HW125025   3.954   2.903   5.089
 8042SOL    HW225026   3.799   2.915   5.139
 8043SOL     OW25027   3.868   6.126   0.786
 8043SOL    HW125028   3.900   6.185   0.860
 8043SOL    HW225029   3.770   6.141   0.772
 8044SOL     OW25030   4.986   2.923   0.674
 8044SOL    HW125031   4.895   2.952   0.647
 8044SOL    HW225032   4.994   2.928   0.774
 8045SOL     OW25033   6.274   2.255   2.337
 8045SOL    HW125034   6.368   2.285   2.324
 8045SOL    HW225035   6.258   2.237   2.434
 8046SOL     OW25036   0.866   4.415   1.832
 8046SOL    HW125037   0.816   4.461   1.759
 8046SOL    HW225038   0.864   4.317   1.817
 8047SOL     OW25039   3.998   6.010   5.889
 8047SOL    HW125040   3.929   6.061   5.837
 8047SOL    HW225041   3.954   5.934   5.937
 8048SOL     OW25042   3.681   1.421   0.039
 8048SOL    HW125043   3.723   1.481   0.107
 8048SOL    HW225044   3.583   1.411   0.059
 8049SOL     OW25045   0.995   0.182   6.561
 8049SOL    HW125046   0.976   0.135   6.647
 8049SOL    HW225047   0.952   0.131   6.486
 8050SOL     OW25048   2.130   3.480   3.549
 8050SOL    HW125049   2.161   3.401   3.496
 8050SOL    HW225050   2.131   3.561   3.490
 8051SOL     OW25051   4.625   6.330   4.264
 8051SOL    HW125052   4.645   6.271   4.342
 8051SOL    HW225053   4.704   6.387   4.244
 8052SOL     OW25054   2.999   1.726   1.078
 8052SOL    HW125055   2.950   1.762   0.998
 8052SOL    HW225056   3.047   1.642   1.052
 8053SOL     OW25057   3.745   3.104   4.894
 8053SOL    HW125058   3.678   3.034   4.870
 8053SOL    HW225059   3.721   3.144   4.982
 8054SOL     OW25060   6.835   4.388   4.821
 8054SOL    HW125061   6.737   4.406   4.833
 8054SOL    HW225062   6.881   4.394   4.909
 8055SOL     OW25063   0.205   0.471   5.699
 8055SOL    HW125064   0.245   0.561   5.720
 8055SOL    HW225065   0.150   0.477   5.616
 8056SOL     OW25066   2.856   0.826   4.937
 8056SOL    HW125067   2.797   0.900   4.969
 8056SOL    HW225068   2.951   0.846   4.964
 8057SOL     OW25069   2.965   2.147   3.138
 8057SOL    HW125070   3.020   2.098   3.070
 8057SOL    HW225071   2.873   2.162   3.102
 8058SOL     OW25072   3.115   0.134   3.305
 8058SOL    HW125073   3.178   0.097   3.236
 8058SOL    HW225074   3.060   0.059   3.342
 8059SOL     OW25075   2.681   1.875   4.560
 8059SOL    HW125076   2.620   1.953   4.548
 8059SOL    HW225077   2.709   1.841   4.470
 8060SOL     OW25078   6.655   2.142   6.223
 8060SOL    HW125079   6.687   2.225   6.176
 8060SOL    HW225080   6.733   2.095   6.264
 8061SOL     OW25081   0.010   0.190   2.955
 8061SOL    HW125082   0.088   0.204   2.894
 8061SOL    HW225083   7.006   0.278   2.994
 8062SOL     OW25084   3.590   4.932   4.144
 8062SOL    HW125085   3.599   4.892   4.052
 8062SOL    HW225086   3.511   4.993   4.146
 8063SOL     OW25087   2.459   1.889   2.749
 8063SOL    HW125088   2.481   1.793   2.735
 8063SOL    HW225089   2.512   1.926   2.825
 8064SOL     OW25090   6.820   2.369   0.582
 8064SOL    HW125091   6.726   2.373   0.616
 8064SOL    HW225092   6.830   2.431   0.503
 8065SOL     OW25093   2.576   5.389   3.860
 8065SOL    HW125094   2.480   5.381   3.887
 8065SOL    HW225095   2.629   5.426   3.937
 8066SOL     OW25096   0.454   1.029   5.627
 8066SOL    HW125097   0.411   0.953   5.676
 8066SOL    HW225098   0.385   1.100   5.610
 8067SOL     OW25099   5.179   2.640   2.982
 8067SOL    HW125100   5.127   2.710   3.031
 8067SOL    HW225101   5.209   2.677   2.893
 8068SOL     OW25102   0.202   4.705   1.250
 8068SOL    HW125103   0.277   4.730   1.311
 8068SOL    HW225104   0.231   4.716   1.155
 8069SOL     OW25105   2.244   5.404   1.209
 8069SOL    HW125106   2.325   5.455   1.239
 8069SOL    HW225107   2.263   5.359   1.122
 8070SOL     OW25108   4.485   3.080   0.721
 8070SOL    HW125109   4.391   3.084   0.688
 8070SOL    HW225110   4.500   3.153   0.788
 8071SOL     OW25111   3.414   6.588   4.985
 8071SOL    HW125112   3.398   6.686   4.992
 8071SOL    HW225113   3.498   6.564   5.034
 8072SOL     OW25114   3.713   1.267   0.772
 8072SOL    HW125115   3.712   1.318   0.686
 8072SOL    HW225116   3.806   1.234   0.790
 8073SOL     OW25117   3.059   5.620   4.969
 8073SOL    HW125118   3.008   5.534   4.963
 8073SOL    HW225119   3.131   5.620   4.899
 8074SOL     OW25120   3.298   2.906   0.797
 8074SOL    HW125121   3.275   2.857   0.881
 8074SOL    HW225122   3.386   2.872   0.762
 8075SOL     OW25123   6.324   6.754   0.956
 8075SOL    HW125124   6.355   6.849   0.959
 8075SOL    HW225125   6.227   6.751   0.933
 8076SOL     OW25126   6.040   0.869   5.722
 8076SOL    HW125127   5.958   0.925   5.709
 8076SOL    HW225128   6.114   0.924   5.758
 8077SOL     OW25129   3.389   6.249   2.477
 8077SOL    HW125130   3.411   6.173   2.416
 8077SOL    HW225131   3.444   6.242   2.561
 8078SOL     OW25132   6.808   1.962   0.357
 8078SOL    HW125133   6.791   1.898   0.433
 8078SOL    HW225134   6.811   1.911   0.271
 8079SOL     OW25135   6.407   0.963   3.712
 8079SOL    HW125136   6.436   0.879   3.666
 8079SOL    HW225137   6.483   1.000   3.765
 8080SOL     OW25138   0.624   2.828   2.541
 8080SOL    HW125139   0.700   2.765   2.534
 8080SOL    HW225140   0.570   2.808   2.623
 8081SOL     OW25141   6.229   5.975   6.226
 8081SOL    HW125142   6.227   5.925   6.313
 8081SOL    HW225143   6.231   6.073   6.245
 8082SOL     OW25144   4.152   0.933   1.879
 8082SOL    HW125145   4.188   0.848   1.841
 8082SOL    HW225146   4.162   0.932   1.979
 8083SOL     OW25147   4.947   3.022   3.041
 8083SOL    HW125148   4.904   3.103   3.082
 8083SOL    HW225149   5.027   3.049   2.988
 8084SOL     OW25150   3.905   6.568   6.891
 8084SOL    HW125151   3.876   6.664   6.893
 8084SOL    HW225152   3.824   6.509   6.888
 8085SOL     OW25153   5.812   6.504   2.332
 8085SOL    HW125154   5.782   6.580   2.274
 8085SOL    HW225155   5.733   6.460   2.373
 8086SOL     OW25156   6.635   0.433   2.691
 8086SOL    HW125157   6.650   0.400   2.597
 8086SOL    HW225158   6.563   0.502   2.690
 8087SOL     OW25159   1.953   6.931   6.924
 8087SOL    HW125160   1.989   6.993   6.853
 8087SOL    HW225161   2.007   6.941   7.007
 8088SOL     OW25162   6.284   1.250   1.708
 8088SOL    HW125163   6.260   1.206   1.795
 8088SOL    HW225164   6.368   1.209   1.671
 8089SOL     OW25165   5.942   2.744   0.422
 8089SOL    HW125166   5.925   2.768   0.517
 8089SOL    HW225167   6.037   2.713   0.412
 8090SOL     OW25168   3.903   1.224   6.816
 8090SOL    HW125169   3.822   1.174   6.848
 8090SOL    HW225170   3.886   1.323   6.822
 8091SOL     OW25171   1.854   3.673   4.814
 8091SOL    HW125172   1.917   3.636   4.882
 8091SOL    HW225173   1.887   3.763   4.784
 8092SOL     OW25174   5.917   2.196   5.316
 8092SOL    HW125175   5.935   2.098   5.321
 8092SOL    HW225176   5.907   2.233   5.409
 8093SOL     OW25177   3.240   5.189   3.111
 8093SOL    HW125178   3.159   5.185   3.169
 8093SOL    HW225179   3.303   5.116   3.138
 8094SOL     OW25180   0.662   3.694   4.606
 8094SOL    HW125181   0.627   3.639   4.530
 8094SOL    HW225182   0.614   3.670   4.690
 8095SOL     OW25183   0.347   4.703   4.366
 8095SOL    HW125184   0.354   4.735   4.460
 8095SOL    HW225185   0.349   4.603   4.363
 8096SOL     OW25186   2.002   6.884   2.785
 8096SOL    HW125187   1.994   6.785   2.775
 8096SOL    HW225188   2.087   6.906   2.833
 8097SOL     OW25189   4.117   6.785   4.644
 8097SOL    HW125190   4.121   6.842   4.726
 8097SOL    HW225191   4.035   6.807   4.591
 8098SOL     OW25192   1.814   6.531   3.327
 8098SOL    HW125193   1.882   6.604   3.322
 8098SOL    HW225194   1.740   6.550   3.263
 8099SOL     OW25195   4.048   5.992   4.840
 8099SOL    HW125196   4.087   6.038   4.761
 8099SOL    HW225197   3.993   6.057   4.893
 8100SOL     OW25198   0.432   0.283   6.704
 8100SOL    HW125199   0.455   0.235   6.619
 8100SOL    HW225200   0.335   0.307   6.703
 8101SOL     OW25201   1.852   6.147   1.825
 8101SOL    HW125202   1.778   6.208   1.854
 8101SOL    HW225203   1.888   6.099   1.904
 8102SOL     OW25204   0.454   3.838   3.460
 8102SOL    HW125205   0.494   3.779   3.530
 8102SOL    HW225206   0.449   3.932   3.495
 8103SOL     OW25207   2.994   6.807   1.330
 8103SOL    HW125208   2.998   6.886   1.269
 8103SOL    HW225209   2.956   6.729   1.281
 8104SOL     OW25210   2.174   0.340   6.041
 8104SOL    HW125211   2.202   0.423   5.992
 8104SOL    HW225212   2.255   0.290   6.070
 8105SOL     OW25213   0.481   3.166   3.136
 8105SOL    HW125214   0.423   3.094   3.098
 8105SOL    HW225215   0.565   3.126   3.172
 8106SOL     OW25216   3.185   6.161   3.077
 8106SOL    HW125217   3.177   6.063   3.096
 8106SOL    HW225218   3.278   6.191   3.098
 8107SOL     OW25219   0.920   5.078   4.459
 8107SOL    HW125220   0.864   5.079   4.542
 8107SOL    HW225221   0.970   4.992   4.454
 8108SOL     OW25222   6.117   2.796   5.878
 8108SOL    HW125223   6.215   2.776   5.873
 8108SOL    HW225224   6.073   2.735   5.944
 8109SOL     OW25225   0.078   4.156   5.870
 8109SOL    HW125226   0.042   4.103   5.946
 8109SOL    HW225227   0.008   4.166   5.800
 8110SOL     OW25228   4.067   6.226   2.486
 8110SOL    HW125229   4.004   6.172   2.431
 8110SOL    HW225230   4.148   6.171   2.507
 8111SOL     OW25231   5.148   1.158   4.447
 8111SOL    HW125232   5.198   1.073   4.461
 8111SOL    HW225233   5.202   1.221   4.391
 8112SOL     OW25234   2.527   2.075   4.499
 8112SOL    HW125235   2.529   2.132   4.417
 8112SOL    HW225236   2.493   2.130   4.576
 8113SOL     OW25237   1.666   3.674   0.248
 8113SOL    HW125238   1.680   3.761   0.201
 8113SOL    HW225239   1.571   3.644   0.234
 8114SOL     OW25240   1.477   4.331   3.016
 8114SOL    HW125241   1.442   4.301   3.105
 8114SOL    HW225242   1.439   4.273   2.944
 8115SOL     OW25243   3.668   0.620   6.857
 8115SOL    HW125244   3.702   0.666   6.775
 8115SOL    HW225245   3.700   0.668   6.938
 8116SOL     OW25246   4.452   4.646   7.013
 8116SOL    HW125247   4.540   4.604   6.991
 8116SOL    HW225248   4.400   4.585   0.048
 8117SOL     OW25249   2.035   6.934   3.666
 8117SOL    HW125250   1.974   6.985   3.605
 8117SOL    HW225251   2.130   6.946   3.637
 8118SOL     OW25252   5.005   4.457   0.016
 8118SOL    HW125253   5.058   4.496   6.966
 8118SOL    HW225254   5.057   4.461   0.101
 8119SOL     OW25255   4.948   5.531   6.780
 8119SOL    HW125256   4.923   5.625   6.805
 8119SOL    HW225257   4.913   5.510   6.689
 8120SOL     OW25258   2.919   4.903   1.014
 8120SOL    HW125259   2.827   4.867   1.031
 8120SOL    HW225260   2.954   4.946   1.097
 8121SOL     OW25261   6.842   4.861   2.163
 8121SOL    HW125262   6.933   4.825   2.181
 8121SOL    HW225263   6.785   4.790   2.120
 8122SOL     OW25264   0.361   4.990   3.668
 8122SOL    HW125265   0.449   4.998   3.620
 8122SOL    HW225266   0.332   4.894   3.668
 8123SOL     OW25267   6.918   1.931   6.776
 8123SOL    HW125268   6.891   1.910   6.870
 8123SOL    HW225269   6.837   1.953   6.722
 8124SOL     OW25270   5.385   6.392   1.701
 8124SOL    HW125271   5.433   6.455   1.640
 8124SOL    HW225272   5.444   6.371   1.779
 8125SOL     OW25273   1.419   1.840   3.004
 8125SOL    HW125274   1.471   1.917   3.039
 8125SOL    HW225275   1.477   1.759   3.000
 8126SOL     OW25276   4.835   4.244   2.795
 8126SOL    HW125277   4.885   4.162   2.765
 8126SOL    HW225278   4.901   4.318   2.812
 8127SOL     OW25279   2.798   4.552   6.589
 8127SOL    HW125280   2.722   4.614   6.571
 8127SOL    HW225281   2.779   4.462   6.548
 8128SOL     OW25282   2.991   2.186   2.310
 8128SOL    HW125283   2.973   2.224   2.219
 8128SOL    HW225284   3.090   2.177   2.323
 8129SOL     OW25285   3.859   1.356   6.205
 8129SOL    HW125286   3.864   1.374   6.106
 8129SOL    HW225287   3.947   1.323   6.237
 8130SOL     OW25288   0.269   3.837   6.865
 8130SOL    HW125289   0.230   3.928   6.881
 8130SOL    HW225290   0.272   3.818   6.767
 8131SOL     OW25291   2.620   1.985   1.341
 8131SOL    HW125292   2.557   2.062   1.341
 8131SOL    HW225293   2.633   1.952   1.248
 8132SOL     OW25294   5.982   0.002   6.074
 8132SOL    HW125295   6.076   7.010   6.101
 8132SOL    HW225296   5.931   0.039   6.151
 8133SOL     OW25297   3.564   5.743   1.621
 8133SOL    HW125298   3.498   5.689   1.672
 8133SOL    HW225299   3.553   5.727   1.523
 8134SOL     OW25300   6.671   2.814   5.741
 8134SOL    HW125301   6.679   2.897   5.797
 8134SOL    HW225302   6.741   2.749   5.768
 8135SOL     OW25303   3.296   6.564   1.360
 8135SOL    HW125304   3.221   6.620   1.326
 8135SOL    HW225305   3.348   6.528   1.283
 8136SOL     OW25306   4.660   5.955   3.193
 8136SOL    HW125307   4.731   5.964   3.263
 8136SOL    HW225308   4.701   5.964   3.103
 8137SOL     OW25309   3.632   1.658   5.139
 8137SOL    HW125310   3.685   1.736   5.171
 8137SOL    HW225311   3.653   1.578   5.196
 8138SOL     OW25312   4.951   0.855   0.846
 8138SOL    HW125313   4.986   0.925   0.908
 8138SOL    HW225314   5.017   0.781   0.838
 8139SOL     OW25315   0.466   1.124   2.579
 8139SOL    HW125316   0.561   1.138   2.607
 8139SOL    HW225317   0.463   1.093   2.484
 8140SOL     OW25318   5.600   0.740   0.085
 8140SOL    HW125319   5.652   0.673   0.138
 8140SOL    HW225320   5.503   0.713   0.083
 8141SOL     OW25321   4.395   6.344   4.513
 8141SOL    HW125322   4.490   6.316   4.501
 8141SOL    HW225323   4.392   6.437   4.550
 8142SOL     OW25324   0.150   5.533   6.954
 8142SOL    HW125325   0.075   5.466   6.956
 8142SOL    HW225326   0.159   5.574   0.020
 8143SOL     OW25327   5.616   4.200   0.899
 8143SOL    HW125328   5.674   4.250   0.834
 8143SOL    HW225329   5.561   4.265   0.951
 8144SOL     OW25330   6.056   6.046   6.615
 8144SOL    HW125331   5.976   6.037   6.675
 8144SOL    HW225332   6.054   6.135   6.570
 8145SOL     OW25333   5.737   6.015   1.995
 8145SOL    HW125334   5.698   5.931   2.030
 8145SOL    HW225335   5.744   6.083   2.069
 8146SOL     OW25336   3.875   1.014   4.264
 8146SOL    HW125337   3.926   1.070   4.329
 8146SOL    HW225338   3.891   0.917   4.284
 8147SOL     OW25339   5.963   2.101   1.820
 8147SOL    HW125340   5.996   2.187   1.780
 8147SOL    HW225341   6.042   2.044   1.844
 8148SOL     OW25342   4.897   4.474   0.988
 8148SOL    HW125343   4.975   4.528   1.019
 8148SOL    HW225344   4.888   4.393   1.045
 8149SOL     OW25345   2.791   6.195   2.138
 8149SOL    HW125346   2.753   6.288   2.131
 8149SOL    HW225347   2.878   6.199   2.189
 8150SOL     OW25348   1.957   4.270   0.671
 8150SOL    HW125349   1.910   4.215   0.741
 8150SOL    HW225350   1.932   4.237   0.580
 8151SOL     OW25351   6.373   2.313   1.252
 8151SOL    HW125352   6.418   2.402   1.255
 8151SOL    HW225353   6.277   2.325   1.229
 8152SOL     OW25354   0.170   1.529   2.735
 8152SOL    HW125355   0.133   1.548   2.826
 8152SOL    HW225356   0.130   1.593   2.669
 8153SOL     OW25357   2.137   0.101   3.906
 8153SOL    HW125358   2.146   0.186   3.853
 8153SOL    HW225359   2.095   0.030   3.849
 8154SOL     OW25360   2.966   5.136   2.450
 8154SOL    HW125361   2.892   5.203   2.452
 8154SOL    HW225362   2.947   5.068   2.379
 8155SOL     OW25363   1.749   3.621   2.125
 8155SOL    HW125364   1.830   3.601   2.070
 8155SOL    HW225365   1.736   3.549   2.193
 8156SOL     OW25366   5.165   6.718   0.619
 8156SOL    HW125367   5.263   6.733   0.614
 8156SOL    HW225368   5.125   6.775   0.690
 8157SOL     OW25369   7.024   5.106   6.826
 8157SOL    HW125370   0.090   5.111   6.784
 8157SOL    HW225371   0.005   5.053   6.911
 8158SOL     OW25372   5.130   5.088   0.834
 8158SOL    HW125373   5.078   5.145   0.896
 8158SOL    HW225374   5.069   5.050   0.764
 8159SOL     OW25375   2.964   6.296   2.684
 8159SOL    HW125376   2.979   6.203   2.719
 8159SOL    HW225377   3.043   6.325   2.631
 8160SOL     OW25378   4.977   1.203   2.895
 8160SOL    HW125379   4.940   1.116   2.860
 8160SOL    HW225380   5.003   1.192   2.991
 8161SOL     OW25381   5.220   1.764   6.364
 8161SOL    HW125382   5.158   1.770   6.286
 8161SOL    HW225383   5.186   1.696   6.429
 8162SOL     OW25384   6.125   6.690   6.223
 8162SOL    HW125385   6.204   6.636   6.251
 8162SOL    HW225386   6.154   6.779   6.191
 8163SOL     OW25387   2.541   4.177   5.340
 8163SOL    HW125388   2.486   4.129   5.272
 8163SOL    HW225389   2.487   4.251   5.380
 8164SOL     OW25390   5.912   3.526   0.873
 8164SOL    HW125391   5.891   3.595   0.803
 8164SOL    HW225392   5.914   3.436   0.831
 8165SOL     OW25393   0.844   4.815   6.985
 8165SOL    HW125394   0.811   4.755   0.034
 8165SOL    HW225395   0.926   4.862   7.016
 8166SOL     OW25396   1.834   0.621   2.135
 8166SOL    HW125397   1.765   0.645   2.204
 8166SOL    HW225398   1.924   0.616   2.179
 8167SOL     OW25399   6.503   0.007   4.896
 8167SOL    HW125400   6.407   7.022   4.920
 8167SOL    HW225401   6.552   6.946   4.918
 8168SOL     OW25402   2.663   1.510   3.996
 8168SOL    HW125403   2.682   1.608   4.001
 8168SOL    HW225404   2.574   1.491   4.037
 8169SOL     OW25405   4.805   2.694   1.330
 8169SOL    HW125406   4.707   2.711   1.333
 8169SOL    HW225407   4.834   2.681   1.235
 8170SOL     OW25408   1.615   5.320   2.316
 8170SOL    HW125409   1.566   5.255   2.375
 8170SOL    HW225410   1.619   5.409   2.362
 8171SOL     OW25411   1.341   1.126   0.237
 8171SOL    HW125412   1.317   1.109   0.332
 8171SOL    HW225413   1.415   1.193   0.233
 8172SOL     OW25414   0.860   1.232   1.894
 8172SOL    HW125415   0.937   1.169   1.882
 8172SOL    HW225416   0.847   1.284   1.809
 8173SOL     OW25417   4.032   0.916   1.174
 8173SOL    HW125418   3.934   0.899   1.170
 8173SOL    HW225419   4.048   1.008   1.212
 8174SOL     OW25420   5.934   2.221   0.523
 8174SOL    HW125421   5.894   2.264   0.604
 8174SOL    HW225422   6.034   2.228   0.528
 8175SOL     OW25423   7.023   3.335   6.581
 8175SOL    HW125424   0.082   3.391   6.584
 8175SOL    HW225425   6.945   3.389   6.613
 8176SOL     OW25426   2.947   5.356   2.203
 8176SOL    HW125427   2.885   5.363   2.281
 8176SOL    HW225428   3.022   5.294   2.226
 8177SOL     OW25429   2.365   5.881   3.770
 8177SOL    HW125430   2.325   5.927   3.690
 8177SOL    HW225431   2.383   5.948   3.841
 8178SOL     OW25432   2.888   5.900   6.326
 8178SOL    HW125433   2.853   5.866   6.413
 8178SOL    HW225434   2.812   5.925   6.267
 8179SOL     OW25435   4.112   2.563   6.025
 8179SOL    HW125436   4.057   2.597   6.101
 8179SOL    HW225437   4.139   2.640   5.967
 8180SOL     OW25438   6.573   0.242   4.992
 8180SOL    HW125439   6.553   0.146   4.973
 8180SOL    HW225440   6.627   0.281   4.917
 8181SOL     OW25441   2.154   1.911   1.964
 8181SOL    HW125442   2.093   1.832   1.969
 8181SOL    HW225443   2.234   1.888   1.910
 8182SOL     OW25444   3.618   2.435   6.653
 8182SOL    HW125445   3.700   2.437   6.596
 8182SOL    HW225446   3.554   2.368   6.616
 8183SOL     OW25447   0.527   2.280   4.555
 8183SOL    HW125448   0.545   2.267   4.652
 8183SOL    HW225449   0.481   2.368   4.541
 8184SOL     OW25450   5.342   2.170   5.767
 8184SOL    HW125451   5.301   2.133   5.684
 8184SOL    HW225452   5.423   2.117   5.791
 8185SOL     OW25453   2.680   6.194   0.403
 8185SOL    HW125454   2.718   6.205   0.311
 8185SOL    HW225455   2.604   6.259   0.416
 8186SOL     OW25456   3.244   5.668   6.368
 8186SOL    HW125457   3.209   5.680   6.275
 8186SOL    HW225458   3.197   5.731   6.430
 8187SOL     OW25459   1.737   1.917   5.636
 8187SOL    HW125460   1.772   1.827   5.611
 8187SOL    HW225461   1.670   1.907   5.710
 8188SOL     OW25462   5.224   2.506   1.946
 8188SOL    HW125463   5.289   2.486   1.872
 8188SOL    HW225464   5.131   2.485   1.916
 8189SOL     OW25465   4.850   4.907   2.400
 8189SOL    HW125466   4.916   4.953   2.341
 8189SOL    HW225467   4.765   4.892   2.349
 8190SOL     OW25468   4.465   5.395   4.508
 8190SOL    HW125469   4.493   5.391   4.604
 8190SOL    HW225470   4.365   5.391   4.502
 8191SOL     OW25471   3.130   5.706   3.465
 8191SOL    HW125472   3.208   5.676   3.410
 8191SOL    HW225473   3.048   5.658   3.434
 8192SOL     OW25474   3.532   5.299   0.231
 8192SOL    HW125475   3.469   5.266   0.302
 8192SOL    HW225476   3.495   5.280   0.141
 8193SOL     OW25477   6.872   0.174   4.081
 8193SOL    HW125478   6.795   0.113   4.100
 8193SOL    HW225479   6.954   0.121   4.063
 8194SOL     OW25480   6.434   2.503   0.447
 8194SOL    HW125481   6.357   2.561   0.419
 8194SOL    HW225482   6.468   2.453   0.368
 8195SOL     OW25483   0.691   0.089   0.658
 8195SOL    HW125484   0.699   0.189   0.662
 8195SOL    HW225485   0.770   0.051   0.611
 8196SOL     OW25486   3.251   0.182   5.613
 8196SOL    HW125487   3.319   0.253   5.594
 8196SOL    HW225488   3.286   0.094   5.580
 8197SOL     OW25489   4.032   1.104   5.998
 8197SOL    HW125490   3.966   1.030   6.005
 8197SOL    HW225491   3.990   1.182   5.951
 8198SOL     OW25492   2.784   6.197   3.123
 8198SOL    HW125493   2.760   6.228   3.030
 8198SOL    HW225494   2.870   6.239   3.151
 8199SOL     OW25495   0.198   3.048   6.582
 8199SOL    HW125496   0.227   3.136   6.620
 8199SOL    HW225497   0.239   3.035   6.492
 8200SOL     OW25498   4.345   3.729   1.322
 8200SOL    HW125499   4.294   3.708   1.238
 8200SOL    HW225500   4.290   3.788   1.380
 8201SOL     OW25501   5.074   0.762   4.522
 8201SOL    HW125502   5.131   0.680   4.535
 8201SOL    HW225503   5.133   0.843   4.519
 8202SOL     OW25504   0.595   5.307   4.183
 8202SOL    HW125505   0.648   5.227   4.157
 8202SOL    HW225506   0.532   5.332   4.110
 8203SOL     OW25507   5.081   2.486   7.022
 8203SOL    HW125508   5.096   2.396   0.038
 8203SOL    HW225509   5.017   2.537   0.054
 8204SOL     OW25510   2.827   5.572   0.717
 8204SOL    HW125511   2.911   5.613   0.682
 8204SOL    HW225512   2.820   5.478   0.683
 8205SOL     OW25513   6.727   4.565   1.403
 8205SOL    HW125514   6.746   4.522   1.491
 8205SOL    HW225515   6.811   4.604   1.366
 8206SOL     OW25516   3.580   2.961   5.766
 8206SOL    HW125517   3.516   2.917   5.703
 8206SOL    HW225518   3.575   3.061   5.754
 8207SOL     OW25519   3.892   4.396   5.361
 8207SOL    HW125520   3.843   4.367   5.278
 8207SOL    HW225521   3.826   4.408   5.435
 8208SOL     OW25522   2.454   6.175   1.625
 8208SOL    HW125523   2.441   6.267   1.586
 8208SOL    HW225524   2.436   6.178   1.723
 8209SOL     OW25525   0.544   2.213   5.193
 8209SOL    HW125526   0.531   2.153   5.272
 8209SOL    HW225527   0.462   2.211   5.135
 8210SOL     OW25528   3.031   0.839   1.711
 8210SOL    HW125529   2.947   0.798   1.746
 8210SOL    HW225530   3.008   0.916   1.652
 8211SOL     OW25531   3.664   3.834   3.711
 8211SOL    HW125532   3.697   3.928   3.718
 8211SOL    HW225533   3.667   3.790   3.800
 8212SOL     OW25534   3.182   1.192   1.470
 8212SOL    HW125535   3.228   1.106   1.444
 8212SOL    HW225536   3.101   1.171   1.524
 8213SOL     OW25537   5.431   4.492   2.557
 8213SOL    HW125538   5.337   4.499   2.590
 8213SOL    HW225539   5.444   4.403   2.512
 8214SOL     OW25540   1.762   5.609   3.760
 8214SOL    HW125541   1.820   5.565   3.692
 8214SOL    HW225542   1.809   5.612   3.848
 8215SOL     OW25543   4.347   5.250   6.872
 8215SOL    HW125544   4.338   5.286   6.965
 8215SOL    HW225545   4.351   5.326   6.807
 8216SOL     OW25546   4.644   6.993   3.396
 8216SOL    HW125547   4.726   0.003   3.442
 8216SOL    HW225548   4.617   6.906   3.438
 8217SOL     OW25549   2.117   3.885   2.343
 8217SOL    HW125550   2.133   3.863   2.247
 8217SOL    HW225551   2.192   3.942   2.377
 8218SOL     OW25552   1.587   6.992   4.085
 8218SOL    HW125553   1.650   6.993   4.007
 8218SOL    HW225554   1.505   6.941   4.059
 8219SOL     OW25555   3.968   3.988   1.358
 8219SOL    HW125556   3.935   3.941   1.277
 8219SOL    HW225557   4.042   4.051   1.332
 8220SOL     OW25558   3.457   4.430   5.308
 8220SOL    HW125559   3.469   4.529   5.305
 8220SOL    HW225560   3.360   4.408   5.311
 8221SOL     OW25561   6.772   4.306   3.033
 8221SOL    HW125562   6.707   4.370   2.993
 8221SOL    HW225563   6.736   4.269   3.118
 8222SOL     OW25564   5.287   2.462   0.804
 8222SOL    HW125565   5.218   2.535   0.800
 8222SOL    HW225566   5.340   2.472   0.889
 8223SOL     OW25567   0.119   4.680   6.043
 8223SOL    HW125568   0.127   4.618   5.965
 8223SOL    HW225569   0.051   4.750   6.023
 8224SOL     OW25570   4.904   1.894   1.673
 8224SOL    HW125571   4.957   1.961   1.621
 8224SOL    HW225572   4.903   1.921   1.769
 8225SOL     OW25573   3.543   1.050   1.020
 8225SOL    HW125574   3.477   0.981   0.992
 8225SOL    HW225575   3.517   1.139   0.983
 8226SOL     OW25576   2.978   0.420   1.385
 8226SOL    HW125577   2.990   0.364   1.303
 8226SOL    HW225578   2.952   0.362   1.461
 8227SOL     OW25579   0.420   1.304   2.344
 8227SOL    HW125580   0.426   1.290   2.443
 8227SOL    HW225581   0.470   1.387   2.319
 8228SOL     OW25582   0.488   1.794   5.949
 8228SOL    HW125583   0.458   1.717   6.004
 8228SOL    HW225584   0.448   1.787   5.857
 8229SOL     OW25585   4.717   4.069   0.600
 8229SOL    HW125586   4.791   4.136   0.607
 8229SOL    HW225587   4.657   4.093   0.524
 8230SOL     OW25588   3.772   6.563   5.682
 8230SOL    HW125589   3.787   6.660   5.701
 8230SOL    HW225590   3.744   6.517   5.767
 8231SOL     OW25591   3.531   2.056   2.228
 8231SOL    HW125592   3.431   2.052   2.224
 8231SOL    HW225593   3.565   2.118   2.158
 8232SOL     OW25594   5.174   1.938   2.501
 8232SOL    HW125595   5.174   1.838   2.499
 8232SOL    HW225596   5.085   1.971   2.534
 8233SOL     OW25597   1.099   7.006   6.159
 8233SOL    HW125598   1.172   0.026   6.212
 8233SOL    HW225599   1.086   0.032   6.073
 8234SOL     OW25600   3.072   3.563   0.052
 8234SOL    HW125601   3.119   3.497   7.018
 8234SOL    HW225602   3.002   3.610   7.024
 8235SOL     OW25603   0.703   3.723   0.160
 8235SOL    HW125604   0.612   3.695   0.129
 8235SOL    HW225605   0.707   3.822   0.168
 8236SOL     OW25606   0.450   5.380   6.235
 8236SOL    HW125607   0.367   5.359   6.184
 8236SOL    HW225608   0.516   5.424   6.174
 8237SOL     OW25609   4.850   5.994   6.190
 8237SOL    HW125610   4.772   5.962   6.244
 8237SOL    HW225611   4.885   5.919   6.134
 8238SOL     OW25612   0.440   5.871   0.029
 8238SOL    HW125613   0.405   5.851   0.121
 8238SOL    HW225614   0.410   5.962   0.001
 8239SOL     OW25615   0.411   1.013   5.209
 8239SOL    HW125616   0.423   0.927   5.259
 8239SOL    HW225617   0.495   1.067   5.216
 8240SOL     OW25618   2.899   3.568   3.472
 8240SOL    HW125619   2.927   3.606   3.384
 8240SOL    HW225620   2.932   3.626   3.546
 8241SOL     OW25621   2.182   4.928   6.301
 8241SOL    HW125622   2.270   4.964   6.330
 8241SOL    HW225623   2.167   4.951   6.205
 8242SOL     OW25624   1.067   3.663   4.848
 8242SOL    HW125625   1.022   3.686   4.934
 8242SOL    HW225626   1.129   3.737   4.822
 8243SOL     OW25627   0.250   4.315   0.108
 8243SOL    HW125628   0.286   4.399   0.068
 8243SOL    HW225629   0.262   4.317   0.207
 8244SOL     OW25630   0.322   0.344   3.561
 8244SOL    HW125631   0.296   0.260   3.513
 8244SOL    HW225632   0.245   0.378   3.614
 8245SOL     OW25633   3.504   1.489   3.454
 8245SOL    HW125634   3.557   1.550   3.395
 8245SOL    HW225635   3.493   1.531   3.544
 8246SOL     OW25636   0.350   4.338   6.565
 8246SOL    HW125637   0.265   4.387   6.543
 8246SOL    HW225638   0.406   4.395   6.625
 8247SOL     OW25639   2.681   5.967   3.897
 8247SOL    HW125640   2.582   5.969   3.879
 8247SOL    HW225641   2.697   5.936   3.991
 8248SOL     OW25642   0.673   5.517   5.196
 8248SOL    HW125643   0.583   5.486   5.167
 8248SOL    HW225644   0.667   5.610   5.233
 8249SOL     OW25645   2.649   1.043   5.430
 8249SOL    HW125646   2.556   1.028   5.395
 8249SOL    HW225647   2.647   1.046   5.530
 8250SOL     OW25648   3.291   1.979   0.987
 8250SOL    HW125649   3.384   1.954   0.959
 8250SOL    HW225650   3.239   2.010   0.907
 8251SOL     OW25651   6.051   1.056   4.027
 8251SOL    HW125652   5.965   1.038   3.978
 8251SOL    HW225653   6.031   1.102   4.114
 8252SOL     OW25654   3.444   1.433   0.649
 8252SOL    HW125655   3.374   1.448   0.579
 8252SOL    HW225656   3.532   1.416   0.606
 8253SOL     OW25657   3.813   6.117   6.847
 8253SOL    HW125658   3.775   6.079   6.931
 8253SOL    HW225659   3.897   6.168   6.869
 8254SOL     OW25660   5.542   4.355   6.061
 8254SOL    HW125661   5.509   4.266   6.031
 8254SOL    HW225662   5.641   4.350   6.078
 8255SOL     OW25663   1.103   6.719   6.213
 8255SOL    HW125664   1.085   6.816   6.198
 8255SOL    HW225665   1.016   6.671   6.227
 8256SOL     OW25666   6.389   0.232   3.097
 8256SOL    HW125667   6.474   0.234   3.044
 8256SOL    HW225668   6.372   0.139   3.128
 8257SOL     OW25669   5.813   4.755   3.954
 8257SOL    HW125670   5.713   4.758   3.957
 8257SOL    HW225671   5.848   4.740   4.047
 8258SOL     OW25672   5.229   3.103   1.810
 8258SOL    HW125673   5.214   3.153   1.895
 8258SOL    HW225674   5.222   3.005   1.827
 8259SOL     OW25675   4.013   1.898   5.101
 8259SOL    HW125676   4.022   1.840   5.020
 8259SOL    HW225677   3.929   1.874   5.149
 8260SOL     OW25678   2.213   5.890   1.484
 8260SOL    HW125679   2.144   5.888   1.556
 8260SOL    HW225680   2.187   5.958   1.415
 8261SOL     OW25681   5.271   6.561   3.159
 8261SOL    HW125682   5.315   6.501   3.226
 8261SOL    HW225683   5.215   6.505   3.097
 8262SOL     OW25684   0.698   4.509   0.859
 8262SOL    HW125685   0.747   4.595   0.872
 8262SOL    HW225686   0.764   4.437   0.834
 8263SOL     OW25687   6.822   2.963   6.837
 8263SOL    HW125688   6.875   2.967   6.753
 8263SOL    HW225689   6.884   2.961   6.916
 8264SOL     OW25690   1.332   0.122   1.691
 8264SOL    HW125691   1.310   0.158   1.601
 8264SOL    HW225692   1.283   0.174   1.761
 8265SOL     OW25693   4.641   0.524   1.641
 8265SOL    HW125694   4.566   0.585   1.616
 8265SOL    HW225695   4.726   0.558   1.600
 8266SOL     OW25696   3.242   0.182   5.232
 8266SOL    HW125697   3.154   0.205   5.273
 8266SOL    HW225698   3.232   0.175   5.133
 8267SOL     OW25699   1.802   5.046   1.580
 8267SOL    HW125700   1.781   5.050   1.482
 8267SOL    HW225701   1.861   5.122   1.605
 8268SOL     OW25702   2.992   4.726   5.730
 8268SOL    HW125703   2.922   4.679   5.677
 8268SOL    HW225704   3.078   4.675   5.723
 8269SOL     OW25705   4.645   2.394   3.020
 8269SOL    HW125706   4.677   2.305   2.987
 8269SOL    HW225707   4.700   2.466   2.979
 8270SOL     OW25708   3.076   5.690   5.662
 8270SOL    HW125709   3.048   5.600   5.631
 8270SOL    HW225710   3.160   5.682   5.717
 8271SOL     OW25711   6.948   6.694   4.137
 8271SOL    HW125712   0.017   6.699   4.172
 8271SOL    HW225713   6.888   6.753   4.191
 8272SOL     OW25714   0.707   0.945   2.469
 8272SOL    HW125715   0.710   0.846   2.483
 8272SOL    HW225716   0.618   0.970   2.430
 8273SOL     OW25717   2.699   1.302   0.078
 8273SOL    HW125718   2.678   1.224   0.019
 8273SOL    HW225719   2.628   1.371   0.069
 8274SOL     OW25720   4.294   4.436   6.349
 8274SOL    HW125721   4.218   4.379   6.317
 8274SOL    HW225722   4.345   4.386   6.419
 8275SOL     OW25723   5.440   0.238   4.500
 8275SOL    HW125724   5.457   0.309   4.569
 8275SOL    HW225725   5.491   0.260   4.417
 8276SOL     OW25726   6.447   2.096   5.429
 8276SOL    HW125727   6.424   2.021   5.367
 8276SOL    HW225728   6.375   2.105   5.498
 8277SOL     OW25729   2.392   6.234   5.190
 8277SOL    HW125730   2.371   6.186   5.275
 8277SOL    HW225731   2.477   6.198   5.151
 8278SOL     OW25732   2.865   1.188   6.335
 8278SOL    HW125733   2.921   1.105   6.335
 8278SOL    HW225734   2.900   1.253   6.268
 8279SOL     OW25735   5.843   5.736   6.275
 8279SOL    HW125736   5.821   5.784   6.360
 8279SOL    HW225737   5.942   5.731   6.264
 8280SOL     OW25738   4.799   2.418   0.503
 8280SOL    HW125739   4.714   2.406   0.554
 8280SOL    HW225740   4.802   2.351   0.428
 8281SOL     OW25741   1.962   4.791   1.471
 8281SOL    HW125742   1.935   4.879   1.511
 8281SOL    HW225743   1.929   4.717   1.529
 8282SOL     OW25744   2.869   3.267   0.519
 8282SOL    HW125745   2.780   3.234   0.487
 8282SOL    HW225746   2.935   3.261   0.445
 8283SOL     OW25747   0.843   4.349   3.672
 8283SOL    HW125748   0.772   4.279   3.667
 8283SOL    HW225749   0.837   4.408   3.591
 8284SOL     OW25750   1.203   3.592   2.621
 8284SOL    HW125751   1.196   3.684   2.583
 8284SOL    HW225752   1.175   3.525   2.551
 8285SOL     OW25753   3.233   2.915   5.490
 8285SOL    HW125754   3.312   2.865   5.525
 8285SOL    HW225755   3.158   2.851   5.474
 8286SOL     OW25756   5.668   1.795   5.239
 8286SOL    HW125757   5.610   1.812   5.159
 8286SOL    HW225758   5.645   1.861   5.311
 8287SOL     OW25759   1.492   6.508   3.613
 8287SOL    HW125760   1.503   6.578   3.542
 8287SOL    HW225761   1.423   6.537   3.679
 8288SOL     OW25762   1.386   2.115   2.657
 8288SOL    HW125763   1.481   2.097   2.630
 8288SOL    HW225764   1.325   2.053   2.607
 8289SOL     OW25765   5.994   0.455   6.584
 8289SOL    HW125766   6.066   0.387   6.597
 8289SOL    HW225767   6.014   0.509   6.502
 8290SOL     OW25768   4.250   2.478   1.526
 8290SOL    HW125769   4.178   2.486   1.458
 8290SOL    HW225770   4.332   2.525   1.494
 8291SOL     OW25771   5.675   6.118   6.713
 8291SOL    HW125772   5.764   6.076   6.733
 8291SOL    HW225773   5.605   6.047   6.705
 8292SOL     OW25774   1.924   5.527   5.752
 8292SOL    HW125775   1.928   5.625   5.733
 8292SOL    HW225776   1.912   5.477   5.667
 8293SOL     OW25777   1.556   3.864   1.884
 8293SOL    HW125778   1.609   3.804   1.824
 8293SOL    HW225779   1.459   3.862   1.857
 8294SOL     OW25780   6.000   3.097   5.014
 8294SOL    HW125781   5.981   3.149   4.930
 8294SOL    HW225782   6.013   3.160   5.090
 8295SOL     OW25783   5.460   3.444   2.834
 8295SOL    HW125784   5.462   3.518   2.902
 8295SOL    HW225785   5.553   3.414   2.815
 8296SOL     OW25786   3.857   5.190   6.721
 8296SOL    HW125787   3.789   5.166   6.652
 8296SOL    HW225788   3.814   5.191   6.812
 8297SOL     OW25789   6.546   3.447   2.300
 8297SOL    HW125790   6.510   3.383   2.368
 8297SOL    HW225791   6.605   3.399   2.236
 8298SOL     OW25792   0.139   0.332   6.689
 8298SOL    HW125793   0.147   0.300   6.594
 8298SOL    HW225794   0.161   0.430   6.692
 8299SOL     OW25795   0.788   3.275   1.009
 8299SOL    HW125796   0.813   3.191   0.962
 8299SOL    HW225797   0.688   3.282   1.015
 8300SOL     OW25798   6.148   0.122   4.816
 8300SOL    HW125799   6.171   0.084   4.906
 8300SOL    HW225800   6.050   0.111   4.800
 8301SOL     OW25801   4.592   0.193   6.638
 8301SOL    HW125802   4.551   0.121   6.693
 8301SOL    HW225803   4.527   0.222   6.567
 8302SOL     OW25804   4.105   6.869   5.554
 8302SOL    HW125805   4.092   6.835   5.461
 8302SOL    HW225806   4.177   6.939   5.555
 8303SOL     OW25807   0.139   0.140   3.191
 8303SOL    HW125808   0.094   0.140   3.102
 8303SOL    HW225809   0.108   0.219   3.244
 8304SOL     OW25810   5.732   4.832   2.241
 8304SOL    HW125811   5.657   4.775   2.207
 8304SOL    HW225812   5.818   4.802   2.200
 8305SOL     OW25813   3.977   5.265   3.768
 8305SOL    HW125814   4.051   5.198   3.764
 8305SOL    HW225815   3.975   5.308   3.858
 8306SOL     OW25816   6.532   1.583   2.594
 8306SOL    HW125817   6.448   1.616   2.637
 8306SOL    HW225818   6.528   1.599   2.496
 8307SOL     OW25819   3.100   5.004   1.547
 8307SOL    HW125820   3.169   4.987   1.476
 8307SOL    HW225821   3.014   4.960   1.520
 8308SOL     OW25822   2.036   4.676   0.240
 8308SOL    HW125823   2.034   4.730   0.324
 8308SOL    HW225824   2.113   4.612   0.243
 8309SOL     OW25825   6.306   4.906   3.624
 8309SOL    HW125826   6.227   4.848   3.605
 8309SOL    HW225827   6.348   4.935   3.537
 8310SOL     OW25828   1.077   5.364   0.376
 8310SOL    HW125829   0.978   5.379   0.366
 8310SOL    HW225830   1.127   5.440   0.336
 8311SOL     OW25831   4.865   0.534   4.727
 8311SOL    HW125832   4.943   0.487   4.768
 8311SOL    HW225833   4.884   0.632   4.720
 8312SOL     OW25834   5.386   1.088   0.826
 8312SOL    HW125835   5.414   1.007   0.774
 8312SOL    HW225836   5.296   1.118   0.795
 8313SOL     OW25837   4.475   6.946   5.723
 8313SOL    HW125838   4.509   7.011   5.790
 8313SOL    HW225839   4.401   6.987   5.670
 8314SOL     OW25840   5.951   6.619   6.671
 8314SOL    HW125841   5.992   6.630   6.762
 8314SOL    HW225842   5.890   6.696   6.652
 8315SOL     OW25843   3.735   4.069   2.879
 8315SOL    HW125844   3.797   4.030   2.810
 8315SOL    HW225845   3.772   4.052   2.970
 8316SOL     OW25846   2.002   3.345   6.994
 8316SOL    HW125847   1.992   3.292   0.053
 8316SOL    HW225848   1.913   3.375   6.961
 8317SOL     OW25849   3.272   1.716   4.204
 8317SOL    HW125850   3.286   1.719   4.105
 8317SOL    HW225851   3.339   1.775   4.249
 8318SOL     OW25852   4.986   0.897   5.829
 8318SOL    HW125853   4.946   0.806   5.822
 8318SOL    HW225854   4.918   0.961   5.866
 8319SOL     OW25855   1.723   6.804   6.801
 8319SOL    HW125856   1.714   6.718   6.851
 8319SOL    HW225857   1.813   6.844   6.819
 8320SOL     OW25858   3.826   3.673   3.559
 8320SOL    HW125859   3.796   3.579   3.543
 8320SOL    HW225860   3.757   3.722   3.613
 8321SOL     OW25861   0.210   0.236   6.156
 8321SOL    HW125862   0.151   0.163   6.119
 8321SOL    HW225863   0.268   0.198   6.228
 8322SOL     OW25864   0.353   1.268   0.353
 8322SOL    HW125865   0.409   1.189   0.329
 8322SOL    HW225866   0.335   1.323   0.271
 8323SOL     OW25867   3.651   4.645   1.413
 8323SOL    HW125868   3.717   4.634   1.339
 8323SOL    HW225869   3.558   4.631   1.379
 8324SOL     OW25870   5.758   0.642   0.364
 8324SOL    HW125871   5.781   0.635   0.461
 8324SOL    HW225872   5.835   0.682   0.314
 8325SOL     OW25873   1.181   4.244   5.151
 8325SOL    HW125874   1.128   4.274   5.072
 8325SOL    HW225875   1.200   4.146   5.144
 8326SOL     OW25876   4.502   3.371   6.958
 8326SOL    HW125877   4.441   3.441   6.996
 8326SOL    HW225878   4.478   3.354   6.863
 8327SOL     OW25879   0.687   0.260   5.602
 8327SOL    HW125880   0.589   0.251   5.583
 8327SOL    HW225881   0.735   0.287   5.519
 8328SOL     OW25882   1.710   6.470   6.003
 8328SOL    HW125883   1.697   6.401   6.075
 8328SOL    HW225884   1.796   6.453   5.955
 8329SOL     OW25885   0.012   2.645   4.761
 8329SOL    HW125886   6.988   2.562   4.732
 8329SOL    HW225887   7.004   2.723   4.706
 8330SOL     OW25888   3.552   1.387   6.446
 8330SOL    HW125889   3.564   1.303   6.499
 8330SOL    HW225890   3.638   1.438   6.444
 8331SOL     OW25891   2.891   0.843   0.882
 8331SOL    HW125892   2.970   0.845   0.821
 8331SOL    HW225893   2.912   0.787   0.963
 8332SOL     OW25894   5.417   5.554   2.264
 8332SOL    HW125895   5.470   5.479   2.303
 8332SOL    HW225896   5.471   5.638   2.267
 8333SOL     OW25897   2.255   4.948   0.301
 8333SOL    HW125898   2.173   4.943   0.359
 8333SOL    HW225899   2.230   4.982   0.211
 8334SOL     OW25900   2.526   2.794   6.004
 8334SOL    HW125901   2.504   2.710   5.954
 8334SOL    HW225902   2.624   2.812   5.998
 8335SOL     OW25903   4.441   2.948   6.929
 8335SOL    HW125904   4.377   2.920   7.001
 8335SOL    HW225905   4.398   3.017   6.871
 8336SOL     OW25906   1.095   3.791   3.614
 8336SOL    HW125907   1.139   3.777   3.525
 8336SOL    HW225908   1.163   3.783   3.687
 8337SOL     OW25909   0.764   6.967   4.373
 8337SOL    HW125910   0.712   6.954   4.289
 8337SOL    HW225911   0.855   7.004   4.351
 8338SOL     OW25912   3.813   5.720   1.770
 8338SOL    HW125913   3.904   5.703   1.731
 8338SOL    HW225914   3.743   5.702   1.701
 8339SOL     OW25915   0.310   0.822   1.767
 8339SOL    HW125916   0.300   0.723   1.772
 8339SOL    HW225917   0.294   0.861   1.858
 8340SOL     OW25918   5.133   3.885   0.419
 8340SOL    HW125919   5.034   3.879   0.410
 8340SOL    HW225920   5.176   3.863   0.331
 8341SOL     OW25921   3.413   0.613   0.049
 8341SOL    HW125922   3.373   0.587   6.986
 8341SOL    HW225923   3.504   0.650   0.035
 8342SOL     OW25924   3.835   0.030   0.141
 8342SOL    HW125925   3.859   0.015   0.237
 8342SOL    HW225926   3.752   0.086   0.136
 8343SOL     OW25927   6.214   5.795   3.795
 8343SOL    HW125928   6.189   5.712   3.845
 8343SOL    HW225929   6.202   5.875   3.853
 8344SOL     OW25930   6.782   4.967   4.897
 8344SOL    HW125931   6.861   4.950   4.838
 8344SOL    HW225932   6.812   4.975   4.992
 8345SOL     OW25933   4.726   2.050   3.705
 8345SOL    HW125934   4.654   2.076   3.769
 8345SOL    HW225935   4.811   2.095   3.730
 8346SOL     OW25936   3.623   3.302   6.252
 8346SOL    HW125937   3.704   3.353   6.283
 8346SOL    HW225938   3.541   3.358   6.266
 8347SOL     OW25939   3.481   6.547   6.822
 8347SOL    HW125940   3.501   6.641   6.794
 8347SOL    HW225941   3.407   6.511   6.765
 8348SOL     OW25942   2.439   7.005   1.167
 8348SOL    HW125943   2.426   6.908   1.183
 8348SOL    HW225944   2.435   7.023   1.068
 8349SOL     OW25945   0.960   6.710   1.485
 8349SOL    HW125946   1.033   6.766   1.524
 8349SOL    HW225947   0.972   6.615   1.514
 8350SOL     OW25948   2.694   6.112   5.991
 8350SOL    HW125949   2.754   6.183   6.029
 8350SOL    HW225950   2.648   6.148   5.909
 8351SOL     OW25951   5.573   5.496   3.551
 8351SOL    HW125952   5.506   5.538   3.489
 8351SOL    HW225953   5.623   5.424   3.502
 8352SOL     OW25954   1.746   6.836   2.939
 8352SOL    HW125955   1.686   6.760   2.914
 8352SOL    HW225956   1.827   6.834   2.881
 8353SOL     OW25957   1.143   3.916   1.253
 8353SOL    HW125958   1.197   3.981   1.200
 8353SOL    HW225959   1.049   3.915   1.218
 8354SOL     OW25960   3.693   6.555   3.662
 8354SOL    HW125961   3.696   6.523   3.757
 8354SOL    HW225962   3.717   6.652   3.660
 8355SOL     OW25963   2.178   0.764   5.468
 8355SOL    HW125964   2.263   0.815   5.478
 8355SOL    HW225965   2.180   0.711   5.383
 8356SOL     OW25966   0.586   5.691   1.229
 8356SOL    HW125967   0.596   5.742   1.144
 8356SOL    HW225968   0.617   5.597   1.216
 8357SOL     OW25969   4.081   5.815   5.664
 8357SOL    HW125970   3.982   5.817   5.651
 8357SOL    HW225971   4.103   5.779   5.754
 8358SOL     OW25972   0.753   2.996   5.112
 8358SOL    HW125973   0.749   2.904   5.072
 8358SOL    HW225974   0.762   2.989   5.211
 8359SOL     OW25975   2.182   1.327   4.685
 8359SOL    HW125976   2.255   1.370   4.630
 8359SOL    HW225977   2.185   1.228   4.673
 8360SOL     OW25978   4.631   6.833   1.363
 8360SOL    HW125979   4.617   6.914   1.420
 8360SOL    HW225980   4.596   6.851   1.271
 8361SOL     OW25981   2.938   0.346   6.931
 8361SOL    HW125982   2.996   0.417   6.971
 8361SOL    HW225983   2.982   0.257   6.941
 8362SOL     OW25984   5.612   2.378   1.329
 8362SOL    HW125985   5.613   2.298   1.389
 8362SOL    HW225986   5.518   2.398   1.302
 8363SOL     OW25987   4.818   1.519   0.889
 8363SOL    HW125988   4.861   1.469   0.964
 8363SOL    HW225989   4.721   1.493   0.882
 8364SOL     OW25990   0.555   3.234   4.087
 8364SOL    HW125991   0.577   3.155   4.144
 8364SOL    HW225992   0.639   3.275   4.052
 8365SOL     OW25993   1.723   2.499   2.992
 8365SOL    HW125994   1.718   2.463   3.085
 8365SOL    HW225995   1.688   2.430   2.928
 8366SOL     OW25996   3.849   5.148   0.965
 8366SOL    HW125997   3.920   5.178   0.902
 8366SOL    HW225998   3.880   5.162   1.059
 8367SOL     OW25999   3.589   5.470   4.979
 8367SOL    HW126000   3.578   5.379   4.938
 8367SOL    HW226001   3.663   5.467   5.047
 8368SOL     OW26002   0.815   6.035   0.182
 8368SOL    HW126003   0.866   6.085   0.113
 8368SOL    HW226004   0.761   5.963   0.139
 8369SOL     OW26005   0.615   1.129   6.858
 8369SOL    HW126006   0.640   1.110   6.763
 8369SOL    HW226007   0.566   1.051   6.896
 8370SOL     OW26008   2.329   0.718   6.480
 8370SOL    HW126009   2.253   0.747   6.422
 8370SOL    HW226010   2.355   0.625   6.458
 8371SOL     OW26011   1.901   3.647   6.159
 8371SOL    HW126012   1.857   3.557   6.171
 8371SOL    HW226013   1.931   3.656   6.064
 8372SOL     OW26014   1.602   5.442   1.791
 8372SOL    HW126015   1.665   5.519   1.778
 8372SOL    HW226016   1.632   5.388   1.870
 8373SOL     OW26017   1.771   1.229   4.607
 8373SOL    HW126018   1.747   1.301   4.541
 8373SOL    HW226019   1.688   1.185   4.639
 8374SOL     OW26020   0.012   0.794   4.967
 8374SOL    HW126021   0.018   0.866   4.898
 8374SOL    HW226022   7.015   0.707   4.923
 8375SOL     OW26023   3.779   0.043   6.075
 8375SOL    HW126024   3.702   0.073   6.130
 8375SOL    HW226025   3.803   6.973   6.100
 8376SOL     OW26026   1.487   1.367   3.486
 8376SOL    HW126027   1.511   1.457   3.451
 8376SOL    HW226028   1.571   1.314   3.502
 8377SOL     OW26029   5.717   5.990   0.491
 8377SOL    HW126030   5.650   6.004   0.564
 8377SOL    HW226031   5.737   5.892   0.482
 8378SOL     OW26032   4.051   4.971   4.004
 8378SOL    HW126033   4.033   4.873   3.992
 8378SOL    HW226034   4.099   5.006   3.924
 8379SOL     OW26035   4.818   2.523   2.073
 8379SOL    HW126036   4.755   2.456   2.033
 8379SOL    HW226037   4.788   2.545   2.166
 8380SOL     OW26038   0.144   6.526   6.842
 8380SOL    HW126039   0.070   6.593   6.845
 8380SOL    HW226040   0.145   6.482   6.752
 8381SOL     OW26041   6.970   2.694   3.149
 8381SOL    HW126042   0.014   2.733   3.212
 8381SOL    HW226043   7.014   2.624   3.092
 8382SOL     OW26044   2.710   6.742   0.699
 8382SOL    HW126045   2.741   6.649   0.722
 8382SOL    HW226046   2.790   6.799   0.681
 8383SOL     OW26047   2.494   0.188   5.665
 8383SOL    HW126048   2.440   0.156   5.743
 8383SOL    HW226049   2.580   0.227   5.697
 8384SOL     OW26050   6.976   1.582   0.238
 8384SOL    HW126051   6.887   1.543   0.215
 8384SOL    HW226052   0.003   1.516   0.294
 8385SOL     OW26053   4.390   2.039   0.919
 8385SOL    HW126054   4.413   1.969   0.852
 8385SOL    HW226055   4.344   1.995   0.997
 8386SOL     OW26056   2.048   5.689   1.162
 8386SOL    HW126057   1.963   5.645   1.132
 8386SOL    HW226058   2.117   5.619   1.179
 8387SOL     OW26059   1.636   2.098   1.243
 8387SOL    HW126060   1.570   2.166   1.275
 8387SOL    HW226061   1.669   2.044   1.320
 8388SOL     OW26062   1.433   6.998   0.722
 8388SOL    HW126063   1.340   7.013   0.756
 8388SOL    HW226064   1.448   6.900   0.710
 8389SOL     OW26065   0.760   3.540   4.332
 8389SOL    HW126066   0.837   3.476   4.329
 8389SOL    HW226067   0.794   3.634   4.333
 8390SOL     OW26068   4.108   0.028   6.795
 8390SOL    HW126069   4.114   7.005   6.883
 8390SOL    HW226070   4.065   6.992   6.728
 8391SOL     OW26071   4.734   4.891   1.582
 8391SOL    HW126072   4.733   4.850   1.673
 8391SOL    HW226073   4.689   4.980   1.584
 8392SOL     OW26074   6.812   5.430   5.985
 8392SOL    HW126075   6.836   5.420   5.888
 8392SOL    HW226076   6.850   5.516   6.019
 8393SOL     OW26077   0.021   7.000   4.101
 8393SOL    HW126078   0.057   6.907   4.098
 8393SOL    HW226079   0.089   0.039   4.065
 8394SOL     OW26080   6.817   2.901   1.651
 8394SOL    HW126081   6.912   2.926   1.667
 8394SOL    HW226082   6.809   2.802   1.642
 8395SOL     OW26083   1.778   6.466   4.171
 8395SOL    HW126084   1.702   6.402   4.161
 8395SOL    HW226085   1.859   6.416   4.202
 8396SOL     OW26086   4.475   4.483   2.232
 8396SOL    HW126087   4.497   4.439   2.319
 8396SOL    HW226088   4.501   4.422   2.157
 8397SOL     OW26089   2.588   0.283   3.058
 8397SOL    HW126090   2.603   0.308   3.154
 8397SOL    HW226091   2.626   0.192   3.040
 8398SOL     OW26092   4.310   1.846   6.327
 8398SOL    HW126093   4.239   1.827   6.260
 8398SOL    HW226094   4.291   1.933   6.373
 8399SOL     OW26095   6.386   0.226   0.007
 8399SOL    HW126096   6.351   0.313   0.042
 8399SOL    HW226097   6.314   0.179   6.980
 8400SOL     OW26098   1.048   0.329   3.740
 8400SOL    HW126099   0.954   0.301   3.719
 8400SOL    HW226100   1.085   0.272   3.813
 8401SOL     OW26101   3.402   2.341   6.429
 8401SOL    HW126102   3.454   2.393   6.361
 8401SOL    HW226103   3.340   2.403   6.477
 8402SOL     OW26104   4.049   1.934   5.838
 8402SOL    HW126105   4.062   1.970   5.746
 8402SOL    HW226106   3.954   1.902   5.848
 8403SOL     OW26107   0.949   1.801   3.407
 8403SOL    HW126108   0.990   1.817   3.497
 8403SOL    HW226109   0.983   1.714   3.371
 8404SOL     OW26110   5.364   5.397   6.950
 8404SOL    HW126111   5.296   5.344   6.899
 8404SOL    HW226112   5.424   5.444   6.885
 8405SOL     OW26113   1.890   0.901   7.015
 8405SOL    HW126114   1.869   0.809   6.982
 8405SOL    HW226115   1.851   0.969   6.953
 8406SOL     OW26116   4.425   0.141   0.984
 8406SOL    HW126117   4.358   0.195   1.036
 8406SOL    HW226118   4.473   0.079   1.047
 8407SOL     OW26119   5.201   6.368   3.959
 8407SOL    HW126120   5.300   6.351   3.953
 8407SOL    HW226121   5.185   6.462   3.986
 8408SOL     OW26122   4.819   2.186   2.981
 8408SOL    HW126123   4.911   2.203   3.017
 8408SOL    HW226124   4.800   2.088   2.985
 8409SOL     OW26125   6.047   3.017   3.141
 8409SOL    HW126126   5.983   3.073   3.088
 8409SOL    HW226127   6.012   2.923   3.145
 8410SOL     OW26128   4.352   0.573   1.243
 8410SOL    HW126129   4.375   0.549   1.148
 8410SOL    HW226130   4.381   0.499   1.304
 8411SOL     OW26131   0.908   5.875   4.921
 8411SOL    HW126132   0.997   5.920   4.928
 8411SOL    HW226133   0.913   5.786   4.966
 8412SOL     OW26134   4.197   1.824   1.848
 8412SOL    HW126135   4.228   1.845   1.755
 8412SOL    HW226136   4.246   1.882   1.913
 8413SOL     OW26137   4.969   4.759   0.846
 8413SOL    HW126138   4.889   4.760   0.905
 8413SOL    HW226139   5.039   4.699   0.886
 8414SOL     OW26140   4.654   6.489   2.523
 8414SOL    HW126141   4.561   6.522   2.512
 8414SOL    HW226142   4.717   6.550   2.474
 8415SOL     OW26143   6.904   5.721   3.968
 8415SOL    HW126144   6.988   5.688   4.011
 8415SOL    HW226145   6.862   5.647   3.916
 8416SOL     OW26146   5.414   4.347   3.190
 8416SOL    HW126147   5.411   4.446   3.199
 8416SOL    HW226148   5.509   4.316   3.192
 8417SOL     OW26149   1.108   5.353   5.747
 8417SOL    HW126150   1.153   5.278   5.700
 8417SOL    HW226151   1.141   5.358   5.841
 8418SOL     OW26152   6.241   5.685   1.764
 8418SOL    HW126153   6.231   5.761   1.699
 8418SOL    HW226154   6.294   5.715   1.843
 8419SOL     OW26155   5.089   1.281   2.527
 8419SOL    HW126156   5.086   1.184   2.502
 8419SOL    HW226157   5.069   1.337   2.446
 8420SOL     OW26158   4.213   0.066   0.780
 8420SOL    HW126159   4.148   0.035   0.850
 8420SOL    HW226160   4.304   0.073   0.819
 8421SOL     OW26161   2.496   6.393   0.845
 8421SOL    HW126162   2.590   6.403   0.812
 8421SOL    HW226163   2.496   6.375   0.943
 8422SOL     OW26164   4.684   0.304   1.514
 8422SOL    HW126165   4.657   0.372   1.582
 8422SOL    HW226166   4.777   0.324   1.482
 8423SOL     OW26167   4.231   3.851   6.009
 8423SOL    HW126168   4.210   3.835   5.912
 8423SOL    HW226169   4.250   3.948   6.023
 8424SOL     OW26170   2.420   2.678   2.795
 8424SOL    HW126171   2.464   2.599   2.838
 8424SOL    HW226172   2.439   2.677   2.696
 8425SOL     OW26173   5.538   5.780   1.634
 8425SOL    HW126174   5.486   5.716   1.577
 8425SOL    HW226175   5.498   5.871   1.626
 8426SOL     OW26176   3.423   2.877   4.252
 8426SOL    HW126177   3.385   2.889   4.344
 8426SOL    HW226178   3.513   2.834   4.260
 8427SOL     OW26179   2.634   3.618   5.752
 8427SOL    HW126180   2.695   3.668   5.691
 8427SOL    HW226181   2.545   3.664   5.756
 8428SOL     OW26182   6.571   4.230   1.633
 8428SOL    HW126183   6.529   4.140   1.628
 8428SOL    HW226184   6.574   4.270   1.542
 8429SOL     OW26185   2.259   4.178   3.931
 8429SOL    HW126186   2.332   4.226   3.981
 8429SOL    HW226187   2.300   4.126   3.856
 8430SOL     OW26188   4.241   5.541   3.546
 8430SOL    HW126189   4.286   5.557   3.458
 8430SOL    HW226190   4.276   5.457   3.586
 8431SOL     OW26191   2.773   5.308   0.740
 8431SOL    HW126192   2.826   5.254   0.806
 8431SOL    HW226193   2.757   5.254   0.658
 8432SOL     OW26194   5.139   6.580   5.708
 8432SOL    HW126195   5.139   6.600   5.806
 8432SOL    HW226196   5.071   6.510   5.688
 8433SOL     OW26197   6.399   2.736   6.811
 8433SOL    HW126198   6.447   2.668   6.866
 8433SOL    HW226199   6.420   2.828   6.845
 8434SOL     OW26200   2.717   6.538   5.184
 8434SOL    HW126201   2.641   6.563   5.243
 8434SOL    HW226202   2.689   6.467   5.121
 8435SOL     OW26203   5.149   0.669   0.898
 8435SOL    HW126204   5.180   0.642   0.989
 8435SOL    HW226205   5.228   0.686   0.839
 8436SOL     OW26206   3.147   6.994   4.412
 8436SOL    HW126207   3.242   7.000   4.443
 8436SOL    HW226208   3.128   6.901   4.382
 8437SOL     OW26209   1.589   0.096   3.032
 8437SOL    HW126210   1.586   0.070   2.936
 8437SOL    HW226211   1.606   0.195   3.039
 8438SOL     OW26212   2.820   4.941   2.275
 8438SOL    HW126213   2.792   4.995   2.195
 8438SOL    HW226214   2.758   4.862   2.284
 8439SOL     OW26215   6.727   5.552   1.346
 8439SOL    HW126216   6.726   5.621   1.418
 8439SOL    HW226217   6.641   5.502   1.345
 8440SOL     OW26218   0.490   1.520   3.950
 8440SOL    HW126219   0.428   1.444   3.930
 8440SOL    HW226220   0.565   1.488   4.008
 8441SOL     OW26221   6.205   6.930   6.945
 8441SOL    HW126222   6.195   0.004   6.926
 8441SOL    HW226223   6.227   6.917   0.017
 8442SOL     OW26224   3.528   2.673   6.276
 8442SOL    HW126225   3.563   2.727   6.200
 8442SOL    HW226226   3.553   2.577   6.265
 8443SOL     OW26227   1.251   6.379   3.347
 8443SOL    HW126228   1.273   6.304   3.409
 8443SOL    HW226229   1.163   6.419   3.373
 8444SOL     OW26230   3.217   5.773   3.711
 8444SOL    HW126231   3.143   5.737   3.767
 8444SOL    HW226232   3.191   5.769   3.615
 8445SOL     OW26233   3.488   5.103   1.809
 8445SOL    HW126234   3.545   5.125   1.888
 8445SOL    HW226235   3.440   5.186   1.779
 8446SOL     OW26236   4.442   4.927   0.867
 8446SOL    HW126237   4.492   4.841   0.856
 8446SOL    HW226238   4.344   4.910   0.852
 8447SOL     OW26239   5.879   2.340   2.340
 8447SOL    HW126240   5.934   2.303   2.414
 8447SOL    HW226241   5.792   2.292   2.334
 8448SOL     OW26242   5.714   4.994   4.665
 8448SOL    HW126243   5.649   5.039   4.726
 8448SOL    HW226244   5.702   4.895   4.670
 8449SOL     OW26245   6.894   3.107   4.217
 8449SOL    HW126246   6.981   3.070   4.249
 8449SOL    HW226247   6.893   3.110   4.117
 8450SOL     OW26248   1.733   5.697   1.776
 8450SOL    HW126249   1.649   5.699   1.830
 8450SOL    HW226250   1.812   5.702   1.837
 8451SOL     OW26251   5.052   2.994   0.216
 8451SOL    HW126252   4.984   2.933   0.175
 8451SOL    HW226253   5.010   3.082   0.237
 8452SOL     OW26254   0.328   0.829   2.172
 8452SOL    HW126255   0.402   0.825   2.104
 8452SOL    HW226256   0.335   0.749   2.232
 8453SOL     OW26257   6.567   4.145   6.868
 8453SOL    HW126258   6.516   4.229   6.849
 8453SOL    HW226259   6.503   4.074   6.898
 8454SOL     OW26260   0.421   6.504   0.554
 8454SOL    HW126261   0.361   6.435   0.596
 8454SOL    HW226262   0.483   6.541   0.623
 8455SOL     OW26263   5.081   1.995   0.909
 8455SOL    HW126264   5.125   2.064   0.966
 8455SOL    HW226265   4.982   2.008   0.910
 8456SOL     OW26266   4.671   4.263   3.027
 8456SOL    HW126267   4.715   4.245   2.939
 8456SOL    HW226268   4.618   4.347   3.021
 8457SOL     OW26269   0.234   6.251   5.221
 8457SOL    HW126270   0.194   6.220   5.135
 8457SOL    HW226271   0.194   6.201   5.297
 8458SOL     OW26272   2.261   1.535   6.581
 8458SOL    HW126273   2.350   1.501   6.550
 8458SOL    HW226274   2.274   1.600   6.656
 8459SOL     OW26275   3.147   6.390   1.502
 8459SOL    HW126276   3.191   6.343   1.579
 8459SOL    HW226277   3.217   6.433   1.445
 8460SOL     OW26278   4.126   2.422   5.754
 8460SOL    HW126279   4.149   2.428   5.851
 8460SOL    HW226280   4.159   2.336   5.717
 8461SOL     OW26281   0.310   3.826   2.259
 8461SOL    HW126282   0.279   3.738   2.224
 8461SOL    HW226283   0.245   3.897   2.232
 8462SOL     OW26284   3.694   2.512   0.452
 8462SOL    HW126285   3.763   2.570   0.495
 8462SOL    HW226286   3.643   2.462   0.522
 8463SOL     OW26287   6.375   0.712   0.420
 8463SOL    HW126288   6.279   0.694   0.442
 8463SOL    HW226289   6.419   0.755   0.499
 8464SOL     OW26290   6.085   3.847   5.772
 8464SOL    HW126291   6.097   3.833   5.674
 8464SOL    HW226292   6.086   3.945   5.792
 8465SOL     OW26293   2.389   2.444   0.653
 8465SOL    HW126294   2.321   2.501   0.606
 8465SOL    HW226295   2.375   2.451   0.751
 8466SOL     OW26296   6.517   6.762   5.976
 8466SOL    HW126297   6.526   6.775   6.074
 8466SOL    HW226298   6.447   6.824   5.940
 8467SOL     OW26299   3.797   0.729   1.422
 8467SOL    HW126300   3.893   0.704   1.432
 8467SOL    HW226301   3.790   0.820   1.382
 8468SOL     OW26302   4.849   2.857   0.109
 8468SOL    HW126303   4.811   2.795   0.178
 8468SOL    HW226304   4.844   2.813   0.019
 8469SOL     OW26305   2.480   1.583   5.531
 8469SOL    HW126306   2.409   1.652   5.520
 8469SOL    HW226307   2.499   1.540   5.443
 8470SOL     OW26308   0.969   4.786   0.290
 8470SOL    HW126309   1.036   4.731   0.240
 8470SOL    HW226310   1.018   4.852   0.347
 8471SOL     OW26311   4.234   0.339   4.999
 8471SOL    HW126312   4.332   0.348   5.019
 8471SOL    HW226313   4.182   0.394   5.064
 8472SOL     OW26314   6.068   0.580   5.707
 8472SOL    HW126315   6.046   0.677   5.707
 8472SOL    HW226316   6.108   0.554   5.795
 8473SOL     OW26317   6.718   5.358   1.008
 8473SOL    HW126318   6.771   5.364   1.093
 8473SOL    HW226319   6.751   5.281   0.954
 8474SOL     OW26320   3.315   3.627   1.933
 8474SOL    HW126321   3.308   3.595   2.027
 8474SOL    HW226322   3.375   3.567   1.881
 8475SOL     OW26323   0.229   2.739   3.122
 8475SOL    HW126324   0.327   2.728   3.105
 8475SOL    HW226325   0.183   2.652   3.109
 8476SOL     OW26326   6.236   1.187   1.171
 8476SOL    HW126327   6.223   1.267   1.231
 8476SOL    HW226328   6.311   1.131   1.206
 8477SOL     OW26329   4.530   6.802   2.900
 8477SOL    HW126330   4.505   6.858   2.979
 8477SOL    HW226331   4.617   6.755   2.919
 8478SOL     OW26332   1.467   0.050   5.583
 8478SOL    HW126333   1.556   0.056   5.538
 8478SOL    HW226334   1.426   6.985   5.565
 8479SOL     OW26335   1.507   3.353   1.179
 8479SOL    HW126336   1.411   3.347   1.152
 8479SOL    HW226337   1.565   3.346   1.097
 8480SOL     OW26338   5.217   2.856   0.021
 8480SOL    HW126339   5.251   2.768   0.054
 8480SOL    HW226340   5.203   2.917   0.098
 8481SOL     OW26341   4.533   2.635   4.925
 8481SOL    HW126342   4.544   2.671   4.832
 8481SOL    HW226343   4.580   2.547   4.932
 8482SOL     OW26344   4.899   0.017   2.605
 8482SOL    HW126345   4.961   0.088   2.574
 8482SOL    HW226346   4.812   0.024   2.555
 8483SOL     OW26347   3.489   5.793   1.981
 8483SOL    HW126348   3.533   5.882   1.975
 8483SOL    HW226349   3.465   5.774   2.077
 8484SOL     OW26350   6.765   6.309   3.820
 8484SOL    HW126351   6.743   6.237   3.887
 8484SOL    HW226352   6.862   6.305   3.798
 8485SOL     OW26353   3.797   2.528   0.181
 8485SOL    HW126354   3.788   2.522   0.280
 8485SOL    HW226355   3.734   2.463   0.138
 8486SOL     OW26356   2.401   1.523   2.128
 8486SOL    HW126357   2.341   1.582   2.180
 8486SOL    HW226358   2.356   1.434   2.113
 8487SOL     OW26359   6.150   1.929   5.541
 8487SOL    HW126360   6.166   2.014   5.592
 8487SOL    HW226361   6.071   1.942   5.481
 8488SOL     OW26362   5.619   6.668   1.804
 8488SOL    HW126363   5.544   6.608   1.831
 8488SOL    HW226364   5.656   6.715   1.885
 8489SOL     OW26365   6.627   1.650   1.514
 8489SOL    HW126366   6.545   1.598   1.538
 8489SOL    HW226367   6.602   1.745   1.494
 8490SOL     OW26368   3.529   6.582   5.455
 8490SOL    HW126369   3.545   6.681   5.462
 8490SOL    HW226370   3.433   6.565   5.435
 8491SOL     OW26371   2.168   6.280   2.005
 8491SOL    HW126372   2.237   6.276   2.078
 8491SOL    HW226373   2.114   6.196   2.005
 8492SOL     OW26374   5.527   4.510   5.534
 8492SOL    HW126375   5.552   4.580   5.601
 8492SOL    HW226376   5.610   4.471   5.494
 8493SOL     OW26377   2.258   2.095   5.917
 8493SOL    HW126378   2.211   2.023   5.866
 8493SOL    HW226379   2.357   2.081   5.910
 8494SOL     OW26380   4.162   5.063   1.213
 8494SOL    HW126381   4.064   5.063   1.232
 8494SOL    HW226382   4.198   5.156   1.223
 8495SOL     OW26383   6.766   4.865   1.572
 8495SOL    HW126384   6.744   4.927   1.648
 8495SOL    HW226385   6.825   4.791   1.605
 8496SOL     OW26386   1.545   1.535   2.437
 8496SOL    HW126387   1.532   1.438   2.457
 8496SOL    HW226388   1.611   1.575   2.500
 8497SOL     OW26389   6.921   1.256   3.688
 8497SOL    HW126390   6.895   1.194   3.615
 8497SOL    HW226391   6.845   1.266   3.753
 8498SOL     OW26392   6.345   6.623   3.131
 8498SOL    HW126393   6.384   6.602   3.041
 8498SOL    HW226394   6.405   6.587   3.203
 8499SOL     OW26395   2.120   4.436   6.639
 8499SOL    HW126396   2.082   4.345   6.652
 8499SOL    HW226397   2.066   4.503   6.690
 8500SOL     OW26398   1.486   5.892   5.218
 8500SOL    HW126399   1.487   5.973   5.160
 8500SOL    HW226400   1.398   5.846   5.209
 8501SOL     OW26401   6.951   3.075   5.766
 8501SOL    HW126402   6.861   3.093   5.726
 8501SOL    HW226403   6.980   3.155   5.819
 8502SOL     OW26404   0.266   3.306   1.260
 8502SOL    HW126405   0.344   3.253   1.291
 8502SOL    HW226406   0.188   3.245   1.244
 8503SOL     OW26407   0.338   5.400   4.843
 8503SOL    HW126408   0.329   5.500   4.841
 8503SOL    HW226409   0.253   5.360   4.879
 8504SOL     OW26410   2.337   5.318   2.350
 8504SOL    HW126411   2.243   5.287   2.331
 8504SOL    HW226412   2.348   5.412   2.317
 8505SOL     OW26413   6.641   3.793   2.916
 8505SOL    HW126414   6.627   3.883   2.874
 8505SOL    HW226415   6.584   3.726   2.870
 8506SOL     OW26416   1.339   1.223   6.809
 8506SOL    HW126417   1.276   1.218   6.886
 8506SOL    HW226418   1.328   1.311   6.762
 8507SOL     OW26419   3.442   6.667   4.679
 8507SOL    HW126420   3.353   6.682   4.637
 8507SOL    HW226421   3.433   6.598   4.751
 8508SOL     OW26422   5.047   2.092   4.319
 8508SOL    HW126423   4.956   2.122   4.347
 8508SOL    HW226424   5.104   2.171   4.298
 8509SOL     OW26425   5.008   1.316   3.416
 8509SOL    HW126426   4.988   1.295   3.512
 8509SOL    HW226427   5.008   1.415   3.403
 8510SOL     OW26428   5.813   4.629   2.814
 8510SOL    HW126429   5.785   4.541   2.777
 8510SOL    HW226430   5.799   4.630   2.913
 8511SOL     OW26431   6.114   4.052   2.377
 8511SOL    HW126432   6.151   4.095   2.459
 8511SOL    HW226433   6.019   4.080   2.365
 8512SOL     OW26434   2.619   0.824   2.701
 8512SOL    HW126435   2.718   0.814   2.695
 8512SOL    HW226436   2.578   0.733   2.714
 8513SOL     OW26437   6.524   5.137   0.688
 8513SOL    HW126438   6.615   5.149   0.730
 8513SOL    HW226439   6.533   5.135   0.589
 8514SOL     OW26440   1.904   1.646   3.331
 8514SOL    HW126441   1.861   1.556   3.342
 8514SOL    HW226442   1.833   1.714   3.312
 8515SOL     OW26443   4.918   2.559   1.110
 8515SOL    HW126444   4.889   2.581   1.017
 8515SOL    HW226445   4.932   2.460   1.118
 8516SOL     OW26446   0.816   1.810   2.120
 8516SOL    HW126447   0.726   1.852   2.110
 8516SOL    HW226448   0.886   1.875   2.088
 8517SOL     OW26449   0.779   2.944   5.393
 8517SOL    HW126450   0.838   2.877   5.350
 8517SOL    HW226451   0.799   2.948   5.491
 8518SOL     OW26452   4.866   3.809   0.103
 8518SOL    HW126453   4.870   3.891   0.160
 8518SOL    HW226454   4.819   3.736   0.153
 8519SOL     OW26455   1.791   4.939   2.023
 8519SOL    HW126456   1.845   5.015   2.058
 8519SOL    HW226457   1.716   4.974   1.967
 8520SOL     OW26458   3.355   1.486   1.125
 8520SOL    HW126459   3.409   1.566   1.150
 8520SOL    HW226460   3.416   1.413   1.094
 8521SOL     OW26461   1.680   5.181   5.857
 8521SOL    HW126462   1.697   5.227   5.770
 8521SOL    HW226463   1.766   5.143   5.892
 8522SOL     OW26464   1.359   6.091   1.914
 8522SOL    HW126465   1.284   6.054   1.969
 8522SOL    HW226466   1.342   6.188   1.895
 8523SOL     OW26467   3.290   6.401   6.591
 8523SOL    HW126468   3.226   6.416   6.667
 8523SOL    HW226469   3.256   6.327   6.533
 8524SOL     OW26470   1.197   1.968   5.041
 8524SOL    HW126471   1.107   1.933   5.016
 8524SOL    HW226472   1.223   1.932   5.131
 8525SOL     OW26473   6.312   4.321   3.079
 8525SOL    HW126474   6.329   4.344   3.175
 8525SOL    HW226475   6.369   4.377   3.020
 8526SOL     OW26476   3.076   4.245   0.670
 8526SOL    HW126477   2.983   4.216   0.647
 8526SOL    HW226478   3.074   4.297   0.755
 8527SOL     OW26479   2.979   7.000   5.119
 8527SOL    HW126480   2.986   6.981   5.217
 8527SOL    HW226481   2.934   6.923   5.074
 8528SOL     OW26482   5.194   2.898   6.008
 8528SOL    HW126483   5.185   2.884   6.106
 8528SOL    HW226484   5.233   2.817   5.965
 8529SOL     OW26485   1.001   0.068   6.815
 8529SOL    HW126486   1.041   0.159   6.830
 8529SOL    HW226487   1.028   0.007   6.889
 8530SOL     OW26488   1.787   4.163   5.457
 8530SOL    HW126489   1.831   4.160   5.546
 8530SOL    HW226490   1.786   4.071   5.417
 8531SOL     OW26491   5.524   4.235   2.514
 8531SOL    HW126492   5.524   4.194   2.423
 8531SOL    HW226493   5.450   4.196   2.569
 8532SOL     OW26494   3.996   5.267   4.602
 8532SOL    HW126495   3.904   5.308   4.602
 8532SOL    HW226496   4.064   5.336   4.580
 8533SOL     OW26497   2.134   6.902   6.059
 8533SOL    HW126498   2.061   6.955   6.015
 8533SOL    HW226499   2.153   6.941   6.149
 8534SOL     OW26500   0.243   3.960   3.959
 8534SOL    HW126501   0.225   4.044   4.010
 8534SOL    HW226502   0.214   3.971   3.864
 8535SOL     OW26503   0.633   1.559   5.011
 8535SOL    HW126504   0.650   1.534   5.107
 8535SOL    HW226505   0.719   1.584   4.967
 8536SOL     OW26506   6.101   1.812   4.521
 8536SOL    HW126507   6.154   1.890   4.487
 8536SOL    HW226508   6.129   1.729   4.473
 8537SOL     OW26509   5.776   1.691   1.684
 8537SOL    HW126510   5.845   1.655   1.748
 8537SOL    HW226511   5.703   1.624   1.674
 8538SOL     OW26512   0.321   1.243   5.437
 8538SOL    HW126513   0.373   1.185   5.375
 8538SOL    HW226514   0.224   1.216   5.436
 8539SOL     OW26515   6.610   2.235   2.050
 8539SOL    HW126516   6.510   2.234   2.059
 8539SOL    HW226517   6.644   2.141   2.052
 8540SOL     OW26518   3.231   1.790   0.451
 8540SOL    HW126519   3.307   1.801   0.388
 8540SOL    HW226520   3.152   1.841   0.418
 8541SOL     OW26521   3.026   1.986   4.518
 8541SOL    HW126522   2.951   1.981   4.584
 8541SOL    HW226523   3.098   1.922   4.545
 8542SOL     OW26524   2.798   4.371   5.724
 8542SOL    HW126525   2.779   4.450   5.664
 8542SOL    HW226526   2.776   4.395   5.818
 8543SOL     OW26527   2.825   1.490   5.876
 8543SOL    HW126528   2.735   1.521   5.908
 8543SOL    HW226529   2.833   1.505   5.778
 8544SOL     OW26530   5.593   2.744   4.644
 8544SOL    HW126531   5.587   2.798   4.560
 8544SOL    HW226532   5.535   2.664   4.635
 8545SOL     OW26533   3.803   6.783   4.751
 8545SOL    HW126534   3.872   6.854   4.754
 8545SOL    HW226535   3.717   6.819   4.788
 8546SOL     OW26536   6.640   0.072   2.228
 8546SOL    HW126537   6.605   0.161   2.197
 8546SOL    HW226538   6.568   0.024   2.278
 8547SOL     OW26539   0.915   0.095   5.876
 8547SOL    HW126540   0.931   0.193   5.859
 8547SOL    HW226541   0.820   0.073   5.855
 8548SOL     OW26542   6.914   3.803   5.190
 8548SOL    HW126543   6.904   3.709   5.222
 8548SOL    HW226544   7.011   3.827   5.185
 8549SOL     OW26545   1.156   2.394   4.593
 8549SOL    HW126546   1.183   2.460   4.523
 8549SOL    HW226547   1.126   2.443   4.675
 8550SOL     OW26548   1.394   4.651   0.009
 8550SOL    HW126549   1.371   4.672   6.938
 8550SOL    HW226550   1.491   4.668   0.024
 8551SOL     OW26551   3.000   2.776   6.947
 8551SOL    HW126552   3.054   2.837   6.889
 8551SOL    HW226553   3.013   2.801   0.018
 8552SOL     OW26554   1.841   0.471   3.045
 8552SOL    HW126555   1.827   0.568   3.062
 8552SOL    HW226556   1.826   0.420   3.130
 8553SOL     OW26557   4.431   4.323   6.908
 8553SOL    HW126558   4.510   4.308   6.969
 8553SOL    HW226559   4.363   4.379   6.955
 8554SOL     OW26560   0.475   5.604   0.732
 8554SOL    HW126561   0.506   5.671   0.665
 8554SOL    HW226562   0.376   5.602   0.735
 8555SOL     OW26563   3.852   1.546   3.410
 8555SOL    HW126564   3.781   1.613   3.392
 8555SOL    HW226565   3.833   1.500   3.497
 8556SOL     OW26566   2.165   6.329   4.985
 8556SOL    HW126567   2.099   6.257   4.966
 8556SOL    HW226568   2.235   6.294   5.047
 8557SOL     OW26569   6.713   0.437   2.140
 8557SOL    HW126570   6.623   0.441   2.184
 8557SOL    HW226571   6.703   0.402   2.047
 8558SOL     OW26572   2.003   5.256   3.022
 8558SOL    HW126573   2.054   5.278   3.105
 8558SOL    HW226574   1.916   5.304   3.023
 8559SOL     OW26575   1.822   6.437   2.574
 8559SOL    HW126576   1.738   6.490   2.586
 8559SOL    HW226577   1.859   6.454   2.482
 8560SOL     OW26578   0.993   5.549   1.721
 8560SOL    HW126579   0.990   5.634   1.668
 8560SOL    HW226580   0.960   5.566   1.814
 8561SOL     OW26581   3.137   6.984   3.643
 8561SOL    HW126582   3.087   6.934   3.573
 8561SOL    HW226583   3.181   0.040   3.603
 8562SOL     OW26584   3.565   6.578   0.108
 8562SOL    HW126585   3.525   6.647   0.169
 8562SOL    HW226586   3.496   6.545   0.044
 8563SOL     OW26587   0.695   4.796   1.896
 8563SOL    HW126588   0.645   4.881   1.912
 8563SOL    HW226589   0.764   4.811   1.825
 8564SOL     OW26590   3.246   6.554   5.439
 8564SOL    HW126591   3.226   6.574   5.536
 8564SOL    HW226592   3.162   6.564   5.386
 8565SOL     OW26593   3.550   4.794   0.996
 8565SOL    HW126594   3.559   4.832   0.904
 8565SOL    HW226595   3.620   4.725   1.011
 8566SOL     OW26596   1.070   0.265   1.566
 8566SOL    HW126597   1.056   0.242   1.662
 8566SOL    HW226598   0.984   0.293   1.525
 8567SOL     OW26599   1.181   1.746   2.074
 8567SOL    HW126600   1.116   1.819   2.052
 8567SOL    HW226601   1.274   1.784   2.074
 8568SOL     OW26602   5.617   1.965   0.475
 8568SOL    HW126603   5.592   1.960   0.572
 8568SOL    HW226604   5.717   1.968   0.467
 8569SOL     OW26605   5.519   2.153   5.266
 8569SOL    HW126606   5.592   2.213   5.297
 8569SOL    HW226607   5.443   2.208   5.231
 8570SOL     OW26608   1.491   1.638   4.762
 8570SOL    HW126609   1.463   1.563   4.822
 8570SOL    HW226610   1.591   1.644   4.760
 8571SOL     OW26611   0.903   6.819   5.028
 8571SOL    HW126612   0.830   6.803   5.094
 8571SOL    HW226613   0.937   6.732   4.993
 8572SOL     OW26614   1.732   4.559   5.407
 8572SOL    HW126615   1.807   4.526   5.349
 8572SOL    HW226616   1.726   4.502   5.489
 8573SOL     OW26617   3.351   5.960   6.135
 8573SOL    HW126618   3.333   5.983   6.039
 8573SOL    HW226619   3.273   5.910   6.172
 8574SOL     OW26620   5.996   0.114   6.406
 8574SOL    HW126621   5.953   0.180   6.344
 8574SOL    HW226622   5.933   0.037   6.421
 8575SOL     OW26623   3.046   2.029   3.632
 8575SOL    HW126624   3.042   2.109   3.691
 8575SOL    HW226625   3.055   2.058   3.536
 8576SOL     OW26626   1.669   4.949   4.134
 8576SOL    HW126627   1.635   4.861   4.100
 8576SOL    HW226628   1.678   5.013   4.058
 8577SOL     OW26629   1.625   0.075   6.094
 8577SOL    HW126630   1.707   0.032   6.058
 8577SOL    HW226631   1.552   0.069   6.026
 8578SOL     OW26632   6.612   4.938   5.739
 8578SOL    HW126633   6.673   5.016   5.723
 8578SOL    HW226634   6.633   4.897   5.828
 8579SOL     OW26635   1.610   6.254   1.972
 8579SOL    HW126636   1.627   6.307   2.055
 8579SOL    HW226637   1.525   6.203   1.982
 8580SOL     OW26638   1.789   5.928   0.685
 8580SOL    HW126639   1.709   5.884   0.646
 8580SOL    HW226640   1.769   5.957   0.779
 8581SOL     OW26641   3.419   4.573   1.307
 8581SOL    HW126642   3.416   4.474   1.297
 8581SOL    HW226643   3.348   4.615   1.250
 8582SOL     OW26644   4.875   4.490   4.907
 8582SOL    HW126645   4.902   4.451   4.995
 8582SOL    HW226646   4.777   4.508   4.906
 8583SOL     OW26647   3.459   6.853   2.978
 8583SOL    HW126648   3.445   6.777   2.913
 8583SOL    HW226649   3.550   6.891   2.965
 8584SOL     OW26650   1.247   6.479   5.435
 8584SOL    HW126651   1.232   6.575   5.457
 8584SOL    HW226652   1.169   6.444   5.383
 8585SOL     OW26653   6.160   1.024   0.984
 8585SOL    HW126654   6.190   1.104   1.034
 8585SOL    HW226655   6.086   1.049   0.922
 8586SOL     OW26656   3.661   6.883   1.580
 8586SOL    HW126657   3.636   6.928   1.665
 8586SOL    HW226658   3.613   6.795   1.573
 8587SOL     OW26659   1.002   1.445   5.021
 8587SOL    HW126660   0.974   1.540   5.006
 8587SOL    HW226661   1.046   1.436   5.110
 8588SOL     OW26662   4.542   1.533   6.815
 8588SOL    HW126663   4.553   1.490   6.905
 8588SOL    HW226664   4.506   1.467   6.750
 8589SOL     OW26665   6.523   2.936   4.774
 8589SOL    HW126666   6.555   2.841   4.769
 8589SOL    HW226667   6.600   2.996   4.793
 8590SOL     OW26668   0.698   0.598   2.346
 8590SOL    HW126669   0.695   0.632   2.252
 8590SOL    HW226670   0.782   0.630   2.390
 8591SOL     OW26671   0.397   4.080   0.405
 8591SOL    HW126672   0.426   4.018   0.331
 8591SOL    HW226673   0.307   4.052   0.438
 8592SOL     OW26674   5.845   2.191   6.894
 8592SOL    HW126675   5.878   2.143   6.813
 8592SOL    HW226676   5.819   2.285   6.870
 8593SOL     OW26677   3.332   1.253   6.705
 8593SOL    HW126678   3.413   1.247   6.647
 8593SOL    HW226679   3.356   1.297   6.792
 8594SOL     OW26680   5.588   2.039   5.702
 8594SOL    HW126681   5.665   2.100   5.722
 8594SOL    HW226682   5.582   1.969   5.773
 8595SOL     OW26683   6.306   0.926   4.041
 8595SOL    HW126684   6.320   0.829   4.061
 8595SOL    HW226685   6.208   0.945   4.033
 8596SOL     OW26686   1.451   5.114   2.810
 8596SOL    HW126687   1.471   5.120   2.908
 8596SOL    HW226688   1.492   5.031   2.772
 8597SOL     OW26689   5.303   2.406   1.489
 8597SOL    HW126690   5.264   2.467   1.420
 8597SOL    HW226691   5.286   2.311   1.464
 8598SOL     OW26692   5.634   0.268   6.358
 8598SOL    HW126693   5.587   0.184   6.383
 8598SOL    HW226694   5.718   0.246   6.309
 8599SOL     OW26695   1.481   2.763   5.191
 8599SOL    HW126696   1.411   2.707   5.146
 8599SOL    HW226697   1.552   2.787   5.125
 8600SOL     OW26698   5.429   3.573   0.013
 8600SOL    HW126699   5.367   3.560   0.090
 8600SOL    HW226700   5.518   3.534   0.036
 8601SOL     OW26701   1.042   1.677   3.917
 8601SOL    HW126702   1.035   1.738   3.996
 8601SOL    HW226703   1.001   1.589   3.940
 8602SOL     OW26704   2.149   6.919   2.133
 8602SOL    HW126705   2.074   6.956   2.186
 8602SOL    HW226706   2.156   6.969   2.046
 8603SOL     OW26707   5.271   7.022   1.247
 8603SOL    HW126708   5.279   0.097   1.254
 8603SOL    HW226709   5.362   6.983   1.234
 8604SOL     OW26710   1.548   1.718   6.065
 8604SOL    HW126711   1.562   1.776   6.145
 8604SOL    HW226712   1.598   1.632   6.077
 8605SOL     OW26713   2.063   5.311   3.352
 8605SOL    HW126714   2.058   5.408   3.330
 8605SOL    HW226715   1.976   5.268   3.331
 8606SOL     OW26716   2.453   3.102   6.804
 8606SOL    HW126717   2.395   3.103   6.885
 8606SOL    HW226718   2.507   3.018   6.802
 8607SOL     OW26719   2.532   4.809   6.168
 8607SOL    HW126720   2.446   4.759   6.154
 8607SOL    HW226721   2.607   4.743   6.176
 8608SOL     OW26722   2.517   4.784   2.497
 8608SOL    HW126723   2.534   4.778   2.595
 8608SOL    HW226724   2.591   4.738   2.448
 8609SOL     OW26725   5.225   0.946   3.136
 8609SOL    HW126726   5.242   0.899   3.223
 8609SOL    HW226727   5.166   1.025   3.151
 8610SOL     OW26728   0.517   0.847   2.797
 8610SOL    HW126729   0.470   0.851   2.709
 8610SOL    HW226730   0.482   0.770   2.850
 8611SOL     OW26731   2.813   1.165   4.335
 8611SOL    HW126732   2.831   1.084   4.278
 8611SOL    HW226733   2.800   1.245   4.276
 8612SOL     OW26734   2.950   3.294   1.358
 8612SOL    HW126735   3.041   3.260   1.334
 8612SOL    HW226736   2.958   3.388   1.392
 8613SOL     OW26737   2.937   1.771   1.766
 8613SOL    HW126738   2.981   1.861   1.759
 8613SOL    HW226739   2.838   1.782   1.763
 8614SOL     OW26740   0.955   2.906   3.238
 8614SOL    HW126741   1.039   2.956   3.257
 8614SOL    HW226742   0.976   2.811   3.214
 8615SOL     OW26743   4.498   2.017   5.138
 8615SOL    HW126744   4.536   2.052   5.224
 8615SOL    HW226745   4.563   2.033   5.063
 8616SOL     OW26746   3.017   4.822   1.885
 8616SOL    HW126747   2.920   4.836   1.903
 8616SOL    HW226748   3.037   4.725   1.882
 8617SOL     OW26749   5.986   1.108   4.291
 8617SOL    HW126750   5.903   1.101   4.347
 8617SOL    HW226751   6.016   1.017   4.264
 8618SOL     OW26752   6.408   4.950   1.525
 8618SOL    HW126753   6.491   4.985   1.569
 8618SOL    HW226754   6.432   4.880   1.459
 8619SOL     OW26755   4.156   5.235   2.395
 8619SOL    HW126756   4.074   5.211   2.447
 8619SOL    HW226757   4.180   5.161   2.333
 8620SOL     OW26758   2.225   6.056   3.598
 8620SOL    HW126759   2.246   6.087   3.691
 8620SOL    HW226760   2.133   6.087   3.573
 8621SOL     OW26761   5.209   3.015   2.282
 8621SOL    HW126762   5.252   3.026   2.372
 8621SOL    HW226763   5.111   3.001   2.292
 8622SOL     OW26764   4.839   4.402   1.370
 8622SOL    HW126765   4.831   4.385   1.272
 8622SOL    HW226766   4.748   4.401   1.412
 8623SOL     OW26767   1.190   4.226   5.631
 8623SOL    HW126768   1.251   4.282   5.577
 8623SOL    HW226769   1.138   4.165   5.571
 8624SOL     OW26770   2.075   3.663   5.514
 8624SOL    HW126771   2.030   3.716   5.586
 8624SOL    HW226772   2.120   3.725   5.450
 8625SOL     OW26773   5.051   1.074   5.483
 8625SOL    HW126774   5.087   1.032   5.566
 8625SOL    HW226775   5.090   1.029   5.403
 8626SOL     OW26776   4.233   2.222   0.017
 8626SOL    HW126777   4.269   2.316   0.009
 8626SOL    HW226778   4.150   2.214   6.988
 8627SOL     OW26779   2.252   1.725   2.243
 8627SOL    HW126780   2.182   1.671   2.196
 8627SOL    HW226781   2.222   1.820   2.251
 8628SOL     OW26782   5.822   6.633   0.612
 8628SOL    HW126783   5.825   6.619   0.513
 8628SOL    HW226784   5.741   6.589   0.650
 8629SOL     OW26785   1.701   6.461   5.393
 8629SOL    HW126786   1.615   6.441   5.347
 8629SOL    HW226787   1.683   6.495   5.485
 8630SOL     OW26788   5.151   3.168   3.715
 8630SOL    HW126789   5.103   3.251   3.746
 8630SOL    HW226790   5.238   3.160   3.765
 8631SOL     OW26791   1.192   5.637   6.110
 8631SOL    HW126792   1.232   5.614   6.198
 8631SOL    HW226793   1.259   5.688   6.055
 8632SOL     OW26794   4.274   5.189   5.360
 8632SOL    HW126795   4.218   5.118   5.403
 8632SOL    HW226796   4.349   5.146   5.310
 8633SOL     OW26797   5.697   2.721   6.075
 8633SOL    HW126798   5.666   2.773   5.995
 8633SOL    HW226799   5.618   2.684   6.123
 8634SOL     OW26800   4.760   4.081   6.557
 8634SOL    HW126801   4.744   3.982   6.565
 8634SOL    HW226802   4.844   4.105   6.606
 8635SOL     OW26803   5.460   3.022   6.599
 8635SOL    HW126804   5.389   3.068   6.545
 8635SOL    HW226805   5.451   3.049   6.695
 8636SOL     OW26806   5.693   6.186   1.039
 8636SOL    HW126807   5.599   6.160   1.021
 8636SOL    HW226808   5.707   6.195   1.137
 8637SOL     OW26809   1.793   1.880   6.658
 8637SOL    HW126810   1.810   1.785   6.631
 8637SOL    HW226811   1.707   1.885   6.709
 8638SOL     OW26812   3.869   2.131   4.994
 8638SOL    HW126813   3.866   2.031   4.988
 8638SOL    HW226814   3.837   2.170   4.908
 8639SOL     OW26815   5.001   2.983   6.906
 8639SOL    HW126816   5.034   2.963   6.998
 8639SOL    HW226817   4.966   3.077   6.903
 8640SOL     OW26818   3.770   3.182   0.252
 8640SOL    HW126819   3.741   3.093   0.217
 8640SOL    HW226820   3.702   3.251   0.226
 8641SOL     OW26821   4.141   4.942   4.306
 8641SOL    HW126822   4.202   5.017   4.331
 8641SOL    HW226823   4.070   4.976   4.245
 8642SOL     OW26824   0.926   6.614   4.195
 8642SOL    HW126825   0.907   6.534   4.138
 8642SOL    HW226826   0.900   6.595   4.289
 8643SOL     OW26827   1.561   0.743   0.255
 8643SOL    HW126828   1.570   0.830   0.207
 8643SOL    HW226829   1.547   0.669   0.189
 8644SOL     OW26830   5.635   2.462   5.658
 8644SOL    HW126831   5.707   2.396   5.682
 8644SOL    HW226832   5.674   2.534   5.601
 8645SOL     OW26833   4.404   4.744   1.620
 8645SOL    HW126834   4.358   4.802   1.552
 8645SOL    HW226835   4.439   4.802   1.694
 8646SOL     OW26836   0.296   1.853   6.555
 8646SOL    HW126837   0.311   1.932   6.496
 8646SOL    HW226838   0.228   1.876   6.625
 8647SOL     OW26839   2.778   4.758   6.795
 8647SOL    HW126840   2.843   4.828   6.824
 8647SOL    HW226841   2.822   4.696   6.730
 8648SOL     OW26842   6.697   0.294   2.464
 8648SOL    HW126843   6.788   0.271   2.499
 8648SOL    HW226844   6.689   0.260   2.370
 8649SOL     OW26845   5.804   5.783   0.309
 8649SOL    HW126846   5.856   5.723   0.248
 8649SOL    HW226847   5.719   5.810   0.265
 8650SOL     OW26848   1.412   6.527   4.950
 8650SOL    HW126849   1.366   6.612   4.921
 8650SOL    HW226850   1.407   6.460   4.877
 8651SOL     OW26851   3.903   0.776   0.531
 8651SOL    HW126852   3.959   0.852   0.498
 8651SOL    HW226853   3.815   0.776   0.484
 8652SOL     OW26854   0.929   4.789   3.146
 8652SOL    HW126855   1.029   4.783   3.140
 8652SOL    HW226856   0.899   4.877   3.109
 8653SOL     OW26857   7.009   1.227   6.666
 8653SOL    HW126858   6.963   1.245   6.579
 8653SOL    HW226859   0.075   1.188   6.648
 8654SOL     OW26860   0.717   4.717   1.479
 8654SOL    HW126861   0.720   4.701   1.381
 8654SOL    HW226862   0.795   4.774   1.506
 8655SOL     OW26863   5.698   0.310   4.425
 8655SOL    HW126864   5.725   0.228   4.374
 8655SOL    HW226865   5.734   0.305   4.518
 8656SOL     OW26866   6.538   0.668   2.379
 8656SOL    HW126867   6.498   0.601   2.316
 8656SOL    HW226868   6.546   0.756   2.333
 8657SOL     OW26869   5.313   5.768   0.090
 8657SOL    HW126870   5.377   5.693   0.109
 8657SOL    HW226871   5.222   5.730   0.071
 8658SOL     OW26872   6.572   6.261   0.431
 8658SOL    HW126873   6.665   6.231   0.410
 8658SOL    HW226874   6.557   6.353   0.393
 8659SOL     OW26875   5.276   2.386   2.191
 8659SOL    HW126876   5.255   2.427   2.102
 8659SOL    HW226877   5.200   2.328   2.219
 8660SOL     OW26878   6.516   3.775   1.986
 8660SOL    HW126879   6.437   3.784   1.926
 8660SOL    HW226880   6.488   3.795   2.080
 8661SOL     OW26881   6.233   3.564   1.453
 8661SOL    HW126882   6.197   3.548   1.361
 8661SOL    HW226883   6.159   3.559   1.520
 8662SOL     OW26884   4.234   5.467   1.729
 8662SOL    HW126885   4.229   5.396   1.800
 8662SOL    HW226886   4.164   5.449   1.660
 8663SOL     OW26887   2.400   5.595   2.244
 8663SOL    HW126888   2.415   5.647   2.328
 8663SOL    HW226889   2.473   5.616   2.178
 8664SOL     OW26890   2.301   4.705   1.483
 8664SOL    HW126891   2.331   4.750   1.399
 8664SOL    HW226892   2.202   4.716   1.493
 8665SOL     OW26893   5.929   5.440   5.051
 8665SOL    HW126894   5.922   5.390   5.137
 8665SOL    HW226895   6.018   5.423   5.010
 8666SOL     OW26896   5.564   0.852   3.905
 8666SOL    HW126897   5.578   0.778   3.971
 8666SOL    HW226898   5.653   0.891   3.880
 8667SOL     OW26899   4.745   2.224   4.117
 8667SOL    HW126900   4.743   2.227   4.217
 8667SOL    HW226901   4.751   2.129   4.087
 8668SOL     OW26902   5.300   3.818   3.876
 8668SOL    HW126903   5.389   3.775   3.868
 8668SOL    HW226904   5.254   3.783   3.958
 8669SOL     OW26905   0.282   6.124   6.778
 8669SOL    HW126906   0.335   6.209   6.775
 8669SOL    HW226907   0.304   6.069   6.697
 8670SOL     OW26908   3.796   5.603   6.459
 8670SOL    HW126909   3.838   5.515   6.437
 8670SOL    HW226910   3.751   5.596   6.548
 8671SOL     OW26911   0.251   1.710   3.401
 8671SOL    HW126912   0.276   1.641   3.470
 8671SOL    HW226913   0.244   1.799   3.445
 8672SOL     OW26914   0.478   6.187   3.685
 8672SOL    HW126915   0.443   6.205   3.593
 8672SOL    HW226916   0.406   6.207   3.753
 8673SOL     OW26917   6.199   1.757   0.136
 8673SOL    HW126918   6.193   1.736   0.039
 8673SOL    HW226919   6.237   1.678   0.185
 8674SOL     OW26920   5.880   5.537   2.948
 8674SOL    HW126921   5.858   5.458   2.891
 8674SOL    HW226922   5.927   5.507   3.031
 8675SOL     OW26923   4.390   1.664   4.771
 8675SOL    HW126924   4.369   1.740   4.709
 8675SOL    HW226925   4.479   1.626   4.746
 8676SOL     OW26926   5.149   6.811   3.224
 8676SOL    HW126927   5.168   6.826   3.127
 8676SOL    HW226928   5.192   6.726   3.254
 8677SOL     OW26929   1.894   5.797   5.640
 8677SOL    HW126930   1.950   5.851   5.576
 8677SOL    HW226931   1.798   5.805   5.613
 8678SOL     OW26932   0.991   6.908   0.813
 8678SOL    HW126933   1.012   6.811   0.827
 8678SOL    HW226934   0.919   6.917   0.745
 8679SOL     OW26935   1.336   1.504   3.139
 8679SOL    HW126936   1.283   1.422   3.117
 8679SOL    HW226937   1.294   1.583   3.094
 8680SOL     OW26938   5.768   3.825   0.299
 8680SOL    HW126939   5.771   3.725   0.291
 8680SOL    HW226940   5.778   3.850   0.396
 8681SOL     OW26941   4.692   5.464   1.626
 8681SOL    HW126942   4.598   5.483   1.600
 8681SOL    HW226943   4.713   5.512   1.711
 8682SOL     OW26944   6.146   0.348   2.592
 8682SOL    HW126945   6.227   0.337   2.648
 8682SOL    HW226946   6.091   0.265   2.595
 8683SOL     OW26947   1.876   2.130   5.540
 8683SOL    HW126948   1.834   2.043   5.567
 8683SOL    HW226949   1.833   2.163   5.457
 8684SOL     OW26950   6.276   3.551   4.361
 8684SOL    HW126951   6.212   3.489   4.317
 8684SOL    HW226952   6.233   3.641   4.374
 8685SOL     OW26953   5.936   3.028   6.497
 8685SOL    HW126954   5.842   2.996   6.505
 8685SOL    HW226955   5.975   3.041   6.588
 8686SOL     OW26956   6.803   0.675   2.045
 8686SOL    HW126957   6.764   0.595   2.091
 8686SOL    HW226958   6.758   0.758   2.079
 8687SOL     OW26959   5.293   5.346   2.811
 8687SOL    HW126960   5.382   5.386   2.831
 8687SOL    HW226961   5.246   5.401   2.742
 8688SOL     OW26962   1.239   4.956   6.618
 8688SOL    HW126963   1.337   4.974   6.602
 8688SOL    HW226964   1.227   4.921   6.711
 8689SOL     OW26965   4.113   2.611   0.567
 8689SOL    HW126966   4.077   2.643   0.655
 8689SOL    HW226967   4.213   2.614   0.569
 8690SOL     OW26968   1.147   3.492   4.082
 8690SOL    HW126969   1.060   3.442   4.078
 8690SOL    HW226970   1.193   3.472   4.168
 8691SOL     OW26971   4.203   2.085   6.389
 8691SOL    HW126972   4.193   2.148   6.466
 8691SOL    HW226973   4.116   2.081   6.338
 8692SOL     OW26974   3.614   0.496   4.614
 8692SOL    HW126975   3.519   0.479   4.587
 8692SOL    HW226976   3.659   0.410   4.635
 8693SOL     OW26977   6.019   0.297   0.172
 8693SOL    HW126978   6.009   0.370   0.240
 8693SOL    HW226979   6.033   0.337   0.082
 8694SOL     OW26980   5.680   1.263   4.976
 8694SOL    HW126981   5.720   1.184   4.928
 8694SOL    HW226982   5.753   1.316   5.020
 8695SOL     OW26983   4.083   2.915   6.331
 8695SOL    HW126984   4.119   2.875   6.415
 8695SOL    HW226985   4.033   2.999   6.352
 8696SOL     OW26986   3.057   5.726   5.227
 8696SOL    HW126987   3.066   5.697   5.132
 8696SOL    HW226988   2.989   5.799   5.233
 8697SOL     OW26989   0.632   3.962   6.747
 8697SOL    HW126990   0.678   4.027   6.807
 8697SOL    HW226991   0.535   3.985   6.738
 8698SOL     OW26992   4.721   6.002   4.677
 8698SOL    HW126993   4.803   5.944   4.676
 8698SOL    HW226994   4.660   5.971   4.750
 8699SOL     OW26995   1.670   3.096   5.088
 8699SOL    HW126996   1.747   3.115   5.027
 8699SOL    HW226997   1.702   3.091   5.182
 8700SOL     OW26998   0.432   0.673   4.849
 8700SOL    HW126999   0.532   0.674   4.853
 8700SOL    HW227000   0.397   0.766   4.850
 8701SOL     OW27001   1.470   1.449   0.441
 8701SOL    HW127002   1.537   1.377   0.424
 8701SOL    HW227003   1.476   1.477   0.537
 8702SOL     OW27004   5.291   5.220   1.874
 8702SOL    HW127005   5.227   5.161   1.825
 8702SOL    HW227006   5.289   5.197   1.971
 8703SOL     OW27007   2.950   4.494   6.845
 8703SOL    HW127008   2.977   4.580   6.889
 8703SOL    HW227009   2.896   4.514   6.763
 8704SOL     OW27010   0.083   4.545   3.333
 8704SOL    HW127011   0.059   4.477   3.264
 8704SOL    HW227012   0.141   4.502   3.403
 8705SOL     OW27013   4.959   1.795   6.242
 8705SOL    HW127014   4.877   1.831   6.287
 8705SOL    HW227015   4.988   1.858   6.170
 8706SOL     OW27016   4.525   2.219   0.276
 8706SOL    HW127017   4.468   2.139   0.293
 8706SOL    HW227018   4.472   2.302   0.290
 8707SOL     OW27019   1.088   2.089   4.559
 8707SOL    HW127020   1.159   2.043   4.614
 8707SOL    HW227021   1.113   2.185   4.548
 8708SOL     OW27022   4.003   1.761   3.635
 8708SOL    HW127023   4.038   1.833   3.575
 8708SOL    HW227024   3.903   1.761   3.633
 8709SOL     OW27025   6.542   6.660   6.768
 8709SOL    HW127026   6.566   6.733   6.832
 8709SOL    HW227027   6.460   6.686   6.718
 8710SOL     OW27028   1.986   2.395   3.949
 8710SOL    HW127029   1.932   2.414   3.868
 8710SOL    HW227030   2.018   2.300   3.947
 8711SOL     OW27031   1.895   6.578   3.016
 8711SOL    HW127032   1.959   6.504   2.997
 8711SOL    HW227033   1.930   6.633   3.092
 8712SOL     OW27034   3.564   1.317   4.913
 8712SOL    HW127035   3.656   1.305   4.950
 8712SOL    HW227036   3.533   1.411   4.931
 8713SOL     OW27037   6.786   3.596   1.712
 8713SOL    HW127038   6.847   3.527   1.674
 8713SOL    HW227039   6.698   3.554   1.735
 8714SOL     OW27040   1.392   0.441   6.012
 8714SOL    HW127041   1.369   0.467   5.919
 8714SOL    HW227042   1.489   0.416   6.017
 8715SOL     OW27043   4.048   1.006   0.453
 8715SOL    HW127044   3.989   1.084   0.470
 8715SOL    HW227045   4.088   1.013   0.361
 8716SOL     OW27046   0.087   6.245   0.076
 8716SOL    HW127047   0.040   6.332   0.089
 8716SOL    HW227048   0.021   6.170   0.081
 8717SOL     OW27049   2.708   3.446   5.523
 8717SOL    HW127050   2.757   3.413   5.603
 8717SOL    HW227051   2.694   3.371   5.459
 8718SOL     OW27052   1.429   2.020   6.157
 8718SOL    HW127053   1.364   2.030   6.232
 8718SOL    HW227054   1.506   2.083   6.172
 8719SOL     OW27055   3.432   0.313   0.342
 8719SOL    HW127056   3.399   0.269   0.258
 8719SOL    HW227057   3.413   0.411   0.337
 8720SOL     OW27058   1.061   6.710   5.795
 8720SOL    HW127059   1.073   6.613   5.774
 8720SOL    HW227060   1.142   6.760   5.765
 8721SOL     OW27061   6.324   1.398   0.992
 8721SOL    HW127062   6.281   1.339   0.924
 8721SOL    HW227063   6.287   1.376   1.082
 8722SOL     OW27064   3.223   0.700   1.421
 8722SOL    HW127065   3.210   0.709   1.520
 8722SOL    HW227066   3.310   0.655   1.403
 8723SOL     OW27067   5.409   0.228   1.857
 8723SOL    HW127068   5.310   0.242   1.865
 8723SOL    HW227069   5.430   0.130   1.867
 8724SOL     OW27070   5.763   0.015   4.336
 8724SOL    HW127071   5.798   6.946   4.329
 8724SOL    HW227072   5.664   0.013   4.351
 8725SOL     OW27073   1.409   5.554   5.693
 8725SOL    HW127074   1.315   5.541   5.661
 8725SOL    HW227075   1.408   5.604   5.779
 8726SOL     OW27076   0.263   0.567   1.834
 8726SOL    HW127077   0.175   0.568   1.882
 8726SOL    HW227078   0.333   0.530   1.895
 8727SOL     OW27079   6.287   0.021   1.040
 8727SOL    HW127080   6.240   0.039   0.954
 8727SOL    HW227081   6.231   0.056   1.116
 8728SOL     OW27082   5.576   1.036   2.684
 8728SOL    HW127083   5.537   1.075   2.600
 8728SOL    HW227084   5.549   1.092   2.762
 8729SOL     OW27085   3.634   5.001   5.246
 8729SOL    HW127086   3.731   5.023   5.260
 8729SOL    HW227087   3.614   4.911   5.284
 8730SOL     OW27088   5.045   4.047   3.214
 8730SOL    HW127089   5.067   3.997   3.131
 8730SOL    HW227090   4.951   4.082   3.208
 8731SOL     OW27091   0.769   3.683   3.054
 8731SOL    HW127092   0.859   3.709   3.089
 8731SOL    HW227093   0.699   3.702   3.123
 8732SOL     OW27094   5.936   4.561   2.426
 8732SOL    HW127095   5.852   4.607   2.455
 8732SOL    HW227096   6.012   4.589   2.485
 8733SOL     OW27097   1.128   5.861   0.305
 8733SOL    HW127098   1.121   5.785   0.370
 8733SOL    HW227099   1.081   5.941   0.343
 8734SOL     OW27100   0.722   3.005   3.315
 8734SOL    HW127101   0.734   3.083   3.254
 8734SOL    HW227102   0.792   2.937   3.296
 8735SOL     OW27103   1.235   2.408   5.681
 8735SOL    HW127104   1.278   2.469   5.614
 8735SOL    HW227105   1.157   2.362   5.638
 8736SOL     OW27106   6.654   5.399   2.009
 8736SOL    HW127107   6.633   5.483   2.059
 8736SOL    HW227108   6.750   5.400   1.981
 8737SOL     OW27109   2.374   7.013   0.127
 8737SOL    HW127110   2.410   6.920   0.115
 8737SOL    HW227111   2.450   0.050   0.149
 8738SOL     OW27112   2.581   5.607   3.323
 8738SOL    HW127113   2.597   5.692   3.272
 8738SOL    HW227114   2.506   5.556   3.282
 8739SOL     OW27115   5.610   5.786   6.107
 8739SOL    HW127116   5.682   5.764   6.173
 8739SOL    HW227117   5.650   5.835   6.030
 8740SOL     OW27118   4.112   1.523   3.332
 8740SOL    HW127119   4.012   1.528   3.341
 8740SOL    HW227120   4.153   1.525   3.422
 8741SOL     OW27121   2.144   0.850   2.996
 8741SOL    HW127122   2.137   0.822   3.092
 8741SOL    HW227123   2.078   0.799   2.942
 8742SOL     OW27124   4.633   0.818   1.872
 8742SOL    HW127125   4.720   0.820   1.923
 8742SOL    HW227126   4.636   0.886   1.800
 8743SOL     OW27127   1.728   0.399   1.053
 8743SOL    HW127128   1.689   0.401   0.960
 8743SOL    HW227129   1.690   0.475   1.106
 8744SOL     OW27130   4.156   2.862   0.880
 8744SOL    HW127131   4.183   2.925   0.807
 8744SOL    HW227132   4.230   2.796   0.896
 8745SOL     OW27133   6.172   2.370   5.826
 8745SOL    HW127134   6.152   2.327   5.913
 8745SOL    HW227135   6.101   2.437   5.804
 8746SOL     OW27136   5.022   5.644   4.034
 8746SOL    HW127137   4.972   5.581   3.975
 8746SOL    HW227138   5.119   5.638   4.014
 8747SOL     OW27139   0.628   1.475   2.819
 8747SOL    HW127140   0.545   1.530   2.832
 8747SOL    HW227141   0.646   1.465   2.721
 8748SOL     OW27142   0.818   2.165   4.632
 8748SOL    HW127143   0.917   2.151   4.628
 8748SOL    HW227144   0.798   2.258   4.664
 8749SOL     OW27145   1.757   0.421   5.565
 8749SOL    HW127146   1.841   0.368   5.575
 8749SOL    HW227147   1.707   0.422   5.651
 8750SOL     OW27148   3.273   3.618   5.579
 8750SOL    HW127149   3.287   3.686   5.508
 8750SOL    HW227150   3.175   3.602   5.592
 8751SOL     OW27151   6.956   1.367   2.197
 8751SOL    HW127152   0.021   1.324   2.186
 8751SOL    HW227153   6.922   1.351   2.290
 8752SOL     OW27154   3.850   2.795   0.057
 8752SOL    HW127155   3.763   2.802   0.007
 8752SOL    HW227156   3.864   2.699   0.084
 8753SOL     OW27157   2.401   2.482   6.236
 8753SOL    HW127158   2.344   2.533   6.301
 8753SOL    HW227159   2.381   2.384   6.245
 8754SOL     OW27160   2.423   4.647   5.557
 8754SOL    HW127161   2.396   4.673   5.650
 8754SOL    HW227162   2.515   4.682   5.538
 8755SOL     OW27163   2.122   0.490   0.979
 8755SOL    HW127164   2.153   0.465   1.071
 8755SOL    HW227165   2.112   0.589   0.972
 8756SOL     OW27166   1.860   3.267   3.306
 8756SOL    HW127167   1.799   3.345   3.291
 8756SOL    HW227168   1.855   3.239   3.402
 8757SOL     OW27169   4.898   5.885   0.101
 8757SOL    HW127170   4.918   5.977   0.067
 8757SOL    HW227171   4.810   5.854   0.064
 8758SOL     OW27172   4.779   6.239   2.428
 8758SOL    HW127173   4.748   6.146   2.448
 8758SOL    HW227174   4.721   6.304   2.477
 8759SOL     OW27175   5.633   3.283   6.781
 8759SOL    HW127176   5.584   3.369   6.778
 8759SOL    HW227177   5.580   3.215   6.832
 8760SOL     OW27178   2.962   0.335   5.029
 8760SOL    HW127179   3.046   0.284   5.049
 8760SOL    HW227180   2.960   0.359   4.932
 8761SOL     OW27181   5.941   1.995   1.034
 8761SOL    HW127182   5.910   1.939   0.957
 8761SOL    HW227183   5.977   1.935   1.106
 8762SOL     OW27184   0.476   5.483   4.337
 8762SOL    HW127185   0.511   5.418   4.269
 8762SOL    HW227186   0.438   5.433   4.414
 8763SOL     OW27187   5.940   0.064   5.795
 8763SOL    HW127188   5.846   0.098   5.802
 8763SOL    HW227189   5.985   0.073   5.883
 8764SOL     OW27190   4.558   0.082   5.952
 8764SOL    HW127191   4.464   0.054   5.969
 8764SOL    HW227192   4.620   0.014   5.990
 8765SOL     OW27193   4.825   1.147   4.388
 8765SOL    HW127194   4.794   1.113   4.299
 8765SOL    HW227195   4.912   1.196   4.376
 8766SOL     OW27196   4.158   4.319   5.313
 8766SOL    HW127197   4.207   4.388   5.260
 8766SOL    HW227198   4.060   4.340   5.313
 8767SOL     OW27199   5.083   6.370   3.034
 8767SOL    HW127200   5.024   6.319   2.971
 8767SOL    HW227201   5.043   6.367   3.126
 8768SOL     OW27202   0.739   2.698   0.991
 8768SOL    HW127203   0.820   2.708   1.048
 8768SOL    HW227204   0.744   2.761   0.914
 8769SOL     OW27205   6.752   0.995   2.541
 8769SOL    HW127206   6.758   0.897   2.558
 8769SOL    HW227207   6.775   1.045   2.624
 8770SOL     OW27208   4.584   4.361   2.479
 8770SOL    HW127209   4.565   4.361   2.577
 8770SOL    HW227210   4.615   4.270   2.451
 8771SOL     OW27211   0.885   2.350   6.433
 8771SOL    HW127212   0.789   2.325   6.422
 8771SOL    HW227213   0.941   2.292   6.374
 8772SOL     OW27214   4.555   0.494   6.372
 8772SOL    HW127215   4.491   0.431   6.416
 8772SOL    HW227216   4.577   0.460   6.280
 8773SOL     OW27217   5.588   2.591   3.090
 8773SOL    HW127218   5.591   2.654   3.167
 8773SOL    HW227219   5.678   2.548   3.078
 8774SOL     OW27220   0.852   0.290   7.008
 8774SOL    HW127221   0.862   0.359   0.055
 8774SOL    HW227222   0.797   0.327   6.933
 8775SOL     OW27223   5.588   1.090   5.840
 8775SOL    HW127224   5.590   1.176   5.890
 8775SOL    HW227225   5.503   1.083   5.788
 8776SOL     OW27226   4.783   3.418   0.906
 8776SOL    HW127227   4.698   3.465   0.928
 8776SOL    HW227228   4.782   3.327   0.946
 8777SOL     OW27229   6.690   4.197   3.256
 8777SOL    HW127230   6.653   4.264   3.321
 8777SOL    HW227231   6.715   4.114   3.305
 8778SOL     OW27232   5.339   2.730   5.825
 8778SOL    HW127233   5.274   2.655   5.839
 8778SOL    HW227234   5.340   2.755   5.728
 8779SOL     OW27235   2.072   6.070   2.365
 8779SOL    HW127236   1.993   6.013   2.346
 8779SOL    HW227237   2.156   6.022   2.338
 8780SOL     OW27238   0.654   0.119   2.875
 8780SOL    HW127239   0.633   0.193   2.812
 8780SOL    HW227240   0.571   0.067   2.893
 8781SOL     OW27241   5.127   1.000   3.615
 8781SOL    HW127242   5.099   1.002   3.519
 8781SOL    HW227243   5.073   1.067   3.666
 8782SOL     OW27244   6.397   0.666   1.815
 8782SOL    HW127245   6.373   0.608   1.893
 8782SOL    HW227246   6.497   0.666   1.804
 8783SOL     OW27247   6.806   4.293   3.552
 8783SOL    HW127248   6.859   4.232   3.610
 8783SOL    HW227249   6.838   4.387   3.563
 8784SOL     OW27250   6.787   6.937   6.399
 8784SOL    HW127251   6.853   6.893   6.460
 8784SOL    HW227252   6.741   6.868   6.344
 8785SOL     OW27253   6.591   5.277   6.605
 8785SOL    HW127254   6.674   5.312   6.649
 8785SOL    HW227255   6.617   5.228   6.522
 8786SOL     OW27256   2.941   1.108   1.592
 8786SOL    HW127257   2.960   1.106   1.690
 8786SOL    HW227258   2.860   1.165   1.576
 8787SOL     OW27259   3.283   0.491   2.304
 8787SOL    HW127260   3.186   0.504   2.328
 8787SOL    HW227261   3.301   0.394   2.290
 8788SOL     OW27262   6.987   1.452   5.286
 8788SOL    HW127263   6.993   1.537   5.234
 8788SOL    HW227264   0.048   1.437   5.335
 8789SOL     OW27265   6.388   4.746   5.692
 8789SOL    HW127266   6.462   4.813   5.699
 8789SOL    HW227267   6.336   4.762   5.608
 8790SOL     OW27268   6.129   0.930   6.286
 8790SOL    HW127269   6.072   0.881   6.352
 8790SOL    HW227270   6.125   1.028   6.304
 8791SOL     OW27271   4.807   6.965   4.847
 8791SOL    HW127272   4.792   6.934   4.753
 8791SOL    HW227273   4.723   7.003   4.883
 8792SOL     OW27274   3.368   5.469   3.003
 8792SOL    HW127275   3.296   5.417   2.958
 8792SOL    HW227276   3.449   5.411   3.015
 8793SOL     OW27277   0.910   4.789   2.535
 8793SOL    HW127278   0.842   4.797   2.461
 8793SOL    HW227279   0.910   4.696   2.571
 8794SOL     OW27280   5.955   0.869   3.131
 8794SOL    HW127281   5.921   0.850   3.039
 8794SOL    HW227282   5.970   0.968   3.141
 8795SOL     OW27283   1.104   4.593   5.413
 8795SOL    HW127284   1.125   4.582   5.510
 8795SOL    HW227285   1.121   4.507   5.364
 8796SOL     OW27286   5.807   2.724   2.835
 8796SOL    HW127287   5.902   2.747   2.855
 8796SOL    HW227288   5.748   2.802   2.857
 8797SOL     OW27289   6.922   0.177   5.583
 8797SOL    HW127290   6.908   0.192   5.485
 8797SOL    HW227291   6.986   0.102   5.596
 8798SOL     OW27292   4.482   6.238   6.475
 8798SOL    HW127293   4.553   6.303   6.501
 8798SOL    HW227294   4.493   6.154   6.527
 8799SOL     OW27295   2.532   4.995   3.358
 8799SOL    HW127296   2.574   5.071   3.308
 8799SOL    HW227297   2.473   5.031   3.430
 8800SOL     OW27298   5.397   5.382   6.451
 8800SOL    HW127299   5.391   5.446   6.374
 8800SOL    HW227300   5.311   5.385   6.503
 8801SOL     OW27301   5.829   1.628   4.525
 8801SOL    HW127302   5.905   1.678   4.567
 8801SOL    HW227303   5.866   1.552   4.471
 8802SOL     OW27304   1.523   5.981   5.721
 8802SOL    HW127305   1.553   5.974   5.626
 8802SOL    HW227306   1.597   6.021   5.777
 8803SOL     OW27307   0.098   0.046   6.973
 8803SOL    HW127308   0.085   0.145   6.965
 8803SOL    HW227309   0.010   0.000   6.968
 8804SOL     OW27310   2.529   6.143   1.376
 8804SOL    HW127311   2.517   6.138   1.475
 8804SOL    HW227312   2.623   6.118   1.352
 8805SOL     OW27313   4.328   5.456   3.185
 8805SOL    HW127314   4.300   5.532   3.126
 8805SOL    HW227315   4.418   5.423   3.156
 8806SOL     OW27316   2.500   4.955   0.580
 8806SOL    HW127317   2.595   4.946   0.551
 8806SOL    HW227318   2.483   4.892   0.656
 8807SOL     OW27319   4.246   1.567   0.289
 8807SOL    HW127320   4.175   1.600   0.351
 8807SOL    HW227321   4.327   1.540   0.341
 8808SOL     OW27322   6.809   2.260   5.471
 8808SOL    HW127323   6.787   2.173   5.515
 8808SOL    HW227324   6.746   2.276   5.395
 8809SOL     OW27325   2.552   4.601   3.903
 8809SOL    HW127326   2.493   4.568   3.977
 8809SOL    HW227327   2.497   4.645   3.832
 8810SOL     OW27328   5.887   0.492   5.095
 8810SOL    HW127329   5.931   0.564   5.149
 8810SOL    HW227330   5.874   0.411   5.153
 8811SOL     OW27331   3.083   0.252   2.840
 8811SOL    HW127332   3.047   0.307   2.915
 8811SOL    HW227333   3.135   0.310   2.778
 8812SOL     OW27334   2.178   0.633   0.541
 8812SOL    HW127335   2.177   0.535   0.563
 8812SOL    HW227336   2.130   0.683   0.614
 8813SOL     OW27337   1.830   5.040   3.021
 8813SOL    HW127338   1.894   5.115   3.038
 8813SOL    HW227339   1.737   5.077   3.016
 8814SOL     OW27340   5.812   6.879   0.761
 8814SOL    HW127341   5.910   6.871   0.781
 8814SOL    HW227342   5.780   6.796   0.716
 8815SOL     OW27343   5.543   6.974   1.275
 8815SOL    HW127344   5.594   6.891   1.296
 8815SOL    HW227345   5.580   7.016   1.192
 8816SOL     OW27346   0.857   6.598   6.195
 8816SOL    HW127347   0.833   6.517   6.249
 8816SOL    HW227348   0.803   6.598   6.110
 8817SOL     OW27349   0.185   4.200   4.116
 8817SOL    HW127350   0.114   4.240   4.058
 8817SOL    HW227351   0.255   4.269   4.135
 8818SOL     OW27352   1.138   6.256   3.779
 8818SOL    HW127353   1.098   6.181   3.831
 8818SOL    HW227354   1.128   6.237   3.681
 8819SOL     OW27355   6.329   4.734   5.970
 8819SOL    HW127356   6.238   4.700   5.993
 8819SOL    HW227357   6.333   4.752   5.871
 8820SOL     OW27358   3.398   1.095   4.829
 8820SOL    HW127359   3.446   1.174   4.866
 8820SOL    HW227360   3.302   1.119   4.813
 8821SOL     OW27361   1.256   5.805   0.686
 8821SOL    HW127362   1.162   5.803   0.652
 8821SOL    HW227363   1.277   5.897   0.719
 8822SOL     OW27364   0.607   0.793   3.521
 8822SOL    HW127365   0.695   0.760   3.487
 8822SOL    HW227366   0.536   0.776   3.451
 8823SOL     OW27367   2.045   1.576   2.126
 8823SOL    HW127368   1.990   1.574   2.209
 8823SOL    HW227369   1.997   1.628   2.055
 8824SOL     OW27370   1.564   0.734   0.510
 8824SOL    HW127371   1.611   0.818   0.534
 8824SOL    HW227372   1.555   0.728   0.410
 8825SOL     OW27373   1.264   1.365   1.717
 8825SOL    HW127374   1.186   1.426   1.706
 8825SOL    HW227375   1.349   1.419   1.720
 8826SOL     OW27376   1.003   3.518   1.182
 8826SOL    HW127377   1.045   3.600   1.143
 8826SOL    HW227378   0.908   3.539   1.208
 8827SOL     OW27379   4.318   0.180   3.413
 8827SOL    HW127380   4.322   0.177   3.512
 8827SOL    HW227381   4.237   0.232   3.384
 8828SOL     OW27382   4.258   4.882   6.666
 8828SOL    HW127383   4.208   4.964   6.696
 8828SOL    HW227384   4.195   4.805   6.662
 8829SOL     OW27385   5.720   2.052   1.224
 8829SOL    HW127386   5.789   2.077   1.155
 8829SOL    HW227387   5.747   1.966   1.268
 8830SOL     OW27388   2.107   1.352   2.505
 8830SOL    HW127389   2.149   1.424   2.562
 8830SOL    HW227390   2.157   1.267   2.518
 8831SOL     OW27391   6.247   2.645   2.357
 8831SOL    HW127392   6.156   2.656   2.398
 8831SOL    HW227393   6.237   2.620   2.261
 8832SOL     OW27394   6.455   5.977   3.997
 8832SOL    HW127395   6.401   6.046   4.045
 8832SOL    HW227396   6.475   5.902   4.060
 8833SOL     OW27397   3.973   4.485   6.258
 8833SOL    HW127398   3.891   4.514   6.209
 8833SOL    HW227399   4.053   4.497   6.199
 8834SOL     OW27400   5.545   3.869   4.449
 8834SOL    HW127401   5.521   3.874   4.352
 8834SOL    HW227402   5.462   3.852   4.503
 8835SOL     OW27403   5.421   1.023   6.190
 8835SOL    HW127404   5.497   0.984   6.138
 8835SOL    HW227405   5.444   1.116   6.218
 8836SOL     OW27406   4.919   1.713   1.035
 8836SOL    HW127407   4.875   1.634   0.992
 8836SOL    HW227408   4.872   1.797   1.008
 8837SOL     OW27409   0.420   0.088   2.651
 8837SOL    HW127410   0.459   0.154   2.587
 8837SOL    HW227411   0.491   0.026   2.684
 8838SOL     OW27412   1.721   4.002   3.558
 8838SOL    HW127413   1.800   4.047   3.599
 8838SOL    HW227414   1.746   3.908   3.532
 8839SOL     OW27415   3.992   6.619   2.132
 8839SOL    HW127416   4.003   6.713   2.102
 8839SOL    HW227417   4.064   6.562   2.093
 8840SOL     OW27418   0.076   0.454   2.623
 8840SOL    HW127419   0.163   0.459   2.673
 8840SOL    HW227420   0.073   0.527   2.554
 8841SOL     OW27421   6.446   1.559   3.620
 8841SOL    HW127422   6.451   1.478   3.678
 8841SOL    HW227423   6.462   1.641   3.676
 8842SOL     OW27424   3.494   3.590   3.675
 8842SOL    HW127425   3.539   3.673   3.640
 8842SOL    HW227426   3.428   3.616   3.745
 8843SOL     OW27427   1.619   3.488   4.066
 8843SOL    HW127428   1.697   3.490   4.004
 8843SOL    HW227429   1.535   3.474   4.012
 8844SOL     OW27430   6.746   1.341   4.723
 8844SOL    HW127431   6.745   1.393   4.638
 8844SOL    HW227432   6.721   1.400   4.799
 8845SOL     OW27433   2.848   4.163   0.574
 8845SOL    HW127434   2.884   4.118   0.492
 8845SOL    HW227435   2.823   4.094   0.641
 8846SOL     OW27436   3.776   5.027   4.319
 8846SOL    HW127437   3.722   4.990   4.243
 8846SOL    HW227438   3.862   5.065   4.283
 8847SOL     OW27439   2.377   1.520   3.718
 8847SOL    HW127440   2.475   1.513   3.738
 8847SOL    HW227441   2.327   1.534   3.803
 8848SOL     OW27442   2.956   1.967   2.573
 8848SOL    HW127443   2.913   1.899   2.631
 8848SOL    HW227444   2.889   2.005   2.509
 8849SOL     OW27445   3.372   4.992   3.216
 8849SOL    HW127446   3.398   4.958   3.306
 8849SOL    HW227447   3.348   4.915   3.157
 8850SOL     OW27448   2.793   1.004   0.476
 8850SOL    HW127449   2.853   0.929   0.451
 8850SOL    HW227450   2.745   0.982   0.561
 8851SOL     OW27451   1.055   4.780   1.973
 8851SOL    HW127452   1.056   4.681   1.959
 8851SOL    HW227453   1.149   4.814   1.977
 8852SOL     OW27454   4.029   3.550   5.744
 8852SOL    HW127455   4.005   3.514   5.654
 8852SOL    HW227456   4.129   3.553   5.753
 8853SOL     OW27457   3.025   0.119   5.755
 8853SOL    HW127458   3.017   0.138   5.853
 8853SOL    HW227459   3.115   0.146   5.723
 8854SOL     OW27460   3.060   1.358   6.576
 8854SOL    HW127461   3.084   1.277   6.521
 8854SOL    HW227462   3.142   1.390   6.624
 8855SOL     OW27463   6.985   6.046   0.371
 8855SOL    HW127464   6.916   5.978   0.346
 8855SOL    HW227465   6.956   6.137   0.342
 8856SOL     OW27466   6.233   0.759   6.078
 8856SOL    HW127467   6.304   0.793   6.140
 8856SOL    HW227468   6.143   0.767   6.122
 8857SOL     OW27469   6.428   1.916   3.967
 8857SOL    HW127470   6.371   1.997   3.982
 8857SOL    HW227471   6.373   1.844   3.926
 8858SOL     OW27472   1.266   2.157   6.002
 8858SOL    HW127473   1.288   2.252   6.020
 8858SOL    HW227474   1.335   2.097   6.043
 8859SOL     OW27475   6.909   0.437   4.583
 8859SOL    HW127476   6.933   0.350   4.625
 8859SOL    HW227477   6.925   0.432   4.484
 8860SOL     OW27478   1.348   3.745   3.012
 8860SOL    HW127479   1.346   3.845   3.022
 8860SOL    HW227480   1.278   3.717   2.947
 8861SOL     OW27481   3.775   1.933   5.924
 8861SOL    HW127482   3.720   2.008   5.887
 8861SOL    HW227483   3.852   1.971   5.975
 8862SOL     OW27484   6.327   0.721   3.054
 8862SOL    HW127485   6.253   0.699   2.990
 8862SOL    HW227486   6.289   0.757   3.139
 8863SOL     OW27487   1.750   5.542   4.221
 8863SOL    HW127488   1.762   5.631   4.266
 8863SOL    HW227489   1.809   5.474   4.263
 8864SOL     OW27490   1.916   3.024   6.263
 8864SOL    HW127491   2.000   3.033   6.211
 8864SOL    HW227492   1.909   3.100   6.328
 8865SOL     OW27493   3.481   1.458   5.613
 8865SOL    HW127494   3.426   1.534   5.579
 8865SOL    HW227495   3.520   1.407   5.536
 8866SOL     OW27496   5.155   6.971   4.041
 8866SOL    HW127497   5.183   6.876   4.026
 8866SOL    HW227498   5.056   6.976   4.051
 8867SOL     OW27499   5.194   3.580   2.970
 8867SOL    HW127500   5.211   3.483   2.957
 8867SOL    HW227501   5.205   3.604   3.066
 8868SOL     OW27502   6.404   3.538   0.640
 8868SOL    HW127503   6.320   3.523   0.692
 8868SOL    HW227504   6.397   3.625   0.591
 8869SOL     OW27505   4.198   5.959   4.369
 8869SOL    HW127506   4.163   5.935   4.279
 8869SOL    HW227507   4.291   5.995   4.361
 8870SOL     OW27508   4.556   0.126   0.740
 8870SOL    HW127509   4.506   0.140   0.826
 8870SOL    HW227510   4.595   0.213   0.711
 8871SOL     OW27511   1.485   0.826   3.766
 8871SOL    HW127512   1.410   0.762   3.779
 8871SOL    HW227513   1.558   0.783   3.713
 8872SOL     OW27514   1.264   4.364   5.386
 8872SOL    HW127515   1.360   4.390   5.375
 8872SOL    HW227516   1.228   4.329   5.300
 8873SOL     OW27517   6.773   5.105   1.965
 8873SOL    HW127518   6.744   5.033   2.028
 8873SOL    HW227519   6.867   5.089   1.937
 8874SOL     OW27520   2.764   6.518   1.649
 8874SOL    HW127521   2.829   6.444   1.667
 8874SOL    HW227522   2.807   6.606   1.673
 8875SOL     OW27523   6.189   3.486   4.731
 8875SOL    HW127524   6.147   3.571   4.765
 8875SOL    HW227525   6.159   3.469   4.637
 8876SOL     OW27526   1.762   0.427   4.246
 8876SOL    HW127527   1.672   0.438   4.288
 8876SOL    HW227528   1.784   0.509   4.193
 8877SOL     OW27529   2.362   1.819   4.357
 8877SOL    HW127530   2.436   1.767   4.314
 8877SOL    HW227531   2.377   1.825   4.455
 8878SOL     OW27532   0.189   5.591   0.756
 8878SOL    HW127533   0.155   5.649   0.830
 8878SOL    HW227534   0.156   5.626   0.668
 8879SOL     OW27535   5.076   5.012   1.749
 8879SOL    HW127536   5.135   4.932   1.762
 8879SOL    HW227537   5.048   5.018   1.654
 8880SOL     OW27538   6.005   5.588   4.447
 8880SOL    HW127539   6.031   5.495   4.422
 8880SOL    HW227540   5.981   5.639   4.364
 8881SOL     OW27541   6.364   6.739   4.780
 8881SOL    HW127542   6.442   6.743   4.842
 8881SOL    HW227543   6.355   6.647   4.743
 8882SOL     OW27544   5.191   1.519   0.681
 8882SOL    HW127545   5.179   1.613   0.713
 8882SOL    HW227546   5.103   1.484   0.648
 8883SOL     OW27547   1.734   6.915   5.499
 8883SOL    HW127548   1.816   6.963   5.467
 8883SOL    HW227549   1.707   6.847   5.431
 8884SOL     OW27550   5.976   4.729   6.409
 8884SOL    HW127551   6.021   4.723   6.498
 8884SOL    HW227552   6.023   4.797   6.353
 8885SOL     OW27553   0.432   3.133   0.546
 8885SOL    HW127554   0.454   3.059   0.483
 8885SOL    HW227555   0.349   3.180   0.515
 8886SOL     OW27556   3.689   6.338   5.204
 8886SOL    HW127557   3.596   6.303   5.219
 8886SOL    HW227558   3.683   6.434   5.177
 8887SOL     OW27559   3.023   1.521   1.609
 8887SOL    HW127560   3.002   1.605   1.660
 8887SOL    HW227561   3.058   1.452   1.672
 8888SOL     OW27562   1.378   1.572   0.872
 8888SOL    HW127563   1.456   1.605   0.818
 8888SOL    HW227564   1.312   1.646   0.885
 8889SOL     OW27565   5.551   6.966   5.395
 8889SOL    HW127566   5.527   6.926   5.307
 8889SOL    HW227567   5.491   6.929   5.466
 8890SOL     OW27568   6.263   5.216   3.668
 8890SOL    HW127569   6.235   5.219   3.764
 8890SOL    HW227570   6.358   5.248   3.660
 8891SOL     OW27571   4.915   3.474   5.559
 8891SOL    HW127572   4.966   3.483   5.645
 8891SOL    HW227573   4.900   3.564   5.520
 8892SOL     OW27574   3.915   5.520   2.941
 8892SOL    HW127575   3.925   5.582   3.018
 8892SOL    HW227576   3.948   5.429   2.967
 8893SOL     OW27577   0.830   0.010   2.640
 8893SOL    HW127578   0.895   6.959   2.654
 8893SOL    HW227579   0.780   0.027   2.725
 8894SOL     OW27580   4.289   2.114   5.543
 8894SOL    HW127581   4.326   2.030   5.505
 8894SOL    HW227582   4.352   2.189   5.527
 8895SOL     OW27583   6.439   1.827   1.382
 8895SOL    HW127584   6.395   1.915   1.367
 8895SOL    HW227585   6.478   1.793   1.296
 8896SOL     OW27586   1.835   3.071   5.336
 8896SOL    HW127587   1.903   3.025   5.392
 8896SOL    HW227588   1.849   3.169   5.340
 8897SOL     OW27589   1.886   2.797   3.362
 8897SOL    HW127590   1.815   2.822   3.427
 8897SOL    HW227591   1.873   2.849   3.277
 8898SOL     OW27592   5.699   3.650   4.471
 8898SOL    HW127593   5.756   3.688   4.544
 8898SOL    HW227594   5.628   3.715   4.447
 8899SOL     OW27595   2.512   4.861   6.856
 8899SOL    HW127596   2.600   4.816   6.841
 8899SOL    HW227597   2.438   4.801   6.826
 8900SOL     OW27598   5.664   2.631   2.305
 8900SOL    HW127599   5.633   2.696   2.375
 8900SOL    HW227600   5.763   2.625   2.307
 8901SOL     OW27601   2.205   1.481   4.324
 8901SOL    HW127602   2.285   1.476   4.384
 8901SOL    HW227603   2.131   1.530   4.369
 8902SOL     OW27604   3.510   6.733   0.308
 8902SOL    HW127605   3.556   6.821   0.310
 8902SOL    HW227606   3.559   6.668   0.367
 8903SOL     OW27607   0.620   1.388   4.751
 8903SOL    HW127608   0.701   1.401   4.693
 8903SOL    HW227609   0.650   1.357   4.842
 8904SOL     OW27610   6.039   5.598   3.591
 8904SOL    HW127611   6.045   5.502   3.564
 8904SOL    HW227612   6.130   5.633   3.611
 8905SOL     OW27613   2.053   3.872   4.467
 8905SOL    HW127614   2.008   3.941   4.523
 8905SOL    HW227615   2.094   3.803   4.527
 8906SOL     OW27616   6.615   6.802   7.000
 8906SOL    HW127617   6.575   6.881   0.023
 8906SOL    HW227618   6.681   6.757   0.036
 8907SOL     OW27619   3.316   2.150   4.562
 8907SOL    HW127620   3.290   2.059   4.529
 8907SOL    HW227621   3.268   2.220   4.508
 8908SOL     OW27622   1.461   3.464   0.040
 8908SOL    HW127623   1.423   3.459   6.972
 8908SOL    HW227624   1.458   3.373   0.082
 8909SOL     OW27625   1.960   0.492   5.757
 8909SOL    HW127626   1.941   0.539   5.843
 8909SOL    HW227627   1.923   0.546   5.681
 8910SOL     OW27628   1.114   2.668   6.094
 8910SOL    HW127629   1.074   2.739   6.036
 8910SOL    HW227630   1.139   2.589   6.037
 8911SOL     OW27631   4.391   2.267   4.868
 8911SOL    HW127632   4.358   2.344   4.923
 8911SOL    HW227633   4.316   2.205   4.849
 8912SOL     OW27634   4.149   2.198   0.847
 8912SOL    HW127635   4.241   2.175   0.880
 8912SOL    HW227636   4.091   2.116   0.850
 8913SOL     OW27637   5.078   4.981   0.077
 8913SOL    HW127638   5.124   4.908   0.128
 8913SOL    HW227639   5.040   4.945   7.017
 8914SOL     OW27640   3.957   0.784   5.148
 8914SOL    HW127641   3.936   0.881   5.135
 8914SOL    HW227642   4.039   0.761   5.096
 8915SOL     OW27643   0.771   2.697   3.618
 8915SOL    HW127644   0.829   2.631   3.666
 8915SOL    HW227645   0.738   2.766   3.682
 8916SOL     OW27646   6.960   4.104   0.792
 8916SOL    HW127647   6.884   4.039   0.798
 8916SOL    HW227648   7.004   4.112   0.882
 8917SOL     OW27649   6.270   4.411   6.389
 8917SOL    HW127650   6.354   4.407   6.334
 8917SOL    HW227651   6.286   4.364   6.476
 8918SOL     OW27652   7.011   3.838   1.073
 8918SOL    HW127653   6.962   3.794   1.148
 8918SOL    HW227654   6.963   3.821   0.987
 8919SOL     OW27655   4.115   3.421   0.918
 8919SOL    HW127656   4.015   3.414   0.928
 8919SOL    HW227657   4.138   3.442   0.824
 8920SOL     OW27658   0.824   6.443   6.928
 8920SOL    HW127659   0.821   6.379   6.851
 8920SOL    HW227660   0.888   6.517   6.907
 8921SOL     OW27661   2.644   1.958   2.930
 8921SOL    HW127662   2.637   1.893   3.005
 8921SOL    HW227663   2.665   2.049   2.967
 8922SOL     OW27664   3.697   5.316   1.189
 8922SOL    HW127665   3.685   5.367   1.104
 8922SOL    HW227666   3.618   5.257   1.204
 8923SOL     OW27667   1.437   3.360   6.076
 8923SOL    HW127668   1.531   3.373   6.107
 8923SOL    HW227669   1.387   3.447   6.082
 8924SOL     OW27670   3.054   5.922   5.483
 8924SOL    HW127671   3.050   5.845   5.545
 8924SOL    HW227672   3.064   5.889   5.389
 8925SOL     OW27673   1.037   1.108   2.758
 8925SOL    HW127674   1.059   1.192   2.807
 8925SOL    HW227675   0.953   1.068   2.795
 8926SOL     OW27676   5.569   4.166   6.403
 8926SOL    HW127677   5.540   4.171   6.499
 8926SOL    HW227678   5.650   4.109   6.395
 8927SOL     OW27679   0.972   1.612   4.430
 8927SOL    HW127680   1.048   1.670   4.460
 8927SOL    HW227681   0.942   1.641   4.339
 8928SOL     OW27682   6.604   0.996   5.799
 8928SOL    HW127683   6.558   0.959   5.879
 8928SOL    HW227684   6.542   0.995   5.720
 8929SOL     OW27685   6.866   3.620   4.206
 8929SOL    HW127686   6.880   3.713   4.173
 8929SOL    HW227687   6.954   3.572   4.206
 8930SOL     OW27688   1.713   3.801   4.512
 8930SOL    HW127689   1.780   3.813   4.586
 8930SOL    HW227690   1.653   3.881   4.508
 8931SOL     OW27691   2.956   3.037   1.509
 8931SOL    HW127692   2.918   3.119   1.466
 8931SOL    HW227693   2.882   2.971   1.525
 8932SOL     OW27694   5.515   0.475   0.314
 8932SOL    HW127695   5.564   0.535   0.379
 8932SOL    HW227696   5.578   0.447   0.242
 8933SOL     OW27697   1.378   2.381   6.428
 8933SOL    HW127698   1.354   2.434   6.508
 8933SOL    HW227699   1.460   2.419   6.385
 8934SOL     OW27700   3.360   5.230   4.434
 8934SOL    HW127701   3.379   5.133   4.422
 8934SOL    HW227702   3.273   5.241   4.482
 8935SOL     OW27703   5.450   3.778   1.646
 8935SOL    HW127704   5.476   3.858   1.592
 8935SOL    HW227705   5.374   3.802   1.707
 8936SOL     OW27706   1.225   3.258   1.420
 8936SOL    HW127707   1.172   3.316   1.358
 8936SOL    HW227708   1.214   3.292   1.513
 8937SOL     OW27709   0.247   0.680   4.638
 8937SOL    HW127710   0.301   0.667   4.721
 8937SOL    HW227711   0.150   0.688   4.662
 8938SOL     OW27712   7.011   0.982   0.268
 8938SOL    HW127713   0.030   1.055   0.216
 8938SOL    HW227714   6.957   0.925   0.206
 8939SOL     OW27715   6.158   3.796   4.313
 8939SOL    HW127716   6.254   3.822   4.299
 8939SOL    HW227717   6.098   3.865   4.272
 8940SOL     OW27718   5.943   1.806   1.503
 8940SOL    HW127719   6.025   1.752   1.483
 8940SOL    HW227720   5.896   1.766   1.582
 8941SOL     OW27721   6.806   2.493   2.436
 8941SOL    HW127722   6.722   2.455   2.398
 8941SOL    HW227723   6.867   2.519   2.361
 8942SOL     OW27724   0.601   5.990   4.555
 8942SOL    HW127725   0.587   5.961   4.649
 8942SOL    HW227726   0.568   5.920   4.492
 8943SOL     OW27727   3.773   5.179   0.181
 8943SOL    HW127728   3.857   5.231   0.190
 8943SOL    HW227729   3.696   5.235   0.211
 8944SOL     OW27730   4.861   5.574   4.816
 8944SOL    HW127731   4.814   5.503   4.762
 8944SOL    HW227732   4.916   5.530   4.888
 8945SOL     OW27733   0.019   2.162   4.288
 8945SOL    HW127734   6.964   2.134   4.234
 8945SOL    HW227735   0.085   2.208   4.228
 8946SOL     OW27736   3.605   0.957   3.848
 8946SOL    HW127737   3.617   0.879   3.785
 8946SOL    HW227738   3.614   0.925   3.942
 8947SOL     OW27739   1.760   3.163   5.610
 8947SOL    HW127740   1.721   3.246   5.569
 8947SOL    HW227741   1.692   3.121   5.670
 8948SOL     OW27742   6.026   5.948   3.655
 8948SOL    HW127743   6.106   5.986   3.702
 8948SOL    HW227744   6.015   5.852   3.680
 8949SOL     OW27745   4.059   5.812   0.599
 8949SOL    HW127746   3.965   5.802   0.568
 8949SOL    HW227747   4.118   5.838   0.523
 8950SOL     OW27748   4.026   2.962   1.104
 8950SOL    HW127749   4.008   2.880   1.158
 8950SOL    HW227750   4.086   2.939   1.028
 8951SOL     OW27751   2.117   0.921   5.159
 8951SOL    HW127752   2.027   0.894   5.125
 8951SOL    HW227753   2.183   0.849   5.138
 8952SOL     OW27754   0.607   5.022   3.535
 8952SOL    HW127755   0.666   4.951   3.574
 8952SOL    HW227756   0.659   5.075   3.468
 8953SOL     OW27757   0.972   4.614   1.208
 8953SOL    HW127758   0.981   4.609   1.109
 8953SOL    HW227759   0.973   4.522   1.247
 8954SOL     OW27760   0.203   0.121   3.976
 8954SOL    HW127761   0.160   0.075   3.898
 8954SOL    HW227762   0.212   0.219   3.956
 8955SOL     OW27763   0.019   4.288   3.147
 8955SOL    HW127764   0.045   4.200   3.108
 8955SOL    HW227765   6.948   4.308   3.122
 8956SOL     OW27766   1.728   0.839   5.928
 8956SOL    HW127767   1.645   0.823   5.875
 8956SOL    HW227768   1.706   0.898   6.006
 8957SOL     OW27769   2.273   4.815   1.221
 8957SOL    HW127770   2.329   4.852   1.146
 8957SOL    HW227771   2.194   4.875   1.235
 8958SOL     OW27772   0.928   2.069   5.700
 8958SOL    HW127773   0.945   1.994   5.636
 8958SOL    HW227774   0.951   2.156   5.656
 8959SOL     OW27775   1.711   4.152   3.202
 8959SOL    HW127776   1.783   4.186   3.261
 8959SOL    HW227777   1.627   4.138   3.256
 8960SOL     OW27778   5.754   5.053   3.771
 8960SOL    HW127779   5.671   5.104   3.793
 8960SOL    HW227780   5.739   4.956   3.789
 8961SOL     OW27781   3.554   1.243   3.913
 8961SOL    HW127782   3.545   1.148   3.883
 8961SOL    HW227783   3.647   1.275   3.896
 8962SOL     OW27784   6.479   5.383   1.407
 8962SOL    HW127785   6.471   5.481   1.387
 8962SOL    HW227786   6.388   5.344   1.422
 8963SOL     OW27787   3.687   6.565   5.077
 8963SOL    HW127788   3.668   6.657   5.042
 8963SOL    HW227789   3.771   6.531   5.034
 8964SOL     OW27790   6.206   3.242   2.862
 8964SOL    HW127791   6.241   3.149   2.852
 8964SOL    HW227792   6.266   3.293   2.924
 8965SOL     OW27793   3.067   5.187   6.915
 8965SOL    HW127794   3.016   5.231   6.841
 8965SOL    HW227795   3.153   5.151   6.879
 8966SOL     OW27796   6.610   4.304   0.435
 8966SOL    HW127797   6.658   4.306   0.347
 8966SOL    HW227798   6.668   4.261   0.504
 8967SOL     OW27799   4.278   1.248   2.088
 8967SOL    HW127800   4.242   1.305   2.015
 8967SOL    HW227801   4.372   1.221   2.067
 8968SOL     OW27802   3.748   5.934   2.580
 8968SOL    HW127803   3.845   5.911   2.573
 8968SOL    HW227804   3.714   5.911   2.671
 8969SOL     OW27805   0.420   0.111   3.321
 8969SOL    HW127806   0.518   0.126   3.311
 8969SOL    HW227807   0.378   0.101   3.230
 8970SOL     OW27808   1.823   2.256   6.693
 8970SOL    HW127809   1.837   2.211   6.605
 8970SOL    HW227810   1.836   2.355   6.683
 8971SOL     OW27811   5.476   6.591   1.546
 8971SOL    HW127812   5.440   6.556   1.459
 8971SOL    HW227813   5.573   6.566   1.553
 8972SOL     OW27814   5.182   3.625   0.730
 8972SOL    HW127815   5.189   3.646   0.827
 8972SOL    HW227816   5.122   3.546   0.716
 8973SOL     OW27817   0.147   2.762   2.404
 8973SOL    HW127818   0.116   2.743   2.311
 8973SOL    HW227819   0.086   2.717   2.469
 8974SOL     OW27820   1.784   3.420   3.876
 8974SOL    HW127821   1.713   3.378   3.819
 8974SOL    HW227822   1.853   3.351   3.898
 8975SOL     OW27823   0.477   5.788   6.699
 8975SOL    HW127824   0.548   5.846   6.736
 8975SOL    HW227825   0.442   5.728   6.771
 8976SOL     OW27826   0.168   5.306   0.504
 8976SOL    HW127827   0.159   5.346   0.595
 8976SOL    HW227828   0.108   5.355   0.440
 8977SOL     OW27829   6.742   3.951   6.746
 8977SOL    HW127830   6.706   4.038   6.779
 8977SOL    HW227831   6.837   3.963   6.717
 8978SOL     OW27832   5.851   0.072   4.834
 8978SOL    HW127833   5.848   0.019   4.750
 8978SOL    HW227834   5.760   0.077   4.874
 8979SOL     OW27835   1.143   5.017   5.968
 8979SOL    HW127836   1.240   5.008   5.945
 8979SOL    HW227837   1.124   4.965   6.052
 8980SOL     OW27838   5.418   2.577   6.164
 8980SOL    HW127839   5.446   2.536   6.077
 8980SOL    HW227840   5.367   2.510   6.217
 8981SOL     OW27841   4.947   1.829   5.539
 8981SOL    HW127842   4.848   1.837   5.545
 8981SOL    HW227843   4.978   1.860   5.449
 8982SOL     OW27844   0.143   1.589   0.841
 8982SOL    HW127845   0.092   1.533   0.907
 8982SOL    HW227846   0.103   1.680   0.835
 8983SOL     OW27847   0.629   5.462   0.521
 8983SOL    HW127848   0.570   5.382   0.508
 8983SOL    HW227849   0.579   5.532   0.572
 8984SOL     OW27850   6.536   6.671   4.200
 8984SOL    HW127851   6.514   6.668   4.103
 8984SOL    HW227852   6.458   6.639   4.254
 8985SOL     OW27853   2.489   1.746   1.341
 8985SOL    HW127854   2.529   1.655   1.338
 8985SOL    HW227855   2.553   1.812   1.302
 8986SOL     OW27856   4.703   4.983   2.864
 8986SOL    HW127857   4.734   5.036   2.784
 8986SOL    HW227858   4.640   4.912   2.834
 8987SOL     OW27859   2.942   0.080   1.293
 8987SOL    HW127860   2.982   0.110   1.380
 8987SOL    HW227861   2.855   0.034   1.311
 8988SOL     OW27862   2.426   4.765   0.391
 8988SOL    HW127863   2.467   4.818   0.465
 8988SOL    HW227864   2.369   4.825   0.335
 8989SOL     OW27865   4.913   3.667   2.455
 8989SOL    HW127866   4.836   3.650   2.393
 8989SOL    HW227867   4.997   3.630   2.415
 8990SOL     OW27868   2.418   5.388   1.684
 8990SOL    HW127869   2.473   5.332   1.746
 8990SOL    HW227870   2.478   5.439   1.622
 8991SOL     OW27871   2.541   1.325   1.001
 8991SOL    HW127872   2.468   1.393   1.003
 8991SOL    HW227873   2.597   1.334   1.084
 8992SOL     OW27874   7.003   2.572   6.565
 8992SOL    HW127875   6.969   2.626   6.488
 8992SOL    HW227876   6.956   2.484   6.567
 8993SOL     OW27877   4.733   2.586   2.852
 8993SOL    HW127878   4.820   2.635   2.854
 8993SOL    HW227879   4.695   2.590   2.760
 8994SOL     OW27880   1.037   6.187   4.035
 8994SOL    HW127881   1.070   6.109   4.090
 8994SOL    HW227882   0.971   6.154   3.968
 8995SOL     OW27883   1.294   2.061   5.662
 8995SOL    HW127884   1.363   2.001   5.704
 8995SOL    HW227885   1.316   2.156   5.683
 8996SOL     OW27886   0.496   4.255   1.490
 8996SOL    HW127887   0.409   4.278   1.534
 8996SOL    HW227888   0.564   4.326   1.509
 8997SOL     OW27889   4.618   1.098   6.737
 8997SOL    HW127890   4.622   1.198   6.740
 8997SOL    HW227891   4.621   1.067   6.642
 8998SOL     OW27892   0.661   1.997   4.209
 8998SOL    HW127893   0.671   2.025   4.114
 8998SOL    HW227894   0.585   1.932   4.217
 8999SOL     OW27895   3.995   0.473   0.032
 8999SOL    HW127896   3.998   0.373   0.037
 8999SOL    HW227897   3.967   0.501   6.965
 9000SOL     OW27898   2.574   4.103   6.487
 9000SOL    HW127899   2.591   4.033   6.556
 9000SOL    HW227900   2.631   4.183   6.506
 9001SOL     OW27901   1.805   5.531   2.755
 9001SOL    HW127902   1.794   5.435   2.778
 9001SOL    HW227903   1.720   5.580   2.775
 9002SOL     OW27904   0.407   4.986   5.189
 9002SOL    HW127905   0.323   5.033   5.214
 9002SOL    HW227906   0.385   4.903   5.137
 9003SOL     OW27907   5.650   3.101   1.294
 9003SOL    HW127908   5.701   3.135   1.214
 9003SOL    HW227909   5.629   3.178   1.355
 9004SOL     OW27910   4.307   6.740   1.678
 9004SOL    HW127911   4.302   6.749   1.777
 9004SOL    HW227912   4.402   6.749   1.648
 9005SOL     OW27913   5.968   1.780   4.197
 9005SOL    HW127914   5.958   1.819   4.288
 9005SOL    HW227915   6.054   1.812   4.157
 9006SOL     OW27916   1.589   6.220   0.896
 9006SOL    HW127917   1.548   6.144   0.846
 9006SOL    HW227918   1.683   6.233   0.865
 9007SOL     OW27919   3.286   5.452   3.698
 9007SOL    HW127920   3.283   5.395   3.779
 9007SOL    HW227921   3.249   5.543   3.719
 9008SOL     OW27922   6.821   5.268   3.024
 9008SOL    HW127923   6.731   5.291   3.063
 9008SOL    HW227924   6.860   5.349   2.981
 9009SOL     OW27925   2.897   6.313   0.578
 9009SOL    HW127926   2.844   6.246   0.526
 9009SOL    HW227927   2.960   6.265   0.639
 9010SOL     OW27928   0.976   7.014   4.660
 9010SOL    HW127929   0.949   6.918   4.650
 9010SOL    HW227930   0.896   0.044   4.687
 9011SOL     OW27931   3.894   1.846   1.526
 9011SOL    HW127932   3.869   1.880   1.617
 9011SOL    HW227933   3.883   1.747   1.524
 9012SOL     OW27934   2.727   5.104   1.094
 9012SOL    HW127935   2.666   5.184   1.096
 9012SOL    HW227936   2.795   5.116   1.022
 9013SOL     OW27937   6.040   5.989   4.795
 9013SOL    HW127938   6.046   5.963   4.891
 9013SOL    HW227939   6.056   5.909   4.737
 9014SOL     OW27940   1.016   1.413   0.294
 9014SOL    HW127941   1.100   1.466   0.308
 9014SOL    HW227942   0.952   1.435   0.368
 9015SOL     OW27943   6.029   0.592   0.740
 9015SOL    HW127944   5.929   0.603   0.736
 9015SOL    HW227945   6.051   0.501   0.774
 9016SOL     OW27946   6.663   6.308   6.658
 9016SOL    HW127947   6.730   6.353   6.717
 9016SOL    HW227948   6.708   6.235   6.607
 9017SOL     OW27949   5.788   2.481   2.931
 9017SOL    HW127950   5.753   2.435   2.849
 9017SOL    HW227951   5.805   2.577   2.911
 9018SOL     OW27952   4.355   1.649   5.721
 9018SOL    HW127953   4.300   1.667   5.802
 9018SOL    HW227954   4.451   1.641   5.747
 9019SOL     OW27955   0.981   6.606   0.806
 9019SOL    HW127956   1.015   6.635   0.896
 9019SOL    HW227957   0.953   6.511   0.810
 9020SOL     OW27958   1.505   3.405   1.806
 9020SOL    HW127959   1.477   3.424   1.712
 9020SOL    HW227960   1.526   3.492   1.852
 9021SOL     OW27961   6.532   7.018   3.900
 9021SOL    HW127962   6.626   0.022   3.885
 9021SOL    HW227963   6.470   0.067   3.871
 9022SOL     OW27964   2.688   0.654   1.474
 9022SOL    HW127965   2.691   0.556   1.493
 9022SOL    HW227966   2.768   0.681   1.421
 9023SOL     OW27967   4.023   3.335   2.971
 9023SOL    HW127968   4.025   3.254   2.913
 9023SOL    HW227969   4.029   3.418   2.915
 9024SOL     OW27970   1.346   5.579   6.306
 9024SOL    HW127971   1.330   5.503   6.369
 9024SOL    HW227972   1.420   5.556   6.243
 9025SOL     OW27973   6.785   5.723   1.134
 9025SOL    HW127974   6.739   5.647   1.180
 9025SOL    HW227975   6.766   5.719   1.036
 9026SOL     OW27976   4.070   3.267   3.261
 9026SOL    HW127977   4.076   3.291   3.164
 9026SOL    HW227978   4.105   3.343   3.316
 9027SOL     OW27979   2.964   1.809   3.796
 9027SOL    HW127980   2.999   1.887   3.744
 9027SOL    HW227981   2.917   1.746   3.734
 9028SOL     OW27982   2.419   4.268   5.774
 9028SOL    HW127983   2.416   4.352   5.828
 9028SOL    HW227984   2.510   4.227   5.780
 9029SOL     OW27985   3.312   5.660   5.235
 9029SOL    HW127986   3.355   5.697   5.153
 9029SOL    HW227987   3.222   5.701   5.247
 9030SOL     OW27988   2.275   0.998   2.757
 9030SOL    HW127989   2.372   1.020   2.752
 9030SOL    HW227990   2.242   1.016   2.850
 9031SOL     OW27991   4.590   5.277   5.794
 9031SOL    HW127992   4.524   5.339   5.836
 9031SOL    HW227993   4.660   5.331   5.746
 9032SOL     OW27994   3.998   2.449   0.819
 9032SOL    HW127995   4.081   2.399   0.793
 9032SOL    HW227996   4.008   2.482   0.913
 9033SOL     OW27997   1.856   3.761   3.436
 9033SOL    HW127998   1.953   3.776   3.415
 9033SOL    HW227999   1.848   3.694   3.510
 9034SOL     OW28000   2.825   6.818   5.046
 9034SOL    HW128001   2.787   6.791   5.134
 9034SOL    HW228002   2.751   6.830   4.980
 9035SOL     OW28003   0.650   6.599   5.189
 9035SOL    HW128004   0.567   6.558   5.225
 9035SOL    HW228005   0.627   6.670   5.123
 9036SOL     OW28006   1.372   1.609   4.501
 9036SOL    HW128007   1.320   1.690   4.476
 9036SOL    HW228008   1.394   1.612   4.599
 9037SOL     OW28009   1.359   4.568   6.722
 9037SOL    HW128010   1.283   4.507   6.740
 9037SOL    HW228011   1.332   4.638   6.656
 9038SOL     OW28012   4.592   0.623   5.125
 9038SOL    HW128013   4.516   0.627   5.190
 9038SOL    HW228014   4.607   0.713   5.085
 9039SOL     OW28015   1.600   4.519   4.793
 9039SOL    HW128016   1.559   4.588   4.852
 9039SOL    HW228017   1.678   4.477   4.839
 9040SOL     OW28018   2.528   1.432   3.446
 9040SOL    HW128019   2.516   1.443   3.544
 9040SOL    HW228020   2.622   1.403   3.426
 9041SOL     OW28021   0.912   1.750   1.754
 9041SOL    HW128022   0.843   1.787   1.692
 9041SOL    HW228023   0.899   1.785   1.846
 9042SOL     OW28024   3.074   5.872   4.090
 9042SOL    HW128025   2.977   5.854   4.074
 9042SOL    HW228026   3.100   5.959   4.047
 9043SOL     OW28027   2.167   0.851   5.719
 9043SOL    HW128028   2.256   0.895   5.736
 9043SOL    HW228029   2.171   0.801   5.633
 9044SOL     OW28030   6.436   1.454   1.477
 9044SOL    HW128031   6.378   1.392   1.531
 9044SOL    HW228032   6.526   1.412   1.466
 9045SOL     OW28033   3.583   1.799   2.251
 9045SOL    HW128034   3.573   1.897   2.237
 9045SOL    HW228035   3.510   1.766   2.311
 9046SOL     OW28036   3.332   3.621   4.341
 9046SOL    HW128037   3.250   3.564   4.348
 9046SOL    HW228038   3.393   3.602   4.418
 9047SOL     OW28039   1.536   3.075   5.755
 9047SOL    HW128040   1.524   3.171   5.729
 9047SOL    HW228041   1.527   3.067   5.854
 9048SOL     OW28042   6.205   3.229   6.343
 9048SOL    HW128043   6.110   3.201   6.356
 9048SOL    HW228044   6.207   3.324   6.311
 9049SOL     OW28045   4.491   6.663   6.518
 9049SOL    HW128046   4.551   6.586   6.498
 9049SOL    HW228047   4.438   6.686   6.436
 9050SOL     OW28048   0.523   5.441   5.654
 9050SOL    HW128049   0.570   5.393   5.729
 9050SOL    HW228050   0.497   5.375   5.584
 9051SOL     OW28051   4.439   6.202   1.186
 9051SOL    HW128052   4.381   6.279   1.213
 9051SOL    HW228053   4.436   6.193   1.086
 9052SOL     OW28054   1.969   3.647   3.968
 9052SOL    HW128055   1.937   3.553   3.955
 9052SOL    HW228056   1.988   3.662   4.065
 9053SOL     OW28057   2.517   1.935   3.300
 9053SOL    HW128058   2.613   1.949   3.325
 9053SOL    HW228059   2.462   1.928   3.384
 9054SOL     OW28060   1.607   0.515   1.952
 9054SOL    HW128061   1.522   0.506   2.004
 9054SOL    HW228062   1.677   0.558   2.009
 9055SOL     OW28063   0.179   3.895   3.680
 9055SOL    HW128064   0.228   3.959   3.621
 9055SOL    HW228065   0.223   3.806   3.677
 9056SOL     OW28066   5.426   0.316   2.278
 9056SOL    HW128067   5.487   0.363   2.342
 9056SOL    HW228068   5.397   0.379   2.206
 9057SOL     OW28069   5.602   5.321   6.107
 9057SOL    HW128070   5.573   5.301   6.013
 9057SOL    HW228071   5.562   5.408   6.136
 9058SOL     OW28072   2.014   1.400   3.690
 9058SOL    HW128073   2.093   1.386   3.630
 9058SOL    HW228074   2.008   1.326   3.756
 9059SOL     OW28075   0.022   1.078   4.017
 9059SOL    HW128076   0.018   1.085   3.918
 9059SOL    HW228077   0.109   1.114   4.050
 9060SOL     OW28078   0.006   4.143   1.803
 9060SOL    HW128079   6.985   4.139   1.714
 9060SOL    HW228080   0.026   4.051   1.835
 9061SOL     OW28081   4.279   5.656   2.505
 9061SOL    HW128082   4.222   5.672   2.424
 9061SOL    HW228083   4.225   5.673   2.587
 9062SOL     OW28084   1.330   4.783   2.497
 9062SOL    HW128085   1.402   4.793   2.565
 9062SOL    HW228086   1.241   4.794   2.542
 9063SOL     OW28087   2.366   0.525   2.471
 9063SOL    HW128088   2.466   0.530   2.464
 9063SOL    HW228089   2.328   0.617   2.474
 9064SOL     OW28090   5.989   4.457   4.109
 9064SOL    HW128091   6.021   4.363   4.108
 9064SOL    HW228092   6.038   4.509   4.038
 9065SOL     OW28093   3.221   5.396   6.460
 9065SOL    HW128094   3.233   5.345   6.375
 9065SOL    HW228095   3.212   5.494   6.440
 9066SOL     OW28096   5.892   0.574   0.038
 9066SOL    HW128097   5.919   0.649   0.099
 9066SOL    HW228098   5.799   0.545   0.061
 9067SOL     OW28099   5.758   6.836   5.527
 9067SOL    HW128100   5.688   6.898   5.491
 9067SOL    HW228101   5.820   6.809   5.453
 9068SOL     OW28102   3.149   0.586   5.124
 9068SOL    HW128103   3.173   0.682   5.138
 9068SOL    HW228104   3.049   0.576   5.126
 9069SOL     OW28105   3.357   1.973   1.841
 9069SOL    HW128106   3.305   1.934   1.917
 9069SOL    HW228107   3.362   1.907   1.767
 9070SOL     OW28108   0.592   3.124   5.843
 9070SOL    HW128109   0.533   3.043   5.841
 9070SOL    HW228110   0.572   3.181   5.763
 9071SOL     OW28111   5.108   6.429   1.152
 9071SOL    HW128112   5.072   6.341   1.120
 9071SOL    HW228113   5.053   6.503   1.112
 9072SOL     OW28114   5.104   0.614   1.835
 9072SOL    HW128115   5.052   0.681   1.781
 9072SOL    HW228116   5.046   0.579   1.908
 9073SOL     OW28117   3.754   6.886   1.129
 9073SOL    HW128118   3.683   6.888   1.059
 9073SOL    HW228119   3.718   6.924   1.215
 9074SOL     OW28120   1.735   0.977   0.930
 9074SOL    HW128121   1.766   1.017   1.016
 9074SOL    HW228122   1.743   1.045   0.857
 9075SOL     OW28123   0.620   6.974   1.444
 9075SOL    HW128124   0.663   6.891   1.478
 9075SOL    HW228125   0.613   6.971   1.345
 9076SOL     OW28126   5.775   1.018   4.878
 9076SOL    HW128127   5.785   1.033   4.779
 9076SOL    HW228128   5.782   0.920   4.897
 9077SOL     OW28129   5.233   1.080   6.557
 9077SOL    HW128130   5.134   1.069   6.565
 9077SOL    HW228131   5.254   1.174   6.531
 9078SOL     OW28132   5.015   3.262   0.495
 9078SOL    HW128133   5.027   3.295   0.589
 9078SOL    HW228134   5.105   3.254   0.451
 9079SOL     OW28135   1.849   5.962   3.772
 9079SOL    HW128136   1.776   5.917   3.720
 9079SOL    HW228137   1.827   5.957   3.870
 9080SOL     OW28138   5.719   2.631   6.353
 9080SOL    HW128139   5.761   2.575   6.424
 9080SOL    HW228140   5.779   2.707   6.330
 9081SOL     OW28141   3.166   6.799   2.411
 9081SOL    HW128142   3.187   6.738   2.487
 9081SOL    HW228143   3.102   6.869   2.441
 9082SOL     OW28144   2.582   5.907   5.865
 9082SOL    HW128145   2.641   5.837   5.824
 9082SOL    HW228146   2.638   5.974   5.913
 9083SOL     OW28147   3.732   4.279   5.630
 9083SOL    HW128148   3.653   4.219   5.645
 9083SOL    HW228149   3.807   4.225   5.592
 9084SOL     OW28150   2.083   2.760   5.993
 9084SOL    HW128151   1.985   2.765   6.009
 9084SOL    HW228152   2.106   2.810   5.910
 9085SOL     OW28153   1.603   5.245   0.694
 9085SOL    HW128154   1.521   5.294   0.725
 9085SOL    HW228155   1.597   5.150   0.721
 9086SOL     OW28156   6.646   4.131   0.890
 9086SOL    HW128157   6.612   4.198   0.824
 9086SOL    HW228158   6.664   4.044   0.842
 9087SOL     OW28159   4.902   3.191   2.027
 9087SOL    HW128160   4.851   3.107   2.044
 9087SOL    HW228161   4.908   3.207   1.928
 9088SOL     OW28162   6.680   5.975   0.809
 9088SOL    HW128163   6.602   6.020   0.853
 9088SOL    HW228164   6.736   6.043   0.763
 9089SOL     OW28165   4.568   6.284   5.694
 9089SOL    HW128166   4.592   6.235   5.778
 9089SOL    HW228167   4.472   6.267   5.671
 9090SOL     OW28168   6.220   6.949   3.465
 9090SOL    HW128169   6.282   7.023   3.490
 9090SOL    HW228170   6.179   6.967   3.376
 9091SOL     OW28171   2.696   3.748   0.314
 9091SOL    HW128172   2.727   3.767   0.407
 9091SOL    HW228173   2.631   3.672   0.316
 9092SOL     OW28174   0.059   1.444   0.477
 9092SOL    HW128175   0.104   1.533   0.476
 9092SOL    HW228176   0.064   1.405   0.569
 9093SOL     OW28177   1.433   5.999   6.524
 9093SOL    HW128178   1.484   5.952   6.452
 9093SOL    HW228179   1.496   6.053   6.580
 9094SOL     OW28180   0.128   4.927   3.142
 9094SOL    HW128181   0.174   4.880   3.218
 9094SOL    HW228182   0.067   4.997   3.178
 9095SOL     OW28183   4.179   3.634   6.426
 9095SOL    HW128184   4.143   3.547   6.460
 9095SOL    HW228185   4.169   3.637   6.326
 9096SOL     OW28186   5.532   4.163   1.731
 9096SOL    HW128187   5.591   4.083   1.743
 9096SOL    HW228188   5.494   4.164   1.639
 9097SOL     OW28189   1.237   2.801   6.839
 9097SOL    HW128190   1.196   2.710   6.838
 9097SOL    HW228191   1.207   2.852   6.758
 9098SOL     OW28192   4.335   2.481   0.003
 9098SOL    HW128193   4.417   2.538   0.010
 9098SOL    HW228194   4.263   2.521   0.059
 9099SOL     OW28195   3.581   3.374   6.957
 9099SOL    HW128196   3.553   3.420   6.873
 9099SOL    HW228197   3.529   3.410   0.010
 9100SOL     OW28198   1.023   3.261   4.021
 9100SOL    HW128199   0.997   3.201   3.944
 9100SOL    HW228200   1.122   3.258   4.034
 9101SOL     OW28201   2.734   2.412   3.254
 9101SOL    HW128202   2.781   2.498   3.237
 9101SOL    HW228203   2.761   2.377   3.343
 9102SOL     OW28204   2.612   6.989   2.077
 9102SOL    HW128205   2.565   6.963   2.161
 9102SOL    HW228206   2.549   0.014   2.017
 9103SOL     OW28207   6.460   3.419   0.186
 9103SOL    HW128208   6.492   3.498   0.135
 9103SOL    HW228209   6.382   3.445   0.243
 9104SOL     OW28210   5.734   6.410   2.912
 9104SOL    HW128211   5.656   6.450   2.959
 9104SOL    HW228212   5.811   6.473   2.916
 9105SOL     OW28213   1.787   1.519   0.465
 9105SOL    HW128214   1.870   1.471   0.438
 9105SOL    HW228215   1.791   1.537   0.564
 9106SOL     OW28216   6.598   3.905   0.281
 9106SOL    HW128217   6.543   3.979   0.319
 9106SOL    HW228218   6.680   3.893   0.337
 9107SOL     OW28219   3.372   0.610   6.281
 9107SOL    HW128220   3.451   0.618   6.221
 9107SOL    HW228221   3.359   0.514   6.307
 9108SOL     OW28222   4.852   3.743   5.519
 9108SOL    HW128223   4.753   3.755   5.523
 9108SOL    HW228224   4.894   3.779   5.602
 9109SOL     OW28225   0.544   2.580   2.713
 9109SOL    HW128226   0.538   2.669   2.759
 9109SOL    HW228227   0.637   2.567   2.678
 9110SOL     OW28228   1.598   3.845   3.765
 9110SOL    HW128229   1.660   3.900   3.709
 9110SOL    HW228230   1.641   3.826   3.853
 9111SOL     OW28231   4.114   1.700   0.787
 9111SOL    HW128232   4.160   1.623   0.831
 9111SOL    HW228233   4.176   1.743   0.721
 9112SOL     OW28234   0.715   4.823   4.560
 9112SOL    HW128235   0.778   4.828   4.638
 9112SOL    HW228236   0.625   4.856   4.588
 9113SOL     OW28237   4.971   1.337   2.004
 9113SOL    HW128238   4.891   1.371   1.953
 9113SOL    HW228239   5.053   1.383   1.971
 9114SOL     OW28240   0.667   4.117   1.870
 9114SOL    HW128241   0.720   4.058   1.808
 9114SOL    HW228242   0.576   4.133   1.831
 9115SOL     OW28243   6.831   4.861   5.428
 9115SOL    HW128244   6.832   4.814   5.340
 9115SOL    HW228245   6.859   4.798   5.500
 9116SOL     OW28246   6.646   1.072   1.060
 9116SOL    HW128247   6.735   1.117   1.060
 9116SOL    HW228248   6.584   1.121   0.999
 9117SOL     OW28249   6.168   2.698   6.930
 9117SOL    HW128250   6.131   2.778   6.976
 9117SOL    HW228251   6.250   2.723   6.880
 9118SOL     OW28252   6.431   4.106   0.386
 9118SOL    HW128253   6.347   4.127   0.435
 9118SOL    HW228254   6.498   4.178   0.402
 9119SOL     OW28255   4.604   1.196   1.506
 9119SOL    HW128256   4.694   1.197   1.462
 9119SOL    HW228257   4.535   1.171   1.439
 9120SOL     OW28258   6.079   1.729   5.936
 9120SOL    HW128259   6.082   1.696   6.031
 9120SOL    HW228260   6.091   1.829   5.935
 9121SOL     OW28261   2.790   1.430   5.157
 9121SOL    HW128262   2.817   1.494   5.229
 9121SOL    HW228263   2.798   1.475   5.068
 9122SOL     OW28264   1.631   4.115   2.635
 9122SOL    HW128265   1.597   4.201   2.674
 9122SOL    HW228266   1.559   4.073   2.579
 9123SOL     OW28267   2.160   0.586   4.427
 9123SOL    HW128268   2.065   0.556   4.436
 9123SOL    HW228269   2.165   0.663   4.364
 9124SOL     OW28270   5.909   6.405   0.096
 9124SOL    HW128271   5.932   6.338   0.025
 9124SOL    HW228272   5.816   6.388   0.129
 9125SOL     OW28273   4.932   4.109   0.984
 9125SOL    HW128274   4.888   4.022   0.963
 9125SOL    HW228275   4.957   4.112   1.081
 9126SOL     OW28276   5.836   3.361   1.961
 9126SOL    HW128277   5.737   3.368   1.972
 9126SOL    HW228278   5.880   3.444   1.994
 9127SOL     OW28279   6.641   1.380   6.092
 9127SOL    HW128280   6.610   1.461   6.043
 9127SOL    HW228281   6.578   1.304   6.073
 9128SOL     OW28282   5.849   1.626   5.332
 9128SOL    HW128283   5.834   1.527   5.327
 9128SOL    HW228284   5.774   1.674   5.286
 9129SOL     OW28285   0.756   2.359   0.437
 9129SOL    HW128286   0.836   2.420   0.435
 9129SOL    HW228287   0.775   2.279   0.380
 9130SOL     OW28288   6.802   3.550   6.636
 9130SOL    HW128289   6.850   3.636   6.650
 9130SOL    HW228290   6.767   3.517   6.724
 9131SOL     OW28291   6.391   2.779   4.987
 9131SOL    HW128292   6.423   2.688   5.011
 9131SOL    HW228293   6.468   2.836   4.958
 9132SOL     OW28294   0.534   5.064   4.425
 9132SOL    HW128295   0.520   4.996   4.354
 9132SOL    HW228296   0.543   5.155   4.384
 9133SOL     OW28297   3.847   5.990   1.519
 9133SOL    HW128298   3.784   5.927   1.563
 9133SOL    HW228299   3.808   6.082   1.519
 9134SOL     OW28300   4.597   5.452   0.996
 9134SOL    HW128301   4.582   5.506   1.079
 9134SOL    HW228302   4.552   5.363   1.005
 9135SOL     OW28303   6.459   0.080   1.812
 9135SOL    HW128304   6.411   0.029   1.884
 9135SOL    HW228305   6.401   0.156   1.782
 9136SOL     OW28306   5.175   5.826   6.509
 9136SOL    HW128307   5.262   5.777   6.519
 9136SOL    HW228308   5.187   5.902   6.446
 9137SOL     OW28309   5.569   1.572   0.824
 9137SOL    HW128310   5.591   1.598   0.730
 9137SOL    HW228311   5.488   1.513   0.824
 9138SOL     OW28312   0.268   5.418   6.566
 9138SOL    HW128313   0.243   5.503   6.613
 9138SOL    HW228314   0.364   5.397   6.584
 9139SOL     OW28315   2.872   1.591   3.603
 9139SOL    HW128316   2.914   1.552   3.686
 9139SOL    HW228317   2.900   1.536   3.524
 9140SOL     OW28318   6.881   3.369   2.624
 9140SOL    HW128319   6.942   3.379   2.546
 9140SOL    HW228320   6.806   3.306   2.601
 9141SOL     OW28321   5.682   0.869   0.973
 9141SOL    HW128322   5.631   0.955   0.982
 9141SOL    HW228323   5.667   0.832   0.882
 9142SOL     OW28324   0.524   2.384   0.832
 9142SOL    HW128325   0.473   2.466   0.859
 9142SOL    HW228326   0.595   2.409   0.766
 9143SOL     OW28327   5.975   3.883   6.536
 9143SOL    HW128328   5.912   3.872   6.613
 9143SOL    HW228329   5.999   3.793   6.499
 9144SOL     OW28330   2.445   5.056   4.390
 9144SOL    HW128331   2.435   5.123   4.317
 9144SOL    HW228332   2.483   5.101   4.472
 9145SOL     OW28333   0.183   5.679   0.219
 9145SOL    HW128334   0.183   5.779   0.218
 9145SOL    HW228335   0.262   5.646   0.270
 9146SOL     OW28336   5.381   2.807   3.363
 9146SOL    HW128337   5.298   2.863   3.366
 9146SOL    HW228338   5.356   2.711   3.357
 9147SOL     OW28339   6.194   0.306   5.148
 9147SOL    HW128340   6.170   0.388   5.096
 9147SOL    HW228341   6.111   0.265   5.187
 9148SOL     OW28342   5.201   5.982   1.448
 9148SOL    HW128343   5.223   5.994   1.545
 9148SOL    HW228344   5.272   6.026   1.392
 9149SOL     OW28345   5.995   3.808   3.104
 9149SOL    HW128346   5.901   3.839   3.084
 9149SOL    HW228347   6.059   3.880   3.080
 9150SOL     OW28348   3.618   5.588   1.340
 9150SOL    HW128349   3.714   5.573   1.319
 9150SOL    HW228350   3.562   5.555   1.264
 9151SOL     OW28351   1.973   4.289   3.275
 9151SOL    HW128352   2.070   4.311   3.288
 9151SOL    HW228353   1.924   4.302   3.361
 9152SOL     OW28354   2.205   3.998   4.734
 9152SOL    HW128355   2.244   4.011   4.825
 9152SOL    HW228356   2.227   3.906   4.702
 9153SOL     OW28357   1.230   3.122   6.380
 9153SOL    HW128358   1.277   3.186   6.441
 9153SOL    HW228359   1.207   3.039   6.431
 9154SOL     OW28360   4.907   4.594   0.328
 9154SOL    HW128361   4.811   4.591   0.300
 9154SOL    HW228362   4.913   4.610   0.426
 9155SOL     OW28363   1.735   3.405   2.269
 9155SOL    HW128364   1.766   3.318   2.231
 9155SOL    HW228365   1.732   3.399   2.368
 9156SOL     OW28366   1.170   2.536   6.827
 9156SOL    HW128367   1.235   2.459   6.834
 9156SOL    HW228368   1.085   2.504   6.785
 9157SOL     OW28369   1.335   4.326   6.178
 9157SOL    HW128370   1.339   4.226   6.182
 9157SOL    HW228371   1.344   4.363   6.270
 9158SOL     OW28372   5.225   3.221   4.598
 9158SOL    HW128373   5.302   3.244   4.658
 9158SOL    HW228374   5.247   3.137   4.548
 9159SOL     OW28375   1.901   0.862   1.530
 9159SOL    HW128376   1.972   0.923   1.495
 9159SOL    HW228377   1.825   0.916   1.566
 9160SOL     OW28378   6.472   6.341   5.328
 9160SOL    HW128379   6.485   6.434   5.293
 9160SOL    HW228380   6.381   6.333   5.368
 9161SOL     OW28381   5.314   4.367   4.138
 9161SOL    HW128382   5.285   4.443   4.197
 9161SOL    HW228383   5.320   4.398   4.044
 9162SOL     OW28384   3.838   1.389   3.643
 9162SOL    HW128385   3.912   1.420   3.702
 9162SOL    HW228386   3.831   1.290   3.646
 9163SOL     OW28387   1.388   2.479   4.878
 9163SOL    HW128388   1.366   2.558   4.935
 9163SOL    HW228389   1.325   2.404   4.899
 9164SOL     OW28390   2.694   6.757   6.653
 9164SOL    HW128391   2.702   6.766   6.752
 9164SOL    HW228392   2.768   6.808   6.609
 9165SOL     OW28393   6.628   1.383   5.114
 9165SOL    HW128394   6.550   1.415   5.167
 9165SOL    HW228395   6.619   1.285   5.098
 9166SOL     OW28396   4.060   6.029   1.652
 9166SOL    HW128397   4.079   5.960   1.721
 9166SOL    HW228398   3.988   5.997   1.591
 9167SOL     OW28399   2.093   2.140   6.146
 9167SOL    HW128400   1.993   2.133   6.154
 9167SOL    HW228401   2.123   2.089   6.065
 9168SOL     OW28402   0.219   6.596   6.174
 9168SOL    HW128403   0.229   6.514   6.230
 9168SOL    HW228404   0.261   6.581   6.085
 9169SOL     OW28405   6.311   0.506   6.234
 9169SOL    HW128406   6.387   0.528   6.172
 9169SOL    HW228407   6.347   0.487   6.325
 9170SOL     OW28408   1.272   6.964   6.774
 9170SOL    HW128409   1.345   6.932   6.835
 9170SOL    HW228410   1.186   6.968   6.825
 9171SOL     OW28411   4.255   5.149   0.696
 9171SOL    HW128412   4.326   5.163   0.765
 9171SOL    HW228413   4.244   5.050   0.680
 9172SOL     OW28414   4.905   0.922   2.879
 9172SOL    HW128415   4.965   0.854   2.920
 9172SOL    HW228416   4.864   0.886   2.796
 9173SOL     OW28417   5.892   4.158   6.095
 9173SOL    HW128418   5.843   4.072   6.079
 9173SOL    HW228419   5.833   4.235   6.070
 9174SOL     OW28420   6.303   4.322   1.485
 9174SOL    HW128421   6.233   4.354   1.421
 9174SOL    HW228422   6.393   4.331   1.443
 9175SOL     OW28423   1.058   6.372   6.084
 9175SOL    HW128424   1.030   6.298   6.145
 9175SOL    HW228425   1.112   6.439   6.135
 9176SOL     OW28426   2.278   0.633   3.364
 9176SOL    HW128427   2.231   0.706   3.313
 9176SOL    HW228428   2.250   0.544   3.327
 9177SOL     OW28429   1.099   4.869   4.471
 9177SOL    HW128430   1.103   4.868   4.570
 9177SOL    HW228431   1.096   4.775   4.436
 9178SOL     OW28432   1.829   5.384   0.651
 9178SOL    HW128433   1.764   5.311   0.671
 9178SOL    HW228434   1.886   5.401   0.731
 9179SOL     OW28435   1.830   5.041   3.582
 9179SOL    HW128436   1.770   4.967   3.613
 9179SOL    HW228437   1.775   5.119   3.553
 9180SOL     OW28438   6.629   2.933   3.490
 9180SOL    HW128439   6.659   2.849   3.444
 9180SOL    HW228440   6.708   2.992   3.507
 9181SOL     OW28441   6.279   2.583   4.497
 9181SOL    HW128442   6.227   2.622   4.573
 9181SOL    HW228443   6.229   2.599   4.411
 9182SOL     OW28444   2.309   6.656   3.152
 9182SOL    HW128445   2.396   6.683   3.194
 9182SOL    HW228446   2.316   6.563   3.118
 9183SOL     OW28447   4.638   4.656   0.299
 9183SOL    HW128448   4.590   4.582   0.252
 9183SOL    HW228449   4.643   4.636   0.396
 9184SOL     OW28450   4.491   2.318   0.914
 9184SOL    HW128451   4.466   2.361   1.001
 9184SOL    HW228452   4.493   2.219   0.924
 9185SOL     OW28453   4.653   6.609   5.047
 9185SOL    HW128454   4.706   6.635   5.128
 9185SOL    HW228455   4.617   6.691   5.003
 9186SOL     OW28456   5.872   6.600   4.997
 9186SOL    HW128457   5.939   6.585   4.924
 9186SOL    HW228458   5.782   6.618   4.956
 9187SOL     OW28459   3.517   1.659   0.780
 9187SOL    HW128460   3.440   1.721   0.763
 9187SOL    HW228461   3.497   1.569   0.742
 9188SOL     OW28462   1.805   0.375   1.562
 9188SOL    HW128463   1.744   0.428   1.503
 9188SOL    HW228464   1.758   0.352   1.648
 9189SOL     OW28465   3.082   5.590   2.097
 9189SOL    HW128466   3.064   5.520   2.166
 9189SOL    HW228467   2.996   5.630   2.066
 9190SOL     OW28468   1.828   3.924   5.317
 9190SOL    HW128469   1.766   3.846   5.322
 9190SOL    HW228470   1.879   3.921   5.232
 9191SOL     OW28471   5.353   1.150   0.413
 9191SOL    HW128472   5.270   1.203   0.428
 9191SOL    HW228473   5.329   1.056   0.388
 9192SOL     OW28474   0.265   2.358   6.239
 9192SOL    HW128475   0.169   2.340   6.217
 9192SOL    HW228476   0.277   2.357   6.338
 9193SOL     OW28477   3.618   3.580   5.321
 9193SOL    HW128478   3.600   3.678   5.313
 9193SOL    HW228479   3.531   3.530   5.321
 9194SOL     OW28480   3.243   1.510   2.997
 9194SOL    HW128481   3.202   1.542   2.912
 9194SOL    HW228482   3.329   1.463   2.977
 9195SOL     OW28483   0.837   3.518   2.371
 9195SOL    HW128484   0.743   3.504   2.339
 9195SOL    HW228485   0.842   3.498   2.468
 9196SOL     OW28486   6.049   0.303   3.600
 9196SOL    HW128487   6.017   0.323   3.507
 9196SOL    HW228488   6.035   0.206   3.620
 9197SOL     OW28489   2.854   4.903   1.507
 9197SOL    HW128490   2.757   4.920   1.484
 9197SOL    HW228491   2.861   4.823   1.565
 9198SOL     OW28492   6.301   4.792   6.770
 9198SOL    HW128493   6.215   4.775   6.722
 9198SOL    HW228494   6.332   4.885   6.753
 9199SOL     OW28495   6.795   3.376   5.556
 9199SOL    HW128496   6.744   3.315   5.616
 9199SOL    HW228497   6.887   3.339   5.542
 9200SOL     OW28498   3.390   6.038   6.671
 9200SOL    HW128499   3.449   5.963   6.698
 9200SOL    HW228500   3.394   6.050   6.571
 9201SOL     OW28501   6.985   3.482   0.431
 9201SOL    HW128502   0.048   3.441   0.407
 9201SOL    HW228503   6.919   3.468   0.357
 9202SOL     OW28504   0.851   6.236   3.363
 9202SOL    HW128505   0.846   6.141   3.396
 9202SOL    HW228506   0.817   6.298   3.434
 9203SOL     OW28507   6.279   2.875   6.151
 9203SOL    HW128508   6.199   2.901   6.206
 9203SOL    HW228509   6.320   2.793   6.189
 9204SOL     OW28510   4.855   3.018   4.811
 9204SOL    HW128511   4.915   2.971   4.876
 9204SOL    HW228512   4.841   3.113   4.841
 9205SOL     OW28513   5.503   5.583   3.805
 9205SOL    HW128514   5.558   5.666   3.798
 9205SOL    HW228515   5.508   5.531   3.720
 9206SOL     OW28516   3.117   5.149   3.598
 9206SOL    HW128517   3.125   5.235   3.546
 9206SOL    HW228518   3.026   5.142   3.638
 9207SOL     OW28519   5.214   3.949   6.926
 9207SOL    HW128520   5.163   4.027   6.963
 9207SOL    HW228521   5.186   3.934   6.831
 9208SOL     OW28522   5.508   4.620   3.362
 9208SOL    HW128523   5.574   4.616   3.437
 9208SOL    HW228524   5.418   4.643   3.398
 9209SOL     OW28525   4.944   0.907   0.321
 9209SOL    HW128526   4.897   0.961   0.251
 9209SOL    HW228527   5.033   0.877   0.285
 9210SOL     OW28528   1.374   1.915   1.576
 9210SOL    HW128529   1.390   1.948   1.669
 9210SOL    HW228530   1.309   1.975   1.530
 9211SOL     OW28531   6.003   3.037   5.933
 9211SOL    HW128532   6.022   2.939   5.927
 9211SOL    HW228533   6.031   3.081   5.847
 9212SOL     OW28534   4.514   5.734   4.395
 9212SOL    HW128535   4.599   5.690   4.423
 9212SOL    HW228536   4.438   5.671   4.410
 9213SOL     OW28537   5.622   4.699   4.798
 9213SOL    HW128538   5.568   4.749   4.865
 9213SOL    HW228539   5.573   4.616   4.771
 9214SOL     OW28540   6.874   3.602   5.686
 9214SOL    HW128541   6.804   3.668   5.655
 9214SOL    HW228542   6.877   3.525   5.623
 9215SOL     OW28543   2.072   3.312   2.008
 9215SOL    HW128544   1.992   3.341   1.956
 9215SOL    HW228545   2.144   3.381   2.001
 9216SOL     OW28546   2.495   6.958   3.766
 9216SOL    HW128547   2.469   7.011   3.847
 9216SOL    HW228548   2.456   6.866   3.772
 9217SOL     OW28549   6.078   3.617   6.452
 9217SOL    HW128550   6.035   3.544   6.505
 9217SOL    HW228551   6.171   3.633   6.486
 9218SOL     OW28552   2.918   0.873   0.229
 9218SOL    HW128553   2.882   0.792   0.181
 9218SOL    HW228554   2.939   0.944   0.163
 9219SOL     OW28555   5.452   3.965   6.247
 9219SOL    HW128556   5.475   4.046   6.302
 9219SOL    HW228557   5.361   3.933   6.272
 9220SOL     OW28558   0.711   6.058   1.724
 9220SOL    HW128559   0.749   6.109   1.646
 9220SOL    HW228560   0.779   6.055   1.797
 9221SOL     OW28561   2.007   0.758   2.723
 9221SOL    HW128562   2.044   0.803   2.642
 9221SOL    HW228563   1.910   0.781   2.732
 9222SOL     OW28564   2.342   5.606   6.058
 9222SOL    HW128565   2.344   5.550   6.141
 9222SOL    HW228566   2.414   5.575   5.995
 9223SOL     OW28567   1.409   1.955   4.219
 9223SOL    HW128568   1.475   1.930   4.148
 9223SOL    HW228569   1.318   1.923   4.192
 9224SOL     OW28570   1.105   5.276   4.499
 9224SOL    HW128571   1.058   5.361   4.521
 9224SOL    HW228572   1.038   5.203   4.484
 9225SOL     OW28573   3.558   5.804   6.250
 9225SOL    HW128574   3.508   5.870   6.194
 9225SOL    HW228575   3.652   5.836   6.264
 9226SOL     OW28576   6.977   6.587   1.448
 9226SOL    HW128577   6.894   6.532   1.439
 9226SOL    HW228578   7.014   6.607   1.358
 9227SOL     OW28579   1.838   5.857   1.284
 9227SOL    HW128580   1.912   5.789   1.283
 9227SOL    HW228581   1.825   5.890   1.378
 9228SOL     OW28582   3.067   1.429   6.260
 9228SOL    HW128583   2.969   1.449   6.262
 9228SOL    HW228584   3.091   1.373   6.339
 9229SOL     OW28585   1.375   5.394   5.144
 9229SOL    HW128586   1.460   5.443   5.165
 9229SOL    HW228587   1.312   5.402   5.221
 9230SOL     OW28588   5.141   2.947   3.382
 9230SOL    HW128589   5.099   2.878   3.442
 9230SOL    HW228590   5.072   3.015   3.357
 9231SOL     OW28591   1.238   3.091   4.828
 9231SOL    HW128592   1.162   3.126   4.775
 9231SOL    HW228593   1.233   3.126   4.922
 9232SOL     OW28594   3.634   5.381   6.843
 9232SOL    HW128595   3.655   5.297   6.892
 9232SOL    HW228596   3.564   5.363   6.773
 9233SOL     OW28597   5.964   6.257   2.039
 9233SOL    HW128598   6.061   6.279   2.053
 9233SOL    HW228599   5.916   6.259   2.127
 9234SOL     OW28600   4.018   5.389   6.634
 9234SOL    HW128601   4.069   5.331   6.570
 9234SOL    HW228602   3.941   5.337   6.671
 9235SOL     OW28603   1.407   2.708   3.957
 9235SOL    HW128604   1.484   2.651   3.983
 9235SOL    HW228605   1.415   2.798   4.001
 9236SOL     OW28606   1.646   4.589   6.467
 9236SOL    HW128607   1.618   4.496   6.488
 9236SOL    HW228608   1.723   4.615   6.526
 9237SOL     OW28609   0.022   6.491   3.545
 9237SOL    HW128610   6.977   6.433   3.502
 9237SOL    HW228611   0.031   6.467   3.642
 9238SOL     OW28612   2.001   2.035   7.014
 9238SOL    HW128613   2.081   2.064   0.042
 9238SOL    HW228614   1.948   2.115   6.988
 9239SOL     OW28615   6.937   3.905   6.986
 9239SOL    HW128616   6.868   3.959   0.009
 9239SOL    HW228617   7.017   3.962   6.966
 9240SOL     OW28618   5.061   2.748   2.219
 9240SOL    HW128619   5.087   2.656   2.190
 9240SOL    HW228620   5.118   2.815   2.171
 9241SOL     OW28621   0.832   5.303   5.746
 9241SOL    HW128622   0.795   5.210   5.754
 9241SOL    HW228623   0.923   5.306   5.786
 9242SOL     OW28624   1.432   5.117   0.420
 9242SOL    HW128625   1.450   5.215   0.422
 9242SOL    HW228626   1.382   5.094   0.335
 9243SOL     OW28627   0.252   6.888   1.790
 9243SOL    HW128628   0.311   6.812   1.762
 9243SOL    HW228629   0.252   6.958   1.719
 9244SOL     OW28630   3.662   5.145   6.239
 9244SOL    HW128631   3.651   5.227   6.296
 9244SOL    HW228632   3.738   5.091   6.273
 9245SOL     OW28633   1.012   5.579   3.858
 9245SOL    HW128634   0.919   5.541   3.854
 9245SOL    HW228635   1.074   5.510   3.895
 9246SOL     OW28636   6.415   6.659   1.943
 9246SOL    HW128637   6.496   6.671   1.886
 9246SOL    HW228638   6.372   6.747   1.960
 9247SOL     OW28639   1.993   6.140   3.521
 9247SOL    HW128640   1.912   6.143   3.579
 9247SOL    HW228641   1.979   6.200   3.442
 9248SOL     OW28642   2.453   2.092   4.894
 9248SOL    HW128643   2.406   2.135   4.971
 9248SOL    HW228644   2.544   2.132   4.885
 9249SOL     OW28645   3.589   4.025   1.124
 9249SOL    HW128646   3.574   4.086   1.046
 9249SOL    HW228647   3.503   4.013   1.174
 9250SOL     OW28648   6.085   3.037   3.837
 9250SOL    HW128649   6.025   3.075   3.767
 9250SOL    HW228650   6.171   3.089   3.839
 9251SOL     OW28651   3.569   1.653   2.748
 9251SOL    HW128652   3.616   1.731   2.790
 9251SOL    HW228653   3.517   1.685   2.669
 9252SOL     OW28654   5.036   0.669   3.939
 9252SOL    HW128655   5.101   0.699   4.008
 9252SOL    HW228656   5.081   0.664   3.850
 9253SOL     OW28657   5.480   5.846   5.803
 9253SOL    HW128658   5.448   5.877   5.893
 9253SOL    HW228659   5.580   5.839   5.804
 9254SOL     OW28660   5.688   5.163   3.073
 9254SOL    HW128661   5.749   5.165   3.152
 9254SOL    HW228662   5.648   5.253   3.059
 9255SOL     OW28663   4.395   4.429   0.331
 9255SOL    HW128664   4.478   4.373   0.337
 9255SOL    HW228665   4.352   4.435   0.422
 9256SOL     OW28666   2.719   0.333   2.631
 9256SOL    HW128667   2.818   0.339   2.643
 9256SOL    HW228668   2.690   0.401   2.564
 9257SOL     OW28669   0.259   4.121   3.328
 9257SOL    HW128670   0.216   4.035   3.298
 9257SOL    HW228671   0.255   4.127   3.428
 9258SOL     OW28672   2.914   3.452   3.174
 9258SOL    HW128673   2.941   3.398   3.093
 9258SOL    HW228674   2.871   3.391   3.240
 9259SOL     OW28675   0.804   2.771   6.941
 9259SOL    HW128676   0.864   2.711   6.994
 9259SOL    HW228677   0.847   2.861   6.932
 9260SOL     OW28678   6.018   1.095   4.948
 9260SOL    HW128679   5.929   1.066   4.912
 9260SOL    HW228680   6.011   1.189   4.983
 9261SOL     OW28681   2.506   1.542   0.328
 9261SOL    HW128682   2.439   1.509   0.262
 9261SOL    HW228683   2.546   1.465   0.377
 9262SOL     OW28684   6.623   5.057   5.370
 9262SOL    HW128685   6.581   5.075   5.459
 9262SOL    HW228686   6.681   4.976   5.376
 9263SOL     OW28687   5.122   0.044   1.645
 9263SOL    HW128688   5.111   0.141   1.662
 9263SOL    HW228689   5.048   7.018   1.690
 9264SOL     OW28690   4.949   4.969   0.388
 9264SOL    HW128691   4.982   4.917   0.309
 9264SOL    HW228692   4.914   4.905   0.457
 9265SOL     OW28693   3.533   1.928   0.864
 9265SOL    HW128694   3.548   1.989   0.786
 9265SOL    HW228695   3.560   1.835   0.839
 9266SOL     OW28696   1.848   6.677   1.076
 9266SOL    HW128697   1.806   6.702   0.989
 9266SOL    HW228698   1.783   6.623   1.130
 9267SOL     OW28699   7.014   3.083   4.607
 9267SOL    HW128700   0.035   3.152   4.550
 9267SOL    HW228701   6.932   3.122   4.648
 9268SOL     OW28702   1.107   5.429   2.678
 9268SOL    HW128703   1.175   5.358   2.659
 9268SOL    HW228704   1.016   5.388   2.682
 9269SOL     OW28705   3.806   1.519   6.422
 9269SOL    HW128706   3.820   1.443   6.485
 9269SOL    HW228707   3.826   1.489   6.329
 9270SOL     OW28708   4.421   0.124   6.246
 9270SOL    HW128709   4.457   0.141   6.155
 9270SOL    HW228710   4.432   0.206   6.303
 9271SOL     OW28711   5.539   0.538   0.797
 9271SOL    HW128712   5.509   0.560   0.890
 9271SOL    HW228713   5.523   0.441   0.780
 9272SOL     OW28714   1.054   5.718   4.508
 9272SOL    HW128715   1.151   5.710   4.534
 9272SOL    HW228716   1.021   5.809   4.532
 9273SOL     OW28717   5.582   6.776   2.982
 9273SOL    HW128718   5.553   6.687   2.947
 9273SOL    HW228719   5.504   6.838   2.985
 9274SOL     OW28720   6.208   1.714   6.895
 9274SOL    HW128721   6.263   1.632   6.907
 9274SOL    HW228722   6.265   1.788   6.858
 9275SOL     OW28723   6.044   0.732   0.508
 9275SOL    HW128724   6.041   0.688   0.598
 9275SOL    HW228725   5.984   0.812   0.508
 9276SOL     OW28726   2.136   3.549   1.315
 9276SOL    HW128727   2.089   3.630   1.350
 9276SOL    HW228728   2.224   3.540   1.361
 9277SOL     OW28729   4.613   3.379   0.623
 9277SOL    HW128730   4.573   3.469   0.635
 9277SOL    HW228731   4.623   3.335   0.713
 9278SOL     OW28732   1.960   0.206   5.893
 9278SOL    HW128733   2.027   0.248   5.953
 9278SOL    HW228734   1.905   0.278   5.849
 9279SOL     OW28735   4.169   0.985   2.147
 9279SOL    HW128736   4.203   1.078   2.159
 9279SOL    HW228737   4.070   0.984   2.159
 9280SOL     OW28738   2.377   2.140   3.159
 9280SOL    HW128739   2.432   2.057   3.172
 9280SOL    HW228740   2.297   2.118   3.102
 9281SOL     OW28741   2.286   3.439   6.577
 9281SOL    HW128742   2.239   3.446   6.665
 9281SOL    HW228743   2.379   3.475   6.585
 9282SOL     OW28744   4.875   0.871   3.898
 9282SOL    HW128745   4.921   0.784   3.916
 9282SOL    HW228746   4.823   0.864   3.813
 9283SOL     OW28747   5.541   0.596   3.708
 9283SOL    HW128748   5.514   0.691   3.724
 9283SOL    HW228749   5.494   0.536   3.773
 9284SOL     OW28750   2.919   3.122   5.191
 9284SOL    HW128751   2.885   3.213   5.214
 9284SOL    HW228752   2.871   3.054   5.246
 9285SOL     OW28753   4.914   2.260   0.875
 9285SOL    HW128754   4.840   2.196   0.856
 9285SOL    HW228755   4.918   2.329   0.802
 9286SOL     OW28756   5.215   5.678   1.128
 9286SOL    HW128757   5.170   5.708   1.212
 9286SOL    HW228758   5.196   5.580   1.114
 9287SOL     OW28759   3.104   4.708   6.935
 9287SOL    HW128760   3.155   4.695   6.850
 9287SOL    HW228761   3.144   4.650   7.007
 9288SOL     OW28762   4.719   1.744   3.123
 9288SOL    HW128763   4.730   1.750   3.222
 9288SOL    HW228764   4.681   1.655   3.099
 9289SOL     OW28765   3.524   0.991   2.428
 9289SOL    HW128766   3.551   1.075   2.476
 9289SOL    HW228767   3.476   1.016   2.344
 9290SOL     OW28768   5.911   1.272   2.769
 9290SOL    HW128769   5.860   1.353   2.740
 9290SOL    HW228770   6.008   1.296   2.779
 9291SOL     OW28771   0.898   5.981   4.499
 9291SOL    HW128772   0.806   5.959   4.529
 9291SOL    HW228773   0.910   6.080   4.496
 9292SOL     OW28774   1.729   2.873   6.844
 9292SOL    HW128775   1.786   2.832   6.773
 9292SOL    HW228776   1.635   2.881   6.810
 9293SOL     OW28777   5.180   2.763   6.573
 9293SOL    HW128778   5.118   2.840   6.561
 9293SOL    HW228779   5.239   2.780   6.652
 9294SOL     OW28780   4.209   0.746   5.753
 9294SOL    HW128781   4.289   0.763   5.811
 9294SOL    HW228782   4.220   0.795   5.667
 9295SOL     OW28783   5.516   1.635   4.752
 9295SOL    HW128784   5.420   1.645   4.725
 9295SOL    HW228785   5.565   1.721   4.735
 9296SOL     OW28786   1.364   5.620   6.923
 9296SOL    HW128787   1.381   5.696   6.860
 9296SOL    HW228788   1.284   5.568   6.891
 9297SOL     OW28789   0.029   0.115   2.321
 9297SOL    HW128790   0.025   0.173   2.402
 9297SOL    HW228791   0.075   0.029   2.343
 9298SOL     OW28792   1.072   6.408   5.814
 9298SOL    HW128793   1.168   6.402   5.790
 9298SOL    HW228794   1.060   6.391   5.911
 9299SOL     OW28795   0.554   2.480   4.898
 9299SOL    HW128796   0.539   2.391   4.854
 9299SOL    HW228797   0.540   2.471   4.996
 9300SOL     OW28798   0.083   4.582   5.547
 9300SOL    HW128799   0.180   4.593   5.571
 9300SOL    HW228800   0.075   4.543   5.456
 9301SOL     OW28801   5.425   5.123   4.058
 9301SOL    HW128802   5.418   5.196   4.127
 9301SOL    HW228803   5.522   5.103   4.040
 9302SOL     OW28804   2.376   2.348   4.098
 9302SOL    HW128805   2.306   2.299   4.047
 9302SOL    HW228806   2.425   2.410   4.036
 9303SOL     OW28807   2.555   4.146   0.686
 9303SOL    HW128808   2.628   4.086   0.719
 9303SOL    HW228809   2.555   4.147   0.586
 9304SOL     OW28810   4.049   4.686   1.805
 9304SOL    HW128811   4.133   4.639   1.832
 9304SOL    HW228812   3.991   4.697   1.886
 9305SOL     OW28813   3.385   1.207   0.827
 9305SOL    HW128814   3.409   1.284   0.885
 9305SOL    HW228815   3.403   1.229   0.732
 9306SOL     OW28816   0.081   5.631   5.127
 9306SOL    HW128817   0.078   5.701   5.056
 9306SOL    HW228818   0.142   5.662   5.201
 9307SOL     OW28819   1.609   3.194   1.574
 9307SOL    HW128820   1.538   3.161   1.511
 9307SOL    HW228821   1.583   3.172   1.668
 9308SOL     OW28822   2.636   3.131   0.467
 9308SOL    HW128823   2.643   3.042   0.422
 9308SOL    HW228824   2.560   3.130   0.532
 9309SOL     OW28825   3.921   4.465   5.667
 9309SOL    HW128826   3.846   4.400   5.652
 9309SOL    HW228827   4.008   4.421   5.644
 9310SOL     OW28828   4.764   5.293   6.549
 9310SOL    HW128829   4.727   5.308   6.457
 9310SOL    HW228830   4.828   5.216   6.547
 9311SOL     OW28831   4.563   4.586   1.474
 9311SOL    HW128832   4.655   4.599   1.512
 9311SOL    HW228833   4.498   4.643   1.524
 9312SOL     OW28834   1.105   3.729   1.006
 9312SOL    HW128835   1.090   3.691   0.916
 9312SOL    HW228836   1.044   3.807   1.020
 9313SOL     OW28837   0.620   0.703   0.853
 9313SOL    HW128838   0.666   0.682   0.939
 9313SOL    HW228839   0.532   0.747   0.871
 9314SOL     OW28840   5.427   4.558   0.041
 9314SOL    HW128841   5.367   4.631   0.008
 9314SOL    HW228842   5.518   4.596   0.060
 9315SOL     OW28843   6.282   0.048   5.031
 9315SOL    HW128844   6.244   6.998   5.085
 9315SOL    HW228845   6.254   0.136   5.071
 9316SOL     OW28846   5.649   6.428   6.145
 9316SOL    HW128847   5.716   6.388   6.082
 9316SOL    HW228848   5.582   6.480   6.093
 9317SOL     OW28849   5.596   5.013   3.451
 9317SOL    HW128850   5.566   4.965   3.533
 9317SOL    HW228851   5.539   4.986   3.373
 9318SOL     OW28852   5.586   0.732   6.215
 9318SOL    HW128853   5.563   0.762   6.308
 9318SOL    HW228854   5.641   0.801   6.170
 9319SOL     OW28855   2.718   2.431   6.734
 9319SOL    HW128856   2.707   2.373   6.815
 9319SOL    HW228857   2.628   2.461   6.703
 9320SOL     OW28858   3.561   0.350   5.347
 9320SOL    HW128859   3.515   0.411   5.411
 9320SOL    HW228860   3.563   0.392   5.256
 9321SOL     OW28861   0.262   0.444   4.233
 9321SOL    HW128862   0.212   0.522   4.194
 9321SOL    HW228863   0.303   0.391   4.159
 9322SOL     OW28864   6.735   3.746   6.095
 9322SOL    HW128865   6.672   3.789   6.030
 9322SOL    HW228866   6.686   3.721   6.178
 9323SOL     OW28867   1.510   0.748   5.744
 9323SOL    HW128868   1.467   0.660   5.762
 9323SOL    HW228869   1.502   0.769   5.646
 9324SOL     OW28870   1.239   4.319   1.364
 9324SOL    HW128871   1.239   4.259   1.444
 9324SOL    HW228872   1.272   4.409   1.389
 9325SOL     OW28873   5.848   1.211   0.175
 9325SOL    HW128874   5.835   1.309   0.162
 9325SOL    HW228875   5.806   1.161   0.099
 9326SOL     OW28876   2.271   5.080   0.632
 9326SOL    HW128877   2.357   5.037   0.607
 9326SOL    HW228878   2.276   5.178   0.616
 9327SOL     OW28879   5.315   0.321   2.656
 9327SOL    HW128880   5.360   0.310   2.745
 9327SOL    HW228881   5.314   0.233   2.608
 9328SOL     OW28882   2.691   1.018   5.053
 9328SOL    HW128883   2.722   1.001   5.146
 9328SOL    HW228884   2.714   1.111   5.026
 9329SOL     OW28885   6.138   3.798   0.791
 9329SOL    HW128886   6.161   3.805   0.888
 9329SOL    HW228887   6.116   3.703   0.769
 9330SOL     OW28888   6.345   0.299   5.738
 9330SOL    HW128889   6.308   0.386   5.773
 9330SOL    HW228890   6.440   0.312   5.710
 9331SOL     OW28891   2.112   1.097   0.371
 9331SOL    HW128892   2.050   1.032   0.416
 9331SOL    HW228893   2.113   1.078   0.273
 9332SOL     OW28894   4.063   4.341   0.856
 9332SOL    HW128895   3.980   4.386   0.887
 9332SOL    HW228896   4.050   4.241   0.859
 9333SOL     OW28897   4.060   3.903   6.850
 9333SOL    HW128898   4.160   3.910   6.842
 9333SOL    HW228899   4.017   3.956   6.777
 9334SOL     OW28900   5.408   6.073   3.689
 9334SOL    HW128901   5.462   6.156   3.690
 9334SOL    HW228902   5.432   6.017   3.610
 9335SOL     OW28903   1.066   0.888   6.957
 9335SOL    HW128904   0.989   0.949   6.943
 9335SOL    HW228905   1.101   0.858   6.868
 9336SOL     OW28906   3.383   6.048   5.359
 9336SOL    HW128907   3.288   6.070   5.382
 9336SOL    HW228908   3.406   6.089   5.271
 9337SOL     OW28909   4.048   1.671   4.611
 9337SOL    HW128910   4.111   1.695   4.537
 9337SOL    HW228911   4.086   1.596   4.665
 9338SOL     OW28912   6.224   0.197   1.436
 9338SOL    HW128913   6.124   0.190   1.438
 9338SOL    HW228914   6.263   0.107   1.415
 9339SOL     OW28915   6.108   6.156   1.090
 9339SOL    HW128916   6.043   6.081   1.077
 9339SOL    HW228917   6.124   6.202   1.002
 9340SOL     OW28918   4.774   4.583   2.979
 9340SOL    HW128919   4.798   4.664   3.032
 9340SOL    HW228920   4.803   4.595   2.884
 9341SOL     OW28921   0.048   5.034   1.087
 9341SOL    HW128922   7.016   4.971   1.141
 9341SOL    HW228923   0.127   5.063   1.142
 9342SOL     OW28924   3.264   6.387   3.439
 9342SOL    HW128925   3.170   6.423   3.438
 9342SOL    HW228926   3.328   6.462   3.452
 9343SOL     OW28927   5.142   4.167   1.622
 9343SOL    HW128928   5.046   4.146   1.642
 9343SOL    HW228929   5.181   4.217   1.699
 9344SOL     OW28930   5.263   6.779   2.351
 9344SOL    HW128931   5.201   6.741   2.419
 9344SOL    HW228932   5.243   6.738   2.262
 9345SOL     OW28933   6.636   5.820   1.907
 9345SOL    HW128934   6.562   5.759   1.936
 9345SOL    HW228935   6.602   5.913   1.902
 9346SOL     OW28936   5.891   1.077   1.171
 9346SOL    HW128937   5.835   1.159   1.160
 9346SOL    HW228938   5.939   1.058   1.085
 9347SOL     OW28939   3.403   3.998   0.499
 9347SOL    HW128940   3.457   3.914   0.497
 9347SOL    HW228941   3.344   3.998   0.580
 9348SOL     OW28942   2.327   6.170   2.926
 9348SOL    HW128943   2.358   6.091   2.979
 9348SOL    HW228944   2.346   6.156   2.829
 9349SOL     OW28945   6.739   5.027   2.330
 9349SOL    HW128946   6.784   4.965   2.266
 9349SOL    HW228947   6.772   5.120   2.314
 9350SOL     OW28948   6.876   2.812   5.312
 9350SOL    HW128949   6.925   2.880   5.367
 9350SOL    HW228950   6.833   2.857   5.234
 9351SOL     OW28951   3.461   6.443   6.180
 9351SOL    HW128952   3.466   6.428   6.279
 9351SOL    HW228953   3.451   6.541   6.162
 9352SOL     OW28954   3.906   1.686   6.135
 9352SOL    HW128955   3.889   1.777   6.173
 9352SOL    HW228956   3.847   1.672   6.055
 9353SOL     OW28957   1.125   4.138   0.948
 9353SOL    HW128958   1.210   4.091   0.972
 9353SOL    HW228959   1.048   4.087   0.985
 9354SOL     OW28960   0.024   2.119   6.085
 9354SOL    HW128961   0.116   2.104   6.047
 9354SOL    HW228962   6.981   2.072   6.028
 9355SOL     OW28963   0.186   1.896   4.346
 9355SOL    HW128964   0.143   1.986   4.357
 9355SOL    HW228965   0.134   1.828   4.396
 9356SOL     OW28966   4.685   6.595   2.147
 9356SOL    HW128967   4.722   6.506   2.174
 9356SOL    HW228968   4.655   6.645   2.228
 9357SOL     OW28969   1.584   3.942   6.484
 9357SOL    HW128970   1.638   3.895   6.415
 9357SOL    HW228971   1.644   3.982   6.553
 9358SOL     OW28972   0.221   3.106   1.530
 9358SOL    HW128973   0.301   3.081   1.584
 9358SOL    HW228974   0.206   3.205   1.537
 9359SOL     OW28975   1.726   3.829   5.654
 9359SOL    HW128976   1.706   3.774   5.572
 9359SOL    HW228977   1.821   3.817   5.680
 9360SOL     OW28978   0.954   4.947   6.619
 9360SOL    HW128979   0.910   5.036   6.605
 9360SOL    HW228980   1.047   4.949   6.582
 9361SOL     OW28981   1.693   5.267   2.731
 9361SOL    HW128982   1.643   5.220   2.658
 9361SOL    HW228983   1.628   5.312   2.793
 9362SOL     OW28984   2.087   2.647   2.974
 9362SOL    HW128985   2.086   2.547   2.986
 9362SOL    HW228986   2.172   2.684   3.010
 9363SOL     OW28987   3.409   6.467   2.033
 9363SOL    HW128988   3.500   6.427   2.042
 9363SOL    HW228989   3.345   6.397   2.002
 9364SOL     OW28990   3.173   3.107   6.219
 9364SOL    HW128991   3.246   3.168   6.189
 9364SOL    HW228992   3.087   3.134   6.176
 9365SOL     OW28993   2.505   2.134   3.916
 9365SOL    HW128994   2.551   2.136   4.004
 9365SOL    HW228995   2.406   2.137   3.930
 9366SOL     OW28996   3.842   5.803   5.961
 9366SOL    HW128997   3.749   5.824   5.928
 9366SOL    HW228998   3.837   5.765   6.053
 9367SOL     OW28999   0.255   6.644   2.688
 9367SOL    HW129000   0.285   6.580   2.617
 9367SOL    HW229001   0.165   6.681   2.664
 9368SOL     OW29002   2.881   0.656   2.779
 9368SOL    HW129003   2.838   0.588   2.838
 9368SOL    HW229004   2.945   0.611   2.717
 9369SOL     OW29005   6.714   6.257   4.162
 9369SOL    HW129006   6.620   6.286   4.174
 9369SOL    HW229007   6.775   6.327   4.201
 9370SOL     OW29008   5.552   0.302   3.655
 9370SOL    HW129009   5.454   0.309   3.635
 9370SOL    HW229010   5.567   0.234   3.727
 9371SOL     OW29011   2.911   5.149   0.899
 9371SOL    HW129012   2.926   5.055   0.930
 9371SOL    HW229013   2.986   5.207   0.929
 9372SOL     OW29014   4.640   0.833   1.482
 9372SOL    HW129015   4.717   0.784   1.442
 9372SOL    HW229016   4.674   0.902   1.546
 9373SOL     OW29017   4.908   2.002   1.934
 9373SOL    HW129018   4.867   2.090   1.909
 9373SOL    HW229019   4.939   2.005   2.029
 9374SOL     OW29020   0.418   3.478   0.255
 9374SOL    HW129021   0.324   3.478   0.220
 9374SOL    HW229022   0.429   3.550   0.323
 9375SOL     OW29023   1.002   1.227   1.372
 9375SOL    HW129024   1.043   1.313   1.340
 9375SOL    HW229025   1.066   1.152   1.356
 9376SOL     OW29026   2.271   4.153   1.407
 9376SOL    HW129027   2.369   4.166   1.401
 9376SOL    HW229028   2.239   4.182   1.498
 9377SOL     OW29029   1.813   5.228   3.284
 9377SOL    HW129030   1.726   5.193   3.320
 9377SOL    HW229031   1.795   5.288   3.206
 9378SOL     OW29032   2.171   0.911   3.719
 9378SOL    HW129033   2.255   0.957   3.689
 9378SOL    HW229034   2.177   0.814   3.696
 9379SOL     OW29035   4.820   0.264   5.012
 9379SOL    HW129036   4.749   0.310   4.959
 9379SOL    HW229037   4.778   0.211   5.085
 9380SOL     OW29038   4.270   5.974   5.948
 9380SOL    HW129039   4.188   5.985   5.892
 9380SOL    HW229040   4.339   6.040   5.920
 9381SOL     OW29041   4.497   3.165   5.684
 9381SOL    HW129042   4.552   3.186   5.765
 9381SOL    HW229043   4.555   3.123   5.614
 9382SOL     OW29044   3.454   0.622   4.126
 9382SOL    HW129045   3.521   0.647   4.196
 9382SOL    HW229046   3.407   0.538   4.154
 9383SOL     OW29047   5.741   5.655   4.292
 9383SOL    HW129048   5.733   5.749   4.323
 9383SOL    HW229049   5.650   5.617   4.274
 9384SOL     OW29050   4.418   0.493   2.086
 9384SOL    HW129051   4.460   0.428   2.148
 9384SOL    HW229052   4.350   0.548   2.135
 9385SOL     OW29053   3.642   1.538   3.733
 9385SOL    HW129054   3.687   1.465   3.681
 9385SOL    HW229055   3.657   1.524   3.831
 9386SOL     OW29056   3.489   6.125   5.121
 9386SOL    HW129057   3.430   6.170   5.054
 9386SOL    HW229058   3.539   6.051   5.076
 9387SOL     OW29059   2.851   2.089   0.250
 9387SOL    HW129060   2.789   2.107   0.173
 9387SOL    HW229061   2.815   2.012   0.303
 9388SOL     OW29062   2.793   5.855   3.329
 9388SOL    HW129063   2.835   5.796   3.398
 9388SOL    HW229064   2.721   5.910   3.371
 9389SOL     OW29065   2.318   0.266   3.536
 9389SOL    HW129066   2.287   0.307   3.450
 9389SOL    HW229067   2.414   0.288   3.551
 9390SOL     OW29068   5.221   4.696   6.269
 9390SOL    HW129069   5.205   4.625   6.339
 9390SOL    HW229070   5.134   4.739   6.245
 9391SOL     OW29071   1.723   0.915   5.360
 9391SOL    HW129072   1.797   0.867   5.408
 9391SOL    HW229073   1.717   1.009   5.393
 9392SOL     OW29074   5.348   5.594   5.748
 9392SOL    HW129075   5.335   5.560   5.655
 9392SOL    HW229076   5.398   5.680   5.746
 9393SOL     OW29077   3.160   6.658   6.311
 9393SOL    HW129078   3.076   6.704   6.283
 9393SOL    HW229079   3.171   6.574   6.257
 9394SOL     OW29080   6.657   0.695   1.773
 9394SOL    HW129081   6.719   0.665   1.846
 9394SOL    HW229082   6.640   0.793   1.781
 9395SOL     OW29083   3.219   0.957   1.325
 9395SOL    HW129084   3.218   0.864   1.361
 9395SOL    HW229085   3.159   0.963   1.245
 9396SOL     OW29086   2.130   4.020   4.246
 9396SOL    HW129087   2.106   3.951   4.314
 9396SOL    HW229088   2.125   3.980   4.155
 9397SOL     OW29089   3.552   6.422   6.485
 9397SOL    HW129090   3.604   6.372   6.553
 9397SOL    HW229091   3.455   6.403   6.496
 9398SOL     OW29092   6.033   0.689   5.284
 9398SOL    HW129093   6.115   0.633   5.297
 9398SOL    HW229094   6.059   0.782   5.258
 9399SOL     OW29095   0.990   2.762   5.289
 9399SOL    HW129096   0.982   2.765   5.389
 9399SOL    HW229097   1.069   2.817   5.260
 9400SOL     OW29098   5.522   1.105   1.052
 9400SOL    HW129099   5.451   1.111   0.982
 9400SOL    HW229100   5.601   1.161   1.025
 9401SOL     OW29101   6.429   1.399   3.015
 9401SOL    HW129102   6.441   1.362   2.923
 9401SOL    HW229103   6.515   1.442   3.045
 9402SOL     OW29104   1.543   5.120   3.102
 9402SOL    HW129105   1.536   5.060   3.181
 9402SOL    HW229106   1.481   5.198   3.114
 9403SOL     OW29107   6.417   1.245   2.022
 9403SOL    HW129108   6.499   1.297   1.998
 9403SOL    HW229109   6.441   1.171   2.085
 9404SOL     OW29110   1.128   2.400   0.715
 9404SOL    HW129111   1.210   2.344   0.710
 9404SOL    HW229112   1.052   2.346   0.752
 9405SOL     OW29113   2.083   3.972   3.993
 9405SOL    HW129114   2.114   4.064   3.971
 9405SOL    HW229115   2.089   3.914   3.911
 9406SOL     OW29116   0.809   2.765   6.672
 9406SOL    HW129117   0.809   2.764   6.772
 9406SOL    HW229118   0.872   2.696   6.638
 9407SOL     OW29119   2.557   4.576   3.335
 9407SOL    HW129120   2.586   4.619   3.420
 9407SOL    HW229121   2.463   4.601   3.315
 9408SOL     OW29122   6.790   2.939   5.948
 9408SOL    HW129123   6.884   2.904   5.959
 9408SOL    HW229124   6.776   3.017   6.010
 9409SOL     OW29125   6.510   5.568   0.988
 9409SOL    HW129126   6.581   5.501   0.967
 9409SOL    HW229127   6.511   5.589   1.085
 9410SOL     OW29128   1.760   0.742   2.397
 9410SOL    HW129129   1.716   0.702   2.477
 9410SOL    HW229130   1.697   0.805   2.351
 9411SOL     OW29131   3.837   3.997   3.142
 9411SOL    HW129132   3.790   3.944   3.212
 9411SOL    HW229133   3.850   4.091   3.173
 9412SOL     OW29134   1.890   1.129   2.238
 9412SOL    HW129135   1.859   1.212   2.192
 9412SOL    HW229136   1.982   1.106   2.207
 9413SOL     OW29137   4.178   5.051   3.732
 9413SOL    HW129138   4.118   4.996   3.674
 9413SOL    HW229139   4.244   4.992   3.777
 9414SOL     OW29140   2.752   1.319   3.372
 9414SOL    HW129141   2.718   1.234   3.331
 9414SOL    HW229142   2.839   1.302   3.417
 9415SOL     OW29143   1.939   0.104   2.663
 9415SOL    HW129144   1.965   0.010   2.684
 9415SOL    HW229145   1.945   0.160   2.746
 9416SOL     OW29146   0.065   1.189   6.234
 9416SOL    HW129147   7.022   1.119   6.212
 9416SOL    HW229148   0.118   1.211   6.152
 9417SOL     OW29149   3.545   0.636   1.032
 9417SOL    HW129150   3.517   0.710   0.970
 9417SOL    HW229151   3.644   0.640   1.045
 9418SOL     OW29152   2.567   0.909   1.417
 9418SOL    HW129153   2.571   0.913   1.317
 9418SOL    HW229154   2.619   0.830   1.449
 9419SOL     OW29155   2.248   3.854   6.732
 9419SOL    HW129156   2.338   3.885   6.759
 9419SOL    HW229157   2.233   3.874   6.635
 9420SOL     OW29158   5.355   4.864   1.171
 9420SOL    HW129159   5.383   4.858   1.075
 9420SOL    HW229160   5.289   4.939   1.182
 9421SOL     OW29161   2.974   6.153   4.739
 9421SOL    HW129162   3.050   6.090   4.750
 9421SOL    HW229163   2.968   6.182   4.643
 9422SOL     OW29164   3.003   5.478   3.078
 9422SOL    HW129165   3.026   5.419   3.155
 9422SOL    HW229166   2.938   5.431   3.018
 9423SOL     OW29167   3.562   6.188   3.629
 9423SOL    HW129168   3.658   6.174   3.606
 9423SOL    HW229169   3.517   6.099   3.641
 9424SOL     OW29170   4.855   2.582   4.159
 9424SOL    HW129171   4.930   2.625   4.209
 9424SOL    HW229172   4.871   2.590   4.060
 9425SOL     OW29173   5.001   4.121   1.255
 9425SOL    HW129174   4.938   4.164   1.320
 9425SOL    HW229175   4.991   4.022   1.259
 9426SOL     OW29176   3.245   1.886   6.183
 9426SOL    HW129177   3.239   1.851   6.276
 9426SOL    HW229178   3.262   1.810   6.120
 9427SOL     OW29179   2.831   5.264   3.433
 9427SOL    HW129180   2.733   5.282   3.422
 9427SOL    HW229181   2.844   5.194   3.504
 9428SOL     OW29182   0.194   6.978   1.111
 9428SOL    HW129183   0.289   6.951   1.128
 9428SOL    HW229184   0.186   7.015   1.018
 9429SOL     OW29185   1.850   3.542   3.621
 9429SOL    HW129186   1.824   3.520   3.715
 9429SOL    HW229187   1.938   3.501   3.600
 9430SOL     OW29188   0.244   2.798   5.106
 9430SOL    HW129189   0.240   2.895   5.130
 9430SOL    HW229190   0.258   2.789   5.007
 9431SOL     OW29191   6.633   4.511   0.990
 9431SOL    HW129192   6.680   4.488   0.904
 9431SOL    HW229193   6.649   4.438   1.056
 9432SOL     OW29194   6.252   0.391   3.920
 9432SOL    HW129195   6.257   0.360   4.015
 9432SOL    HW229196   6.157   0.387   3.889
 9433SOL     OW29197   3.012   6.332   2.974
 9433SOL    HW129198   3.085   6.266   2.993
 9433SOL    HW229199   2.944   6.290   2.914
 9434SOL     OW29200   5.627   5.766   2.054
 9434SOL    HW129201   5.625   5.687   1.993
 9434SOL    HW229202   5.680   5.743   2.136
 9435SOL     OW29203   6.828   2.375   3.306
 9435SOL    HW129204   6.748   2.320   3.286
 9435SOL    HW229205   6.884   2.384   3.223
 9436SOL     OW29206   1.756   2.442   2.155
 9436SOL    HW129207   1.775   2.512   2.086
 9436SOL    HW229208   1.658   2.441   2.175
 9437SOL     OW29209   0.163   6.028   3.068
 9437SOL    HW129210   0.230   6.007   2.997
 9437SOL    HW229211   0.085   5.966   3.059
 9438SOL     OW29212   0.993   0.192   1.815
 9438SOL    HW129213   0.900   0.163   1.835
 9438SOL    HW229214   1.032   0.239   1.894
 9439SOL     OW29215   0.673   3.211   0.488
 9439SOL    HW129216   0.681   3.262   0.403
 9439SOL    HW229217   0.576   3.205   0.515
 9440SOL     OW29218   3.450   4.929   3.478
 9440SOL    HW129219   3.411   5.017   3.508
 9440SOL    HW229220   3.549   4.932   3.487
 9441SOL     OW29221   5.852   4.816   5.943
 9441SOL    HW129222   5.773   4.833   5.883
 9441SOL    HW229223   5.911   4.747   5.901
 9442SOL     OW29224   5.747   3.892   1.775
 9442SOL    HW129225   5.701   3.810   1.740
 9442SOL    HW229226   5.729   3.901   1.873
 9443SOL     OW29227   2.658   5.619   0.266
 9443SOL    HW129228   2.629   5.528   0.235
 9443SOL    HW229229   2.587   5.658   0.325
 9444SOL     OW29230   2.147   3.920   0.464
 9444SOL    HW129231   2.120   3.908   0.559
 9444SOL    HW229232   2.228   3.865   0.445
 9445SOL     OW29233   6.413   3.614   3.717
 9445SOL    HW129234   6.484   3.577   3.777
 9445SOL    HW229235   6.337   3.549   3.711
 9446SOL     OW29236   6.445   5.511   5.054
 9446SOL    HW129237   6.535   5.553   5.046
 9446SOL    HW229238   6.388   5.564   5.116
 9447SOL     OW29239   5.599   4.300   3.532
 9447SOL    HW129240   5.672   4.343   3.480
 9447SOL    HW229241   5.635   4.268   3.620
 9448SOL     OW29242   6.485   0.519   5.957
 9448SOL    HW129243   6.516   0.435   6.001
 9448SOL    HW229244   6.564   0.574   5.931
 9449SOL     OW29245   5.499   6.826   0.319
 9449SOL    HW129246   5.435   6.894   0.283
 9449SOL    HW229247   5.508   6.751   0.254
 9450SOL     OW29248   2.393   5.982   3.108
 9450SOL    HW129249   2.355   5.936   3.188
 9450SOL    HW229250   2.493   5.982   3.113
 9451SOL     OW29251   4.810   5.914   5.544
 9451SOL    HW129252   4.776   6.007   5.556
 9451SOL    HW229253   4.748   5.864   5.482
 9452SOL     OW29254   1.456   4.391   0.363
 9452SOL    HW129255   1.520   4.330   0.409
 9452SOL    HW229256   1.424   4.460   0.428
 9453SOL     OW29257   2.811   5.646   2.758
 9453SOL    HW129258   2.753   5.584   2.810
 9453SOL    HW229259   2.891   5.670   2.812
 9454SOL     OW29260   3.509   3.466   6.721
 9454SOL    HW129261   3.466   3.550   6.687
 9454SOL    HW229262   3.554   3.419   6.645
 9455SOL     OW29263   3.264   1.911   3.780
 9455SOL    HW129264   3.191   1.936   3.716
 9455SOL    HW229265   3.289   1.991   3.835
 9456SOL     OW29266   6.666   3.595   0.650
 9456SOL    HW129267   6.571   3.561   0.650
 9456SOL    HW229268   6.727   3.523   0.620
 9457SOL     OW29269   1.258   4.548   4.009
 9457SOL    HW129270   1.197   4.603   4.066
 9457SOL    HW229271   1.209   4.517   3.928
 9458SOL     OW29272   0.378   3.520   6.215
 9458SOL    HW129273   0.383   3.620   6.204
 9458SOL    HW229274   0.298   3.486   6.165
 9459SOL     OW29275   5.612   4.482   3.872
 9459SOL    HW129276   5.514   4.464   3.869
 9459SOL    HW229277   5.639   4.509   3.964
 9460SOL     OW29278   2.030   3.535   5.061
 9460SOL    HW129279   2.050   3.596   5.138
 9460SOL    HW229280   2.067   3.444   5.081
 9461SOL     OW29281   0.627   1.706   1.296
 9461SOL    HW129282   0.540   1.683   1.340
 9461SOL    HW229283   0.621   1.685   1.198
 9462SOL     OW29284   1.340   2.542   3.585
 9462SOL    HW129285   1.369   2.623   3.535
 9462SOL    HW229286   1.395   2.531   3.668
 9463SOL     OW29287   5.969   0.419   1.364
 9463SOL    HW129288   5.879   0.461   1.377
 9463SOL    HW229289   6.022   0.425   1.449
 9464SOL     OW29290   5.784   0.335   0.935
 9464SOL    HW129291   5.759   0.383   1.019
 9464SOL    HW229292   5.882   0.347   0.918
 9465SOL     OW29293   0.017   3.865   1.882
 9465SOL    HW129294   0.023   3.814   1.796
 9465SOL    HW229295   6.948   3.860   1.917
 9466SOL     OW29296   3.231   4.804   5.327
 9466SOL    HW129297   3.203   4.883   5.271
 9466SOL    HW229298   3.151   4.746   5.344
 9467SOL     OW29299   0.966   3.264   1.246
 9467SOL    HW129300   0.955   3.168   1.219
 9467SOL    HW229301   0.963   3.322   1.165
 9468SOL     OW29302   5.190   4.262   6.301
 9468SOL    HW129303   5.107   4.294   6.346
 9468SOL    HW229304   5.270   4.284   6.358
 9469SOL     OW29305   0.562   5.830   1.637
 9469SOL    HW129306   0.562   5.868   1.544
 9469SOL    HW229307   0.612   5.891   1.698
 9470SOL     OW29308   5.176   3.378   0.236
 9470SOL    HW129309   5.230   3.455   0.269
 9470SOL    HW229310   5.141   3.398   0.145
 9471SOL     OW29311   6.831   2.420   4.326
 9471SOL    HW129312   6.825   2.322   4.310
 9471SOL    HW229313   6.872   2.465   4.247
 9472SOL     OW29314   0.025   3.029   5.389
 9472SOL    HW129315   0.124   3.021   5.378
 9472SOL    HW229316   0.005   3.106   5.449
 9473SOL     OW29317   3.306   4.605   0.274
 9473SOL    HW129318   3.377   4.638   0.213
 9473SOL    HW229319   3.344   4.592   0.366
 9474SOL     OW29320   6.618   3.428   1.084
 9474SOL    HW129321   6.605   3.452   1.180
 9474SOL    HW229322   6.584   3.503   1.027
 9475SOL     OW29323   3.857   3.269   0.495
 9475SOL    HW129324   3.859   3.213   0.578
 9475SOL    HW229325   3.832   3.212   0.417
 9476SOL     OW29326   4.026   3.904   4.490
 9476SOL    HW129327   4.075   3.896   4.577
 9476SOL    HW229328   4.047   3.825   4.433
 9477SOL     OW29329   0.521   2.694   1.159
 9477SOL    HW129330   0.605   2.690   1.106
 9477SOL    HW229331   0.542   2.700   1.256
 9478SOL     OW29332   5.209   3.484   1.455
 9478SOL    HW129333   5.167   3.535   1.530
 9478SOL    HW229334   5.143   3.420   1.417
 9479SOL     OW29335   4.417   6.382   0.465
 9479SOL    HW129336   4.485   6.454   0.482
 9479SOL    HW229337   4.392   6.340   0.552
 9480SOL     OW29338   5.933   5.272   0.569
 9480SOL    HW129339   6.011   5.288   0.629
 9480SOL    HW229340   5.904   5.358   0.527
 9481SOL     OW29341   4.799   2.936   2.598
 9481SOL    HW129342   4.887   2.903   2.565
 9481SOL    HW229343   4.753   2.988   2.527
 9482SOL     OW29344   0.717   0.596   2.767
 9482SOL    HW129345   0.789   0.535   2.800
 9482SOL    HW229346   0.727   0.686   2.810
 9483SOL     OW29347   1.213   0.281   0.931
 9483SOL    HW129348   1.287   0.317   0.875
 9483SOL    HW229349   1.178   0.353   0.992
 9484SOL     OW29350   3.911   6.904   4.478
 9484SOL    HW129351   3.833   6.951   4.519
 9484SOL    HW229352   3.970   6.971   4.433
 9485SOL     OW29353   0.353   1.143   0.986
 9485SOL    HW129354   0.418   1.114   1.056
 9485SOL    HW229355   0.402   1.190   0.913
 9486SOL     OW29356   4.264   6.069   0.796
 9486SOL    HW129357   4.363   6.067   0.813
 9486SOL    HW229358   4.224   5.981   0.821
 9487SOL     OW29359   3.128   3.999   3.913
 9487SOL    HW129360   3.057   3.932   3.932
 9487SOL    HW229361   3.089   4.075   3.861
 9488SOL     OW29362   2.713   7.016   0.944
 9488SOL    HW129363   2.618   7.001   0.918
 9488SOL    HW229364   2.720   0.075   0.999
 9489SOL     OW29365   4.996   4.640   1.765
 9489SOL    HW129366   4.911   4.693   1.767
 9489SOL    HW229367   5.018   4.616   1.670
 9490SOL     OW29368   6.374   5.530   3.208
 9490SOL    HW129369   6.352   5.538   3.111
 9490SOL    HW229370   6.309   5.584   3.262
 9491SOL     OW29371   5.057   4.875   3.934
 9491SOL    HW129372   5.065   4.893   4.032
 9491SOL    HW229373   5.097   4.786   3.913
 9492SOL     OW29374   3.819   3.590   4.527
 9492SOL    HW129375   3.888   3.645   4.481
 9492SOL    HW229376   3.836   3.493   4.509
 9493SOL     OW29377   2.810   5.817   4.403
 9493SOL    HW129378   2.763   5.879   4.466
 9493SOL    HW229379   2.848   5.740   4.454
 9494SOL     OW29380   5.427   2.817   2.941
 9494SOL    HW129381   5.344   2.858   2.904
 9494SOL    HW229382   5.421   2.717   2.934
 9495SOL     OW29383   6.910   2.329   3.055
 9495SOL    HW129384   6.889   2.233   3.039
 9495SOL    HW229385   6.880   2.383   2.976
 9496SOL     OW29386   6.148   3.645   1.723
 9496SOL    HW129387   6.054   3.615   1.708
 9496SOL    HW229388   6.185   3.599   1.804
 9497SOL     OW29389   5.258   5.970   5.625
 9497SOL    HW129390   5.351   5.964   5.661
 9497SOL    HW229391   5.242   5.895   5.561
 9498SOL     OW29392   5.518   5.433   4.599
 9498SOL    HW129393   5.512   5.528   4.630
 9498SOL    HW229394   5.614   5.410   4.585
 9499SOL     OW29395   1.548   5.537   6.117
 9499SOL    HW129396   1.521   5.450   6.074
 9499SOL    HW229397   1.594   5.595   6.049
 9500SOL     OW29398   4.667   6.913   0.391
 9500SOL    HW129399   4.753   6.869   0.368
 9500SOL    HW229400   4.612   6.926   0.308
 9501SOL     OW29401   2.643   1.274   4.976
 9501SOL    HW129402   2.667   1.352   5.034
 9501SOL    HW229403   2.548   1.281   4.948
 9502SOL     OW29404   5.846   2.677   4.763
 9502SOL    HW129405   5.761   2.690   4.712
 9502SOL    HW229406   5.908   2.619   4.711
 9503SOL     OW29407   0.568   1.764   0.280
 9503SOL    HW129408   0.538   1.670   0.265
 9503SOL    HW229409   0.544   1.819   0.200
 9504SOL     OW29410   6.834   3.273   0.937
 9504SOL    HW129411   6.825   3.181   0.973
 9504SOL    HW229412   6.750   3.325   0.955
 9505SOL     OW29413   5.503   4.793   5.002
 9505SOL    HW129414   5.495   4.697   5.030
 9505SOL    HW229415   5.576   4.837   5.055
 9506SOL     OW29416   1.769   2.819   0.171
 9506SOL    HW129417   1.750   2.855   0.263
 9506SOL    HW229418   1.749   2.889   0.103
 9507SOL     OW29419   0.698   1.033   1.992
 9507SOL    HW129420   0.606   1.069   2.005
 9507SOL    HW229421   0.756   1.102   1.949
 9508SOL     OW29422   5.904   2.481   2.113
 9508SOL    HW129423   5.881   2.423   2.190
 9508SOL    HW229424   5.824   2.495   2.055
 9509SOL     OW29425   0.246   0.911   4.173
 9509SOL    HW129426   0.212   0.973   4.244
 9509SOL    HW229427   0.289   0.965   4.100
 9510SOL     OW29428   1.297   3.886   3.774
 9510SOL    HW129429   1.395   3.900   3.786
 9510SOL    HW229430   1.266   3.933   3.692
 9511SOL     OW29431   2.073   6.974   1.129
 9511SOL    HW129432   2.067   7.002   1.033
 9511SOL    HW229433   1.993   7.009   1.179
 9512SOL     OW29434   6.347   1.686   1.048
 9512SOL    HW129435   6.270   1.726   1.096
 9512SOL    HW229436   6.326   1.592   1.022
 9513SOL     OW29437   2.136   4.110   5.604
 9513SOL    HW129438   2.209   4.116   5.672
 9513SOL    HW229439   2.107   4.202   5.578
 9514SOL     OW29440   2.229   5.277   5.979
 9514SOL    HW129441   2.152   5.338   5.995
 9514SOL    HW229442   2.285   5.271   6.062
 9515SOL     OW29443   1.864   5.567   1.450
 9515SOL    HW129444   1.828   5.659   1.466
 9515SOL    HW229445   1.927   5.542   1.523
 9516SOL     OW29446   5.653   5.046   6.788
 9516SOL    HW129447   5.650   4.971   6.722
 9516SOL    HW229448   5.660   5.134   6.740
 9517SOL     OW29449   1.642   3.608   1.452
 9517SOL    HW129450   1.673   3.686   1.397
 9517SOL    HW229451   1.550   3.581   1.424
 9518SOL     OW29452   1.433   1.916   0.447
 9518SOL    HW129453   1.436   1.904   0.547
 9518SOL    HW229454   1.482   1.841   0.403
 9519SOL     OW29455   3.365   3.087   5.299
 9519SOL    HW129456   3.309   3.016   5.343
 9519SOL    HW229457   3.453   3.093   5.346
 9520SOL     OW29458   2.518   1.585   2.871
 9520SOL    HW129459   2.461   1.630   2.939
 9520SOL    HW229460   2.614   1.590   2.900
 9521SOL     OW29461   5.004   5.839   2.415
 9521SOL    HW129462   4.965   5.890   2.491
 9521SOL    HW229463   4.986   5.888   2.329
 9522SOL     OW29464   2.797   5.613   1.104
 9522SOL    HW129465   2.740   5.563   1.039
 9522SOL    HW229466   2.805   5.560   1.189
 9523SOL     OW29467   3.832   5.212   4.922
 9523SOL    HW129468   3.841   5.309   4.902
 9523SOL    HW229469   3.759   5.198   4.988
 9524SOL     OW29470   3.680   1.959   1.189
 9524SOL    HW129471   3.639   1.979   1.278
 9524SOL    HW229472   3.634   2.014   1.119
 9525SOL     OW29473   2.317   2.624   5.828
 9525SOL    HW129474   2.249   2.648   5.898
 9525SOL    HW229475   2.288   2.541   5.781
 9526SOL     OW29476   4.688   5.434   2.128
 9526SOL    HW129477   4.705   5.498   2.203
 9526SOL    HW229478   4.635   5.480   2.056
 9527SOL     OW29479   1.049   0.729   2.814
 9527SOL    HW129480   0.963   0.766   2.849
 9527SOL    HW229481   1.037   0.633   2.790
 9528SOL     OW29482   6.528   0.484   0.492
 9528SOL    HW129483   6.485   0.569   0.464
 9528SOL    HW229484   6.480   0.447   0.572
 9529SOL     OW29485   6.320   3.011   5.681
 9529SOL    HW129486   6.336   2.914   5.663
 9529SOL    HW229487   6.223   3.032   5.667
 9530SOL     OW29488   1.775   3.128   2.561
 9530SOL    HW129489   1.874   3.116   2.563
 9530SOL    HW229490   1.732   3.061   2.621
 9531SOL     OW29491   4.487   6.182   2.785
 9531SOL    HW129492   4.560   6.250   2.786
 9531SOL    HW229493   4.522   6.097   2.745
 9532SOL     OW29494   0.273   6.252   2.154
 9532SOL    HW129495   0.281   6.351   2.153
 9532SOL    HW229496   0.355   6.211   2.114
 9533SOL     OW29497   6.724   0.584   5.093
 9533SOL    HW129498   6.636   0.538   5.090
 9533SOL    HW229499   6.715   0.677   5.057
 9534SOL     OW29500   5.997   3.272   5.222
 9534SOL    HW129501   5.909   3.295   5.265
 9534SOL    HW229502   6.068   3.265   5.292
 9535SOL     OW29503   2.308   1.200   5.727
 9535SOL    HW129504   2.381   1.264   5.750
 9535SOL    HW229505   2.306   1.187   5.628
 9536SOL     OW29506   3.139   4.992   5.130
 9536SOL    HW129507   3.209   4.952   5.071
 9536SOL    HW229508   3.060   4.932   5.134
 9537SOL     OW29509   2.357   6.720   2.362
 9537SOL    HW129510   2.373   6.706   2.264
 9537SOL    HW229511   2.445   6.730   2.409
 9538SOL     OW29512   6.554   1.862   3.663
 9538SOL    HW129513   6.596   1.870   3.753
 9538SOL    HW229514   6.466   1.910   3.662
 9539SOL     OW29515   1.905   3.436   5.562
 9539SOL    HW129516   1.951   3.518   5.526
 9539SOL    HW229517   1.870   3.382   5.486
 9540SOL     OW29518   5.000   3.566   4.268
 9540SOL    HW129519   4.970   3.473   4.288
 9540SOL    HW229520   5.098   3.574   4.284
 9541SOL     OW29521   3.210   2.035   5.704
 9541SOL    HW129522   3.299   1.990   5.713
 9541SOL    HW229523   3.200   2.072   5.612
 9542SOL     OW29524   5.078   3.738   4.705
 9542SOL    HW129525   5.041   3.810   4.764
 9542SOL    HW229526   5.005   3.700   4.648
 9543SOL     OW29527   3.350   0.766   4.492
 9543SOL    HW129528   3.336   0.670   4.517
 9543SOL    HW229529   3.284   0.790   4.420
 9544SOL     OW29530   0.110   1.294   2.620
 9544SOL    HW129531   0.110   1.381   2.669
 9544SOL    HW229532   0.170   1.229   2.667
 9545SOL     OW29533   6.627   4.678   3.602
 9545SOL    HW129534   6.700   4.743   3.623
 9545SOL    HW229535   6.554   4.687   3.669
 9546SOL     OW29536   2.434   2.420   5.394
 9546SOL    HW129537   2.478   2.431   5.304
 9546SOL    HW229538   2.382   2.503   5.415
 9547SOL     OW29539   1.987   5.576   3.597
 9547SOL    HW129540   1.997   5.673   3.577
 9547SOL    HW229541   2.026   5.522   3.522
 9548SOL     OW29542   5.967   6.275   4.655
 9548SOL    HW129543   6.012   6.192   4.687
 9548SOL    HW229544   6.020   6.315   4.580
 9549SOL     OW29545   3.009   3.808   1.276
 9549SOL    HW129546   3.068   3.729   1.256
 9549SOL    HW229547   2.913   3.779   1.275
 9550SOL     OW29548   0.046   1.191   0.101
 9550SOL    HW129549   0.118   1.252   0.066
 9550SOL    HW229550   6.997   1.184   0.033
 9551SOL     OW29551   6.760   0.728   4.476
 9551SOL    HW129552   6.844   0.725   4.422
 9551SOL    HW229553   6.700   0.653   4.448
 9552SOL     OW29554   1.133   5.993   2.086
 9552SOL    HW129555   1.113   6.073   2.143
 9552SOL    HW229556   1.196   5.933   2.133
 9553SOL     OW29557   6.089   4.292   6.672
 9553SOL    HW129558   6.186   4.267   6.679
 9553SOL    HW229559   6.062   4.296   6.576
 9554SOL     OW29560   2.548   0.236   1.305
 9554SOL    HW129561   2.566   0.145   1.344
 9554SOL    HW229562   2.483   0.285   1.363
 9555SOL     OW29563   0.564   0.794   1.226
 9555SOL    HW129564   0.469   0.763   1.217
 9555SOL    HW229565   0.625   0.727   1.186
 9556SOL     OW29566   2.699   2.395   1.108
 9556SOL    HW129567   2.599   2.398   1.107
 9556SOL    HW229568   2.730   2.319   1.165
 9557SOL     OW29569   6.544   1.044   2.836
 9557SOL    HW129570   6.640   1.062   2.856
 9557SOL    HW229571   6.523   1.073   2.742
 9558SOL     OW29572   5.841   5.639   4.053
 9558SOL    HW129573   5.815   5.652   4.149
 9558SOL    HW229574   5.814   5.548   4.023
 9559SOL     OW29575   0.155   3.683   1.508
 9559SOL    HW129576   0.105   3.626   1.443
 9559SOL    HW229577   0.226   3.629   1.553
 9560SOL     OW29578   1.474   1.690   2.213
 9560SOL    HW129579   1.507   1.617   2.273
 9560SOL    HW229580   1.464   1.774   2.267
 9561SOL     OW29581   1.477   6.781   0.486
 9561SOL    HW129582   1.514   6.874   0.486
 9561SOL    HW229583   1.552   6.715   0.485
 9562SOL     OW29584   3.067   6.771   4.900
 9562SOL    HW129585   3.071   6.673   4.920
 9562SOL    HW229586   2.983   6.809   4.938
 9563SOL     OW29587   6.241   6.307   0.585
 9563SOL    HW129588   6.240   6.407   0.576
 9563SOL    HW229589   6.322   6.270   0.540
 9564SOL     OW29590   2.848   6.600   6.461
 9564SOL    HW129591   2.796   6.662   6.521
 9564SOL    HW229592   2.946   6.614   6.476
 9565SOL     OW29593   4.184   6.438   5.143
 9565SOL    HW129594   4.164   6.355   5.092
 9565SOL    HW229595   4.160   6.424   5.239
 9566SOL     OW29596   3.734   4.337   0.209
 9566SOL    HW129597   3.635   4.336   0.214
 9566SOL    HW229598   3.767   4.248   0.178
 9567SOL     OW29599   6.405   5.451   6.344
 9567SOL    HW129600   6.315   5.440   6.303
 9567SOL    HW229601   6.453   5.363   6.344
 9568SOL     OW29602   4.541   2.886   6.665
 9568SOL    HW129603   4.575   2.792   6.666
 9568SOL    HW229604   4.506   2.910   6.755
 9569SOL     OW29605   0.145   0.204   2.061
 9569SOL    HW129606   0.064   0.175   2.010
 9569SOL    HW229607   0.143   0.165   2.153
 9570SOL     OW29608   1.197   2.263   1.774
 9570SOL    HW129609   1.264   2.191   1.794
 9570SOL    HW229610   1.108   2.221   1.758
 9571SOL     OW29611   2.839   3.645   6.928
 9571SOL    HW129612   2.820   3.628   6.832
 9571SOL    HW229613   2.891   3.730   6.937
 9572SOL     OW29614   2.027   5.421   0.826
 9572SOL    HW129615   2.002   5.348   0.890
 9572SOL    HW229616   2.127   5.432   0.826
 9573SOL     OW29617   0.728   1.574   6.555
 9573SOL    HW129618   0.661   1.613   6.492
 9573SOL    HW229619   0.813   1.627   6.551
 9574SOL     OW29620   3.915   3.114   4.695
 9574SOL    HW129621   4.004   3.084   4.729
 9574SOL    HW229622   3.847   3.108   4.768
 9575SOL     OW29623   5.323   0.631   0.618
 9575SOL    HW129624   5.286   0.565   0.553
 9575SOL    HW229625   5.390   0.586   0.677
 9576SOL     OW29626   3.257   1.228   2.701
 9576SOL    HW129627   3.214   1.317   2.688
 9576SOL    HW229628   3.256   1.177   2.615
 9577SOL     OW29629   1.471   0.837   3.117
 9577SOL    HW129630   1.518   0.834   3.206
 9577SOL    HW229631   1.375   0.812   3.130
 9578SOL     OW29632   6.760   3.967   3.400
 9578SOL    HW129633   6.834   3.909   3.434
 9578SOL    HW229634   6.729   3.933   3.311
 9579SOL     OW29635   1.539   6.027   3.085
 9579SOL    HW129636   1.457   6.058   3.134
 9579SOL    HW229637   1.603   6.103   3.075
 9580SOL     OW29638   5.463   3.200   0.566
 9580SOL    HW129639   5.445   3.275   0.629
 9580SOL    HW229640   5.376   3.157   0.540
 9581SOL     OW29641   1.436   5.205   6.284
 9581SOL    HW129642   1.360   5.225   6.344
 9581SOL    HW229643   1.427   5.112   6.249
 9582SOL     OW29644   4.294   4.663   4.729
 9582SOL    HW129645   4.298   4.623   4.820
 9582SOL    HW229646   4.254   4.598   4.664
 9583SOL     OW29647   2.966   3.556   1.471
 9583SOL    HW129648   2.954   3.575   1.568
 9583SOL    HW229649   2.887   3.590   1.420
 9584SOL     OW29650   6.015   5.758   7.004
 9584SOL    HW129651   5.989   5.662   7.014
 9584SOL    HW229652   6.099   5.764   6.950
 9585SOL     OW29653   6.823   0.874   3.046
 9585SOL    HW129654   6.769   0.800   3.006
 9585SOL    HW229655   6.762   0.945   3.080
 9586SOL     OW29656   5.935   4.115   1.915
 9586SOL    HW129657   5.876   4.082   1.988
 9586SOL    HW229658   5.942   4.046   1.843
 9587SOL     OW29659   6.162   0.305   2.320
 9587SOL    HW129660   6.216   0.221   2.320
 9587SOL    HW229661   6.163   0.345   2.412
 9588SOL     OW29662   0.541   1.354   1.939
 9588SOL    HW129663   0.541   1.267   1.889
 9588SOL    HW229664   0.631   1.397   1.932
 9589SOL     OW29665   2.899   5.591   6.483
 9589SOL    HW129666   2.944   5.546   6.560
 9589SOL    HW229667   2.802   5.600   6.502
 9590SOL     OW29668   0.084   4.756   2.241
 9590SOL    HW129669   0.067   4.660   2.261
 9590SOL    HW229670   0.148   4.764   2.165
 9591SOL     OW29671   3.331   5.788   0.158
 9591SOL    HW129672   3.251   5.808   0.100
 9591SOL    HW229673   3.300   5.764   0.250
 9592SOL     OW29674   3.651   5.109   2.046
 9592SOL    HW129675   3.595   5.067   2.118
 9592SOL    HW229676   3.744   5.072   2.052
 9593SOL     OW29677   5.219   1.386   4.779
 9593SOL    HW129678   5.281   1.391   4.857
 9593SOL    HW229679   5.230   1.467   4.722
 9594SOL     OW29680   6.852   5.965   3.862
 9594SOL    HW129681   6.888   5.901   3.930
 9594SOL    HW229682   6.761   5.934   3.833
 9595SOL     OW29683   1.694   4.642   4.530
 9595SOL    HW129684   1.630   4.622   4.456
 9595SOL    HW229685   1.648   4.633   4.618
 9596SOL     OW29686   0.171   4.804   6.915
 9596SOL    HW129687   0.157   4.778   6.820
 9596SOL    HW229688   0.221   4.890   6.919
 9597SOL     OW29689   0.353   3.987   0.871
 9597SOL    HW129690   0.387   4.043   0.796
 9597SOL    HW229691   0.262   3.953   0.849
 9598SOL     OW29692   0.474   4.224   5.305
 9598SOL    HW129693   0.521   4.283   5.239
 9598SOL    HW229694   0.530   4.143   5.323
 9599SOL     OW29695   3.560   0.471   5.074
 9599SOL    HW129696   3.640   0.530   5.067
 9599SOL    HW229697   3.492   0.499   5.006
 9600SOL     OW29698   2.377   0.058   5.905
 9600SOL    HW129699   2.349   6.987   5.894
 9600SOL    HW229700   2.379   0.082   6.002
 9601SOL     OW29701   6.212   4.260   5.980
 9601SOL    HW129702   6.297   4.306   6.007
 9601SOL    HW229703   6.175   4.210   6.058
 9602SOL     OW29704   6.910   4.892   6.640
 9602SOL    HW129705   6.931   4.966   6.704
 9602SOL    HW229706   6.839   4.833   6.678
 9603SOL     OW29707   2.257   6.998   4.371
 9603SOL    HW129708   2.272   6.954   4.283
 9603SOL    HW229709   2.335   0.033   4.393
 9604SOL     OW29710   5.545   0.837   0.364
 9604SOL    HW129711   5.613   0.767   0.340
 9604SOL    HW229712   5.592   0.915   0.406
 9605SOL     OW29713   0.435   5.011   5.823
 9605SOL    HW129714   0.411   4.936   5.885
 9605SOL    HW229715   0.452   5.094   5.877
 9606SOL     OW29716   0.978   0.015   4.124
 9606SOL    HW129717   1.004   6.943   4.127
 9606SOL    HW229718   0.986   0.055   4.215
 9607SOL     OW29719   1.266   1.756   1.287
 9607SOL    HW129720   1.289   1.786   1.380
 9607SOL    HW229721   1.321   1.809   1.221
 9608SOL     OW29722   0.453   6.659   2.913
 9608SOL    HW129723   0.365   6.611   2.907
 9608SOL    HW229724   0.456   6.732   2.845
 9609SOL     OW29725   1.284   3.438   5.172
 9609SOL    HW129726   1.288   3.463   5.075
 9609SOL    HW229727   1.354   3.369   5.191
 9610SOL     OW29728   1.116   3.172   5.364
 9610SOL    HW129729   1.035   3.207   5.410
 9610SOL    HW229730   1.195   3.176   5.426
 9611SOL     OW29731   0.035   6.718   1.208
 9611SOL    HW129732   0.094   6.798   1.203
 9611SOL    HW229733   0.038   6.669   1.120
 9612SOL     OW29734   6.380   2.661   0.138
 9612SOL    HW129735   6.342   2.730   0.077
 9612SOL    HW229736   6.431   2.705   0.212
 9613SOL     OW29737   5.381   6.231   4.397
 9613SOL    HW129738   5.401   6.305   4.460
 9613SOL    HW229739   5.399   6.143   4.442
 9614SOL     OW29740   4.326   3.494   1.467
 9614SOL    HW129741   4.358   3.429   1.398
 9614SOL    HW229742   4.321   3.585   1.428
 9615SOL     OW29743   2.023   6.124   2.910
 9615SOL    HW129744   2.074   6.061   2.968
 9615SOL    HW229745   2.050   6.111   2.814
 9616SOL     OW29746   4.480   3.252   0.932
 9616SOL    HW129747   4.513   3.346   0.940
 9616SOL    HW229748   4.410   3.236   1.002
 9617SOL     OW29749   1.247   4.007   4.023
 9617SOL    HW129750   1.262   3.941   4.097
 9617SOL    HW229751   1.283   3.970   3.938
 9618SOL     OW29752   3.273   0.580   6.827
 9618SOL    HW129753   3.177   0.596   6.806
 9618SOL    HW229754   3.295   0.484   6.810
 9619SOL     OW29755   0.733   6.810   1.052
 9619SOL    HW129756   0.800   6.735   1.055
 9619SOL    HW229757   0.780   6.897   1.063
 9620SOL     OW29758   4.311   1.781   6.975
 9620SOL    HW129759   4.403   1.745   6.995
 9620SOL    HW229760   4.318   1.878   6.953
 9621SOL     OW29761   1.729   1.001   1.696
 9621SOL    HW129762   1.780   1.087   1.694
 9621SOL    HW229763   1.675   0.997   1.780
 9622SOL     OW29764   6.374   1.335   6.767
 9622SOL    HW129765   6.299   1.366   6.825
 9622SOL    HW229766   6.457   1.327   6.822
 9623SOL     OW29767   4.779   5.298   6.836
 9623SOL    HW129768   4.829   5.380   6.864
 9623SOL    HW229769   4.762   5.301   6.738
 9624SOL     OW29770   5.211   4.691   5.166
 9624SOL    HW129771   5.185   4.765   5.105
 9624SOL    HW229772   5.130   4.661   5.218
 9625SOL     OW29773   4.455   4.397   6.620
 9625SOL    HW129774   4.426   4.492   6.629
 9625SOL    HW229775   4.463   4.355   6.710
 9626SOL     OW29776   1.938   5.099   4.357
 9626SOL    HW129777   1.839   5.082   4.348
 9626SOL    HW229778   1.967   5.075   4.450
 9627SOL     OW29779   0.915   4.603   4.705
 9627SOL    HW129780   0.880   4.543   4.777
 9627SOL    HW229781   0.912   4.698   4.735
 9628SOL     OW29782   5.826   3.824   0.963
 9628SOL    HW129783   5.889   3.769   0.909
 9628SOL    HW229784   5.749   3.767   0.992
 9629SOL     OW29785   6.619   6.231   3.198
 9629SOL    HW129786   6.545   6.269   3.142
 9629SOL    HW229787   6.701   6.287   3.186
 9630SOL     OW29788   5.980   6.073   5.292
 9630SOL    HW129789   5.985   6.122   5.379
 9630SOL    HW229790   5.889   6.082   5.253
 9631SOL     OW29791   4.466   1.643   1.167
 9631SOL    HW129792   4.366   1.641   1.172
 9631SOL    HW229793   4.499   1.733   1.194
 9632SOL     OW29794   1.965   5.360   1.295
 9632SOL    HW129795   2.063   5.379   1.292
 9632SOL    HW229796   1.916   5.442   1.325
 9633SOL     OW29797   3.870   3.362   1.006
 9633SOL    HW129798   3.808   3.417   0.950
 9633SOL    HW229799   3.852   3.265   0.990
 9634SOL     OW29800   5.897   5.427   3.198
 9634SOL    HW129801   5.799   5.410   3.202
 9634SOL    HW229802   5.934   5.429   3.291
 9635SOL     OW29803   0.430   4.599   5.202
 9635SOL    HW129804   0.512   4.551   5.171
 9635SOL    HW229805   0.348   4.549   5.173
 9636SOL     OW29806   3.528   1.500   5.956
 9636SOL    HW129807   3.561   1.441   6.030
 9636SOL    HW229808   3.462   1.450   5.901
 9637SOL     OW29809   3.103   3.211   1.680
 9637SOL    HW129810   3.077   3.119   1.650
 9637SOL    HW229811   3.120   3.269   1.600
 9638SOL     OW29812   0.003   3.643   6.346
 9638SOL    HW129813   0.048   3.694   6.273
 9638SOL    HW229814   0.019   3.545   6.333
 9639SOL     OW29815   4.552   2.804   1.697
 9639SOL    HW129816   4.569   2.891   1.743
 9639SOL    HW229817   4.581   2.729   1.757
 9640SOL     OW29818   3.909   1.081   2.194
 9640SOL    HW129819   3.862   1.001   2.230
 9640SOL    HW229820   3.867   1.108   2.107
 9641SOL     OW29821   5.169   6.137   2.394
 9641SOL    HW129822   5.263   6.163   2.371
 9641SOL    HW229823   5.134   6.075   2.324
 9642SOL     OW29824   1.149   0.152   3.944
 9642SOL    HW129825   1.187   0.219   4.008
 9642SOL    HW229826   1.089   0.090   3.993
 9643SOL     OW29827   5.154   3.647   3.714
 9643SOL    HW129828   5.207   3.708   3.773
 9643SOL    HW229829   5.164   3.553   3.747
 9644SOL     OW29830   1.901   5.879   4.688
 9644SOL    HW129831   1.861   5.956   4.637
 9644SOL    HW229832   1.835   5.803   4.689
 9645SOL     OW29833   1.627   4.308   5.214
 9645SOL    HW129834   1.574   4.226   5.192
 9645SOL    HW229835   1.613   4.331   5.311
 9646SOL     OW29836   3.049   5.747   2.863
 9646SOL    HW129837   3.086   5.695   2.940
 9646SOL    HW229838   3.098   5.834   2.856
 9647SOL     OW29839   0.475   6.803   3.168
 9647SOL    HW129840   0.454   6.761   3.080
 9647SOL    HW229841   0.552   6.866   3.158
 9648SOL     OW29842   5.220   2.837   1.184
 9648SOL    HW129843   5.310   2.849   1.226
 9648SOL    HW229844   5.149   2.858   1.252
 9649SOL     OW29845   2.552   4.267   6.736
 9649SOL    HW129846   2.652   4.271   6.725
 9649SOL    HW229847   2.511   4.351   6.701
 9650SOL     OW29848   5.125   4.348   3.421
 9650SOL    HW129849   5.071   4.414   3.369
 9650SOL    HW229850   5.086   4.256   3.409
 9651SOL     OW29851   3.798   0.981   0.969
 9651SOL    HW129852   3.806   0.881   0.973
 9651SOL    HW229853   3.712   1.010   1.010
 9652SOL     OW29854   0.533   4.927   0.965
 9652SOL    HW129855   0.604   4.918   1.035
 9652SOL    HW229856   0.480   5.010   0.981
 9653SOL     OW29857   4.741   4.755   5.663
 9653SOL    HW129858   4.744   4.662   5.699
 9653SOL    HW229859   4.722   4.819   5.738
 9654SOL     OW29860   3.011   3.106   3.293
 9654SOL    HW129861   2.966   3.171   3.354
 9654SOL    HW229862   3.076   3.051   3.346
 9655SOL     OW29863   0.016   1.821   0.141
 9655SOL    HW129864   0.115   1.830   0.130
 9655SOL    HW229865   7.017   1.725   0.162
 9656SOL     OW29866   4.754   2.069   0.648
 9656SOL    HW129867   4.808   2.057   0.564
 9656SOL    HW229868   4.656   2.072   0.624
 9657SOL     OW29869   5.902   4.257   3.004
 9657SOL    HW129870   5.944   4.330   2.949
 9657SOL    HW229871   5.931   4.168   2.969
 9658SOL     OW29872   5.727   2.245   2.697
 9658SOL    HW129873   5.658   2.188   2.743
 9658SOL    HW229874   5.705   2.253   2.600
 9659SOL     OW29875   1.190   2.539   0.225
 9659SOL    HW129876   1.253   2.473   0.185
 9659SOL    HW229877   1.181   2.521   0.323
 9660SOL     OW29878   0.644   0.145   2.028
 9660SOL    HW129879   0.546   0.144   2.049
 9660SOL    HW229880   0.692   0.204   2.093
 9661SOL     OW29881   4.463   5.913   1.164
 9661SOL    HW129882   4.462   6.013   1.159
 9661SOL    HW229883   4.524   5.877   1.093
 9662SOL     OW29884   5.037   3.587   0.458
 9662SOL    HW129885   4.985   3.599   0.543
 9662SOL    HW229886   5.120   3.643   0.461
 9663SOL     OW29887   0.242   5.767   2.390
 9663SOL    HW129888   0.260   5.828   2.313
 9663SOL    HW229889   0.318   5.703   2.400
 9664SOL     OW29890   5.455   4.478   4.767
 9664SOL    HW129891   5.409   4.475   4.678
 9664SOL    HW229892   5.481   4.385   4.794
 9665SOL     OW29893   6.096   6.446   5.885
 9665SOL    HW129894   6.142   6.371   5.836
 9665SOL    HW229895   6.024   6.484   5.827
 9666SOL     OW29896   6.204   3.449   1.940
 9666SOL    HW129897   6.197   3.382   2.014
 9666SOL    HW229898   6.262   3.412   1.867
 9667SOL     OW29899   4.202   3.630   1.079
 9667SOL    HW129900   4.142   3.568   1.028
 9667SOL    HW229901   4.227   3.707   1.021
 9668SOL     OW29902   1.337   0.960   6.740
 9668SOL    HW129903   1.309   1.054   6.755
 9668SOL    HW229904   1.258   0.905   6.712
 9669SOL     OW29905   2.116   6.775   1.496
 9669SOL    HW129906   2.129   6.769   1.397
 9669SOL    HW229907   2.041   6.838   1.516
 9670SOL     OW29908   0.176   5.387   5.274
 9670SOL    HW129909   0.185   5.475   5.321
 9670SOL    HW229910   0.107   5.394   5.202
 9671SOL     OW29911   6.526   4.300   0.696
 9671SOL    HW129912   6.434   4.309   0.733
 9671SOL    HW229913   6.530   4.340   0.604
 9672SOL     OW29914   1.307   4.778   3.348
 9672SOL    HW129915   1.349   4.868   3.346
 9672SOL    HW229916   1.353   4.722   3.417
 9673SOL     OW29917   3.823   3.670   1.273
 9673SOL    HW129918   3.760   3.705   1.341
 9673SOL    HW229919   3.772   3.632   1.196
 9674SOL     OW29920   3.918   6.353   3.195
 9674SOL    HW129921   4.003   6.395   3.162
 9674SOL    HW229922   3.912   6.364   3.294
 9675SOL     OW29923   5.072   2.539   6.755
 9675SOL    HW129924   5.062   2.535   6.854
 9675SOL    HW229925   5.105   2.630   6.728
 9676SOL     OW29926   1.476   3.796   6.124
 9676SOL    HW129927   1.544   3.791   6.050
 9676SOL    HW229928   1.401   3.734   6.104
 9677SOL     OW29929   6.985   4.971   6.003
 9677SOL    HW129930   0.049   5.011   6.028
 9677SOL    HW229931   6.919   5.045   5.985
 9678SOL     OW29932   3.094   3.456   4.409
 9678SOL    HW129933   3.021   3.409   4.460
 9678SOL    HW229934   3.055   3.534   4.360
 9679SOL     OW29935   2.428   0.081   3.969
 9679SOL    HW129936   2.460   0.057   4.061
 9679SOL    HW229937   2.328   0.090   3.970
 9680SOL     OW29938   4.378   0.568   5.273
 9680SOL    HW129939   4.414   0.490   5.324
 9680SOL    HW229940   4.335   0.633   5.337
 9681SOL     OW29941   3.289   2.218   0.820
 9681SOL    HW129942   3.231   2.300   0.818
 9681SOL    HW229943   3.298   2.185   0.914
 9682SOL     OW29944   4.948   3.823   3.595
 9682SOL    HW129945   4.900   3.771   3.525
 9682SOL    HW229946   5.013   3.764   3.642
 9683SOL     OW29947   3.405   6.463   1.126
 9683SOL    HW129948   3.347   6.395   1.081
 9683SOL    HW229949   3.493   6.422   1.149
 9684SOL     OW29950   0.791   4.365   4.882
 9684SOL    HW129951   0.800   4.294   4.812
 9684SOL    HW229952   0.864   4.354   4.950
 9685SOL     OW29953   4.755   3.822   1.125
 9685SOL    HW129954   4.688   3.748   1.123
 9685SOL    HW229955   4.804   3.825   1.038
 9686SOL     OW29956   0.771   3.288   6.625
 9686SOL    HW129957   0.715   3.339   6.560
 9686SOL    HW229958   0.801   3.202   6.583
 9687SOL     OW29959   6.675   1.067   3.156
 9687SOL    HW129960   6.605   1.137   3.169
 9687SOL    HW229961   6.763   1.101   3.191
 9688SOL     OW29962   1.234   3.360   0.787
 9688SOL    HW129963   1.235   3.393   0.693
 9688SOL    HW229964   1.210   3.263   0.787
 9689SOL     OW29965   0.676   4.544   6.883
 9689SOL    HW129966   0.769   4.573   6.859
 9689SOL    HW229967   0.680   4.475   6.955
 9690SOL     OW29968   5.443   6.721   5.841
 9690SOL    HW129969   5.541   6.699   5.838
 9690SOL    HW229970   5.428   6.799   5.902
 9691SOL     OW29971   3.037   4.056   1.971
 9691SOL    HW129972   2.986   4.142   1.980
 9691SOL    HW229973   3.026   4.021   1.877
 9692SOL     OW29974   4.674   5.893   0.984
 9692SOL    HW129975   4.767   5.929   0.993
 9692SOL    HW229976   4.675   5.812   0.925
 9693SOL     OW29977   6.224   4.052   3.083
 9693SOL    HW129978   6.154   4.054   3.011
 9693SOL    HW229979   6.271   4.140   3.086
 9694SOL     OW29980   3.051   0.647   2.243
 9694SOL    HW129981   3.047   0.709   2.322
 9694SOL    HW229982   3.037   0.699   2.159
 9695SOL     OW29983   6.718   2.790   3.153
 9695SOL    HW129984   6.808   2.746   3.144
 9695SOL    HW229985   6.669   2.750   3.231
 9696SOL     OW29986   5.785   2.901   1.380
 9696SOL    HW129987   5.788   2.894   1.480
 9696SOL    HW229988   5.726   2.977   1.354
 9697SOL     OW29989   0.582   6.639   0.377
 9697SOL    HW129990   0.504   6.585   0.407
 9697SOL    HW229991   0.631   6.591   0.304
 9698SOL     OW29992   5.568   2.398   5.954
 9698SOL    HW129993   5.609   2.399   5.862
 9698SOL    HW229994   5.521   2.311   5.968
 9699SOL     OW29995   6.939   5.621   0.234
 9699SOL    HW129996   0.001   5.670   0.237
 9699SOL    HW229997   6.884   5.655   0.158
 9700SOL     OW29998   5.862   4.763   4.913
 9700SOL    HW129999   5.906   4.680   4.949
 9700SOL    HW230000   5.771   4.741   4.880
 9701SOL     OW30001   4.445   4.605   5.780
 9701SOL    HW130002   4.541   4.605   5.807
 9701SOL    HW230003   4.418   4.513   5.754
 9702SOL     OW30004   3.970   2.059   0.308
 9702SOL    HW130005   3.879   2.040   0.272
 9702SOL    HW230006   3.972   2.152   0.345
 9703SOL     OW30007   4.917   3.618   3.881
 9703SOL    HW130008   4.917   3.520   3.900
 9703SOL    HW230009   4.991   3.639   3.817
 9704SOL     OW30010   3.320   5.944   1.732
 9704SOL    HW130011   3.223   5.949   1.756
 9704SOL    HW230012   3.353   5.851   1.749
 9705SOL     OW30013   5.095   4.443   6.111
 9705SOL    HW130014   5.173   4.474   6.057
 9705SOL    HW230015   5.126   4.378   6.181
 9706SOL     OW30016   2.830   2.054   0.983
 9706SOL    HW130017   2.903   2.022   1.043
 9706SOL    HW230018   2.849   2.148   0.955
 9707SOL     OW30019   6.286   4.975   2.633
 9707SOL    HW130020   6.347   4.951   2.558
 9707SOL    HW230021   6.339   4.990   2.716
 9708SOL     OW30022   0.658   1.505   3.448
 9708SOL    HW130023   0.756   1.521   3.460
 9708SOL    HW230024   0.637   1.492   3.351
 9709SOL     OW30025   5.531   5.205   2.652
 9709SOL    HW130026   5.456   5.186   2.589
 9709SOL    HW230027   5.586   5.122   2.664
 9710SOL     OW30028   6.851   1.509   1.380
 9710SOL    HW130029   6.846   1.527   1.282
 9710SOL    HW230030   6.792   1.573   1.430
 9711SOL     OW30031   4.640   5.381   6.273
 9711SOL    HW130032   4.709   5.314   6.245
 9711SOL    HW230033   4.564   5.333   6.319
 9712SOL     OW30034   5.727   3.839   0.014
 9712SOL    HW130035   5.629   3.826   7.021
 9712SOL    HW230036   5.741   3.860   0.111
 9713SOL     OW30037   2.101   4.509   3.479
 9713SOL    HW130038   2.030   4.574   3.454
 9713SOL    HW230039   2.124   4.520   3.576
 9714SOL     OW30040   4.271   6.447   6.210
 9714SOL    HW130041   4.369   6.451   6.192
 9714SOL    HW230042   4.256   6.441   6.309
 9715SOL     OW30043   5.646   4.298   6.907
 9715SOL    HW130044   5.604   4.359   6.974
 9715SOL    HW230045   5.701   4.229   6.954
 9716SOL     OW30046   3.439   4.247   6.682
 9716SOL    HW130047   3.521   4.267   6.736
 9716SOL    HW230048   3.460   4.255   6.585
 9717SOL     OW30049   5.148   6.718   5.934
 9717SOL    HW130050   5.058   6.756   5.955
 9717SOL    HW230051   5.218   6.789   5.947
 9718SOL     OW30052   4.989   3.287   1.399
 9718SOL    HW130053   5.001   3.229   1.319
 9718SOL    HW230054   4.892   3.290   1.425
 9719SOL     OW30055   5.691   0.467   6.128
 9719SOL    HW130056   5.602   0.440   6.092
 9719SOL    HW230057   5.684   0.555   6.175
 9720SOL     OW30058   0.898   4.058   2.425
 9720SOL    HW130059   0.833   4.016   2.488
 9720SOL    HW230060   0.865   4.148   2.398
 9721SOL     OW30061   0.300   1.383   0.080
 9721SOL    HW130062   0.381   1.356   0.029
 9721SOL    HW230063   0.252   1.456   0.032
 9722SOL     OW30064   3.480   1.156   5.187
 9722SOL    HW130065   3.494   1.059   5.168
 9722SOL    HW230066   3.479   1.208   5.101
 9723SOL     OW30067   3.827   6.142   3.561
 9723SOL    HW130068   3.823   6.055   3.512
 9723SOL    HW230069   3.883   6.130   3.644
 9724SOL     OW30070   1.291   4.994   0.228
 9724SOL    HW130071   1.358   5.043   0.172
 9724SOL    HW230072   1.203   4.995   0.182
 9725SOL     OW30073   4.531   6.154   6.223
 9725SOL    HW130074   4.575   6.065   6.235
 9725SOL    HW230075   4.512   6.193   6.313
 9726SOL     OW30076   4.177   1.558   3.601
 9726SOL    HW130077   4.117   1.637   3.612
 9726SOL    HW230078   4.196   1.518   3.691
 9727SOL     OW30079   0.944   2.428   6.727
 9727SOL    HW130080   0.896   2.369   6.791
 9727SOL    HW230081   0.907   2.417   6.635
 9728SOL     OW30082   0.644   1.135   5.269
 9728SOL    HW130083   0.647   1.182   5.357
 9728SOL    HW230084   0.708   1.058   5.270
 9729SOL     OW30085   1.181   4.929   4.116
 9729SOL    HW130086   1.122   4.903   4.192
 9729SOL    HW230087   1.126   4.950   4.036
 9730SOL     OW30088   0.940   4.393   3.385
 9730SOL    HW130089   0.901   4.301   3.389
 9730SOL    HW230090   0.872   4.456   3.348
 9731SOL     OW30091   4.932   5.310   2.064
 9731SOL    HW130092   5.010   5.366   2.091
 9731SOL    HW230093   4.847   5.357   2.089
 9732SOL     OW30094   1.279   3.886   2.565
 9732SOL    HW130095   1.350   3.833   2.612
 9732SOL    HW230096   1.321   3.935   2.488
 9733SOL     OW30097   5.040   5.641   0.077
 9733SOL    HW130098   5.039   5.621   7.003
 9733SOL    HW230099   5.010   5.735   0.092
 9734SOL     OW30100   6.708   0.284   0.480
 9734SOL    HW130101   6.665   0.200   0.513
 9734SOL    HW230102   6.639   0.357   0.475
 9735SOL     OW30103   1.926   3.163   3.607
 9735SOL    HW130104   1.974   3.078   3.583
 9735SOL    HW230105   1.984   3.216   3.669
 9736SOL     OW30106   5.107   1.402   5.851
 9736SOL    HW130107   5.009   1.385   5.854
 9736SOL    HW230108   5.132   1.439   5.762
 9737SOL     OW30109   5.134   2.433   3.157
 9737SOL    HW130110   5.164   2.503   3.093
 9737SOL    HW230111   5.113   2.349   3.107
 9738SOL     OW30112   2.409   6.610   0.597
 9738SOL    HW130113   2.488   6.671   0.598
 9738SOL    HW230114   2.330   6.659   0.559
 9739SOL     OW30115   5.161   5.646   0.846
 9739SOL    HW130116   5.213   5.564   0.821
 9739SOL    HW230117   5.160   5.655   0.946
 9740SOL     OW30118   0.338   1.107   3.501
 9740SOL    HW130119   0.414   1.157   3.541
 9740SOL    HW230120   0.330   1.018   3.545
 9741SOL     OW30121   2.694   0.738   2.366
 9741SOL    HW130122   2.613   0.768   2.418
 9741SOL    HW230123   2.764   0.809   2.371
 9742SOL     OW30124   3.554   1.051   0.536
 9742SOL    HW130125   3.608   1.089   0.461
 9742SOL    HW230126   3.613   1.043   0.617
 9743SOL     OW30127   6.544   4.339   3.570
 9743SOL    HW130128   6.643   4.343   3.553
 9743SOL    HW230129   6.513   4.245   3.560
 9744SOL     OW30130   1.214   6.858   1.888
 9744SOL    HW130131   1.138   6.857   1.824
 9744SOL    HW230132   1.284   6.793   1.859
 9745SOL     OW30133   4.351   2.894   6.475
 9745SOL    HW130134   4.426   2.904   6.540
 9745SOL    HW230135   4.270   2.860   6.524
 9746SOL     OW30136   5.817   0.447   5.500
 9746SOL    HW130137   5.794   0.358   5.539
 9746SOL    HW230138   5.908   0.474   5.532
 9747SOL     OW30139   2.777   2.104   2.024
 9747SOL    HW130140   2.780   2.098   1.924
 9747SOL    HW230141   2.836   2.179   2.054
 9748SOL     OW30142   6.140   6.740   3.927
 9748SOL    HW130143   6.079   6.794   3.985
 9748SOL    HW230144   6.087   6.702   3.851
 9749SOL     OW30145   1.108   0.552   4.063
 9749SOL    HW130146   1.192   0.499   4.074
 9749SOL    HW230147   1.129   0.649   4.077
 9750SOL     OW30148   6.097   5.322   3.061
 9750SOL    HW130149   6.104   5.232   3.104
 9750SOL    HW230150   6.033   5.379   3.112
 9751SOL     OW30151   2.731   0.236   1.073
 9751SOL    HW130152   2.722   0.230   1.173
 9751SOL    HW230153   2.715   0.331   1.044
 9752SOL     OW30154   4.415   1.580   5.039
 9752SOL    HW130155   4.420   1.679   5.053
 9752SOL    HW230156   4.395   1.561   4.943
 9753SOL     OW30157   0.227   5.478   5.671
 9753SOL    HW130158   0.160   5.411   5.703
 9753SOL    HW230159   0.319   5.446   5.694
 9754SOL     OW30160   2.055   0.302   0.790
 9754SOL    HW130161   2.002   0.232   0.836
 9754SOL    HW230162   2.085   0.371   0.857
 9755SOL     OW30163   3.542   3.562   4.509
 9755SOL    HW130164   3.533   3.476   4.459
 9755SOL    HW230165   3.637   3.593   4.505
 9756SOL     OW30166   5.772   1.714   5.586
 9756SOL    HW130167   5.691   1.765   5.558
 9756SOL    HW230168   5.825   1.690   5.505
 9757SOL     OW30169   5.670   4.615   4.525
 9757SOL    HW130170   5.721   4.529   4.528
 9757SOL    HW230171   5.655   4.647   4.618
 9758SOL     OW30172   1.970   0.831   0.314
 9758SOL    HW130173   1.913   0.756   0.280
 9758SOL    HW230174   2.061   0.823   0.275
 9759SOL     OW30175   1.054   0.760   0.535
 9759SOL    HW130176   0.994   0.682   0.549
 9759SOL    HW230177   1.149   0.732   0.549
 9760SOL     OW30178   4.691   3.325   5.520
 9760SOL    HW130179   4.775   3.369   5.551
 9760SOL    HW230180   4.704   3.226   5.519
 9761SOL     OW30181   0.549   2.088   1.471
 9761SOL    HW130182   0.493   2.006   1.459
 9761SOL    HW230183   0.527   2.131   1.558
 9762SOL     OW30184   3.588   2.107   4.783
 9762SOL    HW130185   3.591   2.156   4.695
 9762SOL    HW230186   3.493   2.089   4.808
 9763SOL     OW30187   5.233   1.849   3.043
 9763SOL    HW130188   5.188   1.772   2.997
 9763SOL    HW230189   5.253   1.920   2.976
 9764SOL     OW30190   6.930   2.713   2.572
 9764SOL    HW130191   6.858   2.649   2.543
 9764SOL    HW230192   6.916   2.738   2.668
 9765SOL     OW30193   6.684   6.642   3.268
 9765SOL    HW130194   6.747   6.658   3.344
 9765SOL    HW230195   6.614   6.576   3.296
 9766SOL     OW30196   2.009   6.713   1.983
 9766SOL    HW130197   1.983   6.752   1.895
 9766SOL    HW230198   2.094   6.754   2.014
 9767SOL     OW30199   2.671   1.758   5.668
 9767SOL    HW130200   2.644   1.839   5.721
 9767SOL    HW230201   2.589   1.711   5.636
 9768SOL     OW30202   5.395   1.213   1.525
 9768SOL    HW130203   5.313   1.240   1.575
 9768SOL    HW230204   5.433   1.130   1.565
 9769SOL     OW30205   3.933   0.743   4.632
 9769SOL    HW130206   3.925   0.828   4.683
 9769SOL    HW230207   3.977   0.674   4.688
 9770SOL     OW30208   3.762   1.158   5.930
 9770SOL    HW130209   3.707   1.137   6.011
 9770SOL    HW230210   3.705   1.148   5.848
 9771SOL     OW30211   2.611   5.503   0.946
 9771SOL    HW130212   2.556   5.576   0.905
 9771SOL    HW230213   2.664   5.458   0.875
 9772SOL     OW30214   1.084   6.173   1.636
 9772SOL    HW130215   1.020   6.146   1.564
 9772SOL    HW230216   1.083   6.105   1.709
 9773SOL     OW30217   5.371   5.407   3.982
 9773SOL    HW130218   5.281   5.377   3.949
 9773SOL    HW230219   5.424   5.443   3.905
 9774SOL     OW30220   6.647   5.098   1.712
 9774SOL    HW130221   6.713   5.117   1.784
 9774SOL    HW230222   6.555   5.115   1.745
 9775SOL     OW30223   2.900   0.481   3.577
 9775SOL    HW130224   2.976   0.535   3.542
 9775SOL    HW230225   2.917   0.384   3.559
 9776SOL     OW30226   7.016   5.070   5.512
 9776SOL    HW130227   0.071   5.044   5.566
 9776SOL    HW230228   6.968   4.988   5.482
 9777SOL     OW30229   5.932   4.748   0.586
 9777SOL    HW130230   6.006   4.689   0.554
 9777SOL    HW230231   5.891   4.709   0.669
 9778SOL     OW30232   0.466   1.804   4.261
 9778SOL    HW130233   0.368   1.819   4.275
 9778SOL    HW230234   0.488   1.708   4.274
 9779SOL     OW30235   0.680   1.722   4.079
 9779SOL    HW130236   0.638   1.744   4.167
 9779SOL    HW230237   0.612   1.732   4.006
 9780SOL     OW30238   2.052   2.577   0.188
 9780SOL    HW130239   2.098   2.656   0.229
 9780SOL    HW230240   1.965   2.562   0.233
 9781SOL     OW30241   2.278   2.242   5.111
 9781SOL    HW130242   2.190   2.285   5.089
 9781SOL    HW230243   2.274   2.203   5.203
 9782SOL     OW30244   0.770   1.867   0.446
 9782SOL    HW130245   0.729   1.939   0.503
 9782SOL    HW230246   0.699   1.815   0.400
 9783SOL     OW30247   4.641   2.639   3.785
 9783SOL    HW130248   4.629   2.583   3.703
 9783SOL    HW230249   4.588   2.599   3.860
 9784SOL     OW30250   3.311   1.246   6.131
 9784SOL    HW130251   3.269   1.279   6.216
 9784SOL    HW230252   3.312   1.320   6.064
 9785SOL     OW30253   0.181   2.185   5.789
 9785SOL    HW130254   0.236   2.213   5.868
 9785SOL    HW230255   0.084   2.188   5.813
 9786SOL     OW30256   2.556   4.073   0.419
 9786SOL    HW130257   2.511   4.127   0.348
 9786SOL    HW230258   2.648   4.048   0.389
 9787SOL     OW30259   3.216   2.980   2.751
 9787SOL    HW130260   3.127   3.002   2.792
 9787SOL    HW230261   3.288   3.028   2.801
 9788SOL     OW30262   0.906   0.087   2.991
 9788SOL    HW130263   0.814   0.119   2.967
 9788SOL    HW230264   0.910   7.012   2.985
 9789SOL     OW30265   1.657   5.554   0.510
 9789SOL    HW130266   1.723   5.492   0.553
 9789SOL    HW230267   1.567   5.542   0.552
 9790SOL     OW30268   6.543   4.968   6.605
 9790SOL    HW130269   6.526   4.940   6.510
 9790SOL    HW230270   6.506   5.060   6.619
 9791SOL     OW30271   0.717   6.770   6.728
 9791SOL    HW130272   0.683   6.732   6.813
 9791SOL    HW230273   0.671   6.857   6.708
 9792SOL     OW30274   3.277   4.034   0.738
 9792SOL    HW130275   3.221   3.952   0.756
 9792SOL    HW230276   3.218   4.107   0.703
 9793SOL     OW30277   4.669   0.282   2.519
 9793SOL    HW130278   4.574   0.281   2.550
 9793SOL    HW230279   4.726   0.328   2.588
 9794SOL     OW30280   6.873   4.300   6.490
 9794SOL    HW130281   6.881   4.280   6.392
 9794SOL    HW230282   6.782   4.336   6.509
 9795SOL     OW30283   1.369   1.909   4.680
 9795SOL    HW130284   1.433   1.966   4.628
 9795SOL    HW230285   1.419   1.839   4.731
 9796SOL     OW30286   4.151   3.655   2.218
 9796SOL    HW130287   4.144   3.707   2.133
 9796SOL    HW230288   4.173   3.560   2.198
 9797SOL     OW30289   2.017   5.719   0.404
 9797SOL    HW130290   1.969   5.794   0.358
 9797SOL    HW230291   1.969   5.633   0.387
 9798SOL     OW30292   3.551   0.569   2.421
 9798SOL    HW130293   3.609   0.592   2.344
 9798SOL    HW230294   3.460   0.545   2.388
 9799SOL     OW30295   2.417   4.392   5.498
 9799SOL    HW130296   2.414   4.488   5.525
 9799SOL    HW230297   2.415   4.335   5.580
 9800SOL     OW30298   4.830   5.165   5.290
 9800SOL    HW130299   4.779   5.237   5.337
 9800SOL    HW230300   4.846   5.192   5.195
 9801SOL     OW30301   4.572   3.856   0.017
 9801SOL    HW130302   4.670   3.858   7.021
 9801SOL    HW230303   4.526   3.792   6.980
 9802SOL     OW30304   5.874   4.368   1.832
 9802SOL    HW130305   5.805   4.414   1.887
 9802SOL    HW230306   5.890   4.276   1.868
 9803SOL     OW30307   2.107   2.327   6.348
 9803SOL    HW130308   2.103   2.256   6.278
 9803SOL    HW230309   2.085   2.416   6.308
 9804SOL     OW30310   0.515   6.441   3.053
 9804SOL    HW130311   0.458   6.375   3.003
 9804SOL    HW230312   0.533   6.520   2.994
 9805SOL     OW30313   0.919   6.837   3.010
 9805SOL    HW130314   0.851   6.769   3.039
 9805SOL    HW230315   1.008   6.793   3.003
 9806SOL     OW30316   1.396   1.533   6.783
 9806SOL    HW130317   1.337   1.610   6.808
 9806SOL    HW230318   1.371   1.500   6.692
 9807SOL     OW30319   3.344   3.694   1.478
 9807SOL    HW130320   3.279   3.711   1.552
 9807SOL    HW230321   3.424   3.647   1.515
 9808SOL     OW30322   4.059   6.857   5.277
 9808SOL    HW130323   4.141   6.823   5.231
 9808SOL    HW230324   3.994   6.892   5.209
 9809SOL     OW30325   1.178   3.765   6.699
 9809SOL    HW130326   1.209   3.783   6.606
 9809SOL    HW230327   1.094   3.711   6.697
 9810SOL     OW30328   2.753   2.393   4.001
 9810SOL    HW130329   2.848   2.409   4.030
 9810SOL    HW230330   2.728   2.298   4.022
 9811SOL     OW30331   5.531   4.846   3.222
 9811SOL    HW130332   5.437   4.875   3.203
 9811SOL    HW230333   5.531   4.751   3.251
 9812SOL     OW30334   3.861   1.795   5.488
 9812SOL    HW130335   3.885   1.699   5.500
 9812SOL    HW230336   3.944   1.850   5.479
 9813SOL     OW30337   4.474   1.370   0.711
 9813SOL    HW130338   4.557   1.362   0.657
 9813SOL    HW230339   4.472   1.459   0.756
 9814SOL     OW30340   6.849   0.174   6.730
 9814SOL    HW130341   6.877   0.267   6.754
 9814SOL    HW230342   6.827   0.123   6.813
 9815SOL     OW30343   4.883   3.341   4.363
 9815SOL    HW130344   4.832   3.259   4.335
 9815SOL    HW230345   4.905   3.334   4.460
 9816SOL     OW30346   1.133   0.932   6.287
 9816SOL    HW130347   1.129   0.866   6.363
 9816SOL    HW230348   1.047   0.931   6.237
 9817SOL     OW30349   2.538   6.290   3.277
 9817SOL    HW130350   2.575   6.370   3.326
 9817SOL    HW230351   2.614   6.235   3.242
 9818SOL     OW30352   0.319   0.731   3.852
 9818SOL    HW130353   0.226   0.696   3.858
 9818SOL    HW230354   0.332   0.803   3.920
 9819SOL     OW30355   5.171   3.694   3.420
 9819SOL    HW130356   5.262   3.674   3.382
 9819SOL    HW230357   5.175   3.686   3.519
 9820SOL     OW30358   3.720   2.909   6.502
 9820SOL    HW130359   3.760   2.971   6.434
 9820SOL    HW230360   3.785   2.837   6.525
 9821SOL     OW30361   5.229   1.413   6.970
 9821SOL    HW130362   5.213   1.321   6.934
 9821SOL    HW230363   5.174   1.426   0.028
 9822SOL     OW30364   2.119   0.124   3.254
 9822SOL    HW130365   2.158   0.032   3.256
 9822SOL    HW230366   2.022   0.119   3.279
 9823SOL     OW30367   2.302   0.321   6.916
 9823SOL    HW130368   2.263   0.412   6.922
 9823SOL    HW230369   2.354   0.301   7.000
 9824SOL     OW30370   2.029   5.053   4.620
 9824SOL    HW130371   2.113   5.000   4.606
 9824SOL    HW230372   1.963   4.998   4.671
 9825SOL     OW30373   4.764   5.590   5.326
 9825SOL    HW130374   4.714   5.504   5.317
 9825SOL    HW230375   4.862   5.572   5.319
 9826SOL     OW30376   5.139   4.966   6.545
 9826SOL    HW130377   5.181   4.976   6.454
 9826SOL    HW230378   5.157   4.874   6.579
 9827SOL     OW30379   2.118   3.729   3.404
 9827SOL    HW130380   2.112   3.666   3.327
 9827SOL    HW230381   2.158   3.815   3.374
 9828SOL     OW30382   2.341   2.816   5.654
 9828SOL    HW130383   2.314   2.785   5.563
 9828SOL    HW230384   2.355   2.737   5.714
 9829SOL     OW30385   4.162   5.119   0.072
 9829SOL    HW130386   4.134   5.023   0.065
 9829SOL    HW230387   4.256   5.124   0.105
 9830SOL     OW30388   5.656   2.969   1.825
 9830SOL    HW130389   5.689   3.029   1.752
 9830SOL    HW230390   5.631   2.880   1.786
 9831SOL     OW30391   2.112   5.072   1.189
 9831SOL    HW130392   2.086   5.142   1.256
 9831SOL    HW230393   2.148   5.116   1.107
 9832SOL     OW30394   4.710   5.184   3.031
 9832SOL    HW130395   4.803   5.216   3.013
 9832SOL    HW230396   4.694   5.100   2.979
 9833SOL     OW30397   3.566   3.841   5.271
 9833SOL    HW130398   3.633   3.873   5.203
 9833SOL    HW230399   3.478   3.884   5.253
 9834SOL     OW30400   2.915   4.852   5.248
 9834SOL    HW130401   2.818   4.868   5.268
 9834SOL    HW230402   2.926   4.762   5.206
 9835SOL     OW30403   3.276   3.356   5.700
 9835SOL    HW130404   3.232   3.306   5.625
 9835SOL    HW230405   3.281   3.453   5.676
 9836SOL     OW30406   6.817   4.877   3.677
 9836SOL    HW130407   6.830   4.956   3.617
 9836SOL    HW230408   6.777   4.907   3.764
 9837SOL     OW30409   3.260   0.179   3.525
 9837SOL    HW130410   3.236   0.274   3.546
 9837SOL    HW230411   3.221   0.153   3.437
 9838SOL     OW30412   1.869   6.803   6.566
 9838SOL    HW130413   1.963   6.812   6.534
 9838SOL    HW230414   1.866   6.810   6.665
 9839SOL     OW30415   5.810   0.550   3.700
 9839SOL    HW130416   5.826   0.469   3.643
 9839SOL    HW230417   5.712   0.571   3.701
 9840SOL     OW30418   6.262   1.459   1.274
 9840SOL    HW130419   6.237   1.550   1.241
 9840SOL    HW230420   6.325   1.467   1.351
 9841SOL     OW30421   1.797   4.433   5.038
 9841SOL    HW130422   1.798   4.385   4.951
 9841SOL    HW230423   1.730   4.390   5.099
 9842SOL     OW30424   4.185   3.423   2.095
 9842SOL    HW130425   4.266   3.367   2.076
 9842SOL    HW230426   4.104   3.379   2.057
 9843SOL     OW30427   6.217   0.876   1.411
 9843SOL    HW130428   6.312   0.904   1.429
 9843SOL    HW230429   6.207   0.854   1.314
 9844SOL     OW30430   6.433   0.452   2.213
 9844SOL    HW130431   6.419   0.445   2.114
 9844SOL    HW230432   6.355   0.412   2.261
 9845SOL     OW30433   2.318   2.849   3.847
 9845SOL    HW130434   2.338   2.845   3.945
 9845SOL    HW230435   2.372   2.780   3.799
 9846SOL     OW30436   4.070   3.538   1.305
 9846SOL    HW130437   3.988   3.592   1.325
 9846SOL    HW230438   4.103   3.561   1.214
 9847SOL     OW30439   3.386   2.907   3.970
 9847SOL    HW130440   3.381   2.900   4.069
 9847SOL    HW230441   3.352   2.822   3.929
 9848SOL     OW30442   3.372   3.461   5.233
 9848SOL    HW130443   3.294   3.411   5.271
 9848SOL    HW230444   3.338   3.538   5.179
 9849SOL     OW30445   0.104   6.390   6.571
 9849SOL    HW130446   0.185   6.394   6.512
 9849SOL    HW230447   0.022   6.408   6.516
 9850SOL     OW30448   5.547   0.136   3.883
 9850SOL    HW130449   5.575   0.173   3.971
 9850SOL    HW230450   5.595   0.049   3.867
 9851SOL     OW30451   5.232   0.557   4.547
 9851SOL    HW130452   5.263   0.532   4.455
 9851SOL    HW230453   5.291   0.513   4.615
 9852SOL     OW30454   4.273   2.339   3.271
 9852SOL    HW130455   4.336   2.410   3.240
 9852SOL    HW230456   4.220   2.306   3.193
 9853SOL     OW30457   5.352   3.655   5.024
 9853SOL    HW130458   5.259   3.629   5.050
 9853SOL    HW230459   5.360   3.754   5.022
 9854SOL     OW30460   0.099   6.162   4.987
 9854SOL    HW130461   0.118   6.087   4.923
 9854SOL    HW230462   0.044   6.231   4.941
 9855SOL     OW30463   2.524   3.258   1.015
 9855SOL    HW130464   2.523   3.344   0.965
 9855SOL    HW230465   2.473   3.268   1.101
 9856SOL     OW30466   5.275   5.041   5.313
 9856SOL    HW130467   5.198   5.036   5.376
 9856SOL    HW230468   5.246   5.012   5.222
 9857SOL     OW30469   4.616   2.661   3.368
 9857SOL    HW130470   4.630   2.743   3.424
 9857SOL    HW230471   4.657   2.675   3.278
 9858SOL     OW30472   0.288   0.780   1.174
 9858SOL    HW130473   0.269   0.757   1.079
 9858SOL    HW230474   0.218   0.842   1.209
 9859SOL     OW30475   6.341   0.119   2.183
 9859SOL    HW130476   6.290   0.096   2.101
 9859SOL    HW230477   6.380   0.037   2.223
 9860SOL     OW30478   1.313   1.296   3.680
 9860SOL    HW130479   1.382   1.307   3.608
 9860SOL    HW230480   1.339   1.220   3.740
 9861SOL     OW30481   2.874   0.179   3.590
 9861SOL    HW130482   2.937   0.109   3.559
 9861SOL    HW230483   2.912   0.228   3.668
 9862SOL     OW30484   3.994   3.028   0.131
 9862SOL    HW130485   3.931   3.094   0.174
 9862SOL    HW230486   3.950   2.938   0.127
 9863SOL     OW30487   3.106   6.868   3.055
 9863SOL    HW130488   3.166   6.947   3.063
 9863SOL    HW230489   3.142   6.793   3.111
 9864SOL     OW30490   3.912   6.938   3.788
 9864SOL    HW130491   3.981   6.867   3.774
 9864SOL    HW230492   3.839   6.927   3.720
 9865SOL     OW30493   1.462   0.694   4.523
 9865SOL    HW130494   1.503   0.783   4.502
 9865SOL    HW230495   1.418   0.698   4.613
 9866SOL     OW30496   5.220   5.019   6.279
 9866SOL    HW130497   5.144   5.068   6.237
 9866SOL    HW230498   5.304   5.039   6.229
 9867SOL     OW30499   6.399   0.972   0.893
 9867SOL    HW130500   6.437   0.889   0.935
 9867SOL    HW230501   6.305   0.985   0.924
 9868SOL     OW30502   0.145   3.767   6.144
 9868SOL    HW130503   0.148   3.693   6.077
 9868SOL    HW230504   0.239   3.795   6.167
 9869SOL     OW30505   1.410   3.360   2.252
 9869SOL    HW130506   1.383   3.456   2.260
 9869SOL    HW230507   1.510   3.353   2.245
 9870SOL     OW30508   3.788   5.627   2.397
 9870SOL    HW130509   3.779   5.663   2.490
 9870SOL    HW230510   3.868   5.566   2.393
 9871SOL     OW30511   0.377   6.009   6.027
 9871SOL    HW130512   0.444   6.006   5.954
 9871SOL    HW230513   0.409   5.955   6.105
 9872SOL     OW30514   2.285   5.369   3.883
 9872SOL    HW130515   2.273   5.274   3.853
 9872SOL    HW230516   2.197   5.406   3.912
 9873SOL     OW30517   2.792   2.638   0.158
 9873SOL    HW130518   2.856   2.563   0.145
 9873SOL    HW230519   2.808   2.709   0.089
 9874SOL     OW30520   6.376   2.984   4.472
 9874SOL    HW130521   6.433   3.064   4.491
 9874SOL    HW230522   6.325   2.959   4.554
 9875SOL     OW30523   6.334   6.132   2.232
 9875SOL    HW130524   6.432   6.118   2.219
 9875SOL    HW230525   6.307   6.220   2.192
 9876SOL     OW30526   6.375   0.150   3.479
 9876SOL    HW130527   6.318   0.208   3.420
 9876SOL    HW230528   6.381   0.192   3.570
 9877SOL     OW30529   6.964   6.110   4.167
 9877SOL    HW130530   6.885   6.165   4.137
 9877SOL    HW230531   6.970   6.113   4.266
 9878SOL     OW30532   2.604   4.606   5.063
 9878SOL    HW130533   2.569   4.696   5.037
 9878SOL    HW230534   2.704   4.609   5.066
 9879SOL     OW30535   5.628   5.466   5.064
 9879SOL    HW130536   5.723   5.495   5.051
 9879SOL    HW230537   5.603   5.398   4.994
 9880SOL     OW30538   3.841   0.760   6.646
 9880SOL    HW130539   3.899   0.841   6.657
 9880SOL    HW230540   3.825   0.743   6.549
 9881SOL     OW30541   0.773   0.901   5.184
 9881SOL    HW130542   0.703   0.833   5.207
 9881SOL    HW230543   0.740   0.958   5.109
 9882SOL     OW30544   1.261   3.459   4.329
 9882SOL    HW130545   1.332   3.529   4.314
 9882SOL    HW230546   1.303   3.368   4.322
 9883SOL     OW30547   1.244   6.460   0.598
 9883SOL    HW130548   1.272   6.488   0.690
 9883SOL    HW230549   1.157   6.504   0.575
 9884SOL     OW30550   5.212   2.714   1.651
 9884SOL    HW130551   5.284   2.777   1.621
 9884SOL    HW230552   5.238   2.620   1.631
 9885SOL     OW30553   6.777   2.048   4.870
 9885SOL    HW130554   6.702   2.043   4.936
 9885SOL    HW230555   6.855   1.995   4.903
 9886SOL     OW30556   1.255   4.428   2.098
 9886SOL    HW130557   1.205   4.478   2.169
 9886SOL    HW230558   1.244   4.474   2.010
 9887SOL     OW30559   4.174   0.402   6.254
 9887SOL    HW130560   4.143   0.493   6.281
 9887SOL    HW230561   4.243   0.369   6.318
 9888SOL     OW30562   5.957   4.760   2.137
 9888SOL    HW130563   5.994   4.681   2.186
 9888SOL    HW230564   6.029   4.828   2.125
 9889SOL     OW30565   6.431   4.709   1.207
 9889SOL    HW130566   6.470   4.623   1.176
 9889SOL    HW230567   6.409   4.703   1.305
 9890SOL     OW30568   1.315   2.972   1.014
 9890SOL    HW130569   1.411   2.990   1.035
 9890SOL    HW230570   1.270   2.932   1.094
 9891SOL     OW30571   5.529   3.406   1.940
 9891SOL    HW130572   5.454   3.426   1.877
 9891SOL    HW230573   5.532   3.307   1.959
 9892SOL     OW30574   0.736   5.011   1.177
 9892SOL    HW130575   0.809   4.947   1.200
 9892SOL    HW230576   0.768   5.105   1.193
 9893SOL     OW30577   0.528   0.720   1.636
 9893SOL    HW130578   0.484   0.634   1.613
 9893SOL    HW230579   0.459   0.789   1.657
 9894SOL     OW30580   3.321   2.372   0.403
 9894SOL    HW130581   3.388   2.306   0.369
 9894SOL    HW230582   3.310   2.446   0.337
 9895SOL     OW30583   5.734   4.217   5.156
 9895SOL    HW130584   5.681   4.156   5.215
 9895SOL    HW230585   5.820   4.241   5.201
 9896SOL     OW30586   6.243   1.003   0.581
 9896SOL    HW130587   6.164   0.998   0.641
 9896SOL    HW230588   6.318   0.950   0.619
 9897SOL     OW30589   5.634   6.363   2.480
 9897SOL    HW130590   5.578   6.433   2.523
 9897SOL    HW230591   5.714   6.345   2.537
 9898SOL     OW30592   0.919   5.249   5.454
 9898SOL    HW130593   0.912   5.281   5.359
 9898SOL    HW230594   0.894   5.324   5.515
 9899SOL     OW30595   1.829   5.552   1.124
 9899SOL    HW130596   1.741   5.552   1.171
 9899SOL    HW230597   1.813   5.547   1.025
 9900SOL     OW30598   1.349   2.914   2.971
 9900SOL    HW130599   1.366   2.832   3.026
 9900SOL    HW230600   1.329   2.991   3.031
 9901SOL     OW30601   2.873   0.726   6.989
 9901SOL    HW130602   2.832   0.671   6.918
 9901SOL    HW230603   2.867   0.823   6.965
 9902SOL     OW30604   2.965   4.714   1.309
 9902SOL    HW130605   2.946   4.776   1.384
 9902SOL    HW230606   2.881   4.695   1.258
 9903SOL     OW30607   5.632   2.290   1.862
 9903SOL    HW130608   5.645   2.218   1.795
 9903SOL    HW230609   5.601   2.250   1.949
 9904SOL     OW30610   0.735   3.992   0.224
 9904SOL    HW130611   0.660   4.058   0.224
 9904SOL    HW230612   0.809   4.026   0.165
 9905SOL     OW30613   2.533   0.670   6.089
 9905SOL    HW130614   2.529   0.583   6.138
 9905SOL    HW230615   2.565   0.742   6.150
 9906SOL     OW30616   1.802   3.256   0.582
 9906SOL    HW130617   1.744   3.186   0.623
 9906SOL    HW230618   1.766   3.280   0.492
 9907SOL     OW30619   0.912   0.100   1.279
 9907SOL    HW130620   0.847   0.126   1.208
 9907SOL    HW230621   0.886   0.143   1.365
 9908SOL     OW30622   6.250   1.835   4.984
 9908SOL    HW130623   6.276   1.908   4.921
 9908SOL    HW230624   6.326   1.770   4.992
 9909SOL     OW30625   4.330   1.006   2.777
 9909SOL    HW130626   4.348   0.919   2.823
 9909SOL    HW230627   4.243   1.043   2.808
 9910SOL     OW30628   1.308   4.892   1.938
 9910SOL    HW130629   1.359   4.970   1.974
 9910SOL    HW230630   1.363   4.847   1.868
 9911SOL     OW30631   2.734   6.314   2.852
 9911SOL    HW130632   2.678   6.394   2.827
 9911SOL    HW230633   2.799   6.296   2.779
 9912SOL     OW30634   3.485   1.007   1.286
 9912SOL    HW130635   3.390   0.980   1.278
 9912SOL    HW230636   3.532   0.992   1.199
 9913SOL     OW30637   6.364   3.778   0.496
 9913SOL    HW130638   6.443   3.800   0.437
 9913SOL    HW230639   6.282   3.768   0.439
 9914SOL     OW30640   6.134   0.917   4.776
 9914SOL    HW130641   6.110   0.982   4.848
 9914SOL    HW230642   6.231   0.926   4.754
 9915SOL     OW30643   6.203   0.830   3.319
 9915SOL    HW130644   6.206   0.839   3.418
 9915SOL    HW230645   6.113   0.855   3.285
 9916SOL     OW30646   2.357   2.358   3.362
 9916SOL    HW130647   2.268   2.340   3.404
 9916SOL    HW230648   2.376   2.287   3.294
 9917SOL     OW30649   4.147   4.205   6.300
 9917SOL    HW130650   4.199   4.162   6.227
 9917SOL    HW230651   4.057   4.161   6.307
 9918SOL     OW30652   1.624   2.343   2.750
 9918SOL    HW130653   1.667   2.254   2.737
 9918SOL    HW230654   1.524   2.332   2.752
 9919SOL     OW30655   1.297   5.617   0.951
 9919SOL    HW130656   1.209   5.601   0.906
 9919SOL    HW230657   1.326   5.711   0.933
 9920SOL     OW30658   5.275   0.775   2.329
 9920SOL    HW130659   5.301   0.706   2.396
 9920SOL    HW230660   5.328   0.762   2.245
 9921SOL     OW30661   4.319   6.339   4.243
 9921SOL    HW130662   4.413   6.311   4.223
 9921SOL    HW230663   4.304   6.337   4.342
 9922SOL     OW30664   3.553   3.641   1.162
 9922SOL    HW130665   3.517   3.552   1.133
 9922SOL    HW230666   3.482   3.692   1.211
 9923SOL     OW30667   6.055   4.764   6.667
 9923SOL    HW130668   5.988   4.837   6.657
 9923SOL    HW230669   6.016   4.691   6.724
 9924SOL     OW30670   6.054   1.711   3.050
 9924SOL    HW130671   5.964   1.703   3.007
 9924SOL    HW230672   6.096   1.620   3.055
 9925SOL     OW30673   0.462   5.439   3.999
 9925SOL    HW130674   0.427   5.364   3.943
 9925SOL    HW230675   0.440   5.526   3.955
 9926SOL     OW30676   4.049   2.329   1.288
 9926SOL    HW130677   4.137   2.282   1.295
 9926SOL    HW230678   3.981   2.268   1.248
 9927SOL     OW30679   1.441   0.526   1.017
 9927SOL    HW130680   1.442   0.455   1.088
 9927SOL    HW230681   1.461   0.484   0.928
 9928SOL     OW30682   4.881   4.899   3.485
 9928SOL    HW130683   4.905   4.850   3.569
 9928SOL    HW230684   4.888   4.997   3.501
 9929SOL     OW30685   3.274   4.046   4.695
 9929SOL    HW130686   3.247   4.032   4.790
 9929SOL    HW230687   3.346   4.115   4.690
 9930SOL     OW30688   0.170   6.687   5.339
 9930SOL    HW130689   0.254   6.740   5.328
 9930SOL    HW230690   0.149   6.677   5.436
 9931SOL     OW30691   6.862   5.344   4.718
 9931SOL    HW130692   6.949   5.310   4.685
 9931SOL    HW230693   6.787   5.300   4.668
 9932SOL     OW30694   2.427   3.033   5.944
 9932SOL    HW130695   2.483   3.027   5.861
 9932SOL    HW230696   2.447   2.955   6.003
 9933SOL     OW30697   1.854   6.880   4.263
 9933SOL    HW130698   1.902   6.945   4.205
 9933SOL    HW230699   1.764   6.860   4.224
 9934SOL     OW30700   6.917   2.374   5.727
 9934SOL    HW130701   6.884   2.349   5.635
 9934SOL    HW230702   7.007   2.417   5.719
 9935SOL     OW30703   3.006   6.979   0.933
 9935SOL    HW130704   2.910   6.974   0.958
 9935SOL    HW230705   3.062   6.976   1.016
 9936SOL     OW30706   6.242   4.341   0.731
 9936SOL    HW130707   6.266   4.433   0.764
 9936SOL    HW230708   6.144   4.325   0.748
 9937SOL     OW30709   0.309   1.878   1.161
 9937SOL    HW130710   0.305   1.976   1.145
 9937SOL    HW230711   0.362   1.835   1.089
 9938SOL     OW30712   5.706   4.628   3.604
 9938SOL    HW130713   5.627   4.676   3.642
 9938SOL    HW230714   5.731   4.552   3.664
 9939SOL     OW30715   4.627   3.130   1.266
 9939SOL    HW130716   4.586   3.040   1.279
 9939SOL    HW230717   4.652   3.142   1.170
 9940SOL     OW30718   1.184   0.657   1.853
 9940SOL    HW130719   1.107   0.636   1.913
 9940SOL    HW230720   1.188   0.591   1.778
 9941SOL     OW30721   3.280   2.847   5.020
 9941SOL    HW130722   3.249   2.815   5.110
 9941SOL    HW230723   3.380   2.848   5.018
 9942SOL     OW30724   3.168   5.343   2.448
 9942SOL    HW130725   3.074   5.314   2.463
 9942SOL    HW230726   3.206   5.292   2.370
 9943SOL     OW30727   0.952   4.673   6.304
 9943SOL    HW130728   1.010   4.616   6.363
 9943SOL    HW230729   0.858   4.639   6.307
 9944SOL     OW30730   0.597   4.589   6.604
 9944SOL    HW130731   0.636   4.551   6.688
 9944SOL    HW230732   0.625   4.685   6.595
 9945SOL     OW30733   4.376   6.153   0.022
 9945SOL    HW130734   4.411   6.078   0.079
 9945SOL    HW230735   4.279   6.167   0.042
 9946SOL     OW30736   5.960   0.417   3.355
 9946SOL    HW130737   5.888   0.380   3.296
 9946SOL    HW230738   5.945   0.515   3.368
 9947SOL     OW30739   2.846   2.317   4.536
 9947SOL    HW130740   2.769   2.379   4.544
 9947SOL    HW230741   2.858   2.267   4.622
 9948SOL     OW30742   6.918   4.871   6.355
 9948SOL    HW130743   6.902   4.960   6.313
 9948SOL    HW230744   6.873   4.867   6.444
 9949SOL     OW30745   6.473   4.752   4.109
 9949SOL    HW130746   6.449   4.748   4.011
 9949SOL    HW230747   6.569   4.775   4.118
 9950SOL     OW30748   5.793   6.032   6.219
 9950SOL    HW130749   5.736   5.996   6.293
 9950SOL    HW230750   5.735   6.076   6.151
 9951SOL     OW30751   1.569   2.225   3.620
 9951SOL    HW130752   1.570   2.191   3.714
 9951SOL    HW230753   1.503   2.173   3.566
 9952SOL     OW30754   1.486   4.805   0.348
 9952SOL    HW130755   1.555   4.868   0.313
 9952SOL    HW230756   1.396   4.846   0.339
 9953SOL     OW30757   6.490   2.389   3.934
 9953SOL    HW130758   6.466   2.292   3.939
 9953SOL    HW230759   6.589   2.398   3.920
 9954SOL     OW30760   1.026   0.799   5.755
 9954SOL    HW130761   1.108   0.833   5.709
 9954SOL    HW230762   1.052   0.734   5.827
 9955SOL     OW30763   4.919   4.119   6.030
 9955SOL    HW130764   4.993   4.127   6.097
 9955SOL    HW230765   4.958   4.119   5.938
 9956SOL     OW30766   0.522   5.544   3.324
 9956SOL    HW130767   0.620   5.544   3.348
 9956SOL    HW230768   0.484   5.634   3.344
 9957SOL     OW30769   5.800   0.100   1.801
 9957SOL    HW130770   5.739   0.026   1.772
 9957SOL    HW230771   5.799   0.172   1.733
 9958SOL     OW30772   2.002   5.669   6.749
 9958SOL    HW130773   1.986   5.710   6.659
 9958SOL    HW230774   1.954   5.722   6.819
 9959SOL     OW30775   4.154   3.590   4.083
 9959SOL    HW130776   4.136   3.591   3.985
 9959SOL    HW230777   4.248   3.622   4.100
 9960SOL     OW30778   6.977   0.385   2.174
 9960SOL    HW130779   6.879   0.394   2.163
 9960SOL    HW230780   6.999   0.291   2.201
 9961SOL     OW30781   1.643   4.928   4.626
 9961SOL    HW130782   1.664   4.997   4.557
 9961SOL    HW230783   1.615   4.843   4.581
 9962SOL     OW30784   4.547   0.320   2.229
 9962SOL    HW130785   4.495   0.282   2.306
 9962SOL    HW230786   4.624   0.374   2.264
 9963SOL     OW30787   2.622   2.290   6.004
 9963SOL    HW130788   2.533   2.262   6.041
 9963SOL    HW230789   2.637   2.387   6.024
 9964SOL     OW30790   4.589   3.742   5.562
 9964SOL    HW130791   4.528   3.713   5.488
 9964SOL    HW230792   4.594   3.670   5.631
 9965SOL     OW30793   3.910   4.799   6.285
 9965SOL    HW130794   3.876   4.769   6.195
 9965SOL    HW230795   3.983   4.738   6.314
 9966SOL     OW30796   2.366   6.215   2.205
 9966SOL    HW130797   2.383   6.121   2.236
 9966SOL    HW230798   2.379   6.278   2.282
 9967SOL     OW30799   5.823   6.494   1.975
 9967SOL    HW130800   5.863   6.579   1.941
 9967SOL    HW230801   5.889   6.420   1.968
 9968SOL     OW30802   3.371   3.635   6.511
 9968SOL    HW130803   3.324   3.686   6.583
 9968SOL    HW230804   3.460   3.678   6.492
 9969SOL     OW30805   1.424   2.653   4.464
 9969SOL    HW130806   1.374   2.668   4.379
 9969SOL    HW230807   1.505   2.597   4.445
 9970SOL     OW30808   5.721   4.399   2.594
 9970SOL    HW130809   5.660   4.461   2.643
 9970SOL    HW230810   5.666   4.330   2.546
 9971SOL     OW30811   2.990   3.704   0.287
 9971SOL    HW130812   2.893   3.720   0.272
 9971SOL    HW230813   3.029   3.658   0.207
 9972SOL     OW30814   3.855   4.374   0.504
 9972SOL    HW130815   3.930   4.437   0.485
 9972SOL    HW230816   3.799   4.363   0.421
 9973SOL     OW30817   4.012   1.890   3.872
 9973SOL    HW130818   4.059   1.974   3.847
 9973SOL    HW230819   4.004   1.830   3.792
 9974SOL     OW30820   6.501   4.069   3.548
 9974SOL    HW130821   6.568   4.010   3.503
 9974SOL    HW230822   6.411   4.025   3.546
 9975SOL     OW30823   6.398   4.480   0.402
 9975SOL    HW130824   6.440   4.568   0.381
 9975SOL    HW230825   6.467   4.408   0.390
 9976SOL     OW30826   0.409   5.815   5.439
 9976SOL    HW130827   0.328   5.757   5.432
 9976SOL    HW230828   0.382   5.909   5.459
 9977SOL     OW30829   0.188   5.123   6.190
 9977SOL    HW130830   0.173   5.192   6.260
 9977SOL    HW230831   0.272   5.073   6.210
 9978SOL     OW30832   6.435   3.178   3.388
 9978SOL    HW130833   6.403   3.232   3.310
 9978SOL    HW230834   6.418   3.081   3.371
 9979SOL     OW30835   6.131   4.938   5.677
 9979SOL    HW130836   6.209   4.911   5.620
 9979SOL    HW230837   6.119   5.037   5.672
 9980SOL     OW30838   1.746   1.401   6.489
 9980SOL    HW130839   1.649   1.376   6.490
 9980SOL    HW230840   1.789   1.361   6.408
 9981SOL     OW30841   2.235   1.654   1.261
 9981SOL    HW130842   2.177   1.727   1.297
 9981SOL    HW230843   2.327   1.663   1.298
 9982SOL     OW30844   0.416   0.991   3.948
 9982SOL    HW130845   0.428   1.083   3.911
 9982SOL    HW230846   0.504   0.945   3.952
 9983SOL     OW30847   1.038   2.468   2.601
 9983SOL    HW130848   1.137   2.455   2.608
 9983SOL    HW230849   0.991   2.384   2.629
 9984SOL     OW30850   1.437   0.254   0.540
 9984SOL    HW130851   1.454   0.159   0.564
 9984SOL    HW230852   1.467   0.271   0.446
 9985SOL     OW30853   2.384   1.004   1.906
 9985SOL    HW130854   2.395   1.005   1.806
 9985SOL    HW230855   2.471   1.025   1.950
 9986SOL     OW30856   5.004   4.136   6.667
 9986SOL    HW130857   5.095   4.137   6.625
 9986SOL    HW230858   5.014   4.149   6.766
 9987SOL     OW30859   6.181   2.146   2.860
 9987SOL    HW130860   6.204   2.119   2.953
 9987SOL    HW230861   6.114   2.219   2.861
 9988SOL     OW30862   0.186   5.960   4.779
 9988SOL    HW130863   0.188   5.979   4.681
 9988SOL    HW230864   0.280   5.953   4.814
 9989SOL     OW30865   5.982   4.179   3.436
 9989SOL    HW130866   6.071   4.136   3.450
 9989SOL    HW230867   5.984   4.233   3.352
 9990SOL     OW30868   2.567   6.798   2.528
 9990SOL    HW130869   2.607   6.862   2.462
 9990SOL    HW230870   2.601   6.818   2.620
 9991SOL     OW30871   2.167   3.080   4.181
 9991SOL    HW130872   2.164   3.041   4.089
 9991SOL    HW230873   2.235   3.031   4.236
 9992SOL     OW30874   4.629   3.632   0.510
 9992SOL    HW130875   4.573   3.714   0.524
 9992SOL    HW230876   4.595   3.582   0.430
 9993SOL     OW30877   3.765   0.378   1.955
 9993SOL    HW130878   3.750   0.477   1.948
 9993SOL    HW230879   3.862   0.360   1.968
 9994SOL     OW30880   7.020   4.873   4.047
 9994SOL    HW130881   0.013   4.787   4.095
 9994SOL    HW230882   0.075   4.933   4.057
 9995SOL     OW30883   3.519   0.695   2.900
 9995SOL    HW130884   3.503   0.718   2.804
 9995SOL    HW230885   3.612   0.658   2.910
 9996SOL     OW30886   2.996   3.153   2.232
 9996SOL    HW130887   2.970   3.233   2.286
 9996SOL    HW230888   2.954   3.158   2.141
 9997SOL     OW30889   3.799   1.515   1.182
 9997SOL    HW130890   3.726   1.583   1.172
 9997SOL    HW230891   3.760   1.429   1.215
 9998SOL     OW30892   5.777   4.695   1.588
 9998SOL    HW130893   5.720   4.689   1.670
 9998SOL    HW230894   5.847   4.624   1.590
 9999SOL     OW30895   6.146   3.467   5.090
 9999SOL    HW130896   6.226   3.493   5.144
 9999SOL    HW230897   6.080   3.420   5.148
10000SOL     OW30898   6.145   3.750   6.881
10000SOL    HW130899   6.223   3.700   6.842
10000SOL    HW230900   6.171   3.845   6.897
10001SOL     OW30901   5.290   0.965   1.853
10001SOL    HW130902   5.210   0.957   1.794
10001SOL    HW230903   5.264   1.011   1.938
10002SOL     OW30904   1.857   0.661   1.334
10002SOL    HW130905   1.912   0.725   1.388
10002SOL    HW230906   1.859   0.688   1.238
10003SOL     OW30907   3.651   1.773   4.129
10003SOL    HW130908   3.678   1.694   4.074
10003SOL    HW230909   3.730   1.832   4.144
10004SOL     OW30910   4.523   2.156   4.600
10004SOL    HW130911   4.561   2.070   4.634
10004SOL    HW230912   4.454   2.190   4.664
10005SOL     OW30913   4.579   0.098   3.857
10005SOL    HW130914   4.656   0.036   3.843
10005SOL    HW230915   4.610   0.178   3.907
10006SOL     OW30916   5.390   0.879   3.357
10006SOL    HW130917   5.482   0.844   3.344
10006SOL    HW230918   5.327   0.804   3.373
10007SOL     OW30919   0.599   5.290   4.828
10007SOL    HW130920   0.618   5.236   4.910
10007SOL    HW230921   0.506   5.326   4.833
10008SOL     OW30922   4.154   1.340   4.476
10008SOL    HW130923   4.182   1.407   4.545
10008SOL    HW230924   4.217   1.263   4.477
10009SOL     OW30925   1.980   3.756   1.430
10009SOL    HW130926   2.000   3.845   1.471
10009SOL    HW230927   1.896   3.762   1.376
10010SOL     OW30928   1.836   6.574   6.422
10010SOL    HW130929   1.901   6.621   6.364
10010SOL    HW230930   1.824   6.625   6.507
10011SOL     OW30931   5.903   1.517   4.843
10011SOL    HW130932   5.940   1.605   4.813
10011SOL    HW230933   5.805   1.514   4.826
10012SOL     OW30934   4.514   1.323   3.242
10012SOL    HW130935   4.419   1.297   3.223
10012SOL    HW230936   4.517   1.420   3.266
10013SOL     OW30937   1.301   1.750   3.584
10013SOL    HW130938   1.291   1.670   3.643
10013SOL    HW230939   1.364   1.729   3.509
10014SOL     OW30940   6.425   3.335   6.870
10014SOL    HW130941   6.407   3.296   6.780
10014SOL    HW230942   6.356   3.303   6.935
10015SOL     OW30943   2.494   4.213   0.187
10015SOL    HW130944   2.524   4.206   0.092
10015SOL    HW230945   2.427   4.288   0.195
10016SOL     OW30946   1.976   0.269   5.569
10016SOL    HW130947   2.020   0.292   5.655
10016SOL    HW230948   2.042   0.225   5.508
10017SOL     OW30949   2.502   2.423   2.859
10017SOL    HW130950   2.411   2.383   2.844
10017SOL    HW230951   2.561   2.401   2.781
10018SOL     OW30952   4.767   7.005   5.745
10018SOL    HW130953   4.719   6.927   5.783
10018SOL    HW230954   4.850   6.974   5.698
10019SOL     OW30955   0.479   1.718   2.847
10019SOL    HW130956   0.454   1.806   2.886
10019SOL    HW230957   0.519   1.732   2.756
10020SOL     OW30958   0.870   2.644   1.382
10020SOL    HW130959   0.953   2.635   1.437
10020SOL    HW230960   0.872   2.577   1.308
10021SOL     OW30961   0.069   2.426   0.646
10021SOL    HW130962   0.116   2.338   0.637
10021SOL    HW230963   6.996   2.414   0.628
10022SOL     OW30964   3.072   0.114   6.915
10022SOL    HW130965   3.164   0.102   6.878
10022SOL    HW230966   3.044   0.030   6.963
10023SOL     OW30967   0.958   5.212   6.036
10023SOL    HW130968   1.032   5.280   6.027
10023SOL    HW230969   0.984   5.129   5.986
10024SOL     OW30970   2.126   6.521   1.566
10024SOL    HW130971   2.221   6.489   1.574
10024SOL    HW230972   2.125   6.616   1.537
10025SOL     OW30973   1.626   1.678   1.417
10025SOL    HW130974   1.616   1.701   1.320
10025SOL    HW230975   1.627   1.578   1.427
10026SOL     OW30976   5.230   6.663   4.037
10026SOL    HW130977   5.222   6.699   3.944
10026SOL    HW230978   5.325   6.637   4.055
10027SOL     OW30979   6.591   4.037   5.337
10027SOL    HW130980   6.643   4.024   5.252
10027SOL    HW230981   6.652   4.027   5.415
10028SOL     OW30982   1.846   1.820   1.102
10028SOL    HW130983   1.900   1.791   1.023
10028SOL    HW230984   1.756   1.776   1.099
10029SOL     OW30985   3.901   2.197   4.564
10029SOL    HW130986   3.941   2.108   4.584
10029SOL    HW230987   3.802   2.187   4.553
10030SOL     OW30988   2.345   6.719   3.770
10030SOL    HW130989   2.307   6.646   3.712
10030SOL    HW230990   2.271   6.763   3.820
10031SOL     OW30991   6.145   5.056   4.211
10031SOL    HW130992   6.063   5.084   4.260
10031SOL    HW230993   6.149   4.957   4.205
10032SOL     OW30994   2.405   1.896   5.228
10032SOL    HW130995   2.317   1.920   5.190
10032SOL    HW230996   2.470   1.972   5.214
10033SOL     OW30997   5.752   1.932   3.804
10033SOL    HW130998   5.727   2.029   3.802
10033SOL    HW230999   5.694   1.881   3.740
10034SOL     OW31000   2.858   0.329   4.180
10034SOL    HW131001   2.847   0.427   4.192
10034SOL    HW231002   2.901   0.290   4.261
10035SOL     OW31003   6.254   4.363   1.903
10035SOL    HW131004   6.243   4.284   1.842
10035SOL    HW231005   6.345   4.402   1.891
10036SOL     OW31006   6.253   2.522   1.590
10036SOL    HW131007   6.235   2.509   1.492
10036SOL    HW231008   6.351   2.512   1.608
10037SOL     OW31009   6.459   0.834   0.666
10037SOL    HW131010   6.519   0.758   0.688
10037SOL    HW231011   6.437   0.885   0.749
10038SOL     OW31012   5.287   0.907   0.321
10038SOL    HW131013   5.243   0.866   0.401
10038SOL    HW231014   5.386   0.900   0.330
10039SOL     OW31015   3.306   0.435   2.975
10039SOL    HW131016   3.285   0.454   2.879
10039SOL    HW231017   3.221   0.419   3.025
10040SOL     OW31018   4.883   5.026   6.500
10040SOL    HW131019   4.820   4.949   6.494
10040SOL    HW231020   4.972   4.994   6.531
10041SOL     OW31021   4.129   6.047   6.767
10041SOL    HW131022   4.081   6.028   6.682
10041SOL    HW231023   4.182   6.131   6.757
10042SOL     OW31024   1.125   1.989   4.144
10042SOL    HW131025   1.076   2.041   4.074
10042SOL    HW231026   1.060   1.959   4.215
10043SOL     OW31027   6.292   1.140   5.281
10043SOL    HW131028   6.261   1.225   5.323
10043SOL    HW231029   6.218   1.073   5.283
10044SOL     OW31030   1.823   1.971   4.744
10044SOL    HW131031   1.788   1.916   4.820
10044SOL    HW231032   1.811   1.922   4.658
10045SOL     OW31033   4.068   0.187   2.727
10045SOL    HW131034   4.091   0.218   2.634
10045SOL    HW231035   4.122   0.106   2.749
10046SOL     OW31036   2.476   3.744   0.745
10046SOL    HW131037   2.486   3.773   0.840
10046SOL    HW231038   2.400   3.794   0.703
10047SOL     OW31039   0.822   3.217   4.547
10047SOL    HW131040   0.801   3.255   4.637
10047SOL    HW231041   0.820   3.290   4.478
10048SOL     OW31042   6.960   0.245   2.555
10048SOL    HW131043   7.015   0.321   2.590
10048SOL    HW231044   6.902   0.209   2.629
10049SOL     OW31045   1.490   1.367   6.075
10049SOL    HW131046   1.453   1.346   5.985
10049SOL    HW231047   1.576   1.319   6.088
10050SOL     OW31048   5.393   3.912   5.420
10050SOL    HW131049   5.440   3.970   5.354
10050SOL    HW231050   5.381   3.820   5.380
10051SOL     OW31051   0.149   3.921   5.155
10051SOL    HW131052   0.207   3.975   5.094
10051SOL    HW231053   0.139   3.969   5.242
10052SOL     OW31054   2.243   1.123   3.410
10052SOL    HW131055   2.174   1.196   3.414
10052SOL    HW231056   2.321   1.154   3.356
10053SOL     OW31057   4.481   5.995   4.332
10053SOL    HW131058   4.503   5.897   4.330
10053SOL    HW231059   4.506   6.036   4.245
10054SOL     OW31060   5.580   5.898   5.416
10054SOL    HW131061   5.499   5.888   5.358
10054SOL    HW231062   5.568   5.975   5.478
10055SOL     OW31063   6.399   1.483   5.275
10055SOL    HW131064   6.305   1.458   5.251
10055SOL    HW231065   6.401   1.524   5.366
10056SOL     OW31066   5.561   4.382   2.875
10056SOL    HW131067   5.580   4.339   2.963
10056SOL    HW231068   5.600   4.327   2.801
10057SOL     OW31069   4.975   3.321   5.327
10057SOL    HW131070   4.949   3.381   5.403
10057SOL    HW231071   4.900   3.315   5.262
10058SOL     OW31072   6.340   3.927   4.949
10058SOL    HW131073   6.267   3.974   4.999
10058SOL    HW231074   6.338   3.829   4.971
10059SOL     OW31075   0.188   1.566   6.895
10059SOL    HW131076   0.089   1.580   6.897
10059SOL    HW231077   0.234   1.655   6.888
10060SOL     OW31078   2.179   2.613   2.495
10060SOL    HW131079   2.274   2.587   2.479
10060SOL    HW231080   2.148   2.673   2.422
10061SOL     OW31081   4.697   1.331   3.832
10061SOL    HW131082   4.718   1.352   3.737
10061SOL    HW231083   4.682   1.233   3.842
10062SOL     OW31084   6.721   0.500   4.330
10062SOL    HW131085   6.748   0.415   4.377
10062SOL    HW231086   6.676   0.477   4.244
10063SOL     OW31087   3.459   0.987   4.578
10063SOL    HW131088   3.432   0.900   4.536
10063SOL    HW231089   3.460   0.976   4.677
10064SOL     OW31090   5.089   6.851   6.914
10064SOL    HW131091   5.065   6.839   6.817
10064SOL    HW231092   5.188   6.837   6.925
10065SOL     OW31093   2.124   1.037   1.717
10065SOL    HW131094   2.054   1.059   1.785
10065SOL    HW231095   2.175   0.956   1.747
10066SOL     OW31096   0.661   3.129   4.892
10066SOL    HW131097   0.740   3.182   4.860
10066SOL    HW231098   0.689   3.069   4.967
10067SOL     OW31099   0.018   3.375   6.301
10067SOL    HW131100   6.954   3.337   6.274
10067SOL    HW231101   0.051   3.329   6.384
10068SOL     OW31102   0.954   3.453   3.266
10068SOL    HW131103   1.036   3.495   3.227
10068SOL    HW231104   0.896   3.523   3.307
10069SOL     OW31105   3.176   5.122   1.892
10069SOL    HW131106   3.239   5.161   1.959
10069SOL    HW231107   3.088   5.170   1.897
10070SOL     OW31108   7.017   5.794   5.473
10070SOL    HW131109   6.977   5.873   5.520
10070SOL    HW231110   7.017   5.809   5.375
10071SOL     OW31111   1.040   0.050   4.379
10071SOL    HW131112   1.012   0.037   4.474
10071SOL    HW231113   1.081   0.141   4.369
10072SOL     OW31114   7.021   0.854   3.667
10072SOL    HW131115   6.971   0.808   3.740
10072SOL    HW231116   6.963   0.862   3.587
10073SOL     OW31117   0.124   4.530   3.868
10073SOL    HW131118   0.063   4.476   3.927
10073SOL    HW231119   0.071   4.599   3.819
10074SOL     OW31120   2.337   6.319   6.575
10074SOL    HW131121   2.299   6.251   6.638
10074SOL    HW231122   2.430   6.343   6.604
10075SOL     OW31123   1.325   1.511   2.000
10075SOL    HW131124   1.298   1.581   2.065
10075SOL    HW231125   1.257   1.505   1.927
10076SOL     OW31126   4.584   5.920   2.720
10076SOL    HW131127   4.575   5.924   2.819
10076SOL    HW231128   4.559   5.828   2.689
10077SOL     OW31129   4.481   2.687   0.950
10077SOL    HW131130   4.433   2.695   1.037
10077SOL    HW231131   4.512   2.593   0.937
10078SOL     OW31132   6.660   6.289   4.472
10078SOL    HW131133   6.675   6.205   4.524
10078SOL    HW231134   6.715   6.288   4.389
10079SOL     OW31135   6.519   2.748   2.281
10079SOL    HW131136   6.510   2.649   2.271
10079SOL    HW231137   6.451   2.781   2.347
10080SOL     OW31138   4.600   1.535   6.204
10080SOL    HW131139   4.562   1.627   6.213
10080SOL    HW231140   4.700   1.541   6.195
10081SOL     OW31141   0.852   1.582   6.887
10081SOL    HW131142   0.843   1.640   6.968
10081SOL    HW231143   0.769   1.527   6.876
10082SOL     OW31144   1.188   5.283   2.983
10082SOL    HW131145   1.218   5.190   2.963
10082SOL    HW231146   1.196   5.339   2.901
10083SOL     OW31147   3.141   6.963   3.904
10083SOL    HW131148   3.142   6.986   3.807
10083SOL    HW231149   3.056   6.995   3.945
10084SOL     OW31150   0.507   0.038   5.370
10084SOL    HW131151   0.483   0.118   5.425
10084SOL    HW231152   0.606   0.031   5.363
10085SOL     OW31153   4.029   0.408   0.584
10085SOL    HW131154   4.098   0.411   0.656
10085SOL    HW231155   3.958   0.341   0.608
10086SOL     OW31156   6.102   6.752   3.206
10086SOL    HW131157   6.084   6.843   3.169
10086SOL    HW231158   6.200   6.733   3.200
10087SOL     OW31159   6.310   6.448   3.908
10087SOL    HW131160   6.326   6.368   3.965
10087SOL    HW231161   6.330   6.531   3.960
10088SOL     OW31162   0.080   0.315   1.708
10088SOL    HW131163   0.062   0.363   1.622
10088SOL    HW231164   0.107   0.382   1.778
10089SOL     OW31165   3.054   1.968   2.964
10089SOL    HW131166   3.128   2.004   2.907
10089SOL    HW231167   2.987   1.922   2.906
10090SOL     OW31168   0.398   4.899   2.102
10090SOL    HW131169   0.409   4.867   2.196
10090SOL    HW231170   0.357   4.826   2.046
10091SOL     OW31171   6.697   5.973   6.827
10091SOL    HW131172   6.792   5.943   6.834
10091SOL    HW231173   6.642   5.903   6.781
10092SOL     OW31174   1.211   2.708   5.695
10092SOL    HW131175   1.305   2.688   5.723
10092SOL    HW231176   1.150   2.701   5.774
10093SOL     OW31177   4.936   3.504   4.854
10093SOL    HW131178   4.986   3.560   4.787
10093SOL    HW231179   4.869   3.561   4.901
10094SOL     OW31180   2.262   6.303   0.715
10094SOL    HW131181   2.334   6.361   0.753
10094SOL    HW231182   2.179   6.311   0.772
10095SOL     OW31183   5.386   1.890   4.099
10095SOL    HW131184   5.482   1.881   4.076
10095SOL    HW231185   5.377   1.923   4.193
10096SOL     OW31186   4.661   0.439   2.846
10096SOL    HW131187   4.700   0.347   2.855
10096SOL    HW231188   4.562   0.433   2.849
10097SOL     OW31189   2.434   2.127   6.455
10097SOL    HW131190   2.518   2.087   6.492
10097SOL    HW231191   2.397   2.193   6.520
10098SOL     OW31192   2.607   6.850   5.252
10098SOL    HW131193   2.590   6.881   5.158
10098SOL    HW231194   2.532   6.880   5.311
10099SOL     OW31195   6.559   4.419   1.835
10099SOL    HW131196   6.554   4.348   1.766
10099SOL    HW231197   6.643   4.408   1.888
10100SOL     OW31198   5.627   6.392   5.859
10100SOL    HW131199   5.623   6.399   5.759
10100SOL    HW231200   5.538   6.414   5.898
10101SOL     OW31201   6.302   2.856   1.309
10101SOL    HW131202   6.212   2.896   1.292
10101SOL    HW231203   6.330   2.877   1.402
10102SOL     OW31204   7.024   0.406   1.481
10102SOL    HW131205   7.000   0.329   1.423
10102SOL    HW231206   0.058   0.469   1.430
10103SOL     OW31207   1.632   0.539   5.271
10103SOL    HW131208   1.719   0.564   5.314
10103SOL    HW231209   1.635   0.565   5.174
10104SOL     OW31210   1.864   0.913   6.257
10104SOL    HW131211   1.839   1.009   6.269
10104SOL    HW231212   1.791   0.855   6.295
10105SOL     OW31213   1.914   0.659   5.985
10105SOL    HW131214   2.001   0.702   6.007
10105SOL    HW231215   1.842   0.727   5.984
10106SOL     OW31216   4.107   6.679   0.525
10106SOL    HW131217   4.196   6.679   0.478
10106SOL    HW231218   4.093   6.590   0.569
10107SOL     OW31219   5.718   1.714   5.940
10107SOL    HW131220   5.742   1.637   5.999
10107SOL    HW231221   5.745   1.694   5.846
10108SOL     OW31222   0.657   2.534   0.616
10108SOL    HW131223   0.669   2.464   0.545
10108SOL    HW231224   0.664   2.625   0.576
10109SOL     OW31225   0.798   1.042   0.466
10109SOL    HW131226   0.896   1.027   0.476
10109SOL    HW231227   0.763   0.983   0.393
10110SOL     OW31228   4.595   4.916   3.732
10110SOL    HW131229   4.620   4.831   3.686
10110SOL    HW231230   4.671   4.981   3.726
10111SOL     OW31231   0.148   3.373   2.919
10111SOL    HW131232   0.080   3.446   2.913
10111SOL    HW231233   0.159   3.346   3.015
10112SOL     OW31234   5.744   3.445   3.334
10112SOL    HW131235   5.834   3.428   3.376
10112SOL    HW231236   5.692   3.507   3.393
10113SOL     OW31237   4.138   0.003   0.487
10113SOL    HW131238   4.161   7.021   0.584
10113SOL    HW231239   4.172   0.090   0.450
10114SOL     OW31240   3.991   2.162   3.352
10114SOL    HW131241   4.027   2.206   3.270
10114SOL    HW231242   4.033   2.072   3.363
10115SOL     OW31243   3.808   1.927   4.809
10115SOL    HW131244   3.735   1.994   4.822
10115SOL    HW231245   3.779   1.839   4.846
10116SOL     OW31246   6.919   0.495   6.240
10116SOL    HW131247   6.870   0.571   6.197
10116SOL    HW231248   6.927   0.420   6.175
10117SOL     OW31249   6.684   5.980   5.881
10117SOL    HW131250   6.658   6.071   5.851
10117SOL    HW231251   6.619   5.913   5.845
10118SOL     OW31252   2.438   4.807   4.246
10118SOL    HW131253   2.513   4.796   4.181
10118SOL    HW231254   2.450   4.892   4.297
10119SOL     OW31255   6.292   5.437   4.534
10119SOL    HW131256   6.270   5.521   4.583
10119SOL    HW231257   6.239   5.432   4.450
10120SOL     OW31258   1.274   3.087   3.714
10120SOL    HW131259   1.190   3.107   3.664
10120SOL    HW231260   1.351   3.087   3.651
10121SOL     OW31261   5.802   4.326   1.168
10121SOL    HW131262   5.880   4.271   1.140
10121SOL    HW231263   5.726   4.267   1.195
10122SOL     OW31264   6.436   2.204   3.591
10122SOL    HW131265   6.524   2.163   3.615
10122SOL    HW231266   6.444   2.303   3.590
10123SOL     OW31267   5.515   6.699   0.843
10123SOL    HW131268   5.434   6.652   0.877
10123SOL    HW231269   5.488   6.772   0.780
10124SOL     OW31270   1.177   5.149   1.741
10124SOL    HW131271   1.265   5.105   1.721
10124SOL    HW231272   1.115   5.082   1.782
10125SOL     OW31273   2.617   1.510   1.339
10125SOL    HW131274   2.706   1.543   1.369
10125SOL    HW231275   2.628   1.425   1.287
10126SOL     OW31276   6.626   0.232   5.983
10126SOL    HW131277   6.704   0.222   6.044
10126SOL    HW231278   6.658   0.231   5.888
10127SOL     OW31279   1.524   4.337   6.574
10127SOL    HW131280   1.506   4.399   6.651
10127SOL    HW231281   1.611   4.290   6.589
10128SOL     OW31282   3.025   0.561   6.744
10128SOL    HW131283   3.003   0.589   6.650
10128SOL    HW231284   2.961   0.490   6.773
10129SOL     OW31285   0.560   1.525   2.199
10129SOL    HW131286   0.514   1.586   2.135
10129SOL    HW231287   0.615   1.459   2.148
10130SOL     OW31288   0.877   2.859   1.646
10130SOL    HW131289   0.953   2.818   1.596
10130SOL    HW231290   0.802   2.878   1.584
10131SOL     OW31291   1.509   0.466   4.350
10131SOL    HW131292   1.489   0.381   4.398
10131SOL    HW231293   1.514   0.541   4.415
10132SOL     OW31294   1.422   0.361   2.462
10132SOL    HW131295   1.361   0.436   2.490
10132SOL    HW231296   1.513   0.376   2.501
10133SOL     OW31297   4.543   6.685   0.893
10133SOL    HW131298   4.544   6.586   0.875
10133SOL    HW231299   4.591   6.733   0.820
10134SOL     OW31300   6.945   2.066   3.018
10134SOL    HW131301   7.002   2.072   3.099
10134SOL    HW231302   6.865   2.009   3.037
10135SOL     OW31303   5.365   1.766   3.262
10135SOL    HW131304   5.311   1.768   3.178
10135SOL    HW231305   5.307   1.792   3.339
10136SOL     OW31306   4.942   2.250   2.321
10136SOL    HW131307   4.939   2.301   2.408
10136SOL    HW231308   4.858   2.267   2.270
10137SOL     OW31309   0.379   4.807   5.975
10137SOL    HW131310   0.453   4.746   6.005
10137SOL    HW231311   0.292   4.759   5.982
10138SOL     OW31312   5.335   2.006   0.222
10138SOL    HW131313   5.387   2.091   0.225
10138SOL    HW231314   5.377   1.939   0.285
10139SOL     OW31315   3.926   3.450   5.019
10139SOL    HW131316   3.940   3.399   5.104
10139SOL    HW231317   3.832   3.482   5.014
10140SOL     OW31318   6.909   6.479   6.431
10140SOL    HW131319   6.896   6.461   6.334
10140SOL    HW231320   6.828   6.525   6.468
10141SOL     OW31321   4.304   0.973   3.585
10141SOL    HW131322   4.374   1.039   3.559
10141SOL    HW231323   4.233   1.019   3.638
10142SOL     OW31324   5.895   6.735   5.336
10142SOL    HW131325   5.983   6.720   5.381
10142SOL    HW231326   5.868   6.651   5.288
10143SOL     OW31327   5.756   3.009   0.315
10143SOL    HW131328   5.662   2.975   0.307
10143SOL    HW231329   5.809   2.979   0.236
10144SOL     OW31330   4.312   0.020   5.521
10144SOL    HW131331   4.282   0.107   5.483
10144SOL    HW231332   4.351   6.987   5.449
10145SOL     OW31333   4.260   6.063   2.593
10145SOL    HW131334   4.290   6.097   2.682
10145SOL    HW231335   4.335   6.070   2.527
10146SOL     OW31336   6.984   4.284   4.584
10146SOL    HW131337   6.948   4.192   4.571
10146SOL    HW231338   6.922   4.337   4.642
10147SOL     OW31339   5.113   4.734   0.204
10147SOL    HW131340   5.186   4.716   0.270
10147SOL    HW231341   5.029   4.690   0.235
10148SOL     OW31342   5.972   4.237   1.626
10148SOL    HW131343   5.946   4.287   1.708
10148SOL    HW231344   6.058   4.188   1.643
10149SOL     OW31345   4.912   5.138   1.503
10149SOL    HW131346   4.869   5.061   1.457
10149SOL    HW231347   4.855   5.219   1.493
10150SOL     OW31348   5.336   3.432   1.762
10150SOL    HW131349   5.347   3.516   1.708
10150SOL    HW231350   5.245   3.395   1.748
10151SOL     OW31351   0.571   6.861   5.572
10151SOL    HW131352   0.619   6.909   5.499
10151SOL    HW231353   0.607   6.768   5.582
10152SOL     OW31354   6.393   5.860   3.361
10152SOL    HW131355   6.491   5.872   3.340
10152SOL    HW231356   6.383   5.822   3.452
10153SOL     OW31357   4.244   6.090   3.784
10153SOL    HW131358   4.323   6.102   3.723
10153SOL    HW231359   4.276   6.080   3.878
10154SOL     OW31360   3.910   5.292   6.073
10154SOL    HW131361   3.931   5.375   6.022
10154SOL    HW231362   3.954   5.214   6.028
10155SOL     OW31363   5.106   2.233   5.933
10155SOL    HW131364   5.096   2.275   6.024
10155SOL    HW231365   5.203   2.224   5.912
10156SOL     OW31366   4.642   0.299   1.077
10156SOL    HW131367   4.733   0.337   1.096
10156SOL    HW231368   4.592   0.362   1.018
10157SOL     OW31369   0.164   2.101   0.228
10157SOL    HW131370   0.151   2.037   0.152
10157SOL    HW231371   0.075   2.134   0.260
10158SOL     OW31372   6.037   6.632   2.542
10158SOL    HW131373   6.019   6.563   2.471
10158SOL    HW231374   6.132   6.624   2.572
10159SOL     OW31375   3.942   3.649   3.318
10159SOL    HW131376   3.989   3.576   3.369
10159SOL    HW231377   3.870   3.689   3.374
10160SOL     OW31378   1.974   4.444   3.002
10160SOL    HW131379   1.923   4.501   3.067
10160SOL    HW231380   1.973   4.349   3.033
10161SOL     OW31381   3.764   4.558   6.666
10161SOL    HW131382   3.742   4.612   6.584
10161SOL    HW231383   3.787   4.620   6.741
10162SOL     OW31384   2.484   4.563   1.244
10162SOL    HW131385   2.439   4.648   1.219
10162SOL    HW231386   2.419   4.487   1.238
10163SOL     OW31387   0.686   5.505   6.142
10163SOL    HW131388   0.676   5.594   6.188
10163SOL    HW231389   0.735   5.517   6.056
10164SOL     OW31390   6.224   3.411   3.710
10164SOL    HW131391   6.260   3.329   3.754
10164SOL    HW231392   6.124   3.407   3.709
10165SOL     OW31393   6.239   2.236   3.376
10165SOL    HW131394   6.295   2.296   3.319
10165SOL    HW231395   6.292   2.209   3.457
10166SOL     OW31396   1.728   3.335   0.984
10166SOL    HW131397   1.714   3.255   0.925
10166SOL    HW231398   1.822   3.333   1.020
10167SOL     OW31399   0.248   4.900   0.205
10167SOL    HW131400   0.163   4.851   0.186
10167SOL    HW231401   0.281   4.944   0.122
10168SOL     OW31402   6.155   1.280   5.916
10168SOL    HW131403   6.164   1.309   6.011
10168SOL    HW231404   6.237   1.230   5.889
10169SOL     OW31405   6.632   3.851   3.191
10169SOL    HW131406   6.599   3.841   3.097
10169SOL    HW231407   6.641   3.761   3.232
10170SOL     OW31408   6.341   5.188   6.661
10170SOL    HW131409   6.431   5.232   6.666
10170SOL    HW231410   6.274   5.253   6.624
10171SOL     OW31411   1.008   2.071   5.944
10171SOL    HW131412   1.095   2.119   5.934
10171SOL    HW231413   0.963   2.063   5.855
10172SOL     OW31414   0.390   0.148   4.395
10172SOL    HW131415   0.299   0.185   4.412
10172SOL    HW231416   0.459   0.212   4.428
10173SOL     OW31417   2.606   3.747   0.043
10173SOL    HW131418   2.682   3.696   0.003
10173SOL    HW231419   2.620   3.756   0.142
10174SOL     OW31420   4.723   5.234   3.741
10174SOL    HW131421   4.650   5.264   3.801
10174SOL    HW231422   4.782   5.169   3.790
10175SOL     OW31423   6.707   1.590   3.313
10175SOL    HW131424   6.649   1.654   3.362
10175SOL    HW231425   6.803   1.606   3.337
10176SOL     OW31426   6.431   3.829   5.435
10176SOL    HW131427   6.408   3.762   5.364
10176SOL    HW231428   6.475   3.908   5.393
10177SOL     OW31429   1.921   0.101   0.937
10177SOL    HW131430   1.828   0.079   0.910
10177SOL    HW231431   1.920   0.159   1.018
10178SOL     OW31432   1.409   0.880   0.803
10178SOL    HW131433   1.508   0.878   0.816
10178SOL    HW231434   1.364   0.842   0.884
10179SOL     OW31435   0.123   4.111   6.956
10179SOL    HW131436   0.120   4.150   0.023
10179SOL    HW231437   0.109   4.183   6.888
10180SOL     OW31438   4.342   0.465   0.459
10180SOL    HW131439   4.260   0.522   0.453
10180SOL    HW231440   4.403   0.486   0.382
10181SOL     OW31441   0.152   3.067   1.161
10181SOL    HW131442   0.247   3.037   1.148
10181SOL    HW231443   0.097   3.034   1.084
10182SOL     OW31444   5.001   1.166   0.138
10182SOL    HW131445   5.072   1.098   0.121
10182SOL    HW231446   4.914   1.134   0.099
10183SOL     OW31447   5.832   3.137   6.121
10183SOL    HW131448   5.876   3.088   6.045
10183SOL    HW231449   5.789   3.071   6.182
10184SOL     OW31450   5.732   3.299   6.519
10184SOL    HW131451   5.694   3.266   6.433
10184SOL    HW231452   5.684   3.257   6.596
10185SOL     OW31453   4.971   6.225   2.600
10185SOL    HW131454   5.060   6.204   2.558
10185SOL    HW231455   4.901   6.231   2.529
10186SOL     OW31456   4.887   3.888   4.836
10186SOL    HW131457   4.832   3.818   4.881
10186SOL    HW231458   4.862   3.978   4.873
10187SOL     OW31459   2.089   3.925   5.378
10187SOL    HW131460   2.106   4.022   5.362
10187SOL    HW231461   1.991   3.906   5.370
10188SOL     OW31462   3.318   5.466   6.853
10188SOL    HW131463   3.351   5.435   6.764
10188SOL    HW231464   3.297   5.563   6.849
10189SOL     OW31465   1.517   0.688   6.687
10189SOL    HW131466   1.527   0.765   6.750
10189SOL    HW231467   1.555   0.606   6.729
10190SOL     OW31468   3.533   3.186   1.529
10190SOL    HW131469   3.611   3.141   1.486
10190SOL    HW231470   3.456   3.123   1.533
10191SOL     OW31471   5.766   5.917   1.704
10191SOL    HW131472   5.675   5.884   1.677
10191SOL    HW231473   5.759   5.963   1.792
10192SOL     OW31474   2.801   1.568   4.930
10192SOL    HW131475   2.772   1.650   4.980
10192SOL    HW231476   2.774   1.578   4.834
10193SOL     OW31477   3.005   3.917   2.772
10193SOL    HW131478   2.961   3.827   2.766
10193SOL    HW231479   3.003   3.961   2.682
10194SOL     OW31480   3.933   6.969   5.041
10194SOL    HW131481   3.952   6.982   4.943
10194SOL    HW231482   3.834   6.957   5.054
10195SOL     OW31483   6.648   0.200   1.390
10195SOL    HW131484   6.720   0.136   1.364
10195SOL    HW231485   6.586   0.156   1.455
10196SOL     OW31486   5.922   2.388   3.585
10196SOL    HW131487   5.938   2.290   3.598
10196SOL    HW231488   5.857   2.402   3.511
10197SOL     OW31489   5.508   0.879   4.275
10197SOL    HW131490   5.554   0.805   4.228
10197SOL    HW231491   5.475   0.946   4.209
10198SOL     OW31492   3.405   6.439   0.693
10198SOL    HW131493   3.390   6.533   0.664
10198SOL    HW231494   3.366   6.425   0.784
10199SOL     OW31495   0.604   1.094   6.580
10199SOL    HW131496   0.640   1.057   6.494
10199SOL    HW231497   0.515   1.137   6.562
10200SOL     OW31498   4.974   2.983   5.274
10200SOL    HW131499   4.964   3.081   5.288
10200SOL    HW231500   5.062   2.952   5.311
10201SOL     OW31501   0.747   6.240   1.034
10201SOL    HW131502   0.725   6.331   1.066
10201SOL    HW231503   0.678   6.175   1.065
10202SOL     OW31504   1.463   3.825   0.440
10202SOL    HW131505   1.422   3.763   0.373
10202SOL    HW231506   1.553   3.791   0.467
10203SOL     OW31507   1.417   3.128   1.777
10203SOL    HW131508   1.425   3.195   1.852
10203SOL    HW231509   1.375   3.044   1.812
10204SOL     OW31510   3.676   5.109   6.542
10204SOL    HW131511   3.624   5.169   6.482
10204SOL    HW231512   3.627   5.022   6.553
10205SOL     OW31513   4.099   1.043   2.934
10205SOL    HW131514   4.074   1.132   2.974
10205SOL    HW231515   4.017   1.001   2.894
10206SOL     OW31516   4.873   6.255   6.153
10206SOL    HW131517   4.857   6.293   6.244
10206SOL    HW231518   4.857   6.156   6.155
10207SOL     OW31519   1.962   0.765   0.648
10207SOL    HW131520   1.953   0.783   0.550
10207SOL    HW231521   1.918   0.838   0.699
10208SOL     OW31522   6.446   4.996   4.507
10208SOL    HW131523   6.507   5.006   4.585
10208SOL    HW231524   6.358   5.038   4.527
10209SOL     OW31525   0.714   1.036   5.610
10209SOL    HW131526   0.616   1.036   5.630
10209SOL    HW231527   0.744   0.943   5.591
10210SOL     OW31528   5.146   0.314   1.820
10210SOL    HW131529   5.138   0.414   1.820
10210SOL    HW231530   5.061   0.274   1.853
10211SOL     OW31531   4.578   6.527   5.821
10211SOL    HW131532   4.505   6.561   5.762
10211SOL    HW231533   4.602   6.433   5.794
10212SOL     OW31534   0.399   1.525   4.348
10212SOL    HW131535   0.395   1.431   4.316
10212SOL    HW231536   0.405   1.526   4.448
10213SOL     OW31537   6.327   1.780   2.324
10213SOL    HW131538   6.377   1.861   2.355
10213SOL    HW231539   6.388   1.700   2.325
10214SOL     OW31540   0.890   1.352   2.156
10214SOL    HW131541   0.886   1.319   2.062
10214SOL    HW231542   0.858   1.280   2.218
10215SOL     OW31543   3.191   2.937   4.747
10215SOL    HW131544   3.217   2.874   4.820
10215SOL    HW231545   3.092   2.932   4.732
10216SOL     OW31546   6.957   6.857   0.863
10216SOL    HW131547   6.870   6.839   0.818
10216SOL    HW231548   6.993   6.945   0.832
10217SOL     OW31549   2.630   0.978   3.822
10217SOL    HW131550   2.583   0.991   3.909
10217SOL    HW231551   2.571   1.009   3.747
10218SOL     OW31552   1.166   0.999   0.915
10218SOL    HW131553   1.259   0.985   0.880
10218SOL    HW231554   1.170   1.013   1.014
10219SOL     OW31555   0.389   3.061   1.713
10219SOL    HW131556   0.480   3.098   1.699
10219SOL    HW231557   0.366   3.063   1.810
10220SOL     OW31558   3.885   1.509   2.320
10220SOL    HW131559   3.852   1.424   2.362
10220SOL    HW231560   3.853   1.587   2.373
10221SOL     OW31561   1.379   2.030   3.570
10221SOL    HW131562   1.334   2.081   3.497
10221SOL    HW231563   1.327   1.947   3.590
10222SOL     OW31564   1.366   3.292   5.817
10222SOL    HW131565   1.417   3.356   5.760
10222SOL    HW231566   1.382   3.312   5.913
10223SOL     OW31567   1.617   6.046   6.759
10223SOL    HW131568   1.598   6.132   6.712
10223SOL    HW231569   1.686   5.994   6.708
10224SOL     OW31570   0.047   1.002   4.810
10224SOL    HW131571   0.006   1.059   4.738
10224SOL    HW231572   0.056   1.056   4.894
10225SOL     OW31573   1.698   6.588   5.642
10225SOL    HW131574   1.658   6.679   5.650
10225SOL    HW231575   1.630   6.519   5.667
10226SOL     OW31576   2.663   0.131   7.011
10226SOL    HW131577   2.658   0.130   0.086
10226SOL    HW231578   2.751   0.170   6.982
10227SOL     OW31579   4.495   4.622   0.846
10227SOL    HW131580   4.511   4.524   0.831
10227SOL    HW231581   4.572   4.661   0.896
10228SOL     OW31582   1.261   5.760   2.243
10228SOL    HW131583   1.251   5.733   2.147
10228SOL    HW231584   1.202   5.703   2.300
10229SOL     OW31585   1.053   1.101   4.258
10229SOL    HW131586   1.016   1.169   4.321
10229SOL    HW231587   1.011   1.113   4.167
10230SOL     OW31588   6.430   6.822   3.548
10230SOL    HW131589   6.453   6.879   3.627
10230SOL    HW231590   6.356   6.865   3.496
10231SOL     OW31591   6.875   6.187   6.270
10231SOL    HW131592   6.847   6.253   6.200
10231SOL    HW231593   6.849   6.095   6.241
10232SOL     OW31594   2.685   0.741   4.292
10232SOL    HW131595   2.615   0.717   4.225
10232SOL    HW231596   2.643   0.748   4.383
10233SOL     OW31597   5.229   3.365   5.332
10233SOL    HW131598   5.133   3.345   5.315
10233SOL    HW231599   5.269   3.293   5.388
10234SOL     OW31600   5.746   0.860   1.295
10234SOL    HW131601   5.803   0.933   1.258
10234SOL    HW231602   5.650   0.885   1.287
10235SOL     OW31603   4.474   2.075   0.536
10235SOL    HW131604   4.380   2.108   0.544
10235SOL    HW231605   4.475   1.987   0.488
10236SOL     OW31606   1.448   6.632   2.201
10236SOL    HW131607   1.492   6.599   2.117
10236SOL    HW231608   1.364   6.580   2.216
10237SOL     OW31609   5.932   3.889   1.255
10237SOL    HW131610   5.957   3.792   1.254
10237SOL    HW231611   5.866   3.908   1.183
10238SOL     OW31612   3.408   4.079   4.063
10238SOL    HW131613   3.311   4.066   4.041
10238SOL    HW231614   3.420   4.073   4.162
10239SOL     OW31615   1.517   4.048   5.214
10239SOL    HW131616   1.496   3.968   5.157
10239SOL    HW231617   1.458   4.047   5.295
10240SOL     OW31618   2.034   4.842   3.056
10240SOL    HW131619   1.959   4.908   3.059
10240SOL    HW231620   2.070   4.836   2.963
10241SOL     OW31621   0.517   0.423   1.995
10241SOL    HW131622   0.483   0.397   2.086
10241SOL    HW231623   0.497   0.349   1.931
10242SOL     OW31624   6.727   1.482   6.882
10242SOL    HW131625   6.668   1.547   6.835
10242SOL    HW231626   6.815   1.524   6.901
10243SOL     OW31627   0.660   5.496   0.878
10243SOL    HW131628   0.736   5.555   0.906
10243SOL    HW231629   0.596   5.548   0.822
10244SOL     OW31630   2.161   5.096   0.052
10244SOL    HW131631   2.092   5.136   0.112
10244SOL    HW231632   2.116   5.050   7.000
10245SOL     OW31633   3.212   4.268   6.988
10245SOL    HW131634   3.196   4.363   7.013
10245SOL    HW231635   3.164   4.208   0.027
10246SOL     OW31636   2.941   3.649   4.276
10246SOL    HW131637   2.842   3.636   4.277
10246SOL    HW231638   2.963   3.745   4.298
10247SOL     OW31639   0.121   5.261   4.983
10247SOL    HW131640   0.030   5.271   4.943
10247SOL    HW231641   0.162   5.175   4.953
10248SOL     OW31642   3.035   6.398   1.984
10248SOL    HW131643   3.095   6.477   1.970
10248SOL    HW231644   2.968   6.395   1.910
10249SOL     OW31645   3.402   0.814   5.838
10249SOL    HW131646   3.448   0.851   5.757
10249SOL    HW231647   3.402   0.883   5.911
10250SOL     OW31648   6.642   1.979   1.472
10250SOL    HW131649   6.553   1.946   1.440
10250SOL    HW231650   6.651   2.076   1.450
10251SOL     OW31651   2.607   2.109   5.172
10251SOL    HW131652   2.597   2.185   5.108
10251SOL    HW231653   2.581   2.139   5.264
10252SOL     OW31654   6.638   5.840   0.578
10252SOL    HW131655   6.719   5.781   0.586
10252SOL    HW231656   6.624   5.888   0.665
10253SOL     OW31657   5.506   5.995   0.665
10253SOL    HW131658   5.569   5.999   0.742
10253SOL    HW231659   5.412   5.989   0.699
10254SOL     OW31660   4.299   1.856   5.072
10254SOL    HW131661   4.383   1.904   5.096
10254SOL    HW231662   4.225   1.922   5.058
10255SOL     OW31663   2.248   5.244   1.521
10255SOL    HW131664   2.150   5.253   1.541
10255SOL    HW231665   2.300   5.295   1.588
10256SOL     OW31666   5.609   0.723   1.705
10256SOL    HW131667   5.527   0.667   1.698
10256SOL    HW231668   5.682   0.670   1.748
10257SOL     OW31669   2.066   5.024   4.129
10257SOL    HW131670   2.011   5.054   4.206
10257SOL    HW231671   2.059   4.924   4.119
10258SOL     OW31672   4.552   0.427   4.022
10258SOL    HW131673   4.585   0.500   3.963
10258SOL    HW231674   4.454   0.415   4.009
10259SOL     OW31675   1.036   5.145   3.456
10259SOL    HW131676   1.060   5.130   3.552
10259SOL    HW231677   0.948   5.103   3.436
10260SOL     OW31678   0.365   0.447   3.083
10260SOL    HW131679   0.441   0.416   3.140
10260SOL    HW231680   0.289   0.477   3.140
10261SOL     OW31681   6.753   6.047   2.839
10261SOL    HW131682   6.667   6.027   2.885
10261SOL    HW231683   6.829   6.030   2.901
10262SOL     OW31684   2.618   6.326   4.559
10262SOL    HW131685   2.617   6.420   4.593
10262SOL    HW231686   2.621   6.327   4.459
10263SOL     OW31687   4.569   1.397   6.439
10263SOL    HW131688   4.655   1.372   6.483
10263SOL    HW231689   4.588   1.453   6.358
10264SOL     OW31690   5.567   2.148   6.757
10264SOL    HW131691   5.522   2.117   6.674
10264SOL    HW231692   5.610   2.237   6.740
10265SOL     OW31693   3.283   2.057   2.816
10265SOL    HW131694   3.382   2.068   2.802
10265SOL    HW231695   3.234   2.126   2.763
10266SOL     OW31696   3.459   2.715   5.264
10266SOL    HW131697   3.550   2.676   5.279
10266SOL    HW231698   3.390   2.643   5.271
10267SOL     OW31699   5.816   1.926   6.097
10267SOL    HW131700   5.808   1.852   6.030
10267SOL    HW231701   5.875   1.897   6.172
10268SOL     OW31702   3.899   5.931   1.903
10268SOL    HW131703   3.850   6.007   1.861
10268SOL    HW231704   3.862   5.844   1.871
10269SOL     OW31705   1.534   1.998   5.403
10269SOL    HW131706   1.501   2.050   5.325
10269SOL    HW231707   1.625   2.032   5.430
10270SOL     OW31708   2.357   5.319   2.989
10270SOL    HW131709   2.309   5.321   2.902
10270SOL    HW231710   2.302   5.269   3.056
10271SOL     OW31711   4.158   2.930   0.384
10271SOL    HW131712   4.217   2.957   0.308
10271SOL    HW231713   4.103   2.851   0.358
10272SOL     OW31714   0.571   0.340   4.453
10272SOL    HW131715   0.530   0.429   4.437
10272SOL    HW231716   0.671   0.348   4.448
10273SOL     OW31717   4.620   5.119   3.314
10273SOL    HW131718   4.619   5.115   3.214
10273SOL    HW231719   4.533   5.155   3.346
10274SOL     OW31720   1.168   4.384   4.803
10274SOL    HW131721   1.231   4.412   4.731
10274SOL    HW231722   1.154   4.460   4.867
10275SOL     OW31723   0.600   6.541   2.196
10275SOL    HW131724   0.640   6.621   2.241
10275SOL    HW231725   0.609   6.550   2.097
10276SOL     OW31726   6.000   5.704   5.873
10276SOL    HW131727   6.013   5.685   5.970
10276SOL    HW231728   5.969   5.799   5.861
10277SOL     OW31729   2.777   5.819   4.123
10277SOL    HW131730   2.800   5.812   4.221
10277SOL    HW231731   2.702   5.757   4.102
10278SOL     OW31732   5.472   0.846   4.681
10278SOL    HW131733   5.523   0.760   4.672
10278SOL    HW231734   5.455   0.865   4.777
10279SOL     OW31735   2.031   6.347   4.252
10279SOL    HW131736   2.102   6.337   4.321
10279SOL    HW231737   2.070   6.390   4.170
10280SOL     OW31738   2.042   3.872   1.118
10280SOL    HW131739   2.006   3.933   1.189
10280SOL    HW231740   1.976   3.800   1.098
10281SOL     OW31741   6.600   2.332   2.344
10281SOL    HW131742   6.603   2.234   2.325
10281SOL    HW231743   6.581   2.383   2.260
10282SOL     OW31744   6.532   4.300   4.350
10282SOL    HW131745   6.547   4.235   4.275
10282SOL    HW231746   6.481   4.254   4.424
10283SOL     OW31747   0.707   3.437   0.685
10283SOL    HW131748   0.730   3.355   0.632
10283SOL    HW231749   0.702   3.413   0.782
10284SOL     OW31750   5.199   4.112   5.332
10284SOL    HW131751   5.149   4.169   5.398
10284SOL    HW231752   5.262   4.052   5.381
10285SOL     OW31753   4.662   0.398   0.670
10285SOL    HW131754   4.716   0.481   0.664
10285SOL    HW231755   4.671   0.345   0.586
10286SOL     OW31756   3.319   2.053   4.048
10286SOL    HW131757   3.227   2.017   4.040
10286SOL    HW231758   3.363   2.017   4.130
10287SOL     OW31759   1.868   6.514   1.688
10287SOL    HW131760   1.963   6.532   1.712
10287SOL    HW231761   1.861   6.423   1.647
10288SOL     OW31762   5.295   6.203   2.062
10288SOL    HW131763   5.259   6.117   2.098
10288SOL    HW231764   5.220   6.266   2.043
10289SOL     OW31765   3.841   0.684   2.555
10289SOL    HW131766   3.827   0.712   2.650
10289SOL    HW231767   3.757   0.645   2.519
10290SOL     OW31768   3.871   3.983   2.447
10290SOL    HW131769   3.901   3.980   2.351
10290SOL    HW231770   3.797   4.049   2.457
10291SOL     OW31771   3.829   1.144   3.787
10291SOL    HW131772   3.824   1.156   3.886
10291SOL    HW231773   3.751   1.087   3.757
10292SOL     OW31774   0.978   1.333   4.767
10292SOL    HW131775   0.940   1.395   4.699
10292SOL    HW231776   0.966   1.371   4.859
10293SOL     OW31777   1.933   5.874   3.333
10293SOL    HW131778   1.955   5.852   3.428
10293SOL    HW231779   1.874   5.954   3.329
10294SOL     OW31780   4.890   3.652   2.951
10294SOL    HW131781   4.813   3.600   2.989
10294SOL    HW231782   4.976   3.610   2.978
10295SOL     OW31783   6.253   5.514   5.983
10295SOL    HW131784   6.248   5.472   5.893
10295SOL    HW231785   6.348   5.543   6.001
10296SOL     OW31786   4.980   2.955   6.557
10296SOL    HW131787   4.912   3.010   6.605
10296SOL    HW231788   5.003   3.000   6.471
10297SOL     OW31789   1.896   6.350   5.183
10297SOL    HW131790   1.871   6.354   5.279
10297SOL    HW231791   1.948   6.266   5.165
10298SOL     OW31792   4.130   4.768   2.516
10298SOL    HW131793   4.205   4.726   2.464
10298SOL    HW231794   4.136   4.868   2.508
10299SOL     OW31795   4.589   4.418   2.751
10299SOL    HW131796   4.677   4.374   2.768
10299SOL    HW231797   4.564   4.472   2.831
10300SOL     OW31798   2.132   4.805   2.804
10300SOL    HW131799   2.115   4.714   2.767
10300SOL    HW231800   2.056   4.866   2.779
10301SOL     OW31801   6.046   2.385   2.820
10301SOL    HW131802   5.946   2.385   2.825
10301SOL    HW231803   6.081   2.465   2.868
10302SOL     OW31804   0.615   6.319   4.134
10302SOL    HW131805   0.696   6.366   4.099
10302SOL    HW231806   0.624   6.220   4.118
10303SOL     OW31807   3.150   5.505   1.078
10303SOL    HW131808   3.249   5.508   1.094
10303SOL    HW231809   3.116   5.597   1.058
10304SOL     OW31810   5.368   0.737   2.774
10304SOL    HW131811   5.389   0.695   2.685
10304SOL    HW231812   5.452   0.741   2.829
10305SOL     OW31813   0.401   5.311   6.901
10305SOL    HW131814   0.368   5.287   6.810
10305SOL    HW231815   0.500   5.321   6.899
10306SOL     OW31816   4.702   6.471   6.515
10306SOL    HW131817   4.779   6.417   6.481
10306SOL    HW231818   4.719   6.496   6.610
10307SOL     OW31819   2.041   1.883   4.296
10307SOL    HW131820   1.998   1.969   4.266
10307SOL    HW231821   2.137   1.883   4.269
10308SOL     OW31822   2.610   5.011   3.983
10308SOL    HW131823   2.653   4.926   4.012
10308SOL    HW231824   2.511   5.005   3.994
10309SOL     OW31825   6.549   0.402   3.658
10309SOL    HW131826   6.546   0.340   3.736
10309SOL    HW231827   6.459   0.443   3.644
10310SOL     OW31828   3.846   2.700   1.630
10310SOL    HW131829   3.857   2.634   1.556
10310SOL    HW231830   3.775   2.667   1.693
10311SOL     OW31831   0.689   5.871   0.914
10311SOL    HW131832   0.623   5.874   0.989
10311SOL    HW231833   0.648   5.914   0.833
10312SOL     OW31834   3.017   5.731   1.016
10312SOL    HW131835   2.941   5.683   1.060
10312SOL    HW231836   3.002   5.830   1.023
10313SOL     OW31837   3.707   6.732   2.029
10313SOL    HW131838   3.683   6.696   2.119
10313SOL    HW231839   3.752   6.821   2.040
10314SOL     OW31840   6.124   0.783   1.853
10314SOL    HW131841   6.091   0.782   1.759
10314SOL    HW231842   6.219   0.752   1.855
10315SOL     OW31843   6.125   5.790   4.610
10315SOL    HW131844   6.080   5.731   4.543
10315SOL    HW231845   6.163   5.734   4.684
10316SOL     OW31846   6.369   3.650   4.955
10316SOL    HW131847   6.323   3.584   4.897
10316SOL    HW231848   6.467   3.651   4.933
10317SOL     OW31849   3.880   4.686   5.840
10317SOL    HW131850   3.823   4.766   5.824
10317SOL    HW231851   3.890   4.635   5.754
10318SOL     OW31852   6.036   5.372   1.077
10318SOL    HW131853   6.120   5.412   1.039
10318SOL    HW231854   6.049   5.273   1.088
10319SOL     OW31855   1.193   3.127   5.639
10319SOL    HW131856   1.244   3.149   5.723
10319SOL    HW231857   1.229   3.043   5.600
10320SOL     OW31858   0.694   0.354   0.719
10320SOL    HW131859   0.643   0.385   0.799
10320SOL    HW231860   0.781   0.402   0.714
10321SOL     OW31861   4.038   0.527   4.831
10321SOL    HW131862   4.136   0.545   4.825
10321SOL    HW231863   4.018   0.478   4.916
10322SOL     OW31864   5.894   5.508   0.083
10322SOL    HW131865   5.801   5.501   0.120
10322SOL    HW231866   5.960   5.501   0.157
10323SOL     OW31867   6.138   4.087   6.179
10323SOL    HW131868   6.162   3.999   6.138
10323SOL    HW231869   6.046   4.113   6.149
10324SOL     OW31870   3.409   3.049   3.168
10324SOL    HW131871   3.449   3.115   3.105
10324SOL    HW231872   3.482   2.993   3.208
10325SOL     OW31873   6.858   4.725   3.345
10325SOL    HW131874   6.947   4.680   3.337
10325SOL    HW231875   6.865   4.819   3.311
10326SOL     OW31876   4.737   2.695   0.309
10326SOL    HW131877   4.752   2.615   0.251
10326SOL    HW231878   4.651   2.684   0.359
10327SOL     OW31879   2.959   1.504   2.331
10327SOL    HW131880   2.867   1.473   2.355
10327SOL    HW231881   2.953   1.581   2.267
10328SOL     OW31882   6.159   3.243   1.380
10328SOL    HW131883   6.237   3.248   1.317
10328SOL    HW231884   6.165   3.158   1.432
10329SOL     OW31885   3.138   0.131   4.970
10329SOL    HW131886   3.080   0.080   5.033
10329SOL    HW231887   3.116   0.106   4.876
10330SOL     OW31888   3.496   5.692   2.926
10330SOL    HW131889   3.448   5.613   2.966
10330SOL    HW231890   3.512   5.675   2.829
10331SOL     OW31891   6.319   1.095   3.008
10331SOL    HW131892   6.312   1.007   3.054
10331SOL    HW231893   6.391   1.092   2.938
10332SOL     OW31894   6.194   1.292   0.789
10332SOL    HW131895   6.100   1.321   0.768
10332SOL    HW231896   6.250   1.301   0.707
10333SOL     OW31897   6.072   4.385   4.425
10333SOL    HW131898   6.124   4.446   4.366
10333SOL    HW231899   6.100   4.291   4.409
10334SOL     OW31900   2.256   5.674   3.086
10334SOL    HW131901   2.286   5.602   3.149
10334SOL    HW231902   2.296   5.658   2.996
10335SOL     OW31903   2.035   4.672   6.808
10335SOL    HW131904   2.020   4.746   6.874
10335SOL    HW231905   1.994   4.588   6.842
10336SOL     OW31906   5.222   6.611   3.535
10336SOL    HW131907   5.289   6.549   3.495
10336SOL    HW231908   5.140   6.560   3.560
10337SOL     OW31909   6.500   5.886   5.656
10337SOL    HW131910   6.403   5.868   5.673
10337SOL    HW231911   6.509   5.955   5.585
10338SOL     OW31912   3.405   6.682   0.940
10338SOL    HW131913   3.483   6.742   0.922
10338SOL    HW231914   3.430   6.614   1.008
10339SOL     OW31915   3.814   4.560   0.755
10339SOL    HW131916   3.799   4.462   0.743
10339SOL    HW231917   3.777   4.589   0.843
10340SOL     OW31918   1.108   5.519   0.065
10340SOL    HW131919   1.034   5.585   0.058
10340SOL    HW231920   1.168   5.543   0.141
10341SOL     OW31921   2.419   3.094   1.531
10341SOL    HW131922   2.480   3.124   1.605
10341SOL    HW231923   2.474   3.072   1.451
10342SOL     OW31924   2.695   5.810   5.296
10342SOL    HW131925   2.768   5.865   5.256
10342SOL    HW231926   2.613   5.817   5.239
10343SOL     OW31927   2.396   3.822   0.319
10343SOL    HW131928   2.353   3.848   0.232
10343SOL    HW231929   2.476   3.880   0.335
10344SOL     OW31930   3.936   3.989   3.498
10344SOL    HW131931   3.867   3.950   3.438
10344SOL    HW231932   3.894   4.055   3.560
10345SOL     OW31933   1.768   0.349   6.218
10345SOL    HW131934   1.747   0.252   6.201
10345SOL    HW231935   1.725   0.377   6.303
10346SOL     OW31936   6.062   0.710   1.566
10346SOL    HW131937   6.117   0.768   1.506
10346SOL    HW231938   5.966   0.736   1.558
10347SOL     OW31939   4.987   2.854   1.655
10347SOL    HW131940   4.917   2.810   1.713
10347SOL    HW231941   5.075   2.810   1.671
10348SOL     OW31942   6.826   1.289   6.449
10348SOL    HW131943   6.748   1.351   6.456
10348SOL    HW231944   6.847   1.272   6.353
10349SOL     OW31945   6.694   0.687   0.747
10349SOL    HW131946   6.678   0.708   0.843
10349SOL    HW231947   6.706   0.589   0.736
10350SOL     OW31948   3.130   6.522   5.003
10350SOL    HW131949   3.101   6.438   5.050
10350SOL    HW231950   3.226   6.515   4.979
10351SOL     OW31951   6.049   5.207   5.629
10351SOL    HW131952   6.082   5.245   5.542
10351SOL    HW231953   6.013   5.280   5.686
10352SOL     OW31954   5.492   2.177   6.118
10352SOL    HW131955   5.549   2.128   6.184
10352SOL    HW231956   5.398   2.180   6.151
10353SOL     OW31957   6.671   3.407   4.218
10353SOL    HW131958   6.716   3.487   4.178
10353SOL    HW231959   6.678   3.330   4.154
10354SOL     OW31960   0.520   3.279   1.063
10354SOL    HW131961   0.449   3.238   1.006
10354SOL    HW231962   0.482   3.359   1.110
10355SOL     OW31963   1.009   0.787   0.816
10355SOL    HW131964   1.038   0.816   0.725
10355SOL    HW231965   1.012   0.865   0.878
10356SOL     OW31966   6.777   3.470   6.190
10356SOL    HW131967   6.792   3.481   6.092
10356SOL    HW231968   6.850   3.515   6.241
10357SOL     OW31969   3.472   1.976   5.695
10357SOL    HW131970   3.498   1.908   5.626
10357SOL    HW231971   3.493   1.942   5.786
10358SOL     OW31972   1.077   2.815   3.526
10358SOL    HW131973   0.982   2.846   3.529
10358SOL    HW231974   1.108   2.792   3.618
10359SOL     OW31975   4.738   2.209   2.130
10359SOL    HW131976   4.719   2.220   2.032
10359SOL    HW231977   4.664   2.158   2.173
10360SOL     OW31978   5.179   5.454   2.607
10360SOL    HW131979   5.254   5.464   2.542
10360SOL    HW231980   5.095   5.491   2.568
10361SOL     OW31981   2.476   0.305   2.720
10361SOL    HW131982   2.570   0.318   2.687
10361SOL    HW231983   2.448   0.210   2.705
10362SOL     OW31984   0.769   4.901   2.768
10362SOL    HW131985   0.830   4.842   2.715
10362SOL    HW231986   0.756   4.988   2.720
10363SOL     OW31987   4.851   2.643   0.860
10363SOL    HW131988   4.788   2.668   0.786
10363SOL    HW231989   4.920   2.580   0.825
10364SOL     OW31990   4.849   4.674   2.125
10364SOL    HW131991   4.756   4.702   2.149
10364SOL    HW231992   4.847   4.579   2.093
10365SOL     OW31993   5.506   4.516   0.595
10365SOL    HW131994   5.540   4.422   0.606
10365SOL    HW231995   5.504   4.539   0.498
10366SOL     OW31996   3.982   6.632   3.504
10366SOL    HW131997   3.930   6.547   3.507
10366SOL    HW231998   3.922   6.708   3.480
10367SOL     OW31999   0.206   1.529   2.387
10367SOL    HW132000   0.189   1.445   2.336
10367SOL    HW232001   0.296   1.524   2.431
10368SOL     OW32002   1.998   0.875   2.432
10368SOL    HW132003   1.915   0.819   2.426
10368SOL    HW232004   1.973   0.969   2.455
10369SOL     OW32005   2.512   6.298   6.247
10369SOL    HW132006   2.576   6.374   6.246
10369SOL    HW232007   2.421   6.331   6.224
10370SOL     OW32008   5.959   1.363   5.040
10370SOL    HW132009   5.952   1.427   4.963
10370SOL    HW232010   6.023   1.399   5.107
10371SOL     OW32011   2.338   6.782   4.221
10371SOL    HW132012   2.359   6.796   4.124
10371SOL    HW232013   2.242   6.759   4.231
10372SOL     OW32014   3.077   0.924   1.083
10372SOL    HW132015   2.977   0.923   1.080
10372SOL    HW232016   3.111   0.999   1.026
10373SOL     OW32017   0.539   6.814   5.018
10373SOL    HW132018   0.599   6.763   4.957
10373SOL    HW232019   0.454   6.836   4.970
10374SOL     OW32020   3.155   0.274   4.094
10374SOL    HW132021   3.085   0.213   4.056
10374SOL    HW232022   3.172   0.349   4.030
10375SOL     OW32023   2.957   1.960   5.842
10375SOL    HW132024   3.041   2.001   5.808
10375SOL    HW232025   2.967   1.860   5.843
10376SOL     OW32026   0.853   6.416   4.018
10376SOL    HW132027   0.922   6.344   4.028
10376SOL    HW232028   0.806   6.406   3.931
10377SOL     OW32029   0.404   1.562   1.650
10377SOL    HW132030   0.415   1.462   1.651
10377SOL    HW232031   0.358   1.589   1.566
10378SOL     OW32032   6.114   5.669   6.173
10378SOL    HW132033   6.173   5.744   6.203
10378SOL    HW232034   6.162   5.614   6.105
10379SOL     OW32035   3.317   5.552   4.043
10379SOL    HW132036   3.378   5.631   4.046
10379SOL    HW232037   3.356   5.478   4.099
10380SOL     OW32038   0.653   2.736   4.868
10380SOL    HW132039   0.732   2.702   4.918
10380SOL    HW232040   0.589   2.661   4.851
10381SOL     OW32041   4.388   3.848   0.450
10381SOL    HW132042   4.359   3.941   0.472
10381SOL    HW232043   4.341   3.783   0.510
10382SOL     OW32044   3.044   5.970   1.778
10382SOL    HW132045   2.978   6.016   1.838
10382SOL    HW232046   3.000   5.892   1.734
10383SOL     OW32047   1.699   3.735   0.494
10383SOL    HW132048   1.691   3.701   0.400
10383SOL    HW232049   1.759   3.815   0.495
10384SOL     OW32050   6.739   6.862   0.450
10384SOL    HW132051   6.830   6.843   0.487
10384SOL    HW232052   6.677   6.788   0.475
10385SOL     OW32053   4.026   5.975   6.512
10385SOL    HW132054   4.072   5.916   6.446
10385SOL    HW232055   4.052   6.070   6.496
10386SOL     OW32056   0.770   0.765   5.697
10386SOL    HW132057   0.866   0.781   5.719
10386SOL    HW232058   0.751   0.667   5.702
10387SOL     OW32059   5.142   2.594   2.627
10387SOL    HW132060   5.087   2.511   2.639
10387SOL    HW232061   5.239   2.569   2.624
10388SOL     OW32062   1.601   6.620   1.197
10388SOL    HW132063   1.636   6.604   1.289
10388SOL    HW232064   1.502   6.611   1.197
10389SOL     OW32065   5.459   3.846   1.247
10389SOL    HW132066   5.456   3.899   1.331
10389SOL    HW232067   5.419   3.756   1.262
10390SOL     OW32068   1.472   2.912   6.768
10390SOL    HW132069   1.402   2.852   6.806
10390SOL    HW232070   1.444   2.942   6.677
10391SOL     OW32071   0.622   6.033   4.099
10391SOL    HW132072   0.533   5.990   4.084
10391SOL    HW232073   0.685   5.966   4.137
10392SOL     OW32074   5.594   5.259   5.429
10392SOL    HW132075   5.671   5.301   5.380
10392SOL    HW232076   5.595   5.289   5.524
10393SOL     OW32077   2.123   3.787   3.780
10393SOL    HW132078   2.178   3.725   3.725
10393SOL    HW232079   2.073   3.735   3.849
10394SOL     OW32080   2.440   5.483   4.943
10394SOL    HW132081   2.466   5.579   4.956
10394SOL    HW232082   2.374   5.477   4.867
10395SOL     OW32083   0.274   0.123   1.358
10395SOL    HW132084   0.362   0.165   1.335
10395SOL    HW232085   0.235   0.079   1.277
10396SOL     OW32086   3.402   1.630   3.934
10396SOL    HW132087   3.358   1.639   3.844
10396SOL    HW232088   3.476   1.698   3.942
10397SOL     OW32089   3.419   1.455   4.507
10397SOL    HW132090   3.467   1.401   4.576
10397SOL    HW232091   3.411   1.403   4.422
10398SOL     OW32092   6.191   2.614   0.389
10398SOL    HW132093   6.183   2.534   0.329
10398SOL    HW232094   6.233   2.689   0.338
10399SOL     OW32095   5.311   2.520   3.372
10399SOL    HW132096   5.253   2.542   3.450
10399SOL    HW232097   5.254   2.505   3.291
10400SOL     OW32098   4.395   5.892   6.908
10400SOL    HW132099   4.380   5.991   6.915
10400SOL    HW232100   4.308   5.845   6.898
10401SOL     OW32101   0.025   6.350   2.538
10401SOL    HW132102   6.956   6.314   2.527
10401SOL    HW232103   0.058   6.327   2.629
10402SOL     OW32104   6.331   1.737   5.424
10402SOL    HW132105   6.424   1.721   5.458
10402SOL    HW232106   6.286   1.806   5.481
10403SOL     OW32107   4.625   2.424   3.519
10403SOL    HW132108   4.589   2.504   3.471
10403SOL    HW232109   4.664   2.361   3.453
10404SOL     OW32110   5.593   6.431   4.538
10404SOL    HW132111   5.655   6.412   4.462
10404SOL    HW232112   5.643   6.427   4.624
10405SOL     OW32113   1.298   6.992   4.454
10405SOL    HW132114   1.304   6.943   4.540
10405SOL    HW232115   1.203   7.010   4.431
10406SOL     OW32116   2.014   4.012   3.575
10406SOL    HW132117   2.057   4.009   3.486
10406SOL    HW232118   2.036   3.929   3.627
10407SOL     OW32119   2.517   6.691   6.277
10407SOL    HW132120   2.434   6.724   6.321
10407SOL    HW232121   2.592   6.756   6.292
10408SOL     OW32122   4.479   0.306   1.353
10408SOL    HW132123   4.553   0.307   1.419
10408SOL    HW232124   4.517   0.315   1.261
10409SOL     OW32125   0.501   5.119   1.288
10409SOL    HW132126   0.587   5.071   1.271
10409SOL    HW232127   0.460   5.145   1.200
10410SOL     OW32128   5.030   2.236   1.703
10410SOL    HW132129   5.105   2.187   1.747
10410SOL    HW232130   4.991   2.302   1.767
10411SOL     OW32131   3.521   6.767   3.269
10411SOL    HW132132   3.472   6.774   3.182
10411SOL    HW232133   3.582   6.846   3.279
10412SOL     OW32134   0.158   0.983   6.845
10412SOL    HW132135   0.059   0.966   6.847
10412SOL    HW232136   0.178   1.053   6.776
10413SOL     OW32137   0.241   2.849   7.015
10413SOL    HW132138   0.217   2.752   7.006
10413SOL    HW232139   0.310   2.873   6.947
10414SOL     OW32140   4.180   5.683   5.896
10414SOL    HW132141   4.234   5.603   5.925
10414SOL    HW232142   4.234   5.766   5.907
10415SOL     OW32143   1.706   3.680   5.389
10415SOL    HW132144   1.608   3.666   5.401
10415SOL    HW232145   1.740   3.621   5.315
10416SOL     OW32146   5.964   0.235   5.270
10416SOL    HW132147   5.917   0.147   5.274
10416SOL    HW232148   5.984   0.266   5.363
10417SOL     OW32149   3.008   5.088   3.928
10417SOL    HW132150   2.997   4.991   3.908
10417SOL    HW232151   2.921   5.126   3.959
10418SOL     OW32152   6.469   4.156   6.190
10418SOL    HW132153   6.383   4.145   6.140
10418SOL    HW232154   6.471   4.092   6.267
10419SOL     OW32155   2.655   6.623   5.827
10419SOL    HW132156   2.679   6.707   5.875
10419SOL    HW232157   2.586   6.643   5.757
10420SOL     OW32158   0.548   3.662   3.658
10420SOL    HW132159   0.548   3.565   3.633
10420SOL    HW232160   0.490   3.676   3.738
10421SOL     OW32161   0.920   2.521   3.719
10421SOL    HW132162   0.955   2.532   3.626
10421SOL    HW232163   0.988   2.475   3.775
10422SOL     OW32164   5.834   3.604   5.185
10422SOL    HW132165   5.927   3.642   5.183
10422SOL    HW232166   5.831   3.527   5.249
10423SOL     OW32167   5.864   5.037   5.499
10423SOL    HW132168   5.783   5.022   5.556
10423SOL    HW232169   5.925   5.103   5.543
10424SOL     OW32170   5.070   2.636   0.283
10424SOL    HW132171   5.078   2.699   0.360
10424SOL    HW232172   4.978   2.597   0.280
10425SOL     OW32173   0.908   6.790   2.027
10425SOL    HW132174   0.888   6.806   1.930
10425SOL    HW232175   0.898   6.876   2.077
10426SOL     OW32176   5.482   5.183   0.582
10426SOL    HW132177   5.385   5.170   0.603
10426SOL    HW232178   5.537   5.143   0.656
10427SOL     OW32179   3.792   1.101   6.387
10427SOL    HW132180   3.788   1.161   6.307
10427SOL    HW232181   3.792   1.006   6.357
10428SOL     OW32182   3.417   0.703   3.815
10428SOL    HW132183   3.320   0.687   3.799
10428SOL    HW232184   3.446   0.656   3.898
10429SOL     OW32185   0.064   4.132   1.037
10429SOL    HW132186   0.078   4.043   1.079
10429SOL    HW232187   0.001   4.186   1.092
10430SOL     OW32188   4.863   0.215   4.710
10430SOL    HW132189   4.923   0.286   4.746
10430SOL    HW232190   4.887   0.127   4.751
10431SOL     OW32191   2.623   5.779   4.737
10431SOL    HW132192   2.667   5.775   4.827
10431SOL    HW232193   2.624   5.873   4.704
10432SOL     OW32194   5.445   0.031   4.940
10432SOL    HW132195   5.490   0.029   4.851
10432SOL    HW232196   5.348   0.010   4.929
10433SOL     OW32197   1.089   5.789   1.636
10433SOL    HW132198   1.176   5.755   1.670
10433SOL    HW232199   1.106   5.859   1.566
10434SOL     OW32200   4.192   6.083   3.213
10434SOL    HW132201   4.119   6.015   3.213
10434SOL    HW232202   4.180   6.147   3.289
10435SOL     OW32203   6.876   1.246   5.557
10435SOL    HW132204   6.829   1.334   5.554
10435SOL    HW232205   6.824   1.178   5.505
10436SOL     OW32206   0.162   5.049   5.753
10436SOL    HW132207   0.254   5.089   5.760
10436SOL    HW232208   0.167   4.951   5.771
10437SOL     OW32209   4.957   4.097   5.759
10437SOL    HW132210   4.977   4.001   5.743
10437SOL    HW232211   4.874   4.123   5.709
10438SOL     OW32212   5.863   6.575   0.332
10438SOL    HW132213   5.811   6.599   0.250
10438SOL    HW232214   5.954   6.544   0.306
10439SOL     OW32215   3.837   0.986   5.674
10439SOL    HW132216   3.788   0.985   5.762
10439SOL    HW232217   3.923   1.037   5.685
10440SOL     OW32218   1.307   0.116   0.256
10440SOL    HW132219   1.381   0.184   0.255
10440SOL    HW232220   1.233   0.147   0.197
10441SOL     OW32221   3.579   1.111   1.502
10441SOL    HW132222   3.528   1.184   1.547
10441SOL    HW232223   3.527   1.079   1.423
10442SOL     OW32224   3.547   6.478   5.878
10442SOL    HW132225   3.469   6.451   5.821
10442SOL    HW232226   3.530   6.449   5.972
10443SOL     OW32227   4.658   4.231   3.884
10443SOL    HW132228   4.665   4.141   3.928
10443SOL    HW232229   4.624   4.298   3.950
10444SOL     OW32230   4.219   6.116   4.066
10444SOL    HW132231   4.170   6.041   4.109
10444SOL    HW232232   4.200   6.201   4.114
10445SOL     OW32233   0.706   5.101   4.656
10445SOL    HW132234   0.680   5.168   4.726
10445SOL    HW232235   0.647   5.112   4.576
10446SOL     OW32236   1.298   2.898   5.514
10446SOL    HW132237   1.378   2.917   5.457
10446SOL    HW232238   1.296   2.801   5.538
10447SOL     OW32239   0.196   1.331   1.759
10447SOL    HW132240   0.290   1.303   1.741
10447SOL    HW232241   0.155   1.368   1.676
10448SOL     OW32242   4.795   0.656   2.550
10448SOL    HW132243   4.708   0.702   2.567
10448SOL    HW232244   4.871   0.718   2.570
10449SOL     OW32245   2.905   5.382   4.694
10449SOL    HW132246   2.882   5.288   4.668
10449SOL    HW232247   2.913   5.388   4.794
10450SOL     OW32248   1.001   2.153   0.591
10450SOL    HW132249   1.026   2.151   0.494
10450SOL    HW232250   1.054   2.084   0.640
10451SOL     OW32251   1.449   5.546   2.212
10451SOL    HW132252   1.414   5.465   2.259
10451SOL    HW232253   1.385   5.622   2.224
10452SOL     OW32254   6.324   3.191   2.127
10452SOL    HW132255   6.292   3.100   2.101
10452SOL    HW232256   6.299   3.208   2.223
10453SOL     OW32257   3.836   6.663   1.312
10453SOL    HW132258   3.767   6.652   1.384
10453SOL    HW232259   3.805   6.732   1.247
10454SOL     OW32260   4.261   3.289   0.178
10454SOL    HW132261   4.318   3.243   0.246
10454SOL    HW232262   4.168   3.297   0.212
10455SOL     OW32263   6.456   6.477   3.324
10455SOL    HW132264   6.469   6.379   3.339
10455SOL    HW232265   6.403   6.515   3.400
10456SOL     OW32266   3.005   6.640   0.868
10456SOL    HW132267   3.054   6.678   0.947
10456SOL    HW232268   3.032   6.690   0.786
10457SOL     OW32269   2.886   3.377   2.352
10457SOL    HW132270   2.887   3.433   2.269
10457SOL    HW232271   2.796   3.333   2.361
10458SOL     OW32272   6.835   1.769   6.290
10458SOL    HW132273   6.816   1.715   6.373
10458SOL    HW232274   6.918   1.735   6.246
10459SOL     OW32275   4.827   5.858   1.557
10459SOL    HW132276   4.895   5.790   1.530
10459SOL    HW232277   4.873   5.937   1.597
10460SOL     OW32278   0.952   4.148   1.940
10460SOL    HW132279   0.989   4.109   1.855
10460SOL    HW232280   0.863   4.108   1.959
10461SOL     OW32281   0.681   5.064   5.383
10461SOL    HW132282   0.754   5.120   5.422
10461SOL    HW232283   0.595   5.114   5.387
10462SOL     OW32284   6.164   1.756   3.397
10462SOL    HW132285   6.153   1.689   3.470
10462SOL    HW232286   6.084   1.816   3.394
10463SOL     OW32287   3.999   2.932   5.658
10463SOL    HW132288   4.017   3.025   5.688
10463SOL    HW232289   4.085   2.880   5.656
10464SOL     OW32290   6.500   6.861   1.252
10464SOL    HW132291   6.591   6.881   1.215
10464SOL    HW232292   6.475   6.768   1.226
10465SOL     OW32293   6.446   5.624   1.301
10465SOL    HW132294   6.486   5.710   1.330
10465SOL    HW232295   6.348   5.636   1.283
10466SOL     OW32296   4.386   5.334   6.380
10466SOL    HW132297   4.433   5.385   6.452
10466SOL    HW232298   4.326   5.396   6.329
10467SOL     OW32299   1.824   2.097   6.166
10467SOL    HW132300   1.762   2.156   6.219
10467SOL    HW232301   1.839   2.012   6.217
10468SOL     OW32302   3.634   5.054   3.151
10468SOL    HW132303   3.535   5.054   3.166
10468SOL    HW232304   3.679   5.092   3.232
10469SOL     OW32305   3.830   3.553   5.503
10469SOL    HW132306   3.838   3.645   5.542
10469SOL    HW232307   3.750   3.549   5.443
10470SOL     OW32308   2.775   2.342   3.745
10470SOL    HW132309   2.707   2.271   3.725
10470SOL    HW232310   2.770   2.366   3.841
10471SOL     OW32311   2.620   1.883   1.105
10471SOL    HW132312   2.540   1.882   1.044
10471SOL    HW232313   2.696   1.930   1.060
10472SOL     OW32314   3.675   5.562   0.046
10472SOL    HW132315   3.626   5.494   7.015
10472SOL    HW232316   3.743   5.608   7.013
10473SOL     OW32317   6.901   0.748   6.674
10473SOL    HW132318   6.933   0.769   6.581
10473SOL    HW232319   6.859   0.658   6.675
10474SOL     OW32320   4.708   1.786   4.531
10474SOL    HW132321   4.635   1.745   4.475
10474SOL    HW232322   4.783   1.814   4.471
10475SOL     OW32323   4.970   6.884   2.108
10475SOL    HW132324   4.883   6.925   2.133
10475SOL    HW232325   5.045   6.938   2.146
10476SOL     OW32326   6.870   6.382   6.916
10476SOL    HW132327   6.915   6.305   6.872
10476SOL    HW232328   6.919   6.408   6.999
10477SOL     OW32329   6.726   1.861   3.947
10477SOL    HW132330   6.640   1.890   3.991
10477SOL    HW232331   6.711   1.774   3.899
10478SOL     OW32332   0.238   0.652   0.935
10478SOL    HW132333   0.210   0.563   0.900
10478SOL    HW232334   0.240   0.718   0.860
10479SOL     OW32335   0.310   2.543   1.027
10479SOL    HW132336   0.324   2.456   1.075
10479SOL    HW232337   0.372   2.612   1.064
10480SOL     OW32338   6.316   0.424   1.950
10480SOL    HW132339   6.232   0.385   1.989
10480SOL    HW232340   6.338   0.376   1.866
10481SOL     OW32341   2.605   6.827   4.669
10481SOL    HW132342   2.533   6.823   4.600
10481SOL    HW232343   2.576   6.777   4.751
10482SOL     OW32344   6.749   5.922   4.920
10482SOL    HW132345   6.743   6.021   4.907
10482SOL    HW232346   6.845   5.895   4.929
10483SOL     OW32347   6.964   5.438   0.425
10483SOL    HW132348   6.880   5.398   0.461
10483SOL    HW232349   6.942   5.500   0.349
10484SOL     OW32350   6.142   1.481   1.659
10484SOL    HW132351   6.159   1.384   1.678
10484SOL    HW232352   6.211   1.536   1.706
10485SOL     OW32353   3.417   4.110   1.797
10485SOL    HW132354   3.429   4.209   1.787
10485SOL    HW232355   3.422   4.086   1.894
10486SOL     OW32356   6.500   0.857   5.993
10486SOL    HW132357   6.482   0.823   6.086
10486SOL    HW232358   6.549   0.787   5.941
10487SOL     OW32359   4.369   2.019   1.997
10487SOL    HW132360   4.420   2.002   1.912
10487SOL    HW232361   4.372   2.117   2.018
10488SOL     OW32362   2.158   1.440   5.840
10488SOL    HW132363   2.255   1.458   5.854
10488SOL    HW232364   2.143   1.341   5.839
10489SOL     OW32365   6.269   6.784   4.360
10489SOL    HW132366   6.280   6.819   4.267
10489SOL    HW232367   6.176   6.804   4.392
10490SOL     OW32368   5.962   1.754   0.865
10490SOL    HW132369   6.029   1.820   0.833
10490SOL    HW232370   5.874   1.771   0.820
10491SOL     OW32371   2.571   1.676   5.265
10491SOL    HW132372   2.518   1.759   5.249
10491SOL    HW232373   2.668   1.699   5.271
10492SOL     OW32374   5.197   6.268   1.552
10492SOL    HW132375   5.244   6.283   1.464
10492SOL    HW232376   5.248   6.314   1.624
10493SOL     OW32377   2.726   6.472   2.110
10493SOL    HW132378   2.669   6.522   2.174
10493SOL    HW232379   2.793   6.534   2.069
10494SOL     OW32380   5.451   4.401   6.329
10494SOL    HW132381   5.474   4.424   6.234
10494SOL    HW232382   5.511   4.327   6.361
10495SOL     OW32383   0.152   0.439   0.785
10495SOL    HW132384   0.233   0.405   0.738
10495SOL    HW232385   0.091   0.483   0.718
10496SOL     OW32386   6.044   4.481   6.261
10496SOL    HW132387   6.118   4.428   6.302
10496SOL    HW232388   6.009   4.546   6.328
10497SOL     OW32389   1.083   6.577   1.962
10497SOL    HW132390   0.997   6.623   1.985
10497SOL    HW232391   1.151   6.646   1.936
10498SOL     OW32392   5.837   5.390   0.872
10498SOL    HW132393   5.877   5.411   0.783
10498SOL    HW232394   5.910   5.382   0.940
10499SOL     OW32395   4.918   0.866   1.933
10499SOL    HW132396   4.986   0.841   2.002
10499SOL    HW232397   4.922   0.964   1.916
10500SOL     OW32398   5.919   1.906   5.362
10500SOL    HW132399   5.936   1.808   5.372
10500SOL    HW232400   5.825   1.926   5.390
10501SOL     OW32401   2.573   5.241   1.847
10501SOL    HW132402   2.599   5.240   1.943
10501SOL    HW232403   2.527   5.156   1.823
10502SOL     OW32404   3.198   3.257   1.277
10502SOL    HW132405   3.181   3.294   1.186
10502SOL    HW232406   3.282   3.202   1.276
10503SOL     OW32407   5.881   3.450   0.455
10503SOL    HW132408   5.895   3.353   0.472
10503SOL    HW232409   5.807   3.461   0.389
10504SOL     OW32410   0.031   3.244   5.552
10504SOL    HW132411   0.120   3.280   5.523
10504SOL    HW232412   0.044   3.184   5.631
10505SOL     OW32413   5.813   5.497   1.207
10505SOL    HW132414   5.875   5.443   1.150
10505SOL    HW232415   5.867   5.561   1.263
10506SOL     OW32416   1.124   3.778   0.298
10506SOL    HW132417   1.132   3.761   0.200
10506SOL    HW232418   1.065   3.708   0.340
10507SOL     OW32419   1.803   5.497   0.286
10507SOL    HW132420   1.763   5.551   0.211
10507SOL    HW232421   1.746   5.507   0.368
10508SOL     OW32422   7.023   5.800   4.913
10508SOL    HW132423   7.011   5.728   4.845
10508SOL    HW232424   0.077   5.857   4.888
10509SOL     OW32425   6.483   4.805   5.158
10509SOL    HW132426   6.386   4.786   5.147
10509SOL    HW232427   6.534   4.765   5.082
10510SOL     OW32428   4.637   6.370   0.219
10510SOL    HW132429   4.644   6.458   0.171
10510SOL    HW232430   4.595   6.384   0.309
10511SOL     OW32431   3.058   0.830   2.505
10511SOL    HW132432   3.094   0.769   2.576
10511SOL    HW232433   3.119   0.908   2.494
10512SOL     OW32434   3.328   0.976   6.083
10512SOL    HW132435   3.321   1.074   6.101
10512SOL    HW232436   3.241   0.931   6.104
10513SOL     OW32437   6.881   3.024   3.178
10513SOL    HW132438   6.934   3.051   3.097
10513SOL    HW232439   6.824   2.945   3.156
10514SOL     OW32440   0.699   2.512   1.633
10514SOL    HW132441   0.685   2.592   1.574
10514SOL    HW232442   0.736   2.541   1.721
10515SOL     OW32443   1.604   3.541   4.522
10515SOL    HW132444   1.680   3.606   4.530
10515SOL    HW232445   1.535   3.578   4.459
10516SOL     OW32446   2.921   1.599   0.489
10516SOL    HW132447   2.997   1.575   0.429
10516SOL    HW232448   2.916   1.698   0.499
10517SOL     OW32449   0.990   3.734   1.604
10517SOL    HW132450   0.958   3.640   1.591
10517SOL    HW232451   1.089   3.737   1.591
10518SOL     OW32452   6.889   6.269   1.889
10518SOL    HW132453   6.983   6.272   1.924
10518SOL    HW232454   6.889   6.284   1.790
10519SOL     OW32455   3.041   3.625   0.828
10519SOL    HW132456   3.092   3.539   0.831
10519SOL    HW232457   2.961   3.615   0.770
10520SOL     OW32458   0.439   2.717   5.738
10520SOL    HW132459   0.395   2.799   5.775
10520SOL    HW232460   0.409   2.703   5.644
10521SOL     OW32461   0.107   5.563   1.163
10521SOL    HW132462   0.049   5.520   1.232
10521SOL    HW232463   0.191   5.596   1.207
10522SOL     OW32464   6.927   2.236   3.998
10522SOL    HW132465   7.003   2.208   3.939
10522SOL    HW232466   6.912   2.165   4.067
10523SOL     OW32467   0.882   5.042   2.974
10523SOL    HW132468   0.816   5.109   3.007
10523SOL    HW232469   0.852   5.006   2.886
10524SOL     OW32470   6.870   6.450   4.284
10524SOL    HW132471   6.905   6.479   4.373
10524SOL    HW232472   6.906   6.511   4.213
10525SOL     OW32473   3.561   0.887   4.928
10525SOL    HW132474   3.582   0.824   4.852
10525SOL    HW232475   3.502   0.960   4.895
10526SOL     OW32476   1.126   6.926   1.636
10526SOL    HW132477   1.030   6.952   1.643
10526SOL    HW232478   1.184   7.003   1.663
10527SOL     OW32479   1.451   1.021   5.746
10527SOL    HW132480   1.453   1.030   5.845
10527SOL    HW232481   1.448   0.925   5.721
10528SOL     OW32482   1.318   4.440   6.427
10528SOL    HW132483   1.319   4.539   6.442
10528SOL    HW232484   1.395   4.398   6.476
10529SOL     OW32485   2.333   6.011   4.305
10529SOL    HW132486   2.425   6.052   4.309
10529SOL    HW232487   2.281   6.039   4.386
10530SOL     OW32488   1.320   6.736   6.038
10530SOL    HW132489   1.233   6.735   6.088
10530SOL    HW232490   1.395   6.727   6.103
10531SOL     OW32491   2.298   2.056   4.242
10531SOL    HW132492   2.329   1.976   4.294
10531SOL    HW232493   2.345   2.138   4.276
10532SOL     OW32494   0.388   6.756   6.352
10532SOL    HW132495   0.349   6.680   6.300
10532SOL    HW232496   0.460   6.722   6.413
10533SOL     OW32497   2.994   6.200   3.343
10533SOL    HW132498   3.014   6.119   3.289
10533SOL    HW232499   2.988   6.175   3.440
10534SOL     OW32500   6.551   4.842   2.022
10534SOL    HW132501   6.594   4.762   2.063
10534SOL    HW232502   6.573   4.845   1.924
10535SOL     OW32503   2.172   1.548   2.672
10535SOL    HW132504   2.207   1.642   2.676
10535SOL    HW232505   2.212   1.495   2.747
10536SOL     OW32506   4.256   1.060   4.381
10536SOL    HW132507   4.335   1.111   4.417
10536SOL    HW232508   4.236   1.092   4.288
10537SOL     OW32509   4.694   6.846   4.208
10537SOL    HW132510   4.719   6.800   4.122
10537SOL    HW232511   4.610   6.806   4.243
10538SOL     OW32512   6.700   3.366   0.495
10538SOL    HW132513   6.601   3.362   0.492
10538SOL    HW232514   6.735   3.388   0.404
10539SOL     OW32515   6.435   5.897   1.089
10539SOL    HW132516   6.502   5.948   1.142
10539SOL    HW232517   6.469   5.804   1.072
10540SOL     OW32518   1.986   2.744   5.533
10540SOL    HW132519   1.982   2.677   5.607
10540SOL    HW232520   1.995   2.836   5.571
10541SOL     OW32521   4.128   3.754   2.677
10541SOL    HW132522   4.085   3.840   2.706
10541SOL    HW232523   4.129   3.690   2.754
10542SOL     OW32524   6.878   0.922   5.187
10542SOL    HW132525   6.860   0.846   5.249
10542SOL    HW232526   6.965   0.907   5.140
10543SOL     OW32527   1.295   1.463   4.264
10543SOL    HW132528   1.316   1.519   4.184
10543SOL    HW232529   1.329   1.509   4.346
10544SOL     OW32530   2.299   6.556   1.861
10544SOL    HW132531   2.261   6.471   1.898
10544SOL    HW232532   2.388   6.538   1.820
10545SOL     OW32533   1.170   2.428   1.399
10545SOL    HW132534   1.149   2.519   1.435
10545SOL    HW232535   1.087   2.371   1.402
10546SOL     OW32536   3.042   6.068   0.257
10546SOL    HW132537   2.958   6.123   0.258
10546SOL    HW232538   3.034   5.993   0.322
10547SOL     OW32539   5.456   2.922   3.590
10547SOL    HW132540   5.456   2.864   3.508
10547SOL    HW232541   5.376   2.900   3.647
10548SOL     OW32542   0.073   4.665   4.203
10548SOL    HW132543   0.038   4.579   4.239
10548SOL    HW232544   0.171   4.673   4.224
10549SOL     OW32545   0.800   1.190   0.903
10549SOL    HW132546   0.717   1.197   0.848
10549SOL    HW232547   0.880   1.193   0.843
10550SOL     OW32548   4.805   6.331   3.738
10550SOL    HW132549   4.903   6.338   3.760
10550SOL    HW232550   4.795   6.297   3.645
10551SOL     OW32551   1.599   1.947   0.041
10551SOL    HW132552   1.521   1.935   0.103
10551SOL    HW232553   1.679   1.975   0.094
10552SOL     OW32554   1.924   0.795   5.507
10552SOL    HW132555   1.894   0.717   5.452
10552SOL    HW232556   2.023   0.806   5.498
10553SOL     OW32557   0.700   4.678   1.216
10553SOL    HW132558   0.629   4.643   1.156
10553SOL    HW232559   0.790   4.659   1.177
10554SOL     OW32560   4.922   5.539   1.505
10554SOL    HW132561   4.847   5.489   1.549
10554SOL    HW232562   4.993   5.559   1.572
10555SOL     OW32563   2.626   2.731   0.787
10555SOL    HW132564   2.598   2.816   0.832
10555SOL    HW232565   2.680   2.676   0.850
10556SOL     OW32566   2.197   1.081   3.953
10556SOL    HW132567   2.123   1.072   4.020
10556SOL    HW232568   2.161   1.062   3.862
10557SOL     OW32569   2.068   2.947   3.538
10557SOL    HW132570   2.083   2.874   3.605
10557SOL    HW232571   2.011   2.911   3.463
10558SOL     OW32572   4.074   6.126   5.599
10558SOL    HW132573   4.102   6.085   5.512
10558SOL    HW232574   4.077   6.057   5.671
10559SOL     OW32575   4.154   0.379   1.643
10559SOL    HW132576   4.218   0.420   1.707
10559SOL    HW232577   4.201   0.312   1.585
10560SOL     OW32578   4.647   0.132   3.039
10560SOL    HW132579   4.649   0.122   2.940
10560SOL    HW232580   4.589   0.060   3.079
10561SOL     OW32581   3.481   4.372   1.719
10561SOL    HW132582   3.398   4.358   1.665
10561SOL    HW232583   3.488   4.469   1.744
10562SOL     OW32584   4.425   5.380   0.134
10562SOL    HW132585   4.359   5.432   0.187
10562SOL    HW232586   4.501   5.353   0.192
10563SOL     OW32587   0.949   0.686   2.482
10563SOL    HW132588   0.955   0.622   2.558
10563SOL    HW232589   1.039   0.696   2.440
10564SOL     OW32590   5.539   6.397   3.792
10564SOL    HW132591   5.508   6.444   3.876
10564SOL    HW232592   5.630   6.431   3.768
10565SOL     OW32593   6.747   6.251   5.809
10565SOL    HW132594   6.708   6.313   5.741
10565SOL    HW232595   6.842   6.275   5.827
10566SOL     OW32596   3.744   1.797   6.422
10566SOL    HW132597   3.799   1.715   6.407
10566SOL    HW232598   3.658   1.790   6.371
10567SOL     OW32599   1.982   2.554   5.738
10567SOL    HW132600   1.954   2.586   5.829
10567SOL    HW232601   2.050   2.481   5.748
10568SOL     OW32602   6.409   3.276   0.531
10568SOL    HW132603   6.421   3.199   0.593
10568SOL    HW232604   6.418   3.362   0.582
10569SOL     OW32605   5.982   0.958   2.451
10569SOL    HW132606   5.964   0.868   2.411
10569SOL    HW232607   5.929   0.968   2.536
10570SOL     OW32608   1.470   4.639   3.525
10570SOL    HW132609   1.445   4.550   3.562
10570SOL    HW232610   1.563   4.635   3.487
10571SOL     OW32611   0.052   4.686   5.102
10571SOL    HW132612   0.064   4.628   5.021
10571SOL    HW232613   0.074   4.633   5.184
10572SOL     OW32614   6.780   4.519   2.437
10572SOL    HW132615   6.736   4.475   2.359
10572SOL    HW232616   6.715   4.525   2.513
10573SOL     OW32617   5.178   1.053   5.033
10573SOL    HW132618   5.207   1.074   4.940
10573SOL    HW232619   5.080   1.032   5.033
10574SOL     OW32620   1.004   1.421   4.013
10574SOL    HW132621   1.080   1.415   4.078
10574SOL    HW232622   0.992   1.332   3.968
10575SOL     OW32623   0.086   0.586   3.861
10575SOL    HW132624   0.098   0.529   3.780
10575SOL    HW232625   7.013   0.605   3.874
10576SOL     OW32626   0.788   5.792   4.173
10576SOL    HW132627   0.869   5.821   4.223
10576SOL    HW232628   0.799   5.697   4.143
10577SOL     OW32629   1.824   4.564   0.514
10577SOL    HW132630   1.779   4.511   0.586
10577SOL    HW232631   1.913   4.595   0.545
10578SOL     OW32632   3.748   1.442   3.114
10578SOL    HW132633   3.839   1.480   3.128
10578SOL    HW232634   3.705   1.425   3.203
10579SOL     OW32635   4.099   2.778   1.623
10579SOL    HW132636   4.002   2.754   1.612
10579SOL    HW232637   4.152   2.695   1.641
10580SOL     OW32638   6.543   6.829   6.261
10580SOL    HW132639   6.479   6.905   6.274
10580SOL    HW232640   6.500   6.744   6.294
10581SOL     OW32641   5.726   0.363   3.177
10581SOL    HW132642   5.649   0.303   3.197
10581SOL    HW232643   5.796   0.312   3.127
10582SOL     OW32644   4.543   5.068   6.206
10582SOL    HW132645   4.464   5.079   6.266
10582SOL    HW232646   4.547   4.973   6.173
10583SOL     OW32647   4.341   1.061   3.920
10583SOL    HW132648   4.276   0.986   3.927
10583SOL    HW232649   4.331   1.122   3.999
10584SOL     OW32650   6.263   0.234   0.373
10584SOL    HW132651   6.361   0.239   0.356
10584SOL    HW232652   6.215   0.294   0.308
10585SOL     OW32653   2.900   1.654   5.318
10585SOL    HW132654   2.939   1.711   5.246
10585SOL    HW232655   2.974   1.617   5.375
10586SOL     OW32656   5.515   4.769   5.826
10586SOL    HW132657   5.434   4.725   5.785
10586SOL    HW232658   5.578   4.698   5.859
10587SOL     OW32659   6.971   5.504   6.537
10587SOL    HW132660   0.005   5.581   6.564
10587SOL    HW232661   6.876   5.527   6.554
10588SOL     OW32662   1.815   2.254   5.009
10588SOL    HW132663   1.788   2.228   4.916
10588SOL    HW232664   1.911   2.232   5.024
10589SOL     OW32665   5.307   0.922   4.468
10589SOL    HW132666   5.356   0.914   4.555
10589SOL    HW232667   5.370   0.905   4.392
10590SOL     OW32668   0.346   0.135   0.503
10590SOL    HW132669   0.247   0.148   0.504
10590SOL    HW232670   0.390   0.206   0.558
10591SOL     OW32671   2.477   2.178   0.113
10591SOL    HW132672   2.481   2.231   0.198
10591SOL    HW232673   2.554   2.115   0.110
10592SOL     OW32674   5.518   3.654   3.894
10592SOL    HW132675   5.552   3.745   3.917
10592SOL    HW232676   5.584   3.606   3.836
10593SOL     OW32677   3.067   6.051   1.045
10593SOL    HW132678   2.999   6.103   0.994
10593SOL    HW232679   3.150   6.042   0.990
10594SOL     OW32680   4.766   1.906   2.256
10594SOL    HW132681   4.854   1.934   2.217
10594SOL    HW232682   4.771   1.811   2.286
10595SOL     OW32683   5.801   6.863   0.245
10595SOL    HW132684   5.738   6.792   0.212
10595SOL    HW232685   5.766   6.903   0.330
10596SOL     OW32686   4.160   0.884   0.185
10596SOL    HW132687   4.099   0.836   0.123
10596SOL    HW232688   4.154   0.983   0.168
10597SOL     OW32689   3.531   1.176   5.701
10597SOL    HW132690   3.468   1.178   5.778
10597SOL    HW232691   3.540   1.268   5.662
10598SOL     OW32692   3.566   2.674   6.993
10598SOL    HW132693   3.479   2.722   6.998
10598SOL    HW232694   3.565   2.596   0.032
10599SOL     OW32695   5.430   3.437   6.554
10599SOL    HW132696   5.501   3.506   6.536
10599SOL    HW232697   5.390   3.453   6.644
10600SOL     OW32698   3.399   2.579   1.675
10600SOL    HW132699   3.320   2.604   1.619
10600SOL    HW232700   3.426   2.484   1.655
10601SOL     OW32701   1.219   4.708   5.891
10601SOL    HW132702   1.262   4.618   5.887
10601SOL    HW232703   1.290   4.779   5.887
10602SOL     OW32704   1.224   1.190   1.157
10602SOL    HW132705   1.181   1.237   1.080
10602SOL    HW232706   1.220   1.247   1.238
10603SOL     OW32707   4.309   6.943   3.352
10603SOL    HW132708   4.379   6.888   3.398
10603SOL    HW232709   4.316   0.014   3.384
10604SOL     OW32710   6.027   4.872   5.339
10604SOL    HW132711   5.970   4.940   5.386
10604SOL    HW232712   5.978   4.784   5.338
10605SOL     OW32713   2.135   6.177   0.025
10605SOL    HW132714   2.094   6.119   6.979
10605SOL    HW232715   2.214   6.130   0.065
10606SOL     OW32716   0.595   0.689   0.577
10606SOL    HW132717   0.510   0.742   0.576
10606SOL    HW232718   0.614   0.659   0.671
10607SOL     OW32719   4.083   4.648   6.743
10607SOL    HW132720   4.180   4.630   6.730
10607SOL    HW232721   4.030   4.573   6.702
10608SOL     OW32722   0.037   4.084   4.339
10608SOL    HW132723   0.086   4.113   4.257
10608SOL    HW232724   0.098   4.030   4.397
10609SOL     OW32725   2.965   6.813   6.993
10609SOL    HW132726   2.875   6.789   6.957
10609SOL    HW232727   3.004   6.734   0.016
10610SOL     OW32728   0.702   2.365   3.897
10610SOL    HW132729   0.772   2.419   3.851
10610SOL    HW232730   0.714   2.269   3.875
10611SOL     OW32731   2.761   4.359   6.351
10611SOL    HW132732   2.725   4.322   6.265
10611SOL    HW232733   2.849   4.317   6.372
10612SOL     OW32734   4.409   2.030   4.365
10612SOL    HW132735   4.440   2.078   4.446
10612SOL    HW232736   4.456   1.943   4.356
10613SOL     OW32737   5.966   5.955   5.878
10613SOL    HW132738   6.057   5.981   5.909
10613SOL    HW232739   5.904   6.033   5.887
10614SOL     OW32740   4.886   1.764   4.324
10614SOL    HW132741   4.969   1.752   4.378
10614SOL    HW232742   4.901   1.730   4.231
10615SOL     OW32743   3.138   1.165   6.413
10615SOL    HW132744   3.211   1.127   6.470
10615SOL    HW232745   3.118   1.103   6.337
10616SOL     OW32746   2.326   6.679   6.802
10616SOL    HW132747   2.378   6.748   6.752
10616SOL    HW232748   2.228   6.693   6.787
10617SOL     OW32749   3.143   4.036   1.401
10617SOL    HW132750   3.079   4.104   1.367
10617SOL    HW232751   3.112   3.945   1.374
10618SOL     OW32752   1.408   4.477   5.971
10618SOL    HW132753   1.467   4.556   5.991
10618SOL    HW232754   1.376   4.437   6.057
10619SOL     OW32755   0.146   2.625   3.418
10619SOL    HW132756   0.052   2.602   3.444
10619SOL    HW232757   0.148   2.716   3.376
10620SOL     OW32758   1.221   0.130   4.778
10620SOL    HW132759   1.135   0.079   4.767
10620SOL    HW232760   1.252   0.124   4.872
10621SOL     OW32761   0.938   4.872   1.708
10621SOL    HW132762   0.967   4.856   1.802
10621SOL    HW232763   1.016   4.860   1.646
10622SOL     OW32764   4.756   1.949   2.563
10622SOL    HW132765   4.754   1.947   2.463
10622SOL    HW232766   4.691   1.882   2.599
10623SOL     OW32767   6.810   5.171   6.057
10623SOL    HW132768   6.834   5.262   6.023
10623SOL    HW232769   6.712   5.157   6.047
10624SOL     OW32770   0.518   2.684   5.406
10624SOL    HW132771   0.584   2.759   5.418
10624SOL    HW232772   0.425   2.722   5.402
10625SOL     OW32773   0.993   4.352   1.287
10625SOL    HW132774   0.957   4.277   1.232
10625SOL    HW232775   1.092   4.345   1.292
10626SOL     OW32776   3.518   2.836   0.663
10626SOL    HW132777   3.536   2.818   0.566
10626SOL    HW232778   3.567   2.769   0.719
10627SOL     OW32779   5.785   1.744   0.074
10627SOL    HW132780   5.718   1.818   0.067
10627SOL    HW232781   5.828   1.729   7.009
10628SOL     OW32782   4.657   6.381   1.046
10628SOL    HW132783   4.588   6.379   0.974
10628SOL    HW232784   4.626   6.442   1.119
10629SOL     OW32785   2.828   5.126   4.609
10629SOL    HW132786   2.856   5.056   4.543
10629SOL    HW232787   2.775   5.083   4.682
10630SOL     OW32788   6.710   1.917   2.783
10630SOL    HW132789   6.636   1.973   2.747
10630SOL    HW232790   6.723   1.837   2.724
10631SOL     OW32791   3.885   4.920   5.099
10631SOL    HW132792   3.853   4.860   5.172
10631SOL    HW232793   3.911   5.009   5.137
10632SOL     OW32794   5.485   6.420   3.254
10632SOL    HW132795   5.538   6.348   3.298
10632SOL    HW232796   5.547   6.490   3.217
10633SOL     OW32797   2.789   2.619   1.624
10633SOL    HW132798   2.699   2.601   1.665
10633SOL    HW232799   2.831   2.533   1.597
10634SOL     OW32800   2.297   4.523   0.424
10634SOL    HW132801   2.298   4.458   0.500
10634SOL    HW232802   2.357   4.600   0.445
10635SOL     OW32803   1.910   3.965   6.689
10635SOL    HW132804   1.986   3.941   6.628
10635SOL    HW232805   1.889   3.887   6.748
10636SOL     OW32806   0.524   1.835   0.804
10636SOL    HW132807   0.467   1.916   0.796
10636SOL    HW232808   0.618   1.862   0.827
10637SOL     OW32809   0.628   4.752   6.157
10637SOL    HW132810   0.638   4.690   6.080
10637SOL    HW232811   0.651   4.845   6.128
10638SOL     OW32812   5.562   5.819   2.813
10638SOL    HW132813   5.579   5.904   2.764
10638SOL    HW232814   5.463   5.805   2.823
10639SOL     OW32815   1.003   3.789   3.147
10639SOL    HW132816   1.031   3.856   3.216
10639SOL    HW232817   1.085   3.752   3.103
10640SOL     OW32818   4.969   0.200   3.824
10640SOL    HW132819   4.967   0.242   3.915
10640SOL    HW232820   5.030   0.121   3.826
10641SOL     OW32821   2.511   1.806   2.342
10641SOL    HW132822   2.430   1.747   2.342
10641SOL    HW232823   2.590   1.754   2.374
10642SOL     OW32824   6.448   1.769   0.809
10642SOL    HW132825   6.539   1.810   0.807
10642SOL    HW232826   6.423   1.748   0.904
10643SOL     OW32827   2.282   5.673   4.378
10643SOL    HW132828   2.315   5.748   4.321
10643SOL    HW232829   2.226   5.709   4.453
10644SOL     OW32830   5.906   2.725   1.215
10644SOL    HW132831   5.911   2.763   1.123
10644SOL    HW232832   5.849   2.784   1.273
10645SOL     OW32833   1.976   2.466   4.497
10645SOL    HW132834   2.003   2.379   4.538
10645SOL    HW232835   1.987   2.462   4.398
10646SOL     OW32836   0.281   6.823   5.590
10646SOL    HW132837   0.270   6.747   5.654
10646SOL    HW232838   0.376   6.828   5.559
10647SOL     OW32839   3.155   5.690   4.537
10647SOL    HW132840   3.078   5.647   4.583
10647SOL    HW232841   3.167   5.647   4.447
10648SOL     OW32842   5.734   4.593   6.286
10648SOL    HW132843   5.655   4.653   6.291
10648SOL    HW232844   5.806   4.626   6.347
10649SOL     OW32845   0.695   4.151   2.964
10649SOL    HW132846   0.607   4.113   2.994
10649SOL    HW232847   0.765   4.130   3.032
10650SOL     OW32848   0.785   0.235   3.688
10650SOL    HW132849   0.761   0.199   3.778
10650SOL    HW232850   0.711   0.292   3.654
10651SOL     OW32851   6.128   6.550   0.138
10651SOL    HW132852   6.050   6.489   0.131
10651SOL    HW232853   6.196   6.525   0.070
10652SOL     OW32854   3.076   6.209   5.857
10652SOL    HW132855   3.014   6.131   5.865
10652SOL    HW232856   3.040   6.286   5.909
10653SOL     OW32857   4.421   5.792   4.630
10653SOL    HW132858   4.484   5.762   4.558
10653SOL    HW232859   4.473   5.839   4.701
10654SOL     OW32860   5.091   0.612   0.001
10654SOL    HW132861   5.059   0.638   6.934
10654SOL    HW232862   5.032   0.540   0.037
10655SOL     OW32863   2.097   5.443   0.267
10655SOL    HW132864   2.158   5.510   0.225
10655SOL    HW232865   2.002   5.472   0.255
10656SOL     OW32866   0.333   1.768   2.357
10656SOL    HW132867   0.288   1.681   2.376
10656SOL    HW232868   0.305   1.802   2.267
10657SOL     OW32869   5.691   0.118   5.103
10657SOL    HW132870   5.655   0.157   5.018
10657SOL    HW232871   5.621   0.124   5.175
10658SOL     OW32872   6.759   4.903   4.521
10658SOL    HW132873   6.673   4.873   4.478
10658SOL    HW232874   6.741   4.976   4.586
10659SOL     OW32875   0.890   5.704   0.916
10659SOL    HW132876   0.810   5.765   0.919
10659SOL    HW232877   0.970   5.752   0.949
10660SOL     OW32878   5.159   3.968   6.315
10660SOL    HW132879   5.065   3.972   6.348
10660SOL    HW232880   5.197   4.061   6.310
10661SOL     OW32881   1.144   6.994   1.364
10661SOL    HW132882   1.125   6.951   1.453
10661SOL    HW232883   1.059   7.021   1.320
10662SOL     OW32884   5.019   0.749   2.174
10662SOL    HW132885   5.005   0.668   2.117
10662SOL    HW232886   5.115   0.754   2.201
10663SOL     OW32887   0.782   1.911   2.500
10663SOL    HW132888   0.845   1.848   2.455
10663SOL    HW232889   0.715   1.860   2.554
10664SOL     OW32890   5.899   4.008   5.018
10664SOL    HW132891   5.864   3.950   4.943
10664SOL    HW232892   5.826   4.069   5.048
10665SOL     OW32893   0.937   1.858   0.189
10665SOL    HW132894   0.927   1.894   0.282
10665SOL    HW232895   0.909   1.763   0.187
10666SOL     OW32896   3.541   3.583   1.646
10666SOL    HW132897   3.595   3.657   1.685
10666SOL    HW232898   3.530   3.510   1.714
10667SOL     OW32899   4.695   2.838   3.996
10667SOL    HW132900   4.646   2.787   3.926
10667SOL    HW232901   4.668   2.806   4.086
10668SOL     OW32902   2.608   0.703   5.375
10668SOL    HW132903   2.705   0.724   5.370
10668SOL    HW232904   2.575   0.673   5.286
10669SOL     OW32905   5.537   0.359   1.612
10669SOL    HW132906   5.466   0.429   1.618
10669SOL    HW232907   5.516   0.285   1.678
10670SOL     OW32908   5.706   4.876   5.179
10670SOL    HW132909   5.743   4.941   5.112
10670SOL    HW232910   5.664   4.927   5.254
10671SOL     OW32911   2.260   2.057   3.604
10671SOL    HW132912   2.270   2.122   3.529
10671SOL    HW232913   2.296   2.098   3.688
10672SOL     OW32914   6.802   3.778   1.276
10672SOL    HW132915   6.706   3.803   1.269
10672SOL    HW232916   6.845   3.832   1.349
10673SOL     OW32917   0.731   0.510   6.726
10673SOL    HW132918   0.716   0.595   6.676
10673SOL    HW232919   0.674   0.510   6.808
10674SOL     OW32920   3.843   3.911   2.721
10674SOL    HW132921   3.853   3.920   2.622
10674SOL    HW232922   3.825   3.816   2.745
10675SOL     OW32923   1.719   6.637   7.000
10675SOL    HW132924   1.677   6.547   6.987
10675SOL    HW232925   1.819   6.627   7.005
10676SOL     OW32926   6.232   5.861   5.718
10676SOL    HW132927   6.227   5.926   5.793
10676SOL    HW232928   6.155   5.798   5.723
10677SOL     OW32929   1.762   1.157   1.182
10677SOL    HW132930   1.827   1.198   1.245
10677SOL    HW232931   1.679   1.130   1.232
10678SOL     OW32932   4.408   5.471   4.173
10678SOL    HW132933   4.464   5.487   4.254
10678SOL    HW232934   4.374   5.377   4.176
10679SOL     OW32935   4.509   5.487   6.576
10679SOL    HW132936   4.569   5.413   6.605
10679SOL    HW232937   4.444   5.508   6.650
10680SOL     OW32938   3.808   1.652   4.445
10680SOL    HW132939   3.872   1.672   4.519
10680SOL    HW232940   3.791   1.734   4.392
10681SOL     OW32941   0.811   3.727   0.951
10681SOL    HW132942   0.718   3.694   0.966
10681SOL    HW232943   0.869   3.651   0.921
10682SOL     OW32944   0.681   1.278   5.484
10682SOL    HW132945   0.698   1.192   5.533
10682SOL    HW232946   0.629   1.340   5.542
10683SOL     OW32947   3.953   2.060   4.119
10683SOL    HW132948   3.977   2.047   4.023
10683SOL    HW232949   4.007   2.135   4.157
10684SOL     OW32950   5.239   4.807   3.181
10684SOL    HW132951   5.197   4.756   3.257
10684SOL    HW232952   5.189   4.892   3.166
10685SOL     OW32953   0.916   5.613   2.015
10685SOL    HW132954   0.906   5.687   2.082
10685SOL    HW232955   0.870   5.531   2.049
10686SOL     OW32956   0.619   4.570   5.919
10686SOL    HW132957   0.670   4.616   5.846
10686SOL    HW232958   0.524   4.556   5.888
10687SOL     OW32959   5.513   5.971   3.470
10687SOL    HW132960   5.492   5.879   3.437
10687SOL    HW232961   5.500   6.036   3.395
10688SOL     OW32962   6.128   3.840   2.171
10688SOL    HW132963   6.148   3.911   2.239
10688SOL    HW232964   6.194   3.766   2.182
10689SOL     OW32965   6.964   6.085   3.480
10689SOL    HW132966   6.982   6.152   3.407
10689SOL    HW232967   6.874   6.104   3.520
10690SOL     OW32968   6.774   5.909   4.227
10690SOL    HW132969   6.706   5.982   4.233
10690SOL    HW232970   6.859   5.946   4.189
10691SOL     OW32971   0.707   2.431   1.987
10691SOL    HW132972   0.625   2.455   2.038
10691SOL    HW232973   0.765   2.373   2.044
10692SOL     OW32974   3.256   5.990   3.449
10692SOL    HW132975   3.190   5.943   3.391
10692SOL    HW232976   3.339   6.009   3.397
10693SOL     OW32977   2.104   5.785   0.011
10693SOL    HW132978   2.177   5.733   0.057
10693SOL    HW232979   2.024   5.789   0.069
10694SOL     OW32980   5.366   0.018   1.535
10694SOL    HW132981   5.350   0.004   1.438
10694SOL    HW232982   5.279   0.017   1.584
10695SOL     OW32983   0.339   2.470   2.272
10695SOL    HW132984   0.387   2.545   2.227
10695SOL    HW232985   0.329   2.490   2.370
10696SOL     OW32986   0.520   3.982   3.835
10696SOL    HW132987   0.568   4.012   3.917
10696SOL    HW232988   0.421   3.988   3.850
10697SOL     OW32989   6.644   5.686   5.007
10697SOL    HW132990   6.711   5.645   5.068
10697SOL    HW232991   6.679   5.773   4.972
10698SOL     OW32992   5.164   4.704   6.628
10698SOL    HW132993   5.259   4.680   6.607
10698SOL    HW232994   5.139   4.666   6.717
10699SOL     OW32995   4.104   4.019   1.723
10699SOL    HW132996   4.053   4.101   1.698
10699SOL    HW232997   4.202   4.040   1.727
10700SOL     OW32998   6.786   6.452   1.054
10700SOL    HW132999   6.695   6.488   1.074
10700SOL    HW233000   6.855   6.522   1.071
10701SOL     OW33001   3.413   6.121   0.071
10701SOL    HW133002   3.448   6.161   0.156
10701SOL    HW233003   3.468   6.041   0.047
10702SOL     OW33004   5.816   2.523   1.412
10702SOL    HW133005   5.883   2.569   1.353
10702SOL    HW233006   5.730   2.512   1.363
10703SOL     OW33007   3.131   3.082   5.055
10703SOL    HW133008   3.171   2.991   5.063
10703SOL    HW233009   3.052   3.089   5.115
10704SOL     OW33010   6.098   6.088   1.882
10704SOL    HW133011   6.099   6.092   1.782
10704SOL    HW233012   6.013   6.128   1.916
10705SOL     OW33013   5.792   4.370   2.228
10705SOL    HW133014   5.800   4.420   2.141
10705SOL    HW233015   5.851   4.413   2.296
10706SOL     OW33016   5.403   6.959   1.817
10706SOL    HW133017   5.403   7.003   1.728
10706SOL    HW233018   5.368   6.866   1.809
10707SOL     OW33019   0.126   6.813   4.500
10707SOL    HW133020   0.102   6.717   4.480
10707SOL    HW233021   0.042   6.867   4.507
10708SOL     OW33022   3.980   0.595   2.174
10708SOL    HW133023   3.880   0.601   2.182
10708SOL    HW233024   4.019   0.577   2.264
10709SOL     OW33025   6.023   6.185   5.534
10709SOL    HW133026   6.100   6.224   5.585
10709SOL    HW233027   5.946   6.248   5.537
10710SOL     OW33028   0.018   0.085   4.372
10710SOL    HW133029   0.014   0.037   4.284
10710SOL    HW233030   6.998   0.029   4.442
10711SOL     OW33031   1.608   6.241   4.168
10711SOL    HW133032   1.550   6.237   4.086
10711SOL    HW233033   1.551   6.259   4.248
10712SOL     OW33034   3.282   0.755   1.698
10712SOL    HW133035   3.193   0.796   1.714
10712SOL    HW233036   3.296   0.678   1.761
10713SOL     OW33037   0.325   3.518   1.643
10713SOL    HW133038   0.416   3.554   1.664
10713SOL    HW233039   0.286   3.475   1.724
10714SOL     OW33040   6.204   4.393   4.883
10714SOL    HW133041   6.253   4.357   4.804
10714SOL    HW233042   6.158   4.478   4.857
10715SOL     OW33043   5.195   1.029   2.444
10715SOL    HW133044   5.230   0.954   2.387
10715SOL    HW233045   5.189   0.998   2.539
10716SOL     OW33046   5.893   2.413   4.006
10716SOL    HW133047   5.951   2.494   4.017
10716SOL    HW233048   5.822   2.432   3.938
10717SOL     OW33049   0.962   2.127   0.941
10717SOL    HW133050   0.913   2.210   0.913
10717SOL    HW233051   0.897   2.051   0.947
10718SOL     OW33052   1.175   2.816   6.377
10718SOL    HW133053   1.270   2.820   6.344
10718SOL    HW233054   1.118   2.768   6.311
10719SOL     OW33055   6.133   5.981   2.119
10719SOL    HW133056   6.202   6.031   2.171
10719SOL    HW233057   6.123   6.021   2.028
10720SOL     OW33058   0.361   4.262   4.618
10720SOL    HW133059   0.300   4.185   4.635
10720SOL    HW233060   0.456   4.233   4.633
10721SOL     OW33061   5.370   4.159   4.503
10721SOL    HW133062   5.375   4.149   4.403
10721SOL    HW233063   5.275   4.151   4.533
10722SOL     OW33064   1.270   4.782   0.854
10722SOL    HW133065   1.265   4.882   0.849
10722SOL    HW233066   1.277   4.745   0.761
10723SOL     OW33067   0.812   3.901   6.527
10723SOL    HW133068   0.898   3.940   6.495
10723SOL    HW233069   0.777   3.956   6.603
10724SOL     OW33070   5.600   1.180   6.673
10724SOL    HW133071   5.625   1.247   6.742
10724SOL    HW233072   5.653   1.096   6.686
10725SOL     OW33073   0.841   4.860   4.820
10725SOL    HW133074   0.808   4.795   4.889
10725SOL    HW233075   0.848   4.951   4.861
10726SOL     OW33076   5.153   0.541   5.492
10726SOL    HW133077   5.224   0.571   5.428
10726SOL    HW233078   5.082   0.611   5.497
10727SOL     OW33079   0.227   5.087   4.757
10727SOL    HW133080   0.314   5.043   4.736
10727SOL    HW233081   0.171   5.026   4.813
10728SOL     OW33082   6.865   6.414   0.574
10728SOL    HW133083   6.856   6.364   0.488
10728SOL    HW233084   6.773   6.433   0.611
10729SOL     OW33085   5.207   1.541   1.958
10729SOL    HW133086   5.288   1.498   1.921
10729SOL    HW233087   5.216   1.641   1.951
10730SOL     OW33088   2.001   0.182   1.824
10730SOL    HW133089   1.941   0.127   1.882
10730SOL    HW233090   1.960   0.272   1.810
10731SOL     OW33091   3.273   6.226   0.568
10731SOL    HW133092   3.320   6.298   0.619
10731SOL    HW233093   3.182   6.212   0.606
10732SOL     OW33094   5.224   4.682   3.423
10732SOL    HW133095   5.230   4.716   3.517
10732SOL    HW233096   5.173   4.596   3.422
10733SOL     OW33097   5.956   2.746   6.720
10733SOL    HW133098   6.040   2.748   6.774
10733SOL    HW233099   5.907   2.832   6.732
10734SOL     OW33100   1.109   0.617   6.518
10734SOL    HW133101   1.024   0.658   6.484
10734SOL    HW233102   1.111   0.520   6.496
10735SOL     OW33103   1.549   3.793   2.813
10735SOL    HW133104   1.559   3.702   2.774
10735SOL    HW233105   1.468   3.796   2.871
10736SOL     OW33106   0.691   0.149   3.343
10736SOL    HW133107   0.712   0.070   3.285
10736SOL    HW233108   0.749   0.146   3.425
10737SOL     OW33109   1.828   2.240   6.970
10737SOL    HW133110   1.794   2.261   6.878
10737SOL    HW233111   1.757   2.261   0.013
10738SOL     OW33112   2.382   0.374   3.969
10738SOL    HW133113   2.397   0.277   3.950
10738SOL    HW233114   2.316   0.411   3.904
10739SOL     OW33115   0.519   1.279   0.776
10739SOL    HW133116   0.552   1.190   0.742
10739SOL    HW233117   0.530   1.348   0.705
10740SOL     OW33118   0.502   4.820   5.407
10740SOL    HW133119   0.493   4.904   5.355
10740SOL    HW233120   0.480   4.742   5.348
10741SOL     OW33121   0.295   0.021   2.389
10741SOL    HW133122   0.290   6.948   2.368
10741SOL    HW233123   0.303   0.033   2.488
10742SOL     OW33124   6.133   0.914   2.088
10742SOL    HW133125   6.114   0.858   2.008
10742SOL    HW233126   6.061   0.901   2.156
10743SOL     OW33127   3.224   2.179   5.417
10743SOL    HW133128   3.314   2.218   5.437
10743SOL    HW233129   3.174   2.242   5.357
10744SOL     OW33130   3.444   0.573   2.103
10744SOL    HW133131   3.366   0.584   2.164
10744SOL    HW233132   3.529   0.592   2.153
10745SOL     OW33133   0.772   5.103   0.531
10745SOL    HW133134   0.818   5.178   0.580
10745SOL    HW233135   0.772   5.123   0.433
10746SOL     OW33136   1.758   3.827   1.284
10746SOL    HW133137   1.722   3.803   1.194
10746SOL    HW233138   1.715   3.912   1.314
10747SOL     OW33139   4.489   0.768   3.067
10747SOL    HW133140   4.509   0.713   3.148
10747SOL    HW233141   4.563   0.834   3.052
10748SOL     OW33142   3.889   0.661   1.716
10748SOL    HW133143   3.873   0.759   1.702
10748SOL    HW233144   3.969   0.633   1.664
10749SOL     OW33145   6.766   5.007   3.244
10749SOL    HW133146   6.705   4.986   3.168
10749SOL    HW233147   6.850   5.048   3.210
10750SOL     OW33148   4.628   6.163   4.471
10750SOL    HW133149   4.569   6.098   4.423
10750SOL    HW233150   4.669   6.119   4.551
10751SOL     OW33151   1.515   4.720   4.014
10751SOL    HW133152   1.573   4.656   3.965
10751SOL    HW233153   1.419   4.690   4.008
10752SOL     OW33154   5.868   4.297   6.395
10752SOL    HW133155   5.932   4.334   6.328
10752SOL    HW233156   5.858   4.199   6.381
10753SOL     OW33157   4.132   6.634   4.270
10753SOL    HW133158   4.150   6.726   4.236
10753SOL    HW233159   4.135   6.634   4.370
10754SOL     OW33160   1.472   1.640   3.395
10754SOL    HW133161   1.533   1.694   3.336
10754SOL    HW233162   1.389   1.616   3.344
10755SOL     OW33163   0.315   1.409   6.676
10755SOL    HW133164   0.264   1.442   6.755
10755SOL    HW233165   0.322   1.481   6.607
10756SOL     OW33166   6.769   3.831   0.501
10756SOL    HW133167   6.740   3.887   0.579
10756SOL    HW233168   6.737   3.737   0.514
10757SOL     OW33169   0.911   2.852   0.350
10757SOL    HW133170   0.899   2.950   0.335
10757SOL    HW233171   1.004   2.825   0.324
10758SOL     OW33172   0.805   6.756   4.560
10758SOL    HW133173   0.798   6.818   4.482
10758SOL    HW233174   0.759   6.797   4.639
10759SOL     OW33175   1.461   3.203   6.829
10759SOL    HW133176   1.381   3.218   6.886
10759SOL    HW233177   1.480   3.105   6.822
10760SOL     OW33178   6.097   1.746   1.105
10760SOL    HW133179   6.064   1.679   1.171
10760SOL    HW233180   6.056   1.727   1.015
10761SOL     OW33181   0.809   1.656   6.249
10761SOL    HW133182   0.879   1.646   6.320
10761SOL    HW233183   0.813   1.577   6.187
10762SOL     OW33184   4.174   2.140   5.013
10762SOL    HW133185   4.163   2.239   5.008
10762SOL    HW233186   4.111   2.103   5.081
10763SOL     OW33187   4.813   6.339   1.597
10763SOL    HW133188   4.733   6.395   1.616
10763SOL    HW233189   4.880   6.393   1.547
10764SOL     OW33190   5.529   1.903   5.965
10764SOL    HW133191   5.590   1.824   5.970
10764SOL    HW233192   5.541   1.959   6.047
10765SOL     OW33193   5.824   2.774   0.688
10765SOL    HW133194   5.766   2.704   0.647
10765SOL    HW233195   5.779   2.863   0.680
10766SOL     OW33196   4.749   3.141   0.988
10766SOL    HW133197   4.796   3.070   1.041
10766SOL    HW233198   4.666   3.102   0.948
10767SOL     OW33199   0.807   0.493   0.198
10767SOL    HW133200   0.789   0.590   0.212
10767SOL    HW233201   0.740   0.439   0.250
10768SOL     OW33202   4.519   4.331   0.851
10768SOL    HW133203   4.438   4.317   0.794
10768SOL    HW233204   4.496   4.317   0.947
10769SOL     OW33205   2.523   4.791   4.646
10769SOL    HW133206   2.619   4.763   4.653
10769SOL    HW233207   2.464   4.710   4.648
10770SOL     OW33208   5.608   0.268   4.897
10770SOL    HW133209   5.563   0.341   4.949
10770SOL    HW233210   5.555   0.248   4.814
10771SOL     OW33211   5.099   1.223   3.188
10771SOL    HW133212   5.065   1.260   3.274
10771SOL    HW233213   5.175   1.279   3.155
10772SOL     OW33214   0.028   0.220   4.662
10772SOL    HW133215   0.079   0.265   4.589
10772SOL    HW233216   0.017   0.123   4.640
10773SOL     OW33217   6.825   5.731   0.025
10773SOL    HW133218   6.863   5.753   6.959
10773SOL    HW233219   6.766   5.650   0.017
10774SOL     OW33220   1.573   1.194   6.645
10774SOL    HW133221   1.498   1.178   6.709
10774SOL    HW233222   1.546   1.262   6.578
10775SOL     OW33223   0.590   3.561   1.141
10775SOL    HW133224   0.529   3.609   1.079
10775SOL    HW233225   0.620   3.623   1.214
10776SOL     OW33226   1.322   6.347   6.551
10776SOL    HW133227   1.282   6.433   6.583
10776SOL    HW233228   1.314   6.341   6.452
10777SOL     OW33229   3.946   5.868   2.929
10777SOL    HW133230   3.882   5.847   3.003
10777SOL    HW233231   3.912   5.828   2.844
10778SOL     OW33232   5.621   6.720   4.913
10778SOL    HW133233   5.646   6.816   4.920
10778SOL    HW233234   5.584   6.701   4.822
10779SOL     OW33235   6.453   4.964   3.368
10779SOL    HW133236   6.493   5.054   3.382
10779SOL    HW233237   6.525   4.895   3.363
10780SOL     OW33238   1.437   0.446   3.668
10780SOL    HW133239   1.382   0.363   3.654
10780SOL    HW233240   1.521   0.439   3.614
10781SOL     OW33241   4.268   0.522   3.681
10781SOL    HW133242   4.221   0.564   3.759
10781SOL    HW233243   4.236   0.427   3.670
10782SOL     OW33244   6.030   2.235   2.548
10782SOL    HW133245   6.047   2.175   2.626
10782SOL    HW233246   6.047   2.330   2.575
10783SOL     OW33247   0.788   3.239   3.166
10783SOL    HW133248   0.853   3.307   3.200
10783SOL    HW233249   0.812   3.214   3.072
10784SOL     OW33250   3.608   0.867   4.131
10784SOL    HW133251   3.645   0.822   4.213
10784SOL    HW233252   3.509   0.872   4.138
10785SOL     OW33253   6.913   5.451   1.935
10785SOL    HW133254   6.990   5.387   1.942
10785SOL    HW233255   6.914   5.495   1.846
10786SOL     OW33256   5.160   4.837   2.673
10786SOL    HW133257   5.203   4.787   2.748
10786SOL    HW233258   5.161   4.935   2.693
10787SOL     OW33259   2.664   1.607   4.680
10787SOL    HW133260   2.734   1.615   4.608
10787SOL    HW233261   2.595   1.678   4.668
10788SOL     OW33262   2.431   5.541   6.335
10788SOL    HW133263   2.421   5.443   6.320
10788SOL    HW233264   2.343   5.581   6.359
10789SOL     OW33265   6.307   2.820   6.566
10789SOL    HW133266   6.254   2.904   6.563
10789SOL    HW233267   6.317   2.789   6.660
10790SOL     OW33268   1.585   1.150   2.202
10790SOL    HW133269   1.683   1.168   2.192
10790SOL    HW233270   1.571   1.057   2.235
10791SOL     OW33271   0.714   6.808   0.032
10791SOL    HW133272   0.649   6.865   0.083
10791SOL    HW233273   0.665   6.731   7.015
10792SOL     OW33274   3.333   3.358   3.687
10792SOL    HW133275   3.381   3.446   3.679
10792SOL    HW233276   3.394   3.290   3.727
10793SOL     OW33277   5.758   3.449   4.288
10793SOL    HW133278   5.759   3.520   4.359
10793SOL    HW233279   5.664   3.424   4.266
10794SOL     OW33280   2.952   3.816   4.009
10794SOL    HW133281   2.958   3.844   4.105
10794SOL    HW233282   2.995   3.727   3.998
10795SOL     OW33283   6.877   4.035   2.514
10795SOL    HW133284   6.812   3.974   2.468
10795SOL    HW233285   6.827   4.099   2.572
10796SOL     OW33286   5.430   6.835   0.600
10796SOL    HW133287   5.476   6.815   0.513
10796SOL    HW233288   5.447   6.930   0.625
10797SOL     OW33289   4.171   1.876   1.561
10797SOL    HW133290   4.075   1.848   1.561
10797SOL    HW233291   4.178   1.972   1.534
10798SOL     OW33292   2.977   6.540   0.451
10798SOL    HW133293   2.973   6.460   0.511
10798SOL    HW233294   3.070   6.548   0.414
10799SOL     OW33295   4.078   0.582   2.454
10799SOL    HW133296   3.987   0.617   2.475
10799SOL    HW233297   4.147   0.648   2.483
10800SOL     OW33298   0.598   6.407   6.406
10800SOL    HW133299   0.640   6.496   6.420
10800SOL    HW233300   0.595   6.358   6.493
10801SOL     OW33301   0.393   6.099   6.371
10801SOL    HW133302   0.413   6.044   6.290
10801SOL    HW233303   0.350   6.041   6.440
10802SOL     OW33304   0.764   2.198   3.118
10802SOL    HW133305   0.848   2.252   3.113
10802SOL    HW233306   0.786   2.105   3.149
10803SOL     OW33307   3.248   3.960   5.813
10803SOL    HW133308   3.244   4.047   5.863
10803SOL    HW233309   3.226   3.976   5.717
10804SOL     OW33310   5.738   3.731   2.019
10804SOL    HW133311   5.659   3.683   2.059
10804SOL    HW233312   5.791   3.667   1.964
10805SOL     OW33313   3.993   0.201   7.023
10805SOL    HW133314   3.948   0.136   0.060
10805SOL    HW233315   3.986   0.169   6.928
10806SOL     OW33316   4.531   3.767   6.404
10806SOL    HW133317   4.572   3.718   6.327
10806SOL    HW233318   4.602   3.796   6.468
10807SOL     OW33319   1.321   6.867   2.133
10807SOL    HW133320   1.259   6.851   2.056
10807SOL    HW233321   1.374   6.784   2.151
10808SOL     OW33322   6.617   3.219   6.373
10808SOL    HW133323   6.648   3.277   6.297
10808SOL    HW233324   6.538   3.166   6.343
10809SOL     OW33325   2.927   5.844   3.633
10809SOL    HW133326   2.982   5.786   3.573
10809SOL    HW233327   2.988   5.896   3.693
10810SOL     OW33328   1.752   0.366   4.879
10810SOL    HW133329   1.798   0.346   4.965
10810SOL    HW233330   1.717   0.281   4.839
10811SOL     OW33331   4.143   4.304   5.583
10811SOL    HW133332   4.164   4.306   5.485
10811SOL    HW233333   4.223   4.272   5.634
10812SOL     OW33334   0.899   3.478   1.636
10812SOL    HW133335   0.897   3.387   1.595
10812SOL    HW233336   0.918   3.470   1.734
10813SOL     OW33337   2.012   5.071   6.470
10813SOL    HW133338   1.999   5.150   6.409
10813SOL    HW233339   2.050   4.995   6.417
10814SOL     OW33340   1.540   6.597   6.267
10814SOL    HW133341   1.582   6.510   6.240
10814SOL    HW233342   1.608   6.657   6.308
10815SOL     OW33343   4.105   4.742   3.895
10815SOL    HW133344   4.166   4.668   3.926
10815SOL    HW233345   4.111   4.751   3.796
10816SOL     OW33346   2.791   3.233   1.126
10816SOL    HW133347   2.837   3.265   1.209
10816SOL    HW233348   2.692   3.240   1.138
10817SOL     OW33349   4.653   6.594   2.998
10817SOL    HW133350   4.709   6.573   3.078
10817SOL    HW233351   4.560   6.559   3.013
10818SOL     OW33352   4.229   4.900   5.245
10818SOL    HW133353   4.168   4.884   5.322
10818SOL    HW233354   4.178   4.896   5.160
10819SOL     OW33355   6.673   4.449   7.011
10819SOL    HW133356   6.666   4.538   6.967
10819SOL    HW233357   6.758   4.405   6.983
10820SOL     OW33358   6.148   5.841   4.252
10820SOL    HW133359   6.165   5.877   4.343
10820SOL    HW233360   6.101   5.910   4.196
10821SOL     OW33361   5.670   0.268   1.990
10821SOL    HW133362   5.721   0.206   1.930
10821SOL    HW233363   5.573   0.264   1.966
10822SOL     OW33364   0.269   3.017   3.056
10822SOL    HW133365   0.255   3.008   2.958
10822SOL    HW233366   0.228   2.939   3.103
10823SOL     OW33367   1.571   6.053   1.464
10823SOL    HW133368   1.539   5.959   1.456
10823SOL    HW233369   1.500   6.110   1.504
10824SOL     OW33370   6.828   0.350   3.453
10824SOL    HW133371   6.833   0.254   3.479
10824SOL    HW233372   6.734   0.374   3.429
10825SOL     OW33373   2.474   0.805   6.682
10825SOL    HW133374   2.402   0.773   6.621
10825SOL    HW233375   2.461   0.903   6.701
10826SOL     OW33376   1.644   2.539   3.620
10826SOL    HW133377   1.598   2.588   3.546
10826SOL    HW233378   1.623   2.441   3.613
10827SOL     OW33379   6.138   3.794   4.605
10827SOL    HW133380   6.053   3.743   4.622
10827SOL    HW233381   6.127   3.849   4.522
10828SOL     OW33382   1.205   5.696   1.281
10828SOL    HW133383   1.208   5.709   1.182
10828SOL    HW233384   1.160   5.775   1.323
10829SOL     OW33385   3.926   2.144   1.136
10829SOL    HW133386   3.900   2.174   1.044
10829SOL    HW233387   3.919   2.045   1.142
10830SOL     OW33388   5.491   2.166   2.951
10830SOL    HW133389   5.521   2.256   2.983
10830SOL    HW233390   5.519   2.097   3.017
10831SOL     OW33391   3.576   5.633   2.215
10831SOL    HW133392   3.488   5.655   2.257
10831SOL    HW233393   3.648   5.634   2.285
10832SOL     OW33394   1.122   2.924   0.058
10832SOL    HW133395   1.164   2.895   0.144
10832SOL    HW233396   1.157   2.868   7.007
10833SOL     OW33397   1.955   1.096   1.916
10833SOL    HW133398   1.909   1.178   1.882
10833SOL    HW233399   1.911   1.066   2.001
10834SOL     OW33400   0.826   2.259   6.993
10834SOL    HW133401   0.837   2.160   7.004
10834SOL    HW233402   0.911   2.305   7.019
10835SOL     OW33403   6.303   1.954   6.752
10835SOL    HW133404   6.388   1.960   6.804
10835SOL    HW233405   6.279   2.044   6.717
10836SOL     OW33406   6.753   1.737   4.719
10836SOL    HW133407   6.702   1.823   4.727
10836SOL    HW233408   6.717   1.671   4.785
10837SOL     OW33409   6.779   4.973   0.988
10837SOL    HW133410   6.771   4.987   1.087
10837SOL    HW233411   6.730   4.890   0.962
10838SOL     OW33412   5.266   6.082   4.763
10838SOL    HW133413   5.223   6.038   4.841
10838SOL    HW233414   5.364   6.064   4.764
10839SOL     OW33415   4.427   3.109   1.707
10839SOL    HW133416   4.456   3.205   1.713
10839SOL    HW233417   4.492   3.052   1.758
10840SOL     OW33418   3.215   5.611   2.486
10840SOL    HW133419   3.259   5.647   2.404
10840SOL    HW233420   3.173   5.522   2.464
10841SOL     OW33421   5.687   5.235   7.018
10841SOL    HW133422   5.669   5.309   0.058
10841SOL    HW233423   5.625   5.244   6.939
10842SOL     OW33424   4.731   2.480   1.628
10842SOL    HW133425   4.815   2.502   1.579
10842SOL    HW233426   4.670   2.428   1.568
10843SOL     OW33427   1.343   2.815   1.491
10843SOL    HW133428   1.387   2.905   1.487
10843SOL    HW233429   1.404   2.746   1.453
10844SOL     OW33430   0.238   6.953   3.623
10844SOL    HW133431   0.232   6.919   3.529
10844SOL    HW233432   0.313   7.019   3.629
10845SOL     OW33433   3.524   0.086   5.279
10845SOL    HW133434   3.428   0.069   5.256
10845SOL    HW233435   3.539   0.184   5.286
10846SOL     OW33436   4.649   1.746   0.601
10846SOL    HW133437   4.703   1.678   0.550
10846SOL    HW233438   4.706   1.785   0.673
10847SOL     OW33439   3.592   3.072   6.691
10847SOL    HW133440   3.650   3.009   6.640
10847SOL    HW233441   3.561   3.145   6.630
10848SOL     OW33442   3.235   3.465   6.844
10848SOL    HW133443   3.256   3.563   6.850
10848SOL    HW233444   3.280   3.426   6.764
10849SOL     OW33445   2.354   6.225   2.632
10849SOL    HW133446   2.255   6.216   2.645
10849SOL    HW233447   2.372   6.290   2.558
10850SOL     OW33448   3.132   4.806   6.240
10850SOL    HW133449   3.055   4.799   6.304
10850SOL    HW233450   3.165   4.714   6.218
10851SOL     OW33451   1.943   3.109   6.632
10851SOL    HW133452   1.896   3.195   6.610
10851SOL    HW233453   2.038   3.115   6.603
10852SOL     OW33454   1.365   0.335   6.901
10852SOL    HW133455   1.360   0.266   6.829
10852SOL    HW233456   1.280   0.388   6.903
10853SOL     OW33457   2.364   1.694   5.835
10853SOL    HW133458   2.443   1.737   5.878
10853SOL    HW233459   2.332   1.750   5.759
10854SOL     OW33460   4.459   5.427   5.243
10854SOL    HW133461   4.389   5.359   5.221
10854SOL    HW233462   4.434   5.514   5.201
10855SOL     OW33463   3.075   6.894   0.652
10855SOL    HW133464   3.021   6.971   0.685
10855SOL    HW233465   3.164   6.927   0.621
10856SOL     OW33466   5.751   1.804   0.719
10856SOL    HW133467   5.735   1.752   0.635
10856SOL    HW233468   5.668   1.853   0.745
10857SOL     OW33469   6.944   2.674   1.910
10857SOL    HW133470   6.883   2.595   1.912
10857SOL    HW233471   6.892   2.757   1.927
10858SOL     OW33472   0.334   2.247   5.994
10858SOL    HW133473   0.430   2.225   5.975
10858SOL    HW233474   0.320   2.254   6.093
10859SOL     OW33475   2.123   3.326   4.066
10859SOL    HW133476   2.107   3.394   4.137
10859SOL    HW233477   2.137   3.236   4.108
10860SOL     OW33478   6.788   1.809   5.595
10860SOL    HW133479   6.759   1.905   5.597
10860SOL    HW233480   6.887   1.805   5.605
10861SOL     OW33481   3.833   3.587   2.602
10861SOL    HW133482   3.800   3.505   2.554
10861SOL    HW233483   3.932   3.592   2.595
10862SOL     OW33484   2.262   1.922   6.514
10862SOL    HW133485   2.301   2.002   6.467
10862SOL    HW233486   2.325   1.845   6.504
10863SOL     OW33487   3.728   0.724   3.746
10863SOL    HW133488   3.748   0.670   3.828
10863SOL    HW233489   3.806   0.719   3.683
10864SOL     OW33490   3.029   5.017   0.481
10864SOL    HW133491   3.068   4.936   0.438
10864SOL    HW233492   3.060   5.024   0.576
10865SOL     OW33493   6.766   1.723   2.607
10865SOL    HW133494   6.694   1.662   2.641
10865SOL    HW233495   6.846   1.668   2.582
10866SOL     OW33496   5.331   4.793   6.957
10866SOL    HW133497   5.370   4.870   7.008
10866SOL    HW233498   5.334   4.812   6.859
10867SOL     OW33499   3.556   3.762   0.715
10867SOL    HW133500   3.548   3.749   0.616
10867SOL    HW233501   3.649   3.792   0.738
10868SOL     OW33502   3.544   2.109   3.911
10868SOL    HW133503   3.463   2.088   3.965
10868SOL    HW233504   3.612   2.037   3.922
10869NA      NA33505   0.243   2.243   5.550
10870NA      NA33506   4.392   4.689   5.156
10871NA      NA33507   1.851   3.969   2.601
10872NA      NA33508   4.924   4.163   3.926
10873NA      NA33509   4.411   2.560   5.116
10874NA      NA33510   3.191   4.907   1.753
10875NA      NA33511   0.096   4.423   0.547
10876NA      NA33512   3.199   3.263   3.492
10877NA      NA33513   4.985   5.461   1.281
10878NA      NA33514   3.737   6.460   5.486
10879NA      NA33515   6.047   5.518   1.824
10880NA      NA33516   2.111   0.881   4.693
10881NA      NA33517   3.896   5.069   1.768
10882NA      NA33518   4.092   3.404   1.508
   7.02433   7.02433   7.02433
