Generated by trjconv : CNT in water t= 236.00000
33518
    1C        C    1   2.845   2.774   4.752
    1C        C    2   2.904   2.723   4.870
    1C        C    3   2.850   2.776   4.988
    1C        C    4   2.849   2.776   4.264
    1C        C    5   2.901   2.729   4.386
    1C        C    6   2.844   2.773   4.508
    1C        C    7   3.013   2.644   4.626
    1C        C    8   2.897   2.724   4.630
    1C        C    9   3.077   2.604   4.746
    1C        C   10   3.016   2.638   4.869
    1C        C   11   3.188   2.502   4.978
    1C        C   12   3.063   2.566   4.979
    1C        C   13   2.858   2.777   3.776
    1C        C   14   2.907   2.730   3.900
    1C        C   15   2.848   2.773   4.020
    1C        C   16   3.022   2.653   4.143
    1C        C   17   2.903   2.728   4.142
    1C        C   18   3.089   2.626   4.264
    1C        C   19   3.023   2.659   4.385
    1C        C   20   3.212   2.564   4.506
    1C        C   21   3.079   2.612   4.506
    1C        C   22   3.282   2.544   4.627
    1C        C   23   3.211   2.557   4.749
    1C        C   24   3.416   2.481   4.869
    1C        C   25   3.275   2.505   4.865
    1C        C   26   3.491   2.476   4.987
    1C        C   27   2.851   2.772   3.286
    1C        C   28   2.906   2.729   3.409
    1C        C   29   2.855   2.777   3.531
    1C        C   30   3.019   2.641   3.654
    1C        C   31   2.908   2.729   3.653
    1C        C   32   3.081   2.608   3.776
    1C        C   33   3.022   2.647   3.898
    1C        C   34   3.213   2.558   4.021
    1C        C   35   3.083   2.615   4.021
    1C        C   36   3.280   2.536   4.143
    1C        C   37   3.217   2.567   4.266
    1C        C   38   3.424   2.514   4.385
    1C        C   39   3.286   2.543   4.387
    1C        C   40   3.492   2.504   4.508
    1C        C   41   3.418   2.508   4.628
    1C        C   42   3.633   2.490   4.748
    1C        C   43   3.491   2.489   4.748
    1C        C   44   3.707   2.489   4.868
    1C        C   45   3.630   2.479   4.984
    1C        C   46   2.837   2.755   2.797
    1C        C   47   2.893   2.712   2.920
    1C        C   48   2.844   2.763   3.042
    1C        C   49   3.020   2.643   3.165
    1C        C   50   2.903   2.723   3.164
    1C        C   51   3.083   2.614   3.288
    1C        C   52   3.022   2.648   3.411
    1C        C   53   3.212   2.553   3.532
    1C        C   54   3.080   2.604   3.532
    1C        C   55   3.279   2.532   3.654
    1C        C   56   3.213   2.555   3.777
    1C        C   57   3.421   2.516   3.899
    1C        C   58   3.282   2.539   3.899
    1C        C   59   3.492   2.513   4.022
    1C        C   60   3.420   2.516   4.143
    1C        C   61   3.636   2.499   4.262
    1C        C   62   3.495   2.509   4.263
    1C        C   63   3.706   2.508   4.384
    1C        C   64   3.633   2.508   4.505
    1C        C   65   3.841   2.542   4.627
    1C        C   66   3.704   2.506   4.627
    1C        C   67   3.909   2.565   4.748
    1C        C   68   3.842   2.530   4.868
    1C        C   69   4.053   2.587   4.981
    1C        C   70   3.924   2.533   4.982
    1C        C   71   2.831   2.745   2.313
    1C        C   72   2.888   2.699   2.433
    1C        C   73   2.835   2.746   2.556
    1C        C   74   3.007   2.622   2.677
    1C        C   75   2.891   2.703   2.678
    1C        C   76   3.069   2.588   2.800
    1C        C   77   3.012   2.637   2.920
    1C        C   78   3.209   2.554   3.041
    1C        C   79   3.079   2.610   3.041
    1C        C   80   3.278   2.532   3.163
    1C        C   81   3.212   2.556   3.285
    1C        C   82   3.416   2.508   3.407
    1C        C   83   3.277   2.531   3.408
    1C        C   84   3.486   2.507   3.530
    1C        C   85   3.418   2.507   3.654
    1C        C   86   3.630   2.510   3.773
    1C        C   87   3.489   2.505   3.776
    1C        C   88   3.700   2.512   3.895
    1C        C   89   3.633   2.513   4.019
    1C        C   90   3.841   2.555   4.142
    1C        C   91   3.705   2.516   4.140
    1C        C   92   3.909   2.579   4.264
    1C        C   93   3.841   2.551   4.384
    1C        C   94   4.033   2.638   4.504
    1C        C   95   3.909   2.570   4.506
    1C        C   96   4.097   2.675   4.624
    1C        C   97   4.035   2.630   4.743
    1C        C   98   4.191   2.770   4.864
    1C        C   99   4.102   2.658   4.866
    1C        C  100   4.223   2.846   4.978
    1C        C  101   2.820   2.730   2.077
    1C        C  102   2.991   2.595   2.193
    1C        C  103   2.877   2.681   2.195
    1C        C  104   3.063   2.573   2.315
    1C        C  105   3.003   2.617   2.435
    1C        C  106   3.202   2.534   2.553
    1C        C  107   3.070   2.586   2.556
    1C        C  108   3.269   2.520   2.677
    1C        C  109   3.199   2.534   2.799
    1C        C  110   3.414   2.510   2.918
    1C        C  111   3.273   2.526   2.919
    1C        C  112   3.485   2.502   3.040
    1C        C  113   3.417   2.508   3.163
    1C        C  114   3.628   2.503   3.284
    1C        C  115   3.487   2.496   3.285
    1C        C  116   3.698   2.515   3.406
    1C        C  117   3.627   2.513   3.529
    1C        C  118   3.838   2.547   3.651
    1C        C  119   3.699   2.523   3.650
    1C        C  120   3.904   2.574   3.773
    1C        C  121   3.836   2.553   3.895
    1C        C  122   4.030   2.638   4.016
    1C        C  123   3.903   2.575   4.017
    1C        C  124   4.094   2.674   4.136
    1C        C  125   4.036   2.642   4.261
    1C        C  126   4.207   2.765   4.381
    1C        C  127   4.094   2.680   4.384
    1C        C  128   4.256   2.817   4.503
    1C        C  129   4.204   2.766   4.624
    1C        C  130   4.331   2.939   4.746
    1C        C  131   4.249   2.823   4.746
    1C        C  132   4.362   3.008   4.865
    1C        C  133   4.289   2.968   4.977
    1C        C  134   3.172   2.471   2.089
    1C        C  135   3.038   2.509   2.089
    1C        C  136   3.263   2.481   2.196
    1C        C  137   3.195   2.520   2.313
    1C        C  138   3.410   2.490   2.431
    1C        C  139   3.269   2.508   2.432
    1C        C  140   3.481   2.494   2.553
    1C        C  141   3.409   2.500   2.675
    1C        C  142   3.624   2.505   2.795
    1C        C  143   3.483   2.503   2.796
    1C        C  144   3.696   2.513   2.917
    1C        C  145   3.626   2.504   3.040
    1C        C  146   3.835   2.547   3.161
    1C        C  147   3.698   2.513   3.161
    1C        C  148   3.901   2.572   3.283
    1C        C  149   3.835   2.547   3.406
    1C        C  150   4.030   2.633   3.526
    1C        C  151   3.903   2.571   3.528
    1C        C  152   4.089   2.672   3.648
    1C        C  153   4.033   2.633   3.772
    1C        C  154   4.202   2.761   3.893
    1C        C  155   4.092   2.672   3.894
    1C        C  156   4.256   2.811   4.013
    1C        C  157   4.205   2.762   4.136
    1C        C  158   4.344   2.922   4.256
    1C        C  159   4.260   2.808   4.257
    1C        C  160   4.376   2.988   4.377
    1C        C  161   4.333   2.935   4.501
    1C        C  162   4.436   3.121   4.620
    1C        C  163   4.373   2.994   4.623
    1C        C  164   4.467   3.189   4.739
    1C        C  165   4.436   3.128   4.863
    1C        C  166   4.515   3.326   4.976
    1C        C  167   4.482   3.191   4.979
    1C        C  168   3.482   2.443   2.079
    1C        C  169   3.403   2.461   2.193
    1C        C  170   3.622   2.468   2.311
    1C        C  171   3.480   2.466   2.311
    1C        C  172   3.696   2.489   2.429
    1C        C  173   3.622   2.496   2.549
    1C        C  174   3.828   2.547   2.671
    1C        C  175   3.692   2.509   2.671
    1C        C  176   3.897   2.569   2.792
    1C        C  177   3.833   2.547   2.916
    1C        C  178   4.030   2.626   3.037
    1C        C  179   3.902   2.566   3.038
    1C        C  180   4.093   2.662   3.158
    1C        C  181   4.030   2.630   3.281
    1C        C  182   4.203   2.751   3.401
    1C        C  183   4.092   2.665   3.403
    1C        C  184   4.253   2.803   3.522
    1C        C  185   4.199   2.760   3.646
    1C        C  186   4.339   2.918   3.766
    1C        C  187   4.249   2.809   3.768
    1C        C  188   4.382   2.974   3.889
    1C        C  189   4.346   2.920   4.014
    1C        C  190   4.454   3.105   4.133
    1C        C  191   4.386   2.981   4.135
    1C        C  192   4.479   3.171   4.256
    1C        C  193   4.447   3.110   4.379
    1C        C  194   4.510   3.318   4.495
    1C        C  195   4.473   3.182   4.498
    1C        C  196   4.524   3.391   4.615
    1C        C  197   4.511   3.325   4.739
    1C        C  198   4.557   3.541   4.854
    1C        C  199   4.529   3.400   4.858
    1C        C  200   4.589   3.624   4.967
    1C        C  201   3.620   2.423   2.072
    1C        C  202   3.830   2.511   2.186
    1C        C  203   3.693   2.467   2.187
    1C        C  204   3.902   2.537   2.306
    1C        C  205   3.833   2.523   2.428
    1C        C  206   4.025   2.621   2.547
    1C        C  207   3.898   2.559   2.549
    1C        C  208   4.084   2.661   2.669
    1C        C  209   4.026   2.626   2.793
    1C        C  210   4.200   2.752   2.911
    1C        C  211   4.088   2.665   2.914
    1C        C  212   4.255   2.799   3.032
    1C        C  213   4.200   2.754   3.154
    1C        C  214   4.337   2.912   3.275
    1C        C  215   4.252   2.799   3.277
    1C        C  216   4.374   2.974   3.396
    1C        C  217   4.337   2.917   3.520
    1C        C  218   4.441   3.101   3.641
    1C        C  219   4.376   2.976   3.643
    1C        C  220   4.465   3.168   3.764
    1C        C  221   4.444   3.101   3.887
    1C        C  222   4.500   3.307   4.008
    1C        C  223   4.473   3.168   4.008
    1C        C  224   4.514   3.379   4.128
    1C        C  225   4.508   3.309   4.251
    1C        C  226   4.512   3.525   4.369
    1C        C  227   4.518   3.384   4.370
    1C        C  228   4.515   3.599   4.489
    1C        C  229   4.531   3.532   4.612
    1C        C  230   4.503   3.747   4.730
    1C        C  231   4.534   3.609   4.731
    1C        C  232   4.498   3.825   4.848
    1C        C  233   4.552   3.759   4.959
    1C        C  234   4.017   2.613   2.069
    1C        C  235   3.893   2.551   2.068
    1C        C  236   4.087   2.650   2.185
    1C        C  237   4.026   2.607   2.305
    1C        C  238   4.197   2.742   2.425
    1C        C  239   4.087   2.653   2.424
    1C        C  240   4.256   2.786   2.546
    1C        C  241   4.200   2.741   2.667
    1C        C  242   4.344   2.903   2.788
    1C        C  243   4.252   2.796   2.787
    1C        C  244   4.387   2.963   2.908
    1C        C  245   4.344   2.909   3.031
    1C        C  246   4.443   3.097   3.150
    1C        C  247   4.380   2.970   3.153
    1C        C  248   4.462   3.164   3.273
    1C        C  249   4.438   3.100   3.397
    1C        C  250   4.498   3.304   3.518
    1C        C  251   4.464   3.167   3.518
    1C        C  252   4.509   3.373   3.641
    1C        C  253   4.501   3.304   3.764
    1C        C  254   4.517   3.517   3.881
    1C        C  255   4.514   3.376   3.886
    1C        C  256   4.513   3.589   4.002
    1C        C  257   4.518   3.520   4.125
    1C        C  258   4.493   3.734   4.243
    1C        C  259   4.514   3.594   4.246
    1C        C  260   4.480   3.807   4.363
    1C        C  261   4.487   3.738   4.487
    1C        C  262   4.426   3.943   4.606
    1C        C  263   4.478   3.811   4.607
    1C        C  264   4.409   4.017   4.725
    1C        C  265   4.445   3.955   4.847
    1C        C  266   4.321   4.135   4.962
    1C        C  267   4.402   4.023   4.962
    1C        C  268   4.267   2.777   2.068
    1C        C  269   4.202   2.732   2.184
    1C        C  270   4.351   2.891   2.303
    1C        C  271   4.254   2.786   2.303
    1C        C  272   4.382   2.956   2.424
    1C        C  273   4.343   2.897   2.546
    1C        C  274   4.451   3.085   2.663
    1C        C  275   4.382   2.962   2.665
    1C        C  276   4.477   3.154   2.784
    1C        C  277   4.453   3.088   2.906
    1C        C  278   4.497   3.299   3.028
    1C        C  279   4.466   3.161   3.027
    1C        C  280   4.512   3.369   3.150
    1C        C  281   4.497   3.300   3.272
    1C        C  282   4.515   3.512   3.393
    1C        C  283   4.510   3.371   3.394
    1C        C  284   4.515   3.584   3.515
    1C        C  285   4.516   3.514   3.637
    1C        C  286   4.491   3.727   3.758
    1C        C  287   4.510   3.587   3.758
    1C        C  288   4.474   3.798   3.879
    1C        C  289   4.491   3.729   4.001
    1C        C  290   4.433   3.937   4.119
    1C        C  291   4.475   3.802   4.121
    1C        C  292   4.406   4.004   4.241
    1C        C  293   4.435   3.941   4.364
    1C        C  294   4.334   4.132   4.482
    1C        C  295   4.399   4.007   4.483
    1C        C  296   4.291   4.195   4.601
    1C        C  297   4.339   4.141   4.722
    1C        C  298   4.207   4.317   4.838
    1C        C  299   4.288   4.199   4.841
    1C        C  300   4.169   4.399   4.949
    1C        C  301   4.361   2.879   2.065
    1C        C  302   4.473   3.069   2.184
    1C        C  303   4.402   2.945   2.181
    1C        C  304   4.486   3.146   2.302
    1C        C  305   4.447   3.082   2.422
    1C        C  306   4.517   3.286   2.538
    1C        C  307   4.481   3.149   2.541
    1C        C  308   4.525   3.360   2.658
    1C        C  309   4.512   3.291   2.781
    1C        C  310   4.522   3.503   2.904
    1C        C  311   4.515   3.362   2.903
    1C        C  312   4.524   3.578   3.024
    1C        C  313   4.526   3.510   3.148
    1C        C  314   4.489   3.720   3.269
    1C        C  315   4.514   3.581   3.269
    1C        C  316   4.474   3.789   3.391
    1C        C  317   4.496   3.725   3.514
    1C        C  318   4.427   3.928   3.631
    1C        C  319   4.477   3.795   3.635
    1C        C  320   4.398   3.992   3.753
    1C        C  321   4.427   3.931   3.877
    1C        C  322   4.326   4.120   3.994
    1C        C  323   4.400   4.000   3.997
    1C        C  324   4.281   4.177   4.115
    1C        C  325   4.330   4.123   4.237
    1C        C  326   4.190   4.284   4.358
    1C        C  327   4.288   4.183   4.358
    1C        C  328   4.139   4.342   4.477
    1C        C  329   4.190   4.294   4.600
    1C        C  330   4.024   4.436   4.717
    1C        C  331   4.139   4.352   4.718
    1C        C  332   3.969   4.486   4.837
    1C        C  333   4.055   4.480   4.947
    1C        C  334   4.557   3.271   2.065
    1C        C  335   4.532   3.133   2.070
    1C        C  336   4.542   3.354   2.177
    1C        C  337   4.515   3.285   2.298
    1C        C  338   4.529   3.501   2.419
    1C        C  339   4.523   3.360   2.418
    1C        C  340   4.532   3.574   2.539
    1C        C  341   4.522   3.501   2.659
    1C        C  342   4.496   3.712   2.778
    1C        C  343   4.519   3.572   2.781
    1C        C  344   4.480   3.784   2.898
    1C        C  345   4.497   3.717   3.021
    1C        C  346   4.431   3.918   3.143
    1C        C  347   4.479   3.785   3.144
    1C        C  348   4.397   3.985   3.262
    1C        C  349   4.425   3.922   3.385
    1C        C  350   4.325   4.109   3.505
    1C        C  351   4.401   3.989   3.507
    1C        C  352   4.281   4.168   3.626
    1C        C  353   4.324   4.113   3.748
    1C        C  354   4.182   4.271   3.869
    1C        C  355   4.282   4.172   3.870
    1C        C  356   4.128   4.320   3.990
    1C        C  357   4.180   4.275   4.113
    1C        C  358   4.017   4.405   4.235
    1C        C  359   4.135   4.328   4.236
    1C        C  360   3.957   4.451   4.355
    1C        C  361   4.021   4.419   4.476
    1C        C  362   3.830   4.522   4.596
    1C        C  363   3.959   4.465   4.595
    1C        C  364   3.765   4.553   4.718
    1C        C  365   3.839   4.541   4.837
    1C        C  366   3.631   4.591   4.954
    1C        C  367   3.768   4.567   4.955
    1C        C  368   4.522   3.570   2.058
    1C        C  369   4.539   3.495   2.175
    1C        C  370   4.506   3.709   2.293
    1C        C  371   4.523   3.569   2.295
    1C        C  372   4.493   3.782   2.414
    1C        C  373   4.509   3.714   2.536
    1C        C  374   4.434   3.915   2.655
    1C        C  375   4.485   3.784   2.657
    1C        C  376   4.400   3.980   2.776
    1C        C  377   4.426   3.914   2.898
    1C        C  378   4.322   4.099   3.016
    1C        C  379   4.400   3.980   3.020
    1C        C  380   4.277   4.156   3.137
    1C        C  381   4.319   4.103   3.261
    1C        C  382   4.180   4.263   3.380
    1C        C  383   4.278   4.161   3.383
    1C        C  384   4.127   4.314   3.501
    1C        C  385   4.180   4.267   3.623
    1C        C  386   4.010   4.393   3.747
    1C        C  387   4.126   4.312   3.745
    1C        C  388   3.946   4.429   3.867
    1C        C  389   4.008   4.395   3.989
    1C        C  390   3.823   4.488   4.112
    1C        C  391   3.956   4.440   4.112
    1C        C  392   3.754   4.514   4.232
    1C        C  393   3.825   4.502   4.354
    1C        C  394   3.620   4.557   4.476
    1C        C  395   3.759   4.533   4.474
    1C        C  396   3.549   4.568   4.598
    1C        C  397   3.626   4.577   4.717
    1C        C  398   3.415   4.552   4.844
    1C        C  399   3.553   4.580   4.838
    1C        C  400   3.346   4.521   4.962
    1C        C  401   4.509   3.709   2.056
    1C        C  402   4.453   3.917   2.170
    1C        C  403   4.501   3.784   2.174
    1C        C  404   4.417   3.981   2.291
    1C        C  405   4.449   3.916   2.412
    1C        C  406   4.327   4.093   2.530
    1C        C  407   4.412   3.981   2.532
    1C        C  408   4.278   4.152   2.649
    1C        C  409   4.322   4.098   2.772
    1C        C  410   4.179   4.253   2.888
    1C        C  411   4.282   4.157   2.894
    1C        C  412   4.125   4.300   3.011
    1C        C  413   4.178   4.257   3.134
    1C        C  414   4.009   4.384   3.254
    1C        C  415   4.125   4.304   3.256
    1C        C  416   3.950   4.421   3.377
    1C        C  417   4.008   4.390   3.502
    1C        C  418   3.815   4.476   3.623
    1C        C  419   3.947   4.425   3.624
    1C        C  420   3.749   4.505   3.744
    1C        C  421   3.816   4.484   3.867
    1C        C  422   3.614   4.535   3.990
    1C        C  423   3.751   4.504   3.991
    1C        C  424   3.544   4.543   4.113
    1C        C  425   3.615   4.539   4.235
    1C        C  426   3.405   4.554   4.361
    1C        C  427   3.546   4.561   4.356
    1C        C  428   3.335   4.547   4.484
    1C        C  429   3.409   4.561   4.604
    1C        C  430   3.199   4.521   4.729
    1C        C  431   3.337   4.553   4.726
    1C        C  432   3.130   4.497   4.851
    1C        C  433   3.209   4.496   4.967
    1C        C  434   4.386   4.125   2.055
    1C        C  435   4.451   4.001   2.058
    1C        C  436   4.310   4.168   2.168
    1C        C  437   4.342   4.102   2.289
    1C        C  438   4.189   4.255   2.407
    1C        C  439   4.288   4.154   2.409
    1C        C  440   4.130   4.305   2.525
    1C        C  441   4.185   4.258   2.647
    1C        C  442   4.004   4.376   2.766
    1C        C  443   4.123   4.298   2.767
    1C        C  444   3.946   4.411   2.890
    1C        C  445   4.008   4.378   3.012
    1C        C  446   3.815   4.471   3.134
    1C        C  447   3.946   4.418   3.133
    1C        C  448   3.751   4.499   3.257
    1C        C  449   3.820   4.477   3.378
    1C        C  450   3.612   4.525   3.498
    1C        C  451   3.752   4.502   3.499
    1C        C  452   3.543   4.540   3.621
    1C        C  453   3.612   4.537   3.744
    1C        C  454   3.403   4.543   3.870
    1C        C  455   3.544   4.547   3.868
    1C        C  456   3.334   4.534   3.993
    1C        C  457   3.403   4.539   4.116
    1C        C  458   3.197   4.504   4.241
    1C        C  459   3.334   4.537   4.239
    1C        C  460   3.131   4.491   4.366
    1C        C  461   3.197   4.519   4.487
    1C        C  462   3.002   4.435   4.608
    1C        C  463   3.130   4.494   4.609
    1C        C  464   2.934   4.406   4.729
    1C        C  465   2.995   4.450   4.850
    1C        C  466   2.805   4.339   4.961
    1C        C  467   2.909   4.432   4.963
    1C        C  468   4.123   4.279   2.046
    1C        C  469   4.189   4.245   2.165
    1C        C  470   4.011   4.372   2.281
    1C        C  471   4.132   4.297   2.285
    1C        C  472   3.941   4.400   2.400
    1C        C  473   4.006   4.372   2.522
    1C        C  474   3.815   4.468   2.642
    1C        C  475   3.944   4.409   2.643
    1C        C  476   3.750   4.489   2.765
    1C        C  477   3.815   4.465   2.888
    1C        C  478   3.611   4.517   3.012
    1C        C  479   3.750   4.493   3.010
    1C        C  480   3.540   4.526   3.133
    1C        C  481   3.612   4.525   3.255
    1C        C  482   3.400   4.528   3.381
    1C        C  483   3.541   4.532   3.377
    1C        C  484   3.331   4.526   3.505
    1C        C  485   3.402   4.539   3.626
    1C        C  486   3.192   4.511   3.749
    1C        C  487   3.331   4.535   3.748
    1C        C  488   3.129   4.481   3.871
    1C        C  489   3.197   4.501   3.994
    1C        C  490   3.008   4.415   4.118
    1C        C  491   3.132   4.481   4.118
    1C        C  492   2.948   4.381   4.242
    1C        C  493   3.006   4.426   4.363
    1C        C  494   2.834   4.307   4.487
    1C        C  495   2.941   4.399   4.485
    1C        C  496   2.781   4.255   4.608
    1C        C  497   2.826   4.314   4.728
    1C        C  498   2.668   4.167   4.846
    1C        C  499   2.756   4.277   4.845
    1C        C  500   2.594   4.126   4.958
    1C        C  501   4.004   4.352   2.044
    1C        C  502   3.819   4.465   2.158
    1C        C  503   3.947   4.404   2.160
    1C        C  504   3.747   4.483   2.278
    1C        C  505   3.811   4.455   2.401
    1C        C  506   3.604   4.510   2.523
    1C        C  507   3.743   4.486   2.522
    1C        C  508   3.536   4.518   2.647
    1C        C  509   3.610   4.513   2.767
    1C        C  510   3.399   4.524   2.891
    1C        C  511   3.540   4.524   2.890
    1C        C  512   3.328   4.520   3.013
    1C        C  513   3.399   4.529   3.135
    1C        C  514   3.194   4.489   3.259
    1C        C  515   3.331   4.523   3.258
    1C        C  516   3.125   4.472   3.381
    1C        C  517   3.192   4.500   3.502
    1C        C  518   3.003   4.413   3.628
    1C        C  519   3.128   4.480   3.627
    1C        C  520   2.944   4.376   3.751
    1C        C  521   3.004   4.414   3.873
    1C        C  522   2.838   4.287   4.000
    1C        C  523   2.947   4.377   3.997
    1C        C  524   2.789   4.242   4.124
    1C        C  525   2.835   4.297   4.246
    1C        C  526   2.701   4.136   4.367
    1C        C  527   2.780   4.253   4.369
    1C        C  528   2.662   4.077   4.490
    1C        C  529   2.694   4.144   4.610
    1C        C  530   2.583   3.962   4.734
    1C        C  531   2.642   4.091   4.730
    1C        C  532   2.544   3.906   4.859
    1C        C  533   2.533   4.000   4.966
    1C        C  534   3.620   4.555   2.042
    1C        C  535   3.753   4.513   2.044
    1C        C  536   3.537   4.539   2.157
    1C        C  537   3.608   4.510   2.277
    1C        C  538   3.395   4.518   2.402
    1C        C  539   3.537   4.516   2.399
    1C        C  540   3.325   4.512   2.525
    1C        C  541   3.395   4.516   2.647
    1C        C  542   3.188   4.490   2.768
    1C        C  543   3.326   4.519   2.770
    1C        C  544   3.124   4.471   2.892
    1C        C  545   3.190   4.487   3.016
    1C        C  546   2.995   4.409   3.138
    1C        C  547   3.124   4.466   3.139
    1C        C  548   2.938   4.369   3.261
    1C        C  549   3.002   4.401   3.383
    1C        C  550   2.832   4.284   3.509
    1C        C  551   2.943   4.372   3.507
    1C        C  552   2.779   4.237   3.631
    1C        C  553   2.834   4.287   3.751
    1C        C  554   2.705   4.125   3.877
    1C        C  555   2.790   4.238   3.876
    1C        C  556   2.664   4.069   4.000
    1C        C  557   2.703   4.130   4.121
    1C        C  558   2.599   3.949   4.247
    1C        C  559   2.663   4.075   4.245
    1C        C  560   2.571   3.885   4.370
    1C        C  561   2.594   3.952   4.492
    1C        C  562   2.528   3.753   4.618
    1C        C  563   2.559   3.891   4.614
    1C        C  564   2.525   3.685   4.742
    1C        C  565   2.527   3.763   4.861
    1C        C  566   2.525   3.547   4.981
    1C        C  567   2.534   3.685   4.977
    1C        C  568   3.331   4.477   2.043
    1C        C  569   3.396   4.521   2.159
    1C        C  570   3.186   4.476   2.282
    1C        C  571   3.323   4.514   2.281
    1C        C  572   3.117   4.460   2.404
    1C        C  573   3.187   4.482   2.525
    1C        C  574   2.992   4.401   2.650
    1C        C  575   3.118   4.465   2.648
    1C        C  576   2.931   4.367   2.773
    1C        C  577   2.998   4.406   2.891
    1C        C  578   2.827   4.285   3.018
    1C        C  579   2.938   4.371   3.014
    1C        C  580   2.779   4.229   3.139
    1C        C  581   2.829   4.279   3.261
    1C        C  582   2.702   4.117   3.387
    1C        C  583   2.785   4.232   3.387
    1C        C  584   2.662   4.062   3.511
    1C        C  585   2.696   4.122   3.634
    1C        C  586   2.596   3.938   3.755
    1C        C  587   2.660   4.064   3.758
    1C        C  588   2.579   3.876   3.881
    1C        C  589   2.608   3.939   4.003
    1C        C  590   2.540   3.742   4.130
    1C        C  591   2.579   3.878   4.127
    1C        C  592   2.527   3.677   4.255
    1C        C  593   2.541   3.747   4.376
    1C        C  594   2.513   3.537   4.501
    1C        C  595   2.524   3.678   4.498
    1C        C  596   2.525   3.468   4.623
    1C        C  597   2.524   3.543   4.743
    1C        C  598   2.539   3.329   4.866
    1C        C  599   2.529   3.470   4.864
    1C        C  600   2.530   3.250   4.981
    1C        C  601   3.199   4.438   2.048
    1C        C  602   2.982   4.399   2.160
    1C        C  603   3.118   4.443   2.162
    1C        C  604   2.922   4.368   2.285
    1C        C  605   2.988   4.405   2.405
    1C        C  606   2.823   4.273   2.532
    1C        C  607   2.933   4.361   2.528
    1C        C  608   2.772   4.225   2.655
    1C        C  609   2.824   4.275   2.776
    1C        C  610   2.687   4.118   2.898
    1C        C  611   2.773   4.229   2.900
    1C        C  612   2.650   4.057   3.021
    1C        C  613   2.693   4.117   3.141
    1C        C  614   2.600   3.930   3.268
    1C        C  615   2.662   4.057   3.266
    1C        C  616   2.575   3.868   3.392
    1C        C  617   2.602   3.934   3.514
    1C        C  618   2.541   3.730   3.640
    1C        C  619   2.575   3.867   3.635
    1C        C  620   2.525   3.666   3.765
    1C        C  621   2.541   3.740   3.885
    1C        C  622   2.515   3.531   4.014
    1C        C  623   2.527   3.672   4.008
    1C        C  624   2.517   3.461   4.136
    1C        C  625   2.521   3.536   4.256
    1C        C  626   2.547   3.327   4.383
    1C        C  627   2.522   3.466   4.379
    1C        C  628   2.565   3.256   4.504
    1C        C  629   2.544   3.328   4.624
    1C        C  630   2.593   3.120   4.747
    1C        C  631   2.554   3.257   4.745
    1C        C  632   2.616   3.049   4.868
    1C        C  633   2.568   3.115   4.986
    1C        C  634   2.783   4.306   2.059
    1C        C  635   2.891   4.395   2.049
    1C        C  636   2.751   4.233   2.174
    1C        C  637   2.810   4.281   2.293
    1C        C  638   2.677   4.112   2.411
    1C        C  639   2.763   4.225   2.414
    1C        C  640   2.643   4.053   2.535
    1C        C  641   2.684   4.115   2.655
    1C        C  642   2.590   3.926   2.778
    1C        C  643   2.646   4.056   2.778
    1C        C  644   2.569   3.862   2.902
    1C        C  645   2.589   3.930   3.025
    1C        C  646   2.535   3.725   3.149
    1C        C  647   2.572   3.862   3.147
    1C        C  648   2.523   3.659   3.273
    1C        C  649   2.540   3.731   3.393
    1C        C  650   2.516   3.522   3.521
    1C        C  651   2.528   3.662   3.516
    1C        C  652   2.525   3.456   3.646
    1C        C  653   2.521   3.525   3.769
    1C        C  654   2.542   3.319   3.893
    1C        C  655   2.516   3.458   3.893
    1C        C  656   2.554   3.251   4.017
    1C        C  657   2.539   3.322   4.139
    1C        C  658   2.610   3.123   4.260
    1C        C  659   2.559   3.255   4.262
    1C        C  660   2.637   3.059   4.383
    1C        C  661   2.604   3.121   4.505
    1C        C  662   2.712   2.940   4.628
    1C        C  663   2.627   3.053   4.627
    1C        C  664   2.753   2.882   4.750
    1C        C  665   2.690   2.927   4.869
    1C        C  666   2.747   2.870   4.983
    1C        C  667   2.695   4.026   2.058
    1C        C  668   2.686   4.108   2.172
    1C        C  669   2.589   3.915   2.295
    1C        C  670   2.639   4.048   2.292
    1C        C  671   2.558   3.852   2.417
    1C        C  672   2.583   3.925   2.535
    1C        C  673   2.523   3.722   2.660
    1C        C  674   2.559   3.859   2.658
    1C        C  675   2.513   3.653   2.783
    1C        C  676   2.538   3.724   2.903
    1C        C  677   2.509   3.516   3.032
    1C        C  678   2.524   3.656   3.026
    1C        C  679   2.512   3.446   3.155
    1C        C  680   2.513   3.518   3.276
    1C        C  681   2.539   3.311   3.406
    1C        C  682   2.513   3.449   3.400
    1C        C  683   2.552   3.242   3.529
    1C        C  684   2.539   3.315   3.649
    1C        C  685   2.601   3.114   3.771
    1C        C  686   2.557   3.248   3.772
    1C        C  687   2.632   3.053   3.894
    1C        C  688   2.601   3.118   4.016
    1C        C  689   2.711   2.938   4.142
    1C        C  690   2.635   3.057   4.138
    1C        C  691   2.759   2.885   4.264
    1C        C  692   2.710   2.938   4.385
    1C        C  693   2.751   2.878   4.507
    1C        C  694   2.636   3.899   2.062
    1C        C  695   2.538   3.705   2.179
    1C        C  696   2.583   3.839   2.177
    1C        C  697   2.512   3.638   2.300
    1C        C  698   2.521   3.715   2.419
    1C        C  699   2.492   3.507   2.545
    1C        C  700   2.504   3.648   2.542
    1C        C  701   2.499   3.438   2.669
    1C        C  702   2.502   3.512   2.789
    1C        C  703   2.520   3.302   2.915
    1C        C  704   2.503   3.442   2.911
    1C        C  705   2.547   3.236   3.037
    1C        C  706   2.537   3.307   3.159
    1C        C  707   2.601   3.109   3.282
    1C        C  708   2.552   3.241   3.284
    1C        C  709   2.636   3.048   3.405
    1C        C  710   2.602   3.110   3.528
    1C        C  711   2.713   2.931   3.657
    1C        C  712   2.632   3.046   3.650
    1C        C  713   2.758   2.877   3.780
    1C        C  714   2.712   2.937   3.899
    1C        C  715   2.754   2.878   4.021
    1C        C  716   2.449   3.502   2.063
    1C        C  717   2.502   3.632   2.064
    1C        C  718   2.463   3.426   2.183
    1C        C  719   2.483   3.499   2.304
    1C        C  720   2.519   3.292   2.429
    1C        C  721   2.488   3.430   2.427
    1C        C  722   2.535   3.226   2.553
    1C        C  723   2.517   3.298   2.673
    1C        C  724   2.588   3.097   2.796
    1C        C  725   2.536   3.229   2.795
    1C        C  726   2.619   3.035   2.918
    1C        C  727   2.584   3.100   3.039
    1C        C  728   2.709   2.927   3.163
    1C        C  729   2.626   3.041   3.160
    1C        C  730   2.757   2.877   3.286
    1C        C  731   2.714   2.931   3.409
    1C        C  732   2.756   2.878   3.533
    1C        C  733   2.496   3.204   2.076
    1C        C  734   2.491   3.286   2.190
    1C        C  735   2.591   3.091   2.310
    1C        C  736   2.527   3.218   2.310
    1C        C  737   2.617   3.027   2.433
    1C        C  738   2.586   3.094   2.554
    1C        C  739   2.699   2.914   2.673
    1C        C  740   2.620   3.031   2.675
    1C        C  741   2.745   2.862   2.796
    1C        C  742   2.703   2.921   2.918
    1C        C  743   2.752   2.871   3.040
    1C        C  744   2.553   3.077   2.076
    1C        C  745   2.687   2.900   2.188
    1C        C  746   2.614   3.021   2.189
    1C        C  747   2.731   2.847   2.311
    1C        C  748   2.693   2.907   2.433
    1C        C  749   2.741   2.851   2.553
    1C        C  750   2.730   2.836   2.072
    1C        C  751   3.663   2.308   1.990
    1C        O  752   3.653   2.192   2.037
    1C        O  753   3.664   2.313   1.850
    1C        C  754   4.640   3.054   2.008
    1C        O  755   4.657   3.070   1.884
    1C        O  756   4.764   3.028   2.068
    1C        C  757   4.442   4.222   1.958
    1C        O  758   4.560   4.260   1.979
    1C        O  759   4.410   4.219   1.822
    1C        C  760   3.604   4.658   1.936
    1C        O  761   3.627   4.780   1.951
    1C        O  762   3.533   4.626   1.819
    1C        C  763   2.868   4.516   1.966
    1C        O  764   2.898   4.514   1.843
    1C        O  765   2.793   4.627   2.005
    1C        C  766   2.332   3.498   1.973
    1C        O  767   2.328   3.441   1.860
    1C        O  768   2.206   3.502   2.034
    1C        C  769   4.716   3.604   5.040
    1C        O  770   4.731   3.537   5.146
    1C        O  771   4.845   3.652   5.014
    1C        C  772   4.260   4.427   5.062
    1C        O  773   4.237   4.404   5.184
    1C        O  774   4.393   4.464   5.035
    1C        C  775   4.153   2.521   5.067
    1C        O  776   4.243   2.446   5.021
    1C        O  777   4.202   2.572   5.188
    1C        C  778   2.882   4.551   5.048
    1C        O  779   2.864   4.660   4.989
    1C        O  780   2.844   4.556   5.182
    1C        C  781   2.495   3.035   5.087
    1C        O  782   2.391   2.969   5.060
    1C        O  783   2.527   3.041   5.222
    1C        C  784   2.413   3.994   5.052
    1C        O  785   2.313   4.063   5.017
    1C        O  786   2.435   3.988   5.190
    1C        C  787   2.955   2.434   1.991
    1C        O  788   2.953   2.467   1.869
    1C        O  789   2.873   2.328   2.028
    1C        C  790   3.197   2.398   5.083
    1C        O  791   3.147   2.284   5.059
    1C        O  792   3.182   2.427   5.219
    1C        H  793   4.261   3.038   5.054
    1C        H  794   4.253   2.781   5.058
    1C        H  795   4.512   3.132   5.063
    1C        H  796   4.514   3.375   5.071
    1C        H  797   4.544   3.804   5.056
    1C        H  798   4.453   4.000   5.053
    1C        H  799   4.315   4.184   5.057
    1C        H  800   4.050   4.558   5.020
    1C        H  801   3.822   4.618   5.032
    1C        H  802   3.593   4.651   5.033
    1C        H  803   3.400   4.524   5.054
    1C        H  804   3.161   4.500   5.062
    1C        H  805   3.906   2.453   5.052
    1C        H  806   3.676   2.469   5.080
    1C        H  807   2.986   2.546   5.051
    1C        H  808   3.443   2.516   5.074
    1C        H  809   2.881   2.748   5.087
    1C        H  810   2.690   2.870   5.073
    1C        H  811   2.500   3.292   5.074
    1C        H  812   2.521   3.506   5.080
    1C        H  813   2.588   3.728   5.058
    1C        H  814   2.607   4.178   5.050
    1C        H  815   2.822   4.278   5.047
    1C        H  816   2.687   2.864   1.978
    1C        H  817   2.841   2.678   1.985
    1C        H  818   3.201   2.406   2.009
    1C        H  819   3.435   2.478   1.989
    1C        H  820   3.834   2.576   1.982
    1C        H  821   4.061   2.632   1.973
    1C        H  822   4.269   2.707   1.987
    1C        H  823   4.419   2.891   1.975
    1C        H  824   4.597   3.311   1.975
    1C        H  825   4.515   3.524   1.962
    1C        H  826   4.531   3.763   1.966
    1C        H  827   3.812   4.539   1.958
    1C        H  828   3.994   4.407   1.953
    1C        H  829   4.150   4.223   1.959
    1C        H  830   4.528   3.980   1.987
    1C        H  831   2.645   3.840   1.973
    1C        H  832   2.759   4.047   1.975
    1C        H  833   2.711   4.317   1.981
    1C        H  834   3.379   4.487   1.948
    1C        H  835   3.157   4.403   1.956
    1C        H  836   2.568   3.038   1.978
    1C        H  837   2.456   3.246   1.986
    1C        H  838   2.541   3.665   1.971
    2V3OU   H29  839   2.814   3.555   2.489
    2V3OU   C27  840   2.794   3.505   2.587
    2V3OU   H27  841   2.732   3.568   2.655
    2V3OU   H28  842   2.742   3.406   2.574
    2V3OU   O11  843   2.914   3.486   2.661
    2V3OU   C15  844   2.935   3.401   2.768
    2V3OU   C13  845   3.059   3.377   2.831
    2V3OU   C14  846   3.085   3.276   2.924
    2V3OU   C16  847   2.980   3.192   2.960
    2V3OU    H6  848   2.997   3.107   3.028
    2V3OU   C12  849   3.221   3.228   2.957
    2V3OU    O2  850   3.243   3.130   3.031
    2V3OU   C10  851   3.329   3.309   2.899
    2V3OU    C8  852   3.460   3.272   2.927
    2V3OU   O10  853   3.498   3.161   2.997
    2V3OU   H26  854   3.415   3.117   3.018
    2V3OU    C6  855   3.568   3.358   2.890
    2V3OU    C5  856   3.546   3.472   2.813
    2V3OU    C4  857   3.704   3.302   2.873
    2V3OU    H4  858   3.727   3.236   2.962
    2V3OU    H5  859   3.710   3.234   2.783
    2V3OU    C2  860   3.820   3.401   2.865
    2V3OU    O6  861   3.813   3.470   2.991
    2V3OU   H21  862   3.777   3.556   2.964
    2V3OU    C3  863   3.786   3.503   2.756
    2V3OU    H2  864   3.872   3.574   2.750
    2V3OU    H3  865   3.783   3.445   2.660
    2V3OU   C25  866   3.956   3.333   2.849
    2V3OU    O7  867   4.003   3.301   2.740
    2V3OU   C26  868   4.034   3.294   2.974
    2V3OU   H22  869   4.072   3.387   3.023
    2V3OU   H23  870   4.126   3.236   2.944
    2V3OU    O8  871   3.974   3.207   3.066
    2V3OU   H24  872   3.933   3.266   3.132
    2V3OU    C1  873   3.652   3.571   2.777
    2V3OU    H1  874   3.630   3.626   2.681
    2V3OU    O3  875   3.664   3.663   2.886
    2V3OU   C19  876   3.621   3.798   2.865
    2V3OU    H9  877   3.520   3.803   2.815
    2V3OU    O4  878   3.712   3.850   2.771
    2V3OU   C20  879   3.843   3.882   2.819
    2V3OU   H10  880   3.897   3.783   2.823
    2V3OU   C24  881   3.614   3.863   3.004
    2V3OU   H16  882   3.542   3.802   3.065
    2V3OU   H17  883   3.571   3.964   2.985
    2V3OU   C23  884   3.755   3.879   3.059
    2V3OU   H15  885   3.800   3.775   3.077
    2V3OU    N1  886   3.741   3.957   3.180
    2V3OU   H19  887   3.818   3.932   3.239
    2V3OU   H20  888   3.657   3.933   3.230
    2V3OU   C21  889   3.847   3.951   2.956
    2V3OU   H11  890   3.955   3.934   2.984
    2V3OU    O5  891   3.821   4.090   2.964
    2V3OU   H18  892   3.786   4.106   3.053
    2V3OU   C22  893   3.911   3.956   2.705
    2V3OU   H12  894   3.865   4.056   2.684
    2V3OU   H13  895   3.908   3.892   2.613
    2V3OU   H14  896   4.023   3.954   2.718
    2V3OU   C11  897   3.167   3.476   2.817
    2V3OU    O1  898   3.140   3.595   2.791
    2V3OU    C9  899   3.306   3.427   2.823
    2V3OU    C7  900   3.411   3.508   2.781
    2V3OU    O9  901   3.394   3.619   2.701
    2V3OU   H25  902   3.299   3.629   2.689
    2V3OU   C17  903   2.830   3.320   2.817
    2V3OU    H7  904   2.730   3.352   2.790
    2V3OU   C18  905   2.853   3.219   2.909
    2V3OU    H8  906   2.784   3.175   2.983
    3SOL     OW  907   2.542   4.956   0.453
    3SOL    HW1  908   2.526   4.858   0.444
    3SOL    HW2  909   2.560   4.979   0.548
    4SOL     OW  910   7.026   6.519   2.193
    4SOL    HW1  911   7.020   6.566   2.105
    4SOL    HW2  912   7.029   6.420   2.179
    5SOL     OW  913   4.586   1.445   2.749
    5SOL    HW1  914   4.562   1.541   2.763
    5SOL    HW2  915   4.597   1.427   2.651
    6SOL     OW  916   4.413   0.920   2.113
    6SOL    HW1  917   4.440   0.875   2.198
    6SOL    HW2  918   4.427   0.858   2.036
    7SOL     OW  919   6.874   3.076   2.513
    7SOL    HW1  920   6.776   3.069   2.532
    7SOL    HW2  921   6.905   3.169   2.535
    8SOL     OW  922   3.445   0.915   0.202
    8SOL    HW1  923   3.522   0.863   0.240
    8SOL    HW2  924   3.430   0.886   0.107
    9SOL     OW  925   5.468   0.584   5.945
    9SOL    HW1  926   5.406   0.566   6.022
    9SOL    HW2  927   5.516   0.670   5.962
   10SOL     OW  928   1.622   5.132   6.422
   10SOL    HW1  929   1.640   5.104   6.516
   10SOL    HW2  930   1.577   5.057   6.373
   11SOL     OW  931   3.021   0.226   6.005
   11SOL    HW1  932   2.965   0.167   6.063
   11SOL    HW2  933   3.079   0.284   6.063
   12SOL     OW  934   3.439   5.908   3.489
   12SOL    HW1  935   3.513   5.943   3.431
   12SOL    HW2  936   3.474   5.890   3.580
   13SOL     OW  937   3.790   6.409   4.472
   13SOL    HW1  938   3.847   6.461   4.536
   13SOL    HW2  939   3.773   6.464   4.390
   14SOL     OW  940   3.342   5.878   5.733
   14SOL    HW1  941   3.322   5.964   5.687
   14SOL    HW2  942   3.403   5.823   5.676
   15SOL     OW  943   1.149   5.980   2.041
   15SOL    HW1  944   1.091   6.061   2.054
   15SOL    HW2  945   1.180   5.947   2.130
   16SOL     OW  946   4.845   2.614   5.594
   16SOL    HW1  947   4.914   2.679   5.625
   16SOL    HW2  948   4.754   2.646   5.621
   17SOL     OW  949   5.530   6.550   6.062
   17SOL    HW1  950   5.528   6.613   5.984
   17SOL    HW2  951   5.591   6.586   6.132
   18SOL     OW  952   3.317   0.875   5.672
   18SOL    HW1  953   3.358   0.876   5.763
   18SOL    HW2  954   3.361   0.805   5.616
   19SOL     OW  955   0.302   1.630   3.160
   19SOL    HW1  956   0.252   1.545   3.142
   19SOL    HW2  957   0.290   1.655   3.256
   20SOL     OW  958   5.143   1.663   3.814
   20SOL    HW1  959   5.054   1.656   3.768
   20SOL    HW2  960   5.137   1.624   3.906
   21SOL     OW  961   3.421   1.531   2.508
   21SOL    HW1  962   3.456   1.556   2.598
   21SOL    HW2  963   3.494   1.491   2.453
   22SOL     OW  964   2.400   6.635   0.275
   22SOL    HW1  965   2.347   6.657   0.356
   22SOL    HW2  966   2.496   6.660   0.289
   23SOL     OW  967   5.556   5.586   3.411
   23SOL    HW1  968   5.653   5.582   3.388
   23SOL    HW2  969   5.509   5.508   3.372
   24SOL     OW  970   4.281   0.473   3.372
   24SOL    HW1  971   4.218   0.533   3.423
   24SOL    HW2  972   4.374   0.490   3.402
   25SOL     OW  973   2.934   0.969   4.730
   25SOL    HW1  974   2.896   0.955   4.638
   25SOL    HW2  975   2.872   1.028   4.783
   26SOL     OW  976   0.683   0.835   0.137
   26SOL    HW1  977   0.638   0.907   0.085
   26SOL    HW2  978   0.687   0.862   0.234
   27SOL     OW  979   1.393   2.615   2.311
   27SOL    HW1  980   1.370   2.697   2.364
   27SOL    HW2  981   1.312   2.584   2.262
   28SOL     OW  982   3.058   2.056   5.935
   28SOL    HW1  983   3.073   2.033   5.839
   28SOL    HW2  984   3.062   2.155   5.947
   29SOL     OW  985   6.017   1.316   2.076
   29SOL    HW1  986   6.008   1.407   2.116
   29SOL    HW2  987   6.088   1.317   2.006
   30SOL     OW  988   4.279   0.729   4.216
   30SOL    HW1  989   4.250   0.706   4.309
   30SOL    HW2  990   4.278   0.829   4.204
   31SOL     OW  991   1.055   2.279   6.518
   31SOL    HW1  992   0.959   2.294   6.497
   31SOL    HW2  993   1.112   2.313   6.443
   32SOL     OW  994   0.477   1.678   2.512
   32SOL    HW1  995   0.565   1.692   2.466
   32SOL    HW2  996   0.457   1.758   2.569
   33SOL     OW  997   1.617   4.256   6.110
   33SOL    HW1  998   1.573   4.298   6.030
   33SOL    HW2  999   1.716   4.273   6.106
   34SOL     OW 1000   3.028   0.362   4.154
   34SOL    HW1 1001   3.084   0.444   4.140
   34SOL    HW2 1002   2.948   0.365   4.094
   35SOL     OW 1003   3.688   3.977   6.927
   35SOL    HW1 1004   3.618   4.024   6.873
   35SOL    HW2 1005   3.778   3.996   6.888
   36SOL     OW 1006   6.178   1.179   4.628
   36SOL    HW1 1007   6.091   1.137   4.602
   36SOL    HW2 1008   6.164   1.238   4.707
   37SOL     OW 1009   1.079   1.901   0.199
   37SOL    HW1 1010   1.048   1.895   0.104
   37SOL    HW2 1011   1.141   1.825   0.219
   38SOL     OW 1012   0.148   5.267   2.190
   38SOL    HW1 1013   0.060   5.281   2.144
   38SOL    HW2 1014   0.141   5.297   2.285
   39SOL     OW 1015   6.911   4.794   6.710
   39SOL    HW1 1016   6.996   4.753   6.678
   39SOL    HW2 1017   6.926   4.891   6.732
   40SOL     OW 1018   5.224   1.872   0.478
   40SOL    HW1 1019   5.245   1.784   0.522
   40SOL    HW2 1020   5.145   1.914   0.523
   41SOL     OW 1021   6.791   5.224   3.028
   41SOL    HW1 1022   6.717   5.290   3.044
   41SOL    HW2 1023   6.868   5.245   3.088
   42SOL     OW 1024   2.923   5.528   5.042
   42SOL    HW1 1025   2.940   5.458   4.972
   42SOL    HW2 1026   2.866   5.490   5.114
   43SOL     OW 1027   5.813   7.005   5.675
   43SOL    HW1 1028   5.886   7.006   5.743
   43SOL    HW2 1029   5.758   6.923   5.686
   44SOL     OW 1030   4.477   1.488   5.957
   44SOL    HW1 1031   4.470   1.501   6.056
   44SOL    HW2 1032   4.573   1.477   5.932
   45SOL     OW 1033   4.146   5.964   2.471
   45SOL    HW1 1034   4.168   5.963   2.569
   45SOL    HW2 1035   4.159   6.056   2.435
   46SOL     OW 1036   0.518   2.930   2.901
   46SOL    HW1 1037   0.569   2.846   2.879
   46SOL    HW2 1038   0.540   3.000   2.833
   47SOL     OW 1039   4.943   3.942   0.986
   47SOL    HW1 1040   5.033   3.970   0.956
   47SOL    HW2 1041   4.946   3.847   1.019
   48SOL     OW 1042   6.901   3.383   5.710
   48SOL    HW1 1043   6.984   3.398   5.656
   48SOL    HW2 1044   6.925   3.366   5.805
   49SOL     OW 1045   4.880   3.807   1.972
   49SOL    HW1 1046   4.826   3.752   1.909
   49SOL    HW2 1047   4.891   3.899   1.934
   50SOL     OW 1048   5.611   1.010   5.125
   50SOL    HW1 1049   5.708   0.991   5.139
   50SOL    HW2 1050   5.585   0.988   5.031
   51SOL     OW 1051   2.470   6.614   2.874
   51SOL    HW1 1052   2.427   6.701   2.896
   51SOL    HW2 1053   2.568   6.619   2.895
   52SOL     OW 1054   5.946   3.232   2.654
   52SOL    HW1 1055   6.002   3.231   2.571
   52SOL    HW2 1056   5.943   3.140   2.693
   53SOL     OW 1057   3.679   6.735   4.053
   53SOL    HW1 1058   3.737   6.809   4.018
   53SOL    HW2 1059   3.667   6.666   3.981
   54SOL     OW 1060   3.826   4.807   1.148
   54SOL    HW1 1061   3.834   4.886   1.209
   54SOL    HW2 1062   3.867   4.727   1.191
   55SOL     OW 1063   2.171   3.022   6.330
   55SOL    HW1 1064   2.194   2.954   6.400
   55SOL    HW2 1065   2.086   3.067   6.355
   56SOL     OW 1066   6.958   0.342   1.002
   56SOL    HW1 1067   7.022   0.337   0.925
   56SOL    HW2 1068   6.909   0.429   0.998
   57SOL     OW 1069   4.744   1.053   1.649
   57SOL    HW1 1070   4.747   1.139   1.701
   57SOL    HW2 1071   4.801   1.061   1.568
   58SOL     OW 1072   6.815   6.415   5.753
   58SOL    HW1 1073   6.813   6.427   5.852
   58SOL    HW2 1074   6.865   6.331   5.731
   59SOL     OW 1075   1.236   2.378   5.347
   59SOL    HW1 1076   1.200   2.442   5.415
   59SOL    HW2 1077   1.162   2.320   5.312
   60SOL     OW 1078   5.788   2.452   4.681
   60SOL    HW1 1079   5.843   2.372   4.706
   60SOL    HW2 1080   5.714   2.463   4.746
   61SOL     OW 1081   6.437   2.276   4.800
   61SOL    HW1 1082   6.462   2.203   4.865
   61SOL    HW2 1083   6.385   2.237   4.725
   62SOL     OW 1084   1.151   0.956   1.540
   62SOL    HW1 1085   1.056   0.976   1.564
   62SOL    HW2 1086   1.155   0.882   1.473
   63SOL     OW 1087   5.182   1.229   3.456
   63SOL    HW1 1088   5.096   1.255   3.412
   63SOL    HW2 1089   5.259   1.254   3.397
   64SOL     OW 1090   0.173   3.781   5.792
   64SOL    HW1 1091   0.254   3.736   5.756
   64SOL    HW2 1092   0.106   3.712   5.821
   65SOL     OW 1093   0.370   5.182   6.694
   65SOL    HW1 1094   0.432   5.106   6.675
   65SOL    HW2 1095   0.398   5.263   6.641
   66SOL     OW 1096   4.458   1.283   5.341
   66SOL    HW1 1097   4.497   1.287   5.249
   66SOL    HW2 1098   4.380   1.345   5.347
   67SOL     OW 1099   6.017   3.955   6.006
   67SOL    HW1 1100   6.104   3.909   5.986
   67SOL    HW2 1101   5.944   3.888   6.011
   68SOL     OW 1102   6.028   0.780   6.639
   68SOL    HW1 1103   5.955   0.713   6.625
   68SOL    HW2 1104   6.103   0.763   6.575
   69SOL     OW 1105   0.942   3.734   5.917
   69SOL    HW1 1106   0.953   3.664   5.988
   69SOL    HW2 1107   0.934   3.824   5.961
   70SOL     OW 1108   5.294   4.184   5.123
   70SOL    HW1 1109   5.212   4.157   5.073
   70SOL    HW2 1110   5.326   4.106   5.178
   71SOL     OW 1111   4.371   1.610   3.324
   71SOL    HW1 1112   4.337   1.544   3.257
   71SOL    HW2 1113   4.447   1.570   3.376
   72SOL     OW 1114   1.907   6.971   4.174
   72SOL    HW1 1115   1.848   0.021   4.174
   72SOL    HW2 1116   1.886   6.914   4.254
   73SOL     OW 1117   3.718   0.681   1.437
   73SOL    HW1 1118   3.802   0.673   1.383
   73SOL    HW2 1119   3.671   0.766   1.413
   74SOL     OW 1120   3.886   0.104   0.188
   74SOL    HW1 1121   3.854   0.014   0.159
   74SOL    HW2 1122   3.883   0.167   0.110
   75SOL     OW 1123   4.475   0.644   1.062
   75SOL    HW1 1124   4.402   0.695   1.107
   75SOL    HW2 1125   4.463   0.650   0.963
   76SOL     OW 1126   3.024   3.410   1.614
   76SOL    HW1 1127   2.992   3.503   1.592
   76SOL    HW2 1128   2.953   3.344   1.591
   77SOL     OW 1129   0.265   7.013   3.376
   77SOL    HW1 1130   0.354   7.002   3.330
   77SOL    HW2 1131   0.198   0.018   3.311
   78SOL     OW 1132   5.881   1.568   0.270
   78SOL    HW1 1133   5.882   1.468   0.269
   78SOL    HW2 1134   5.898   1.600   0.363
   79SOL     OW 1135   3.031   5.713   0.608
   79SOL    HW1 1136   3.091   5.775   0.658
   79SOL    HW2 1137   3.015   5.631   0.662
   80SOL     OW 1138   4.778   1.259   4.428
   80SOL    HW1 1139   4.836   1.332   4.391
   80SOL    HW2 1140   4.807   1.238   4.522
   81SOL     OW 1141   2.116   0.147   2.454
   81SOL    HW1 1142   2.023   0.124   2.482
   81SOL    HW2 1143   2.168   0.063   2.437
   82SOL     OW 1144   5.613   4.789   0.693
   82SOL    HW1 1145   5.567   4.771   0.780
   82SOL    HW2 1146   5.692   4.729   0.684
   83SOL     OW 1147   0.686   0.509   0.218
   83SOL    HW1 1148   0.707   0.535   0.124
   83SOL    HW2 1149   0.587   0.508   0.232
   84SOL     OW 1150   6.307   2.981   3.510
   84SOL    HW1 1151   6.341   2.975   3.604
   84SOL    HW2 1152   6.381   3.009   3.449
   85SOL     OW 1153   1.638   0.936   3.497
   85SOL    HW1 1154   1.605   0.963   3.407
   85SOL    HW2 1155   1.736   0.914   3.492
   86SOL     OW 1156   0.345   1.495   5.817
   86SOL    HW1 1157   0.274   1.512   5.747
   86SOL    HW2 1158   0.325   1.550   5.898
   87SOL     OW 1159   4.709   4.036   1.051
   87SOL    HW1 1160   4.689   4.054   1.148
   87SOL    HW2 1161   4.803   4.004   1.042
   88SOL     OW 1162   3.337   1.643   5.955
   88SOL    HW1 1163   3.312   1.733   5.921
   88SOL    HW2 1164   3.427   1.648   5.999
   89SOL     OW 1165   2.147   2.784   5.783
   89SOL    HW1 1166   2.244   2.792   5.757
   89SOL    HW2 1167   2.130   2.693   5.819
   90SOL     OW 1168   3.760   5.126   2.221
   90SOL    HW1 1169   3.799   5.068   2.292
   90SOL    HW2 1170   3.820   5.125   2.141
   91SOL     OW 1171   5.912   4.234   5.682
   91SOL    HW1 1172   5.815   4.236   5.659
   91SOL    HW2 1173   5.962   4.290   5.616
   92SOL     OW 1174   4.511   4.681   0.993
   92SOL    HW1 1175   4.604   4.656   0.965
   92SOL    HW2 1176   4.514   4.725   1.082
   93SOL     OW 1177   3.149   3.646   0.405
   93SOL    HW1 1178   3.162   3.600   0.492
   93SOL    HW2 1179   3.161   3.745   0.418
   94SOL     OW 1180   1.967   6.275   6.138
   94SOL    HW1 1181   1.970   6.349   6.205
   94SOL    HW2 1182   1.949   6.189   6.185
   95SOL     OW 1183   0.799   0.517   3.250
   95SOL    HW1 1184   0.749   0.467   3.321
   95SOL    HW2 1185   0.767   0.612   3.248
   96SOL     OW 1186   2.778   0.738   4.800
   96SOL    HW1 1187   2.744   0.713   4.890
   96SOL    HW2 1188   2.826   0.825   4.806
   97SOL     OW 1189   2.230   3.298   6.316
   97SOL    HW1 1190   2.232   3.327   6.220
   97SOL    HW2 1191   2.183   3.210   6.323
   98SOL     OW 1192   0.797   3.630   0.943
   98SOL    HW1 1193   0.854   3.699   0.986
   98SOL    HW2 1194   0.823   3.539   0.975
   99SOL     OW 1195   3.835   2.434   1.390
   99SOL    HW1 1196   3.822   2.449   1.488
   99SOL    HW2 1197   3.930   2.454   1.365
  100SOL     OW 1198   0.457   6.758   4.999
  100SOL    HW1 1199   0.358   6.747   4.990
  100SOL    HW2 1200   0.477   6.806   5.084
  101SOL     OW 1201   1.411   5.066   2.543
  101SOL    HW1 1202   1.313   5.069   2.561
  101SOL    HW2 1203   1.456   5.009   2.612
  102SOL     OW 1204   3.940   5.669   1.443
  102SOL    HW1 1205   3.932   5.607   1.521
  102SOL    HW2 1206   3.917   5.619   1.359
  103SOL     OW 1207   2.119   2.067   1.614
  103SOL    HW1 1208   2.167   2.024   1.538
  103SOL    HW2 1209   2.083   1.996   1.675
  104SOL     OW 1210   1.288   5.329   2.436
  104SOL    HW1 1211   1.355   5.304   2.366
  104SOL    HW2 1212   1.292   5.263   2.511
  105SOL     OW 1213   6.472   1.245   6.439
  105SOL    HW1 1214   6.485   1.280   6.346
  105SOL    HW2 1215   6.557   1.257   6.491
  106SOL     OW 1216   3.526   6.305   4.916
  106SOL    HW1 1217   3.479   6.217   4.916
  106SOL    HW2 1218   3.580   6.314   4.833
  107SOL     OW 1219   1.070   0.874   1.146
  107SOL    HW1 1220   1.060   0.792   1.203
  107SOL    HW2 1221   1.104   0.847   1.056
  108SOL     OW 1222   2.540   6.660   5.669
  108SOL    HW1 1223   2.572   6.567   5.649
  108SOL    HW2 1224   2.457   6.656   5.724
  109SOL     OW 1225   0.752   0.816   2.137
  109SOL    HW1 1226   0.694   0.897   2.127
  109SOL    HW2 1227   0.847   0.844   2.146
  110SOL     OW 1228   3.023   5.746   4.084
  110SOL    HW1 1229   2.928   5.715   4.088
  110SOL    HW2 1230   3.082   5.671   4.055
  111SOL     OW 1231   1.218   0.998   4.248
  111SOL    HW1 1232   1.251   0.959   4.334
  111SOL    HW2 1233   1.160   0.932   4.201
  112SOL     OW 1234   3.762   6.431   6.322
  112SOL    HW1 1235   3.783   6.432   6.420
  112SOL    HW2 1236   3.815   6.360   6.277
  113SOL     OW 1237   0.680   5.200   2.866
  113SOL    HW1 1238   0.651   5.173   2.958
  113SOL    HW2 1239   0.765   5.152   2.843
  114SOL     OW 1240   1.477   6.980   2.233
  114SOL    HW1 1241   1.569   7.019   2.236
  114SOL    HW2 1242   1.478   6.889   2.275
  115SOL     OW 1243   4.764   1.703   3.360
  115SOL    HW1 1244   4.693   1.639   3.389
  115SOL    HW2 1245   4.845   1.691   3.418
  116SOL     OW 1246   6.384   5.621   2.121
  116SOL    HW1 1247   6.289   5.610   2.090
  116SOL    HW2 1248   6.391   5.595   2.217
  117SOL     OW 1249   1.651   2.192   0.661
  117SOL    HW1 1250   1.658   2.233   0.570
  117SOL    HW2 1251   1.560   2.211   0.699
  118SOL     OW 1252   1.939   0.926   2.434
  118SOL    HW1 1253   1.933   1.021   2.466
  118SOL    HW2 1254   1.853   0.900   2.390
  119SOL     OW 1255   0.471   0.188   0.187
  119SOL    HW1 1256   0.547   0.148   0.136
  119SOL    HW2 1257   0.503   0.216   0.278
  120SOL     OW 1258   5.658   0.386   6.566
  120SOL    HW1 1259   5.670   0.300   6.516
  120SOL    HW2 1260   5.579   0.378   6.628
  121SOL     OW 1261   1.754   3.360   5.851
  121SOL    HW1 1262   1.840   3.407   5.830
  121SOL    HW2 1263   1.740   3.359   5.950
  122SOL     OW 1264   1.736   3.622   6.369
  122SOL    HW1 1265   1.691   3.630   6.280
  122SOL    HW2 1266   1.754   3.526   6.389
  123SOL     OW 1267   0.824   1.233   2.725
  123SOL    HW1 1268   0.922   1.241   2.743
  123SOL    HW2 1269   0.796   1.303   2.659
  124SOL     OW 1270   3.639   2.723   0.293
  124SOL    HW1 1271   3.552   2.747   0.337
  124SOL    HW2 1272   3.624   2.711   0.195
  125SOL     OW 1273   3.431   1.799   0.639
  125SOL    HW1 1274   3.495   1.874   0.627
  125SOL    HW2 1275   3.431   1.770   0.734
  126SOL     OW 1276   1.871   4.576   0.540
  126SOL    HW1 1277   1.953   4.631   0.524
  126SOL    HW2 1278   1.898   4.489   0.582
  127SOL     OW 1279   0.565   4.905   0.054
  127SOL    HW1 1280   0.609   4.818   0.035
  127SOL    HW2 1281   0.550   4.955   6.999
  128SOL     OW 1282   5.100   2.294   1.395
  128SOL    HW1 1283   5.092   2.221   1.327
  128SOL    HW2 1284   5.116   2.254   1.485
  129SOL     OW 1285   2.743   3.565   6.168
  129SOL    HW1 1286   2.838   3.565   6.137
  129SOL    HW2 1287   2.712   3.471   6.183
  130SOL     OW 1288   1.279   1.987   4.383
  130SOL    HW1 1289   1.327   1.987   4.295
  130SOL    HW2 1290   1.238   2.077   4.399
  131SOL     OW 1291   4.370   0.989   3.526
  131SOL    HW1 1292   4.290   1.008   3.583
  131SOL    HW2 1293   4.453   0.998   3.581
  132SOL     OW 1294   2.868   3.261   1.882
  132SOL    HW1 1295   2.912   3.176   1.855
  132SOL    HW2 1296   2.813   3.295   1.806
  133SOL     OW 1297   5.617   1.088   4.466
  133SOL    HW1 1298   5.680   1.018   4.433
  133SOL    HW2 1299   5.528   1.047   4.484
  134SOL     OW 1300   6.618   0.811   2.621
  134SOL    HW1 1301   6.527   0.783   2.593
  134SOL    HW2 1302   6.616   0.908   2.647
  135SOL     OW 1303   5.504   3.558   3.690
  135SOL    HW1 1304   5.432   3.565   3.621
  135SOL    HW2 1305   5.501   3.467   3.732
  136SOL     OW 1306   1.928   5.090   5.887
  136SOL    HW1 1307   1.921   5.174   5.940
  136SOL    HW2 1308   1.984   5.023   5.936
  137SOL     OW 1309   5.794   1.945   3.335
  137SOL    HW1 1310   5.817   1.874   3.268
  137SOL    HW2 1311   5.780   2.031   3.288
  138SOL     OW 1312   1.287   4.250   2.457
  138SOL    HW1 1313   1.220   4.222   2.525
  138SOL    HW2 1314   1.377   4.259   2.500
  139SOL     OW 1315   1.357   6.846   5.217
  139SOL    HW1 1316   1.397   6.935   5.194
  139SOL    HW2 1317   1.427   6.775   5.208
  140SOL     OW 1318   1.135   6.504   3.713
  140SOL    HW1 1319   1.052   6.456   3.689
  140SOL    HW2 1320   1.113   6.597   3.744
  141SOL     OW 1321   0.537   2.650   5.018
  141SOL    HW1 1322   0.585   2.711   4.955
  141SOL    HW2 1323   0.479   2.587   4.965
  142SOL     OW 1324   1.145   3.996   1.237
  142SOL    HW1 1325   1.219   3.987   1.303
  142SOL    HW2 1326   1.078   4.062   1.271
  143SOL     OW 1327   5.332   4.107   0.745
  143SOL    HW1 1328   5.276   4.024   0.743
  143SOL    HW2 1329   5.350   4.138   0.652
  144SOL     OW 1330   1.523   4.571   6.102
  144SOL    HW1 1331   1.598   4.529   6.051
  144SOL    HW2 1332   1.546   4.667   6.121
  145SOL     OW 1333   0.478   5.665   0.847
  145SOL    HW1 1334   0.575   5.650   0.830
  145SOL    HW2 1335   0.455   5.761   0.832
  146SOL     OW 1336   4.682   0.669   5.836
  146SOL    HW1 1337   4.641   0.588   5.794
  146SOL    HW2 1338   4.677   0.660   5.936
  147SOL     OW 1339   5.517   3.068   6.748
  147SOL    HW1 1340   5.569   3.149   6.773
  147SOL    HW2 1341   5.504   3.010   6.828
  148SOL     OW 1342   6.509   5.535   0.864
  148SOL    HW1 1343   6.454   5.560   0.944
  148SOL    HW2 1344   6.457   5.555   0.781
  149SOL     OW 1345   3.939   2.195   3.934
  149SOL    HW1 1346   3.991   2.252   3.997
  149SOL    HW2 1347   3.998   2.169   3.857
  150SOL     OW 1348   5.884   6.767   0.819
  150SOL    HW1 1349   5.969   6.728   0.853
  150SOL    HW2 1350   5.827   6.695   0.779
  151SOL     OW 1351   3.228   2.068   1.253
  151SOL    HW1 1352   3.187   2.154   1.224
  151SOL    HW2 1353   3.217   1.999   1.181
  152SOL     OW 1354   0.134   0.574   1.748
  152SOL    HW1 1355   0.229   0.581   1.778
  152SOL    HW2 1356   0.088   0.662   1.764
  153SOL     OW 1357   2.851   0.779   3.581
  153SOL    HW1 1358   2.914   0.809   3.509
  153SOL    HW2 1359   2.903   0.741   3.657
  154SOL     OW 1360   1.095   3.436   1.905
  154SOL    HW1 1361   1.190   3.448   1.932
  154SOL    HW2 1362   1.078   3.484   1.819
  155SOL     OW 1363   0.379   1.615   4.565
  155SOL    HW1 1364   0.441   1.689   4.591
  155SOL    HW2 1365   0.323   1.588   4.644
  156SOL     OW 1366   0.049   0.838   0.911
  156SOL    HW1 1367   7.018   0.772   0.955
  156SOL    HW2 1368   0.106   0.882   0.980
  157SOL     OW 1369   5.195   2.976   1.828
  157SOL    HW1 1370   5.145   2.918   1.764
  157SOL    HW2 1371   5.131   3.031   1.881
  158SOL     OW 1372   1.942   4.112   2.257
  158SOL    HW1 1373   1.929   4.139   2.353
  158SOL    HW2 1374   2.037   4.085   2.243
  159SOL     OW 1375   4.781   4.134   3.031
  159SOL    HW1 1376   4.835   4.050   3.022
  159SOL    HW2 1377   4.782   4.184   2.945
  160SOL     OW 1378   5.243   6.147   1.078
  160SOL    HW1 1379   5.342   6.160   1.082
  160SOL    HW2 1380   5.216   6.124   0.985
  161SOL     OW 1381   1.861   6.180   3.540
  161SOL    HW1 1382   1.872   6.082   3.557
  161SOL    HW2 1383   1.911   6.231   3.609
  162SOL     OW 1384   3.305   6.242   0.349
  162SOL    HW1 1385   3.393   6.275   0.381
  162SOL    HW2 1386   3.234   6.263   0.416
  163SOL     OW 1387   6.152   5.603   1.270
  163SOL    HW1 1388   6.245   5.637   1.284
  163SOL    HW2 1389   6.126   5.546   1.348
  164SOL     OW 1390   6.789   4.086   2.169
  164SOL    HW1 1391   6.806   4.142   2.249
  164SOL    HW2 1392   6.875   4.048   2.135
  165SOL     OW 1393   5.353   3.190   1.162
  165SOL    HW1 1394   5.449   3.175   1.186
  165SOL    HW2 1395   5.326   3.127   1.089
  166SOL     OW 1396   1.360   3.921   2.440
  166SOL    HW1 1397   1.334   3.992   2.374
  166SOL    HW2 1398   1.427   3.860   2.399
  167SOL     OW 1399   4.988   3.077   6.944
  167SOL    HW1 1400   4.998   2.977   6.935
  167SOL    HW2 1401   4.909   3.096   7.003
  168SOL     OW 1402   3.071   2.902   1.232
  168SOL    HW1 1403   3.077   2.830   1.163
  168SOL    HW2 1404   2.978   2.939   1.235
  169SOL     OW 1405   5.879   2.092   1.958
  169SOL    HW1 1406   5.786   2.115   1.988
  169SOL    HW2 1407   5.927   2.176   1.932
  170SOL     OW 1408   0.585   0.447   2.770
  170SOL    HW1 1409   0.580   0.436   2.869
  170SOL    HW2 1410   0.544   0.368   2.726
  171SOL     OW 1411   2.539   4.580   6.632
  171SOL    HW1 1412   2.609   4.510   6.650
  171SOL    HW2 1413   2.500   4.610   6.719
  172SOL     OW 1414   6.509   1.074   2.616
  172SOL    HW1 1415   6.436   1.101   2.553
  172SOL    HW2 1416   6.470   1.055   2.706
  173SOL     OW 1417   6.600   1.285   4.187
  173SOL    HW1 1418   6.596   1.365   4.127
  173SOL    HW2 1419   6.680   1.230   4.164
  174SOL     OW 1420   3.878   6.016   3.870
  174SOL    HW1 1421   3.898   6.095   3.812
  174SOL    HW2 1422   3.909   5.932   3.824
  175SOL     OW 1423   3.332   6.947   1.715
  175SOL    HW1 1424   3.250   6.961   1.771
  175SOL    HW2 1425   3.391   7.028   1.721
  176SOL     OW 1426   6.684   4.086   0.856
  176SOL    HW1 1427   6.611   4.123   0.914
  176SOL    HW2 1428   6.690   4.140   0.772
  177SOL     OW 1429   5.765   2.817   2.541
  177SOL    HW1 1430   5.734   2.866   2.622
  177SOL    HW2 1431   5.730   2.861   2.459
  178SOL     OW 1432   2.632   3.519   6.593
  178SOL    HW1 1433   2.563   3.455   6.559
  178SOL    HW2 1434   2.635   3.599   6.533
  179SOL     OW 1435   4.340   1.947   5.623
  179SOL    HW1 1436   4.269   1.995   5.675
  179SOL    HW2 1437   4.310   1.853   5.605
  180SOL     OW 1438   1.965   6.877   0.340
  180SOL    HW1 1439   1.910   6.794   0.331
  180SOL    HW2 1440   1.909   6.951   0.378
  181SOL     OW 1441   3.575   3.139   6.052
  181SOL    HW1 1442   3.570   3.231   6.014
  181SOL    HW2 1443   3.488   3.117   6.097
  182SOL     OW 1444   3.660   1.973   5.253
  182SOL    HW1 1445   3.594   2.040   5.217
  182SOL    HW2 1446   3.671   1.988   5.351
  183SOL     OW 1447   3.644   2.059   3.439
  183SOL    HW1 1448   3.704   2.032   3.515
  183SOL    HW2 1449   3.687   2.034   3.353
  184SOL     OW 1450   0.819   6.474   4.543
  184SOL    HW1 1451   0.848   6.533   4.619
  184SOL    HW2 1452   0.719   6.475   4.537
  185SOL     OW 1453   0.565   1.299   6.344
  185SOL    HW1 1454   0.585   1.258   6.256
  185SOL    HW2 1455   0.605   1.243   6.417
  186SOL     OW 1456   5.604   0.709   4.206
  186SOL    HW1 1457   5.611   0.662   4.295
  186SOL    HW2 1458   5.523   0.676   4.158
  187SOL     OW 1459   4.964   7.014   2.598
  187SOL    HW1 1460   5.058   7.014   2.632
  187SOL    HW2 1461   4.963   6.992   2.500
  188SOL     OW 1462   0.940   3.354   2.973
  188SOL    HW1 1463   1.033   3.318   2.973
  188SOL    HW2 1464   0.941   3.452   2.996
  189SOL     OW 1465   2.179   5.042   1.112
  189SOL    HW1 1466   2.087   5.060   1.145
  189SOL    HW2 1467   2.245   5.071   1.181
  190SOL     OW 1468   5.051   2.500   4.674
  190SOL    HW1 1469   5.027   2.410   4.640
  190SOL    HW2 1470   5.062   2.563   4.597
  191SOL     OW 1471   5.933   0.413   6.826
  191SOL    HW1 1472   5.851   0.357   6.832
  191SOL    HW2 1473   5.964   0.437   6.918
  192SOL     OW 1474   0.902   5.484   1.814
  192SOL    HW1 1475   0.895   5.527   1.724
  192SOL    HW2 1476   0.993   5.502   1.853
  193SOL     OW 1477   4.300   3.699   5.286
  193SOL    HW1 1478   4.252   3.686   5.199
  193SOL    HW2 1479   4.373   3.631   5.294
  194SOL     OW 1480   4.086   1.017   2.859
  194SOL    HW1 1481   4.145   1.036   2.781
  194SOL    HW2 1482   4.014   1.087   2.864
  195SOL     OW 1483   1.345   0.002   4.421
  195SOL    HW1 1484   1.349   0.008   4.521
  195SOL    HW2 1485   1.438   0.004   4.383
  196SOL     OW 1486   2.600   0.690   0.961
  196SOL    HW1 1487   2.666   0.766   0.961
  196SOL    HW2 1488   2.601   0.646   1.051
  197SOL     OW 1489   2.495   6.999   1.357
  197SOL    HW1 1490   2.533   0.053   1.394
  197SOL    HW2 1491   2.570   6.940   1.325
  198SOL     OW 1492   4.999   0.044   1.549
  198SOL    HW1 1493   4.940   0.124   1.535
  198SOL    HW2 1494   4.944   6.999   1.585
  199SOL     OW 1495   0.301   1.372   3.390
  199SOL    HW1 1496   0.222   1.432   3.404
  199SOL    HW2 1497   0.285   1.314   3.310
  200SOL     OW 1498   0.884   4.469   2.005
  200SOL    HW1 1499   0.880   4.543   2.073
  200SOL    HW2 1500   0.971   4.420   2.014
  201SOL     OW 1501   6.418   6.819   5.816
  201SOL    HW1 1502   6.337   6.872   5.840
  201SOL    HW2 1503   6.500   6.869   5.842
  202SOL     OW 1504   4.732   0.952   6.342
  202SOL    HW1 1505   4.811   0.960   6.403
  202SOL    HW2 1506   4.749   0.879   6.276
  203SOL     OW 1507   4.962   2.318   4.142
  203SOL    HW1 1508   4.972   2.400   4.199
  203SOL    HW2 1509   4.875   2.322   4.094
  204SOL     OW 1510   0.595   0.875   6.196
  204SOL    HW1 1511   0.557   0.793   6.154
  204SOL    HW2 1512   0.684   0.896   6.155
  205SOL     OW 1513   0.893   1.427   2.957
  205SOL    HW1 1514   0.959   1.435   3.032
  205SOL    HW2 1515   0.888   1.332   2.927
  206SOL     OW 1516   6.948   4.776   0.891
  206SOL    HW1 1517   6.856   4.738   0.903
  206SOL    HW2 1518   7.015   4.712   0.926
  207SOL     OW 1519   5.774   1.504   3.385
  207SOL    HW1 1520   5.694   1.462   3.428
  207SOL    HW2 1521   5.829   1.550   3.455
  208SOL     OW 1522   6.007   2.602   5.002
  208SOL    HW1 1523   5.963   2.512   5.011
  208SOL    HW2 1524   6.101   2.597   5.034
  209SOL     OW 1525   0.253   4.689   3.500
  209SOL    HW1 1526   0.350   4.672   3.513
  209SOL    HW2 1527   0.214   4.619   3.441
  210SOL     OW 1528   4.148   2.144   0.841
  210SOL    HW1 1529   4.207   2.121   0.917
  210SOL    HW2 1530   4.118   2.239   0.850
  211SOL     OW 1531   2.394   6.066   2.919
  211SOL    HW1 1532   2.439   6.149   2.951
  211SOL    HW2 1533   2.411   6.054   2.821
  212SOL     OW 1534   1.065   4.453   1.703
  212SOL    HW1 1535   1.121   4.489   1.629
  212SOL    HW2 1536   1.101   4.365   1.734
  213SOL     OW 1537   3.009   0.729   0.305
  213SOL    HW1 1538   2.989   0.826   0.290
  213SOL    HW2 1539   3.070   0.696   0.233
  214SOL     OW 1540   4.680   5.126   1.407
  214SOL    HW1 1541   4.714   5.066   1.334
  214SOL    HW2 1542   4.630   5.203   1.366
  215SOL     OW 1543   2.071   3.685   0.970
  215SOL    HW1 1544   1.971   3.679   0.972
  215SOL    HW2 1545   2.098   3.776   0.940
  216SOL     OW 1546   2.400   5.992   3.693
  216SOL    HW1 1547   2.399   5.962   3.598
  216SOL    HW2 1548   2.494   5.992   3.728
  217SOL     OW 1549   1.385   2.419   4.002
  217SOL    HW1 1550   1.422   2.380   4.087
  217SOL    HW2 1551   1.286   2.431   4.011
  218SOL     OW 1552   0.594   3.978   4.385
  218SOL    HW1 1553   0.545   3.967   4.299
  218SOL    HW2 1554   0.692   3.970   4.369
  219SOL     OW 1555   4.629   6.962   6.297
  219SOL    HW1 1556   4.586   6.885   6.248
  219SOL    HW2 1557   4.570   6.988   6.373
  220SOL     OW 1558   3.141   0.287   0.859
  220SOL    HW1 1559   3.048   0.304   0.825
  220SOL    HW2 1560   3.178   0.204   0.816
  221SOL     OW 1561   6.732   2.990   1.369
  221SOL    HW1 1562   6.725   3.089   1.380
  221SOL    HW2 1563   6.719   2.946   1.457
  222SOL     OW 1564   2.315   5.028   5.306
  222SOL    HW1 1565   2.384   5.071   5.248
  222SOL    HW2 1566   2.224   5.054   5.275
  223SOL     OW 1567   5.476   2.753   0.123
  223SOL    HW1 1568   5.429   2.667   0.108
  223SOL    HW2 1569   5.553   2.739   0.185
  224SOL     OW 1570   1.697   1.613   4.652
  224SOL    HW1 1571   1.701   1.652   4.744
  224SOL    HW2 1572   1.627   1.541   4.650
  225SOL     OW 1573   4.711   3.458   6.368
  225SOL    HW1 1574   4.651   3.529   6.330
  225SOL    HW2 1575   4.747   3.491   6.456
  226SOL     OW 1576   1.287   0.838   5.880
  226SOL    HW1 1577   1.350   0.859   5.954
  226SOL    HW2 1578   1.247   0.922   5.844
  227SOL     OW 1579   1.719   3.702   2.815
  227SOL    HW1 1580   1.730   3.795   2.850
  227SOL    HW2 1581   1.809   3.660   2.802
  228SOL     OW 1582   2.804   6.263   3.933
  228SOL    HW1 1583   2.903   6.274   3.945
  228SOL    HW2 1584   2.756   6.320   3.999
  229SOL     OW 1585   5.363   6.001   6.842
  229SOL    HW1 1586   5.363   6.088   6.793
  229SOL    HW2 1587   5.351   5.926   6.777
  230SOL     OW 1588   3.310   4.913   3.663
  230SOL    HW1 1589   3.357   5.001   3.673
  230SOL    HW2 1590   3.247   4.900   3.739
  231SOL     OW 1591   6.293   2.137   6.777
  231SOL    HW1 1592   6.273   2.150   6.874
  231SOL    HW2 1593   6.223   2.182   6.721
  232SOL     OW 1594   1.194   3.118   6.370
  232SOL    HW1 1595   1.267   3.169   6.325
  232SOL    HW2 1596   1.109   3.131   6.321
  233SOL     OW 1597   2.478   2.068   3.815
  233SOL    HW1 1598   2.409   2.104   3.752
  233SOL    HW2 1599   2.542   2.010   3.765
  234SOL     OW 1600   4.999   0.352   5.192
  234SOL    HW1 1601   4.959   0.409   5.264
  234SOL    HW2 1602   5.099   0.355   5.200
  235SOL     OW 1603   3.464   2.864   1.771
  235SOL    HW1 1604   3.497   2.899   1.683
  235SOL    HW2 1605   3.540   2.858   1.835
  236SOL     OW 1606   4.532   2.965   6.545
  236SOL    HW1 1607   4.442   2.998   6.513
  236SOL    HW2 1608   4.590   2.944   6.466
  237SOL     OW 1609   5.713   4.461   2.173
  237SOL    HW1 1610   5.690   4.370   2.206
  237SOL    HW2 1611   5.790   4.455   2.109
  238SOL     OW 1612   5.121   2.272   0.501
  238SOL    HW1 1613   5.099   2.320   0.586
  238SOL    HW2 1614   5.206   2.221   0.512
  239SOL     OW 1615   0.747   5.863   6.273
  239SOL    HW1 1616   0.764   5.945   6.219
  239SOL    HW2 1617   0.817   5.855   6.345
  240SOL     OW 1618   0.637   2.792   3.313
  240SOL    HW1 1619   0.556   2.745   3.277
  240SOL    HW2 1620   0.720   2.750   3.275
  241SOL     OW 1621   2.129   0.404   4.472
  241SOL    HW1 1622   2.116   0.469   4.547
  241SOL    HW2 1623   2.184   0.446   4.400
  242SOL     OW 1624   3.557   3.052   5.149
  242SOL    HW1 1625   3.475   3.032   5.203
  242SOL    HW2 1626   3.617   2.973   5.149
  243SOL     OW 1627   3.930   0.517   5.990
  243SOL    HW1 1628   3.877   0.539   5.908
  243SOL    HW2 1629   4.013   0.468   5.965
  244SOL     OW 1630   5.915   2.275   4.457
  244SOL    HW1 1631   5.846   2.335   4.496
  244SOL    HW2 1632   5.945   2.311   4.369
  245SOL     OW 1633   6.520   3.820   4.120
  245SOL    HW1 1634   6.562   3.874   4.046
  245SOL    HW2 1635   6.507   3.726   4.089
  246SOL     OW 1636   5.080   2.656   3.529
  246SOL    HW1 1637   5.108   2.564   3.559
  246SOL    HW2 1638   5.046   2.708   3.608
  247SOL     OW 1639   2.851   1.763   1.602
  247SOL    HW1 1640   2.808   1.758   1.512
  247SOL    HW2 1641   2.839   1.676   1.650
  248SOL     OW 1642   3.796   1.909   2.741
  248SOL    HW1 1643   3.860   1.981   2.765
  248SOL    HW2 1644   3.776   1.853   2.821
  249SOL     OW 1645   3.925   0.043   5.333
  249SOL    HW1 1646   3.936   0.061   5.235
  249SOL    HW2 1647   4.009   0.001   5.368
  250SOL     OW 1648   5.462   2.678   0.904
  250SOL    HW1 1649   5.524   2.732   0.847
  250SOL    HW2 1650   5.513   2.632   0.976
  251SOL     OW 1651   4.761   4.173   5.827
  251SOL    HW1 1652   4.773   4.084   5.872
  251SOL    HW2 1653   4.792   4.246   5.888
  252SOL     OW 1654   6.328   6.311   7.004
  252SOL    HW1 1655   6.418   6.339   6.970
  252SOL    HW2 1656   6.316   6.213   6.993
  253SOL     OW 1657   2.956   4.682   0.417
  253SOL    HW1 1658   2.876   4.679   0.356
  253SOL    HW2 1659   2.929   4.653   0.508
  254SOL     OW 1660   5.249   2.990   3.545
  254SOL    HW1 1661   5.277   2.993   3.641
  254SOL    HW2 1662   5.293   2.913   3.500
  255SOL     OW 1663   1.739   3.296   4.639
  255SOL    HW1 1664   1.729   3.200   4.613
  255SOL    HW2 1665   1.795   3.343   4.571
  256SOL     OW 1666   6.681   4.325   6.261
  256SOL    HW1 1667   6.691   4.233   6.221
  256SOL    HW2 1668   6.616   4.378   6.207
  257SOL     OW 1669   5.193   6.432   4.066
  257SOL    HW1 1670   5.280   6.478   4.079
  257SOL    HW2 1671   5.208   6.342   4.024
  258SOL     OW 1672   1.567   5.106   4.501
  258SOL    HW1 1673   1.618   5.160   4.434
  258SOL    HW2 1674   1.523   5.167   4.566
  259SOL     OW 1675   1.332   1.611   2.117
  259SOL    HW1 1676   1.338   1.515   2.093
  259SOL    HW2 1677   1.410   1.661   2.077
  260SOL     OW 1678   4.543   1.107   1.076
  260SOL    HW1 1679   4.513   1.104   1.172
  260SOL    HW2 1680   4.611   1.180   1.065
  261SOL     OW 1681   6.220   4.033   0.261
  261SOL    HW1 1682   6.236   3.940   0.294
  261SOL    HW2 1683   6.280   4.052   0.183
  262SOL     OW 1684   6.586   4.124   0.481
  262SOL    HW1 1685   6.625   4.051   0.424
  262SOL    HW2 1686   6.540   4.190   0.422
  263SOL     OW 1687   0.455   1.085   3.623
  263SOL    HW1 1688   0.360   1.105   3.648
  263SOL    HW2 1689   0.500   1.169   3.593
  264SOL     OW 1690   5.070   3.597   6.713
  264SOL    HW1 1691   5.140   3.537   6.753
  264SOL    HW2 1692   5.023   3.647   6.786
  265SOL     OW 1693   4.846   5.150   2.620
  265SOL    HW1 1694   4.855   5.055   2.592
  265SOL    HW2 1695   4.805   5.203   2.546
  266SOL     OW 1696   3.050   2.833   5.593
  266SOL    HW1 1697   3.148   2.843   5.579
  266SOL    HW2 1698   3.004   2.821   5.505
  267SOL     OW 1699   0.264   1.609   6.558
  267SOL    HW1 1700   0.195   1.537   6.550
  267SOL    HW2 1701   0.347   1.581   6.512
  268SOL     OW 1702   3.784   0.647   5.318
  268SOL    HW1 1703   3.817   0.595   5.240
  268SOL    HW2 1704   3.697   0.609   5.350
  269SOL     OW 1705   1.388   3.330   1.650
  269SOL    HW1 1706   1.363   3.233   1.653
  269SOL    HW2 1707   1.347   3.377   1.728
  270SOL     OW 1708   6.878   0.359   0.187
  270SOL    HW1 1709   6.937   0.281   0.167
  270SOL    HW2 1710   6.791   0.348   0.138
  271SOL     OW 1711   1.432   1.948   6.977
  271SOL    HW1 1712   1.461   2.010   0.019
  271SOL    HW2 1713   1.385   1.999   6.905
  272SOL     OW 1714   3.238   4.961   4.136
  272SOL    HW1 1715   3.323   4.946   4.187
  272SOL    HW2 1716   3.257   4.961   4.038
  273SOL     OW 1717   1.678   3.965   4.926
  273SOL    HW1 1718   1.663   3.868   4.945
  273SOL    HW2 1719   1.765   3.978   4.878
  274SOL     OW 1720   4.853   1.658   2.414
  274SOL    HW1 1721   4.879   1.699   2.501
  274SOL    HW2 1722   4.886   1.715   2.339
  275SOL     OW 1723   6.051   4.758   4.976
  275SOL    HW1 1724   6.132   4.706   5.003
  275SOL    HW2 1725   6.077   4.830   4.911
  276SOL     OW 1726   0.045   5.746   2.483
  276SOL    HW1 1727   0.042   5.679   2.408
  276SOL    HW2 1728   0.140   5.763   2.509
  277SOL     OW 1729   1.612   3.695   0.775
  277SOL    HW1 1730   1.665   3.697   0.859
  277SOL    HW2 1731   1.628   3.608   0.728
  278SOL     OW 1732   6.505   5.298   1.823
  278SOL    HW1 1733   6.485   5.200   1.826
  278SOL    HW2 1734   6.592   5.314   1.776
  279SOL     OW 1735   6.098   2.859   4.580
  279SOL    HW1 1736   6.015   2.804   4.595
  279SOL    HW2 1737   6.072   2.947   4.539
  280SOL     OW 1738   3.030   6.684   2.885
  280SOL    HW1 1739   3.079   6.727   2.961
  280SOL    HW2 1740   2.976   6.753   2.837
  281SOL     OW 1741   3.491   4.875   2.404
  281SOL    HW1 1742   3.451   4.950   2.351
  281SOL    HW2 1743   3.498   4.794   2.346
  282SOL     OW 1744   3.510   1.768   5.412
  282SOL    HW1 1745   3.439   1.798   5.475
  282SOL    HW2 1746   3.489   1.803   5.320
  283SOL     OW 1747   6.547   1.327   5.910
  283SOL    HW1 1748   6.584   1.387   5.980
  283SOL    HW2 1749   6.564   1.365   5.820
  284SOL     OW 1750   1.146   4.106   4.694
  284SOL    HW1 1751   1.088   4.025   4.710
  284SOL    HW2 1752   1.174   4.144   4.781
  285SOL     OW 1753   6.054   4.927   5.539
  285SOL    HW1 1754   6.027   4.838   5.575
  285SOL    HW2 1755   5.975   4.988   5.537
  286SOL     OW 1756   3.308   6.101   5.048
  286SOL    HW1 1757   3.403   6.073   5.034
  286SOL    HW2 1758   3.249   6.021   5.045
  287SOL     OW 1759   0.306   4.356   6.873
  287SOL    HW1 1760   0.287   4.263   6.843
  287SOL    HW2 1761   0.321   4.357   6.972
  288SOL     OW 1762   3.587   1.932   5.749
  288SOL    HW1 1763   3.495   1.917   5.784
  288SOL    HW2 1764   3.646   1.961   5.825
  289SOL     OW 1765   0.264   4.709   4.913
  289SOL    HW1 1766   0.326   4.770   4.963
  289SOL    HW2 1767   0.203   4.664   4.977
  290SOL     OW 1768   5.327   1.555   4.044
  290SOL    HW1 1769   5.409   1.609   4.026
  290SOL    HW2 1770   5.312   1.491   3.969
  291SOL     OW 1771   1.798   2.055   4.624
  291SOL    HW1 1772   1.703   2.082   4.632
  291SOL    HW2 1773   1.828   2.011   4.709
  292SOL     OW 1774   1.659   1.871   3.185
  292SOL    HW1 1775   1.654   1.902   3.090
  292SOL    HW2 1776   1.755   1.871   3.214
  293SOL     OW 1777   4.741   4.568   1.629
  293SOL    HW1 1778   4.802   4.496   1.595
  293SOL    HW2 1779   4.658   4.526   1.666
  294SOL     OW 1780   6.451   5.521   6.425
  294SOL    HW1 1781   6.405   5.538   6.512
  294SOL    HW2 1782   6.495   5.431   6.428
  295SOL     OW 1783   3.058   1.868   4.069
  295SOL    HW1 1784   2.975   1.831   4.028
  295SOL    HW2 1785   3.040   1.959   4.107
  296SOL     OW 1786   5.351   1.910   2.391
  296SOL    HW1 1787   5.360   1.810   2.401
  296SOL    HW2 1788   5.388   1.955   2.472
  297SOL     OW 1789   2.373   4.518   2.808
  297SOL    HW1 1790   2.320   4.602   2.823
  297SOL    HW2 1791   2.408   4.486   2.896
  298SOL     OW 1792   3.551   6.236   0.473
  298SOL    HW1 1793   3.586   6.143   0.468
  298SOL    HW2 1794   3.514   6.253   0.565
  299SOL     OW 1795   4.012   3.393   6.576
  299SOL    HW1 1796   4.104   3.354   6.570
  299SOL    HW2 1797   3.945   3.321   6.558
  300SOL     OW 1798   5.584   0.611   1.768
  300SOL    HW1 1799   5.631   0.528   1.799
  300SOL    HW2 1800   5.533   0.651   1.844
  301SOL     OW 1801   5.248   3.057   0.954
  301SOL    HW1 1802   5.254   3.019   0.861
  301SOL    HW2 1803   5.182   3.003   1.007
  302SOL     OW 1804   0.478   0.981   3.898
  302SOL    HW1 1805   0.488   1.000   3.800
  302SOL    HW2 1806   0.395   0.928   3.913
  303SOL     OW 1807   6.194   6.924   1.431
  303SOL    HW1 1808   6.252   6.851   1.467
  303SOL    HW2 1809   6.234   7.013   1.452
  304SOL     OW 1810   2.221   7.029   4.667
  304SOL    HW1 1811   2.227   6.963   4.743
  304SOL    HW2 1812   2.307   0.051   4.663
  305SOL     OW 1813   0.520   3.152   0.516
  305SOL    HW1 1814   0.560   3.066   0.484
  305SOL    HW2 1815   0.421   3.141   0.528
  306SOL     OW 1816   2.216   6.837   3.440
  306SOL    HW1 1817   2.144   6.773   3.466
  306SOL    HW2 1818   2.198   6.873   3.349
  307SOL     OW 1819   4.793   6.245   0.301
  307SOL    HW1 1820   4.787   6.331   0.352
  307SOL    HW2 1821   4.809   6.264   0.204
  308SOL     OW 1822   6.240   3.270   5.261
  308SOL    HW1 1823   6.244   3.369   5.247
  308SOL    HW2 1824   6.198   3.251   5.350
  309SOL     OW 1825   3.180   6.072   6.551
  309SOL    HW1 1826   3.250   6.082   6.480
  309SOL    HW2 1827   3.195   6.140   6.623
  310SOL     OW 1828   6.536   0.117   4.959
  310SOL    HW1 1829   6.569   0.094   5.051
  310SOL    HW2 1830   6.504   0.034   4.914
  311SOL     OW 1831   4.721   4.780   2.942
  311SOL    HW1 1832   4.650   4.839   2.904
  311SOL    HW2 1833   4.802   4.834   2.963
  312SOL     OW 1834   4.157   0.884   5.392
  312SOL    HW1 1835   4.070   0.931   5.380
  312SOL    HW2 1836   4.178   0.831   5.310
  313SOL     OW 1837   3.225   3.855   2.550
  313SOL    HW1 1838   3.260   3.928   2.610
  313SOL    HW2 1839   3.139   3.884   2.509
  314SOL     OW 1840   3.634   5.348   6.807
  314SOL    HW1 1841   3.607   5.413   6.736
  314SOL    HW2 1842   3.703   5.391   6.866
  315SOL     OW 1843   1.397   2.726   3.682
  315SOL    HW1 1844   1.471   2.670   3.720
  315SOL    HW2 1845   1.409   2.733   3.583
  316SOL     OW 1846   2.835   1.732   3.958
  316SOL    HW1 1847   2.759   1.749   4.021
  316SOL    HW2 1848   2.844   1.634   3.943
  317SOL     OW 1849   0.237   0.973   1.052
  317SOL    HW1 1850   0.311   0.924   1.098
  317SOL    HW2 1851   0.276   1.031   0.980
  318SOL     OW 1852   1.144   5.655   6.701
  318SOL    HW1 1853   1.232   5.633   6.743
  318SOL    HW2 1854   1.147   5.747   6.663
  319SOL     OW 1855   6.732   0.548   3.711
  319SOL    HW1 1856   6.682   0.630   3.685
  319SOL    HW2 1857   6.689   0.505   3.790
  320SOL     OW 1858   6.418   2.317   0.332
  320SOL    HW1 1859   6.484   2.284   0.264
  320SOL    HW2 1860   6.347   2.248   0.346
  321SOL     OW 1861   3.941   1.710   0.363
  321SOL    HW1 1862   3.964   1.640   0.296
  321SOL    HW2 1863   3.934   1.669   0.454
  322SOL     OW 1864   4.138   3.444   4.476
  322SOL    HW1 1865   4.160   3.508   4.550
  322SOL    HW2 1866   4.114   3.355   4.515
  323SOL     OW 1867   0.986   3.096   6.216
  323SOL    HW1 1868   0.965   3.177   6.161
  323SOL    HW2 1869   1.007   3.019   6.155
  324SOL     OW 1870   2.335   1.468   5.151
  324SOL    HW1 1871   2.245   1.507   5.129
  324SOL    HW2 1872   2.341   1.376   5.114
  325SOL     OW 1873   0.970   2.919   1.592
  325SOL    HW1 1874   1.032   2.851   1.633
  325SOL    HW2 1875   0.984   3.008   1.637
  326SOL     OW 1876   0.910   5.003   6.905
  326SOL    HW1 1877   0.962   5.073   6.856
  326SOL    HW2 1878   0.884   5.037   6.995
  327SOL     OW 1879   1.456   5.199   3.822
  327SOL    HW1 1880   1.494   5.287   3.796
  327SOL    HW2 1881   1.356   5.201   3.811
  328SOL     OW 1882   0.915   4.945   1.941
  328SOL    HW1 1883   0.926   5.039   1.907
  328SOL    HW2 1884   0.818   4.926   1.955
  329SOL     OW 1885   3.999   3.818   4.877
  329SOL    HW1 1886   4.028   3.897   4.823
  329SOL    HW2 1887   3.936   3.849   4.949
  330SOL     OW 1888   3.307   6.962   1.450
  330SOL    HW1 1889   3.235   7.029   1.432
  330SOL    HW2 1890   3.319   6.951   1.548
  331SOL     OW 1891   3.709   5.124   0.827
  331SOL    HW1 1892   3.643   5.050   0.835
  331SOL    HW2 1893   3.779   5.099   0.759
  332SOL     OW 1894   4.017   1.872   5.051
  332SOL    HW1 1895   3.921   1.855   5.073
  332SOL    HW2 1896   4.054   1.941   5.112
  333SOL     OW 1897   3.463   0.224   6.032
  333SOL    HW1 1898   3.550   0.185   6.003
  333SOL    HW2 1899   3.479   0.291   6.104
  334SOL     OW 1900   2.444   0.584   1.555
  334SOL    HW1 1901   2.524   0.549   1.507
  334SOL    HW2 1902   2.416   0.519   1.626
  335SOL     OW 1903   4.171   6.699   5.082
  335SOL    HW1 1904   4.148   6.733   4.991
  335SOL    HW2 1905   4.262   6.731   5.107
  336SOL     OW 1906   1.906   0.585   3.909
  336SOL    HW1 1907   1.853   0.523   3.966
  336SOL    HW2 1908   1.904   0.553   3.814
  337SOL     OW 1909   0.447   2.732   0.067
  337SOL    HW1 1910   0.525   2.724   0.130
  337SOL    HW2 1911   0.365   2.753   0.119
  338SOL     OW 1912   2.750   2.375   1.415
  338SOL    HW1 1913   2.833   2.319   1.416
  338SOL    HW2 1914   2.741   2.419   1.325
  339SOL     OW 1915   3.130   6.920   3.671
  339SOL    HW1 1916   3.074   6.839   3.689
  339SOL    HW2 1917   3.226   6.899   3.689
  340SOL     OW 1918   4.917   4.431   5.529
  340SOL    HW1 1919   4.881   4.501   5.590
  340SOL    HW2 1920   4.983   4.472   5.467
  341SOL     OW 1921   6.667   1.461   4.772
  341SOL    HW1 1922   6.701   1.520   4.845
  341SOL    HW2 1923   6.717   1.375   4.773
  342SOL     OW 1924   6.018   4.032   6.828
  342SOL    HW1 1925   5.939   3.975   6.805
  342SOL    HW2 1926   6.097   3.973   6.846
  343SOL     OW 1927   1.693   4.816   0.630
  343SOL    HW1 1928   1.734   4.736   0.587
  343SOL    HW2 1929   1.763   4.867   0.679
  344SOL     OW 1930   0.863   4.902   2.427
  344SOL    HW1 1931   0.843   4.814   2.470
  344SOL    HW2 1932   0.801   4.916   2.349
  345SOL     OW 1933   5.027   1.622   3.502
  345SOL    HW1 1934   5.021   1.543   3.563
  345SOL    HW2 1935   5.117   1.665   3.512
  346SOL     OW 1936   1.929   1.224   2.597
  346SOL    HW1 1937   1.857   1.206   2.663
  346SOL    HW2 1938   2.011   1.257   2.644
  347SOL     OW 1939   3.384   5.530   6.308
  347SOL    HW1 1940   3.433   5.453   6.267
  347SOL    HW2 1941   3.320   5.495   6.377
  348SOL     OW 1942   5.634   3.895   1.744
  348SOL    HW1 1943   5.574   3.943   1.680
  348SOL    HW2 1944   5.726   3.889   1.704
  349SOL     OW 1945   6.521   4.501   0.634
  349SOL    HW1 1946   6.609   4.539   0.605
  349SOL    HW2 1947   6.461   4.492   0.554
  350SOL     OW 1948   3.691   3.401   1.129
  350SOL    HW1 1949   3.620   3.468   1.104
  350SOL    HW2 1950   3.649   3.325   1.178
  351SOL     OW 1951   1.820   2.711   0.303
  351SOL    HW1 1952   1.795   2.653   0.381
  351SOL    HW2 1953   1.745   2.772   0.281
  352SOL     OW 1954   3.104   1.341   4.586
  352SOL    HW1 1955   3.181   1.290   4.621
  352SOL    HW2 1956   3.136   1.415   4.527
  353SOL     OW 1957   2.763   6.188   0.751
  353SOL    HW1 1958   2.827   6.246   0.800
  353SOL    HW2 1959   2.811   6.108   0.715
  354SOL     OW 1960   3.383   2.768   0.417
  354SOL    HW1 1961   3.385   2.802   0.511
  354SOL    HW2 1962   3.307   2.811   0.368
  355SOL     OW 1963   0.247   3.806   2.663
  355SOL    HW1 1964   0.195   3.776   2.743
  355SOL    HW2 1965   0.288   3.726   2.619
  356SOL     OW 1966   3.431   6.930   5.319
  356SOL    HW1 1967   3.431   6.855   5.252
  356SOL    HW2 1968   3.523   6.941   5.357
  357SOL     OW 1969   6.643   6.940   5.525
  357SOL    HW1 1970   6.556   6.936   5.476
  357SOL    HW2 1971   6.713   6.890   5.473
  358SOL     OW 1972   4.829   0.272   1.653
  358SOL    HW1 1973   4.906   0.277   1.717
  358SOL    HW2 1974   4.789   0.363   1.641
  359SOL     OW 1975   1.631   2.251   2.029
  359SOL    HW1 1976   1.647   2.159   2.066
  359SOL    HW2 1977   1.534   2.275   2.040
  360SOL     OW 1978   0.892   5.732   6.487
  360SOL    HW1 1979   0.957   5.804   6.510
  360SOL    HW2 1980   0.937   5.643   6.491
  361SOL     OW 1981   5.921   5.783   3.246
  361SOL    HW1 1982   5.845   5.841   3.216
  361SOL    HW2 1983   6.007   5.819   3.210
  362SOL     OW 1984   3.786   3.667   1.385
  362SOL    HW1 1985   3.739   3.734   1.326
  362SOL    HW2 1986   3.756   3.680   1.480
  363SOL     OW 1987   5.354   4.937   3.872
  363SOL    HW1 1988   5.296   5.008   3.913
  363SOL    HW2 1989   5.446   4.974   3.856
  364SOL     OW 1990   6.482   5.367   6.064
  364SOL    HW1 1991   6.531   5.434   6.121
  364SOL    HW2 1992   6.495   5.390   5.968
  365SOL     OW 1993   5.575   5.877   2.235
  365SOL    HW1 1994   5.653   5.869   2.297
  365SOL    HW2 1995   5.536   5.787   2.218
  366SOL     OW 1996   6.197   0.644   6.429
  366SOL    HW1 1997   6.212   0.585   6.508
  366SOL    HW2 1998   6.106   0.626   6.390
  367SOL     OW 1999   5.082   3.254   1.187
  367SOL    HW1 2000   5.039   3.171   1.221
  367SOL    HW2 2001   5.180   3.237   1.173
  368SOL     OW 2002   0.147   3.656   5.047
  368SOL    HW1 2003   0.241   3.624   5.045
  368SOL    HW2 2004   0.134   3.725   4.976
  369SOL     OW 2005   6.188   5.253   1.142
  369SOL    HW1 2006   6.245   5.237   1.222
  369SOL    HW2 2007   6.245   5.261   1.061
  370SOL     OW 2008   2.548   1.797   5.793
  370SOL    HW1 2009   2.639   1.764   5.768
  370SOL    HW2 2010   2.498   1.823   5.710
  371SOL     OW 2011   2.545   3.627   0.006
  371SOL    HW1 2012   2.527   3.722   0.030
  371SOL    HW2 2013   2.607   3.623   6.958
  372SOL     OW 2014   0.802   6.750   5.988
  372SOL    HW1 2015   0.830   6.772   5.895
  372SOL    HW2 2016   0.724   6.687   5.986
  373SOL     OW 2017   6.217   6.122   4.782
  373SOL    HW1 2018   6.161   6.150   4.705
  373SOL    HW2 2019   6.171   6.148   4.868
  374SOL     OW 2020   2.882   1.866   2.978
  374SOL    HW1 2021   2.943   1.867   2.900
  374SOL    HW2 2022   2.934   1.847   3.061
  375SOL     OW 2023   0.848   5.014   3.937
  375SOL    HW1 2024   0.922   5.035   4.001
  375SOL    HW2 2025   0.785   4.949   3.980
  376SOL     OW 2026   1.943   1.492   4.607
  376SOL    HW1 2027   1.921   1.399   4.579
  376SOL    HW2 2028   1.859   1.540   4.632
  377SOL     OW 2029   0.843   2.302   1.716
  377SOL    HW1 2030   0.849   2.393   1.677
  377SOL    HW2 2031   0.755   2.291   1.763
  378SOL     OW 2032   3.029   2.544   5.572
  378SOL    HW1 2033   2.942   2.558   5.524
  378SOL    HW2 2034   3.057   2.629   5.616
  379SOL     OW 2035   5.892   4.398   0.695
  379SOL    HW1 2036   5.871   4.493   0.673
  379SOL    HW2 2037   5.991   4.385   0.694
  380SOL     OW 2038   3.094   1.236   1.417
  380SOL    HW1 2039   3.007   1.284   1.408
  380SOL    HW2 2040   3.079   1.147   1.459
  381SOL     OW 2041   1.506   4.632   2.860
  381SOL    HW1 2042   1.525   4.551   2.916
  381SOL    HW2 2043   1.496   4.604   2.764
  382SOL     OW 2044   5.302   6.384   5.710
  382SOL    HW1 2045   5.328   6.330   5.630
  382SOL    HW2 2046   5.203   6.377   5.725
  383SOL     OW 2047   4.858   3.077   5.541
  383SOL    HW1 2048   4.829   3.135   5.465
  383SOL    HW2 2049   4.942   3.029   5.516
  384SOL     OW 2050   6.159   5.613   4.511
  384SOL    HW1 2051   6.162   5.560   4.596
  384SOL    HW2 2052   6.160   5.710   4.532
  385SOL     OW 2053   4.472   6.157   5.312
  385SOL    HW1 2054   4.391   6.198   5.355
  385SOL    HW2 2055   4.443   6.097   5.238
  386SOL     OW 2056   2.651   6.249   5.439
  386SOL    HW1 2057   2.724   6.303   5.397
  386SOL    HW2 2058   2.624   6.176   5.376
  387SOL     OW 2059   0.848   6.533   3.614
  387SOL    HW1 2060   0.847   6.536   3.714
  387SOL    HW2 2061   0.900   6.610   3.579
  388SOL     OW 2062   1.405   1.837   3.576
  388SOL    HW1 2063   1.480   1.771   3.590
  388SOL    HW2 2064   1.419   1.916   3.636
  389SOL     OW 2065   4.324   4.121   1.411
  389SOL    HW1 2066   4.399   4.179   1.443
  389SOL    HW2 2067   4.357   4.061   1.338
  390SOL     OW 2068   3.636   1.252   0.185
  390SOL    HW1 2069   3.598   1.171   0.142
  390SOL    HW2 2070   3.568   1.325   0.185
  391SOL     OW 2071   1.984   4.067   5.686
  391SOL    HW1 2072   1.941   4.118   5.612
  391SOL    HW2 2073   1.920   4.000   5.722
  392SOL     OW 2074   1.753   4.288   1.333
  392SOL    HW1 2075   1.714   4.336   1.411
  392SOL    HW2 2076   1.692   4.296   1.254
  393SOL     OW 2077   0.829   4.737   6.849
  393SOL    HW1 2078   0.829   4.690   6.761
  393SOL    HW2 2079   0.865   4.829   6.838
  394SOL     OW 2080   0.195   2.743   6.802
  394SOL    HW1 2081   0.267   2.802   6.838
  394SOL    HW2 2082   0.174   2.672   6.869
  395SOL     OW 2083   4.732   4.496   3.256
  395SOL    HW1 2084   4.688   4.407   3.256
  395SOL    HW2 2085   4.662   4.568   3.255
  396SOL     OW 2086   2.920   3.385   2.258
  396SOL    HW1 2087   2.951   3.323   2.331
  396SOL    HW2 2088   2.971   3.366   2.174
  397SOL     OW 2089   5.500   2.302   6.136
  397SOL    HW1 2090   5.520   2.206   6.116
  397SOL    HW2 2091   5.425   2.333   6.077
  398SOL     OW 2092   1.503   0.323   3.247
  398SOL    HW1 2093   1.562   0.401   3.225
  398SOL    HW2 2094   1.409   0.355   3.258
  399SOL     OW 2095   5.570   6.221   3.831
  399SOL    HW1 2096   5.605   6.277   3.906
  399SOL    HW2 2097   5.552   6.279   3.752
  400SOL     OW 2098   6.217   6.332   5.775
  400SOL    HW1 2099   6.241   6.413   5.828
  400SOL    HW2 2100   6.287   6.262   5.787
  401SOL     OW 2101   5.030   0.188   5.844
  401SOL    HW1 2102   5.085   0.130   5.904
  401SOL    HW2 2103   5.079   0.274   5.828
  402SOL     OW 2104   6.802   1.142   3.379
  402SOL    HW1 2105   6.760   1.089   3.306
  402SOL    HW2 2106   6.848   1.222   3.339
  403SOL     OW 2107   3.806   0.992   5.048
  403SOL    HW1 2108   3.778   1.018   4.955
  403SOL    HW2 2109   3.756   0.910   5.075
  404SOL     OW 2110   1.839   5.089   4.603
  404SOL    HW1 2111   1.742   5.093   4.579
  404SOL    HW2 2112   1.869   5.178   4.636
  405SOL     OW 2113   2.136   3.472   3.031
  405SOL    HW1 2114   2.177   3.412   3.099
  405SOL    HW2 2115   2.157   3.567   3.052
  406SOL     OW 2116   0.230   4.294   5.119
  406SOL    HW1 2117   0.206   4.226   5.189
  406SOL    HW2 2118   0.326   4.283   5.093
  407SOL     OW 2119   1.589   2.142   4.939
  407SOL    HW1 2120   1.556   2.161   4.847
  407SOL    HW2 2121   1.530   2.073   4.982
  408SOL     OW 2122   3.347   2.076   3.106
  408SOL    HW1 2123   3.428   2.131   3.087
  408SOL    HW2 2124   3.282   2.084   3.030
  409SOL     OW 2125   6.908   3.291   1.440
  409SOL    HW1 2126   6.820   3.322   1.406
  409SOL    HW2 2127   6.974   3.367   1.437
  410SOL     OW 2128   0.957   1.704   1.256
  410SOL    HW1 2129   0.873   1.727   1.206
  410SOL    HW2 2130   1.033   1.693   1.192
  411SOL     OW 2131   6.665   0.713   1.465
  411SOL    HW1 2132   6.587   0.757   1.508
  411SOL    HW2 2133   6.670   0.741   1.369
  412SOL     OW 2134   3.496   4.893   3.026
  412SOL    HW1 2135   3.409   4.844   3.029
  412SOL    HW2 2136   3.530   4.907   3.119
  413SOL     OW 2137   5.069   4.181   1.401
  413SOL    HW1 2138   5.100   4.130   1.481
  413SOL    HW2 2139   5.146   4.229   1.359
  414SOL     OW 2140   3.069   6.656   3.901
  414SOL    HW1 2141   2.992   6.666   3.963
  414SOL    HW2 2142   3.037   6.668   3.806
  415SOL     OW 2143   0.778   0.081   6.856
  415SOL    HW1 2144   0.768   0.056   6.952
  415SOL    HW2 2145   0.696   0.054   6.806
  416SOL     OW 2146   4.869   5.285   5.072
  416SOL    HW1 2147   4.921   5.310   5.154
  416SOL    HW2 2148   4.895   5.345   4.997
  417SOL     OW 2149   2.416   0.446   5.964
  417SOL    HW1 2150   2.364   0.454   6.049
  417SOL    HW2 2151   2.512   0.426   5.986
  418SOL     OW 2152   2.870   7.011   6.083
  418SOL    HW1 2153   2.790   0.040   6.095
  418SOL    HW2 2154   2.886   6.959   6.167
  419SOL     OW 2155   0.961   6.937   2.937
  419SOL    HW1 2156   1.056   6.922   2.908
  419SOL    HW2 2157   0.920   7.007   2.880
  420SOL     OW 2158   5.982   1.247   6.600
  420SOL    HW1 2159   5.919   1.298   6.542
  420SOL    HW2 2160   5.959   1.263   6.696
  421SOL     OW 2161   5.911   3.491   4.687
  421SOL    HW1 2162   5.821   3.531   4.669
  421SOL    HW2 2163   5.932   3.498   4.784
  422SOL     OW 2164   4.666   3.154   0.251
  422SOL    HW1 2165   4.580   3.174   0.204
  422SOL    HW2 2166   4.708   3.240   0.280
  423SOL     OW 2167   1.989   1.636   6.963
  423SOL    HW1 2168   1.926   1.712   6.951
  423SOL    HW2 2169   1.938   1.555   6.991
  424SOL     OW 2170   1.703   4.717   2.573
  424SOL    HW1 2171   1.630   4.649   2.582
  424SOL    HW2 2172   1.680   4.798   2.627
  425SOL     OW 2173   5.000   1.887   4.061
  425SOL    HW1 2174   4.962   1.798   4.038
  425SOL    HW2 2175   5.034   1.932   3.979
  426SOL     OW 2176   2.422   2.669   4.551
  426SOL    HW1 2177   2.362   2.622   4.487
  426SOL    HW2 2178   2.367   2.715   4.621
  427SOL     OW 2179   6.093   0.060   3.728
  427SOL    HW1 2180   6.129   0.011   3.649
  427SOL    HW2 2181   6.105   0.159   3.715
  428SOL     OW 2182   3.759   0.951   2.941
  428SOL    HW1 2183   3.800   0.940   3.031
  428SOL    HW2 2184   3.785   1.040   2.902
  429SOL     OW 2185   0.686   5.040   3.724
  429SOL    HW1 2186   0.755   5.046   3.796
  429SOL    HW2 2187   0.627   5.121   3.729
  430SOL     OW 2188   0.946   0.151   4.279
  430SOL    HW1 2189   0.885   0.074   4.297
  430SOL    HW2 2190   0.984   0.184   4.366
  431SOL     OW 2191   2.931   1.818   0.724
  431SOL    HW1 2192   3.007   1.830   0.660
  431SOL    HW2 2193   2.929   1.724   0.757
  432SOL     OW 2194   6.050   2.033   0.751
  432SOL    HW1 2195   6.079   2.124   0.724
  432SOL    HW2 2196   5.975   2.003   0.692
  433SOL     OW 2197   2.287   6.356   6.185
  433SOL    HW1 2198   2.233   6.404   6.116
  433SOL    HW2 2199   2.257   6.384   6.276
  434SOL     OW 2200   4.180   5.627   3.193
  434SOL    HW1 2201   4.081   5.611   3.197
  434SOL    HW2 2202   4.206   5.693   3.263
  435SOL     OW 2203   3.617   2.306   5.397
  435SOL    HW1 2204   3.615   2.234   5.467
  435SOL    HW2 2205   3.706   2.305   5.351
  436SOL     OW 2206   3.318   5.523   2.213
  436SOL    HW1 2207   3.222   5.552   2.207
  436SOL    HW2 2208   3.376   5.603   2.221
  437SOL     OW 2209   0.657   1.533   5.874
  437SOL    HW1 2210   0.558   1.537   5.870
  437SOL    HW2 2211   0.696   1.570   5.790
  438SOL     OW 2212   1.362   3.607   3.999
  438SOL    HW1 2213   1.297   3.671   4.039
  438SOL    HW2 2214   1.380   3.633   3.904
  439SOL     OW 2215   5.639   6.374   2.026
  439SOL    HW1 2216   5.582   6.299   2.059
  439SOL    HW2 2217   5.594   6.461   2.048
  440SOL     OW 2218   3.563   1.602   6.379
  440SOL    HW1 2219   3.610   1.687   6.404
  440SOL    HW2 2220   3.630   1.538   6.341
  441SOL     OW 2221   6.310   3.914   3.734
  441SOL    HW1 2222   6.338   3.824   3.768
  441SOL    HW2 2223   6.211   3.923   3.742
  442SOL     OW 2224   4.731   5.427   5.483
  442SOL    HW1 2225   4.695   5.484   5.557
  442SOL    HW2 2226   4.753   5.484   5.404
  443SOL     OW 2227   5.706   3.900   4.346
  443SOL    HW1 2228   5.691   3.810   4.387
  443SOL    HW2 2229   5.793   3.937   4.379
  444SOL     OW 2230   4.247   0.426   6.353
  444SOL    HW1 2231   4.338   0.417   6.313
  444SOL    HW2 2232   4.255   0.440   6.452
  445SOL     OW 2233   1.974   6.191   2.782
  445SOL    HW1 2234   2.025   6.222   2.702
  445SOL    HW2 2235   2.007   6.238   2.864
  446SOL     OW 2236   3.996   5.836   2.990
  446SOL    HW1 2237   3.950   5.880   2.913
  446SOL    HW2 2238   4.032   5.747   2.960
  447SOL     OW 2239   6.286   3.214   4.989
  447SOL    HW1 2240   6.242   3.237   5.075
  447SOL    HW2 2241   6.337   3.128   4.999
  448SOL     OW 2242   2.726   0.642   2.664
  448SOL    HW1 2243   2.726   0.706   2.740
  448SOL    HW2 2244   2.683   0.556   2.693
  449SOL     OW 2245   2.578   1.616   4.132
  449SOL    HW1 2246   2.538   1.539   4.183
  449SOL    HW2 2247   2.512   1.647   4.064
  450SOL     OW 2248   1.748   4.878   3.858
  450SOL    HW1 2249   1.655   4.897   3.890
  450SOL    HW2 2250   1.814   4.920   3.920
  451SOL     OW 2251   1.935   2.411   4.156
  451SOL    HW1 2252   1.947   2.466   4.239
  451SOL    HW2 2253   1.993   2.330   4.161
  452SOL     OW 2254   4.472   6.750   1.911
  452SOL    HW1 2255   4.468   6.814   1.835
  452SOL    HW2 2256   4.417   6.669   1.890
  453SOL     OW 2257   3.544   6.620   6.363
  453SOL    HW1 2258   3.605   6.544   6.340
  453SOL    HW2 2259   3.596   6.690   6.413
  454SOL     OW 2260   6.937   3.843   0.096
  454SOL    HW1 2261   6.896   3.898   0.169
  454SOL    HW2 2262   6.931   3.894   0.010
  455SOL     OW 2263   6.456   2.726   5.022
  455SOL    HW1 2264   6.366   2.738   5.065
  455SOL    HW2 2265   6.446   2.681   4.934
  456SOL     OW 2266   1.569   0.848   3.971
  456SOL    HW1 2267   1.621   0.772   4.010
  456SOL    HW2 2268   1.552   0.831   3.873
  457SOL     OW 2269   1.919   4.253   4.157
  457SOL    HW1 2270   1.862   4.171   4.154
  457SOL    HW2 2271   1.932   4.288   4.064
  458SOL     OW 2272   3.640   0.716   2.912
  458SOL    HW1 2273   3.687   0.805   2.912
  458SOL    HW2 2274   3.659   0.668   2.997
  459SOL     OW 2275   1.743   0.250   5.399
  459SOL    HW1 2276   1.826   0.306   5.406
  459SOL    HW2 2277   1.672   0.302   5.353
  460SOL     OW 2278   1.275   0.680   5.167
  460SOL    HW1 2279   1.315   0.661   5.256
  460SOL    HW2 2280   1.175   0.670   5.173
  461SOL     OW 2281   6.363   4.974   5.973
  461SOL    HW1 2282   6.356   4.878   5.949
  461SOL    HW2 2283   6.442   5.014   5.926
  462SOL     OW 2284   3.648   3.672   5.334
  462SOL    HW1 2285   3.607   3.759   5.361
  462SOL    HW2 2286   3.684   3.681   5.240
  463SOL     OW 2287   0.211   0.286   3.565
  463SOL    HW1 2288   0.236   0.381   3.586
  463SOL    HW2 2289   0.178   0.280   3.471
  464SOL     OW 2290   2.766   0.530   5.829
  464SOL    HW1 2291   2.787   0.553   5.924
  464SOL    HW2 2292   2.805   0.440   5.808
  465SOL     OW 2293   0.786   2.399   6.961
  465SOL    HW1 2294   0.751   2.493   6.962
  465SOL    HW2 2295   0.743   2.348   6.886
  466SOL     OW 2296   2.626   6.462   4.129
  466SOL    HW1 2297   2.528   6.467   4.146
  466SOL    HW2 2298   2.673   6.435   4.213
  467SOL     OW 2299   1.646   1.707   2.651
  467SOL    HW1 2300   1.727   1.660   2.617
  467SOL    HW2 2301   1.579   1.640   2.684
  468SOL     OW 2302   3.935   5.771   5.717
  468SOL    HW1 2303   4.011   5.820   5.759
  468SOL    HW2 2304   3.963   5.733   5.629
  469SOL     OW 2305   3.126   4.149   5.864
  469SOL    HW1 2306   3.104   4.244   5.885
  469SOL    HW2 2307   3.154   4.142   5.768
  470SOL     OW 2308   4.098   5.939   2.144
  470SOL    HW1 2309   4.099   5.926   2.243
  470SOL    HW2 2310   4.019   5.892   2.106
  471SOL     OW 2311   2.771   2.317   4.109
  471SOL    HW1 2312   2.769   2.383   4.184
  471SOL    HW2 2313   2.678   2.291   4.084
  472SOL     OW 2314   5.495   4.902   6.803
  472SOL    HW1 2315   5.576   4.894   6.862
  472SOL    HW2 2316   5.442   4.982   6.832
  473SOL     OW 2317   0.669   2.275   2.346
  473SOL    HW1 2318   0.609   2.347   2.312
  473SOL    HW2 2319   0.628   2.186   2.329
  474SOL     OW 2320   6.073   5.377   5.918
  474SOL    HW1 2321   6.150   5.348   5.975
  474SOL    HW2 2322   6.019   5.297   5.893
  475SOL     OW 2323   5.948   3.345   6.947
  475SOL    HW1 2324   5.907   3.425   6.904
  475SOL    HW2 2325   5.908   3.332   0.007
  476SOL     OW 2326   6.863   3.610   1.695
  476SOL    HW1 2327   6.944   3.577   1.647
  476SOL    HW2 2328   6.888   3.684   1.756
  477SOL     OW 2329   2.392   5.857   3.443
  477SOL    HW1 2330   2.367   5.921   3.370
  477SOL    HW2 2331   2.326   5.782   3.445
  478SOL     OW 2332   4.021   6.029   3.555
  478SOL    HW1 2333   4.053   6.105   3.612
  478SOL    HW2 2334   4.053   6.042   3.461
  479SOL     OW 2335   3.993   3.288   5.084
  479SOL    HW1 2336   4.071   3.311   5.027
  479SOL    HW2 2337   3.909   3.295   5.031
  480SOL     OW 2338   2.709   0.303   1.799
  480SOL    HW1 2339   2.763   0.299   1.715
  480SOL    HW2 2340   2.681   0.397   1.817
  481SOL     OW 2341   0.627   6.718   1.774
  481SOL    HW1 2342   0.600   6.803   1.729
  481SOL    HW2 2343   0.726   6.714   1.782
  482SOL     OW 2344   4.473   5.029   3.121
  482SOL    HW1 2345   4.539   5.054   3.192
  482SOL    HW2 2346   4.518   5.033   3.032
  483SOL     OW 2347   6.727   2.096   2.200
  483SOL    HW1 2348   6.703   2.180   2.249
  483SOL    HW2 2349   6.790   2.118   2.125
  484SOL     OW 2350   1.839   4.410   5.070
  484SOL    HW1 2351   1.788   4.482   5.023
  484SOL    HW2 2352   1.791   4.323   5.063
  485SOL     OW 2353   5.109   4.190   2.694
  485SOL    HW1 2354   5.024   4.140   2.709
  485SOL    HW2 2355   5.154   4.207   2.782
  486SOL     OW 2356   6.232   1.376   6.525
  486SOL    HW1 2357   6.300   1.303   6.513
  486SOL    HW2 2358   6.146   1.337   6.556
  487SOL     OW 2359   0.861   0.553   2.816
  487SOL    HW1 2360   0.776   0.499   2.823
  487SOL    HW2 2361   0.860   0.625   2.885
  488SOL     OW 2362   1.369   6.679   2.615
  488SOL    HW1 2363   1.465   6.708   2.612
  488SOL    HW2 2364   1.363   6.590   2.659
  489SOL     OW 2365   5.823   5.588   5.146
  489SOL    HW1 2366   5.885   5.520   5.106
  489SOL    HW2 2367   5.778   5.638   5.072
  490SOL     OW 2368   1.171   6.243   4.199
  490SOL    HW1 2369   1.190   6.191   4.115
  490SOL    HW2 2370   1.214   6.333   4.194
  491SOL     OW 2371   1.248   3.704   1.329
  491SOL    HW1 2372   1.302   3.761   1.390
  491SOL    HW2 2373   1.199   3.763   1.263
  492SOL     OW 2374   1.463   0.862   5.555
  492SOL    HW1 2375   1.538   0.919   5.520
  492SOL    HW2 2376   1.389   0.922   5.588
  493SOL     OW 2377   2.319   6.923   5.401
  493SOL    HW1 2378   2.407   6.907   5.446
  493SOL    HW2 2379   2.275   7.003   5.441
  494SOL     OW 2380   1.632   1.751   6.229
  494SOL    HW1 2381   1.720   1.736   6.274
  494SOL    HW2 2382   1.635   1.713   6.136
  495SOL     OW 2383   3.418   6.309   5.217
  495SOL    HW1 2384   3.324   6.321   5.186
  495SOL    HW2 2385   3.472   6.269   5.143
  496SOL     OW 2386   6.361   1.530   1.895
  496SOL    HW1 2387   6.361   1.619   1.940
  496SOL    HW2 2388   6.435   1.525   1.829
  497SOL     OW 2389   3.460   1.527   4.551
  497SOL    HW1 2390   3.466   1.481   4.640
  497SOL    HW2 2391   3.366   1.556   4.535
  498SOL     OW 2392   0.283   4.475   2.099
  498SOL    HW1 2393   0.283   4.573   2.121
  498SOL    HW2 2394   0.369   4.451   2.053
  499SOL     OW 2395   1.989   5.566   5.198
  499SOL    HW1 2396   1.894   5.590   5.180
  499SOL    HW2 2397   1.996   5.530   5.292
  500SOL     OW 2398   5.720   2.924   6.051
  500SOL    HW1 2399   5.629   2.889   6.073
  500SOL    HW2 2400   5.787   2.884   6.114
  501SOL     OW 2401   3.574   6.904   1.373
  501SOL    HW1 2402   3.586   6.960   1.291
  501SOL    HW2 2403   3.486   6.925   1.414
  502SOL     OW 2404   0.814   4.902   6.393
  502SOL    HW1 2405   0.782   4.807   6.382
  502SOL    HW2 2406   0.904   4.902   6.438
  503SOL     OW 2407   1.965   4.923   6.479
  503SOL    HW1 2408   1.913   5.007   6.498
  503SOL    HW2 2409   1.939   4.888   6.389
  504SOL     OW 2410   0.457   6.064   1.581
  504SOL    HW1 2411   0.473   6.106   1.671
  504SOL    HW2 2412   0.495   5.972   1.580
  505SOL     OW 2413   4.100   0.461   5.228
  505SOL    HW1 2414   4.069   0.382   5.281
  505SOL    HW2 2415   4.021   0.515   5.199
  506SOL     OW 2416   2.981   5.955   1.967
  506SOL    HW1 2417   2.957   5.954   1.870
  506SOL    HW2 2418   3.080   5.960   1.976
  507SOL     OW 2419   3.943   0.129   2.542
  507SOL    HW1 2420   3.906   0.167   2.458
  507SOL    HW2 2421   3.873   0.131   2.614
  508SOL     OW 2422   6.961   2.491   2.971
  508SOL    HW1 2423   7.025   2.417   2.948
  508SOL    HW2 2424   6.998   2.577   2.937
  509SOL     OW 2425   4.269   1.205   0.488
  509SOL    HW1 2426   4.231   1.125   0.534
  509SOL    HW2 2427   4.347   1.177   0.431
  510SOL     OW 2428   7.011   4.869   5.783
  510SOL    HW1 2429   6.992   4.776   5.816
  510SOL    HW2 2430   6.965   4.936   5.841
  511SOL     OW 2431   1.034   2.207   6.976
  511SOL    HW1 2432   0.998   2.290   6.934
  511SOL    HW2 2433   0.970   2.173   0.014
  512SOL     OW 2434   6.272   3.015   6.765
  512SOL    HW1 2435   6.192   3.063   6.802
  512SOL    HW2 2436   6.245   2.964   6.683
  513SOL     OW 2437   5.229   6.491   2.791
  513SOL    HW1 2438   5.204   6.576   2.744
  513SOL    HW2 2439   5.251   6.421   2.723
  514SOL     OW 2440   6.993   0.361   4.580
  514SOL    HW1 2441   0.027   0.420   4.629
  514SOL    HW2 2442   7.006   0.371   4.482
  515SOL     OW 2443   1.863   0.125   0.004
  515SOL    HW1 2444   1.794   0.055   7.017
  515SOL    HW2 2445   1.952   0.081   0.018
  516SOL     OW 2446   2.679   4.656   2.278
  516SOL    HW1 2447   2.758   4.658   2.340
  516SOL    HW2 2448   2.706   4.616   2.191
  517SOL     OW 2449   3.390   4.887   1.905
  517SOL    HW1 2450   3.441   4.973   1.903
  517SOL    HW2 2451   3.453   4.810   1.912
  518SOL     OW 2452   2.459   2.577   3.850
  518SOL    HW1 2453   2.555   2.598   3.831
  518SOL    HW2 2454   2.449   2.552   3.947
  519SOL     OW 2455   0.203   6.131   3.349
  519SOL    HW1 2456   0.270   6.073   3.396
  519SOL    HW2 2457   0.187   6.095   3.257
  520SOL     OW 2458   0.445   3.647   6.560
  520SOL    HW1 2459   0.489   3.598   6.636
  520SOL    HW2 2460   0.431   3.584   6.484
  521SOL     OW 2461   5.034   5.597   5.061
  521SOL    HW1 2462   5.060   5.668   4.996
  521SOL    HW2 2463   5.112   5.538   5.080
  522SOL     OW 2464   4.108   3.705   2.566
  522SOL    HW1 2465   4.112   3.804   2.557
  522SOL    HW2 2466   4.113   3.679   2.662
  523SOL     OW 2467   6.606   6.067   2.037
  523SOL    HW1 2468   6.523   6.012   2.043
  523SOL    HW2 2469   6.623   6.113   2.124
  524SOL     OW 2470   1.385   2.816   2.577
  524SOL    HW1 2471   1.435   2.739   2.615
  524SOL    HW2 2472   1.445   2.869   2.517
  525SOL     OW 2473   2.029   4.104   6.321
  525SOL    HW1 2474   1.954   4.090   6.386
  525SOL    HW2 2475   2.000   4.073   6.230
  526SOL     OW 2476   3.318   6.540   3.944
  526SOL    HW1 2477   3.233   6.589   3.959
  526SOL    HW2 2478   3.314   6.452   3.991
  527SOL     OW 2479   0.609   2.139   0.187
  527SOL    HW1 2480   0.514   2.127   0.158
  527SOL    HW2 2481   0.638   2.233   0.168
  528SOL     OW 2482   1.539   3.074   3.909
  528SOL    HW1 2483   1.528   2.974   3.916
  528SOL    HW2 2484   1.574   3.109   3.996
  529SOL     OW 2485   1.897   6.945   4.790
  529SOL    HW1 2486   1.990   6.911   4.781
  529SOL    HW2 2487   1.832   6.872   4.770
  530SOL     OW 2488   4.083   3.436   2.476
  530SOL    HW1 2489   4.092   3.526   2.518
  530SOL    HW2 2490   4.082   3.366   2.547
  531SOL     OW 2491   1.292   1.291   3.000
  531SOL    HW1 2492   1.307   1.335   3.089
  531SOL    HW2 2493   1.244   1.204   3.014
  532SOL     OW 2494   1.660   3.455   0.632
  532SOL    HW1 2495   1.686   3.411   0.546
  532SOL    HW2 2496   1.682   3.395   0.708
  533SOL     OW 2497   4.467   6.707   3.732
  533SOL    HW1 2498   4.377   6.708   3.775
  533SOL    HW2 2499   4.511   6.796   3.746
  534SOL     OW 2500   6.187   6.256   2.523
  534SOL    HW1 2501   6.278   6.255   2.565
  534SOL    HW2 2502   6.156   6.350   2.514
  535SOL     OW 2503   6.805   4.226   2.416
  535SOL    HW1 2504   6.769   4.320   2.414
  535SOL    HW2 2505   6.844   4.208   2.506
  536SOL     OW 2506   6.385   4.873   2.716
  536SOL    HW1 2507   6.444   4.793   2.721
  536SOL    HW2 2508   6.416   4.943   2.781
  537SOL     OW 2509   3.652   0.113   4.494
  537SOL    HW1 2510   3.578   0.111   4.561
  537SOL    HW2 2511   3.736   0.077   4.535
  538SOL     OW 2512   1.009   4.348   4.673
  538SOL    HW1 2513   1.063   4.264   4.669
  538SOL    HW2 2514   0.981   4.366   4.767
  539SOL     OW 2515   1.338   5.085   2.036
  539SOL    HW1 2516   1.402   5.042   1.972
  539SOL    HW2 2517   1.277   5.015   2.074
  540SOL     OW 2518   1.720   0.546   3.662
  540SOL    HW1 2519   1.673   0.558   3.749
  540SOL    HW2 2520   1.679   0.606   3.593
  541SOL     OW 2521   4.509   5.685   3.927
  541SOL    HW1 2522   4.505   5.590   3.956
  541SOL    HW2 2523   4.604   5.717   3.929
  542SOL     OW 2524   4.266   6.490   6.393
  542SOL    HW1 2525   4.195   6.541   6.442
  542SOL    HW2 2526   4.225   6.408   6.352
  543SOL     OW 2527   5.874   3.454   3.143
  543SOL    HW1 2528   5.808   3.503   3.086
  543SOL    HW2 2529   5.965   3.494   3.131
  544SOL     OW 2530   0.494   5.507   0.006
  544SOL    HW1 2531   0.546   5.424   0.027
  544SOL    HW2 2532   0.408   5.481   6.993
  545SOL     OW 2533   4.242   1.280   1.008
  545SOL    HW1 2534   4.157   1.271   0.956
  545SOL    HW2 2535   4.313   1.319   0.949
  546SOL     OW 2536   1.812   3.862   1.723
  546SOL    HW1 2537   1.769   3.901   1.642
  546SOL    HW2 2538   1.898   3.910   1.741
  547SOL     OW 2539   3.410   2.645   1.071
  547SOL    HW1 2540   3.474   2.588   1.020
  547SOL    HW2 2541   3.386   2.600   1.157
  548SOL     OW 2542   3.336   3.562   1.624
  548SOL    HW1 2543   3.329   3.504   1.705
  548SOL    HW2 2544   3.294   3.651   1.643
  549SOL     OW 2545   5.357   2.430   1.318
  549SOL    HW1 2546   5.389   2.478   1.400
  549SOL    HW2 2547   5.282   2.369   1.343
  550SOL     OW 2548   0.990   5.783   3.213
  550SOL    HW1 2549   0.946   5.771   3.124
  550SOL    HW2 2550   1.048   5.865   3.211
  551SOL     OW 2551   6.813   0.366   2.022
  551SOL    HW1 2552   6.762   0.417   1.952
  551SOL    HW2 2553   6.749   0.316   2.080
  552SOL     OW 2554   6.073   4.188   5.889
  552SOL    HW1 2555   6.037   4.228   5.804
  552SOL    HW2 2556   6.028   4.101   5.907
  553SOL     OW 2557   2.557   6.863   3.754
  553SOL    HW1 2558   2.483   6.910   3.707
  553SOL    HW2 2559   2.535   6.765   3.763
  554SOL     OW 2560   5.557   7.012   0.372
  554SOL    HW1 2561   5.554   6.970   0.281
  554SOL    HW2 2562   5.648   6.997   0.412
  555SOL     OW 2563   2.801   5.037   4.910
  555SOL    HW1 2564   2.815   5.022   5.008
  555SOL    HW2 2565   2.870   4.987   4.858
  556SOL     OW 2566   4.751   1.634   4.234
  556SOL    HW1 2567   4.667   1.678   4.206
  556SOL    HW2 2568   4.737   1.584   4.320
  557SOL     OW 2569   6.602   4.915   6.545
  557SOL    HW1 2570   6.654   4.912   6.630
  557SOL    HW2 2571   6.529   4.846   6.549
  558SOL     OW 2572   2.943   3.327   3.988
  558SOL    HW1 2573   2.944   3.227   3.982
  558SOL    HW2 2574   2.972   3.355   4.079
  559SOL     OW 2575   0.054   5.115   5.070
  559SOL    HW1 2576   0.054   5.182   5.144
  559SOL    HW2 2577   0.137   5.059   5.075
  560SOL     OW 2578   6.515   3.758   3.308
  560SOL    HW1 2579   6.596   3.743   3.251
  560SOL    HW2 2580   6.471   3.670   3.327
  561SOL     OW 2581   0.197   2.207   0.723
  561SOL    HW1 2582   0.238   2.159   0.646
  561SOL    HW2 2583   0.112   2.251   0.693
  562SOL     OW 2584   3.991   0.845   6.132
  562SOL    HW1 2585   3.910   0.789   6.147
  562SOL    HW2 2586   4.055   0.796   6.072
  563SOL     OW 2587   2.365   1.197   3.988
  563SOL    HW1 2588   2.328   1.209   3.896
  563SOL    HW2 2589   2.301   1.142   4.042
  564SOL     OW 2590   0.978   3.188   0.188
  564SOL    HW1 2591   0.919   3.168   0.109
  564SOL    HW2 2592   1.004   3.103   0.232
  565SOL     OW 2593   3.364   3.803   4.224
  565SOL    HW1 2594   3.328   3.896   4.230
  565SOL    HW2 2595   3.458   3.806   4.189
  566SOL     OW 2596   0.940   3.608   3.735
  566SOL    HW1 2597   0.843   3.626   3.720
  566SOL    HW2 2598   0.990   3.695   3.736
  567SOL     OW 2599   3.143   2.510   1.443
  567SOL    HW1 2600   3.127   2.607   1.424
  567SOL    HW2 2601   3.152   2.496   1.541
  568SOL     OW 2602   4.138   6.759   0.405
  568SOL    HW1 2603   4.203   6.832   0.383
  568SOL    HW2 2604   4.159   6.722   0.496
  569SOL     OW 2605   1.080   3.516   0.768
  569SOL    HW1 2606   0.986   3.530   0.738
  569SOL    HW2 2607   1.119   3.602   0.801
  570SOL     OW 2608   3.428   0.297   6.859
  570SOL    HW1 2609   3.443   0.304   6.957
  570SOL    HW2 2610   3.338   0.332   6.836
  571SOL     OW 2611   3.403   5.247   4.110
  571SOL    HW1 2612   3.482   5.190   4.132
  571SOL    HW2 2613   3.341   5.195   4.050
  572SOL     OW 2614   2.148   5.395   5.415
  572SOL    HW1 2615   2.061   5.442   5.432
  572SOL    HW2 2616   2.166   5.330   5.489
  573SOL     OW 2617   5.860   1.382   6.391
  573SOL    HW1 2618   5.870   1.388   6.291
  573SOL    HW2 2619   5.791   1.313   6.413
  574SOL     OW 2620   3.346   0.926   4.494
  574SOL    HW1 2621   3.281   0.959   4.562
  574SOL    HW2 2622   3.348   0.990   4.416
  575SOL     OW 2623   4.457   3.141   1.677
  575SOL    HW1 2624   4.507   3.165   1.760
  575SOL    HW2 2625   4.516   3.088   1.616
  576SOL     OW 2626   1.330   3.123   3.115
  576SOL    HW1 2627   1.288   3.111   3.205
  576SOL    HW2 2628   1.300   3.049   3.054
  577SOL     OW 2629   1.685   0.945   2.307
  577SOL    HW1 2630   1.700   0.881   2.231
  577SOL    HW2 2631   1.601   0.921   2.354
  578SOL     OW 2632   0.232   5.089   4.386
  578SOL    HW1 2633   0.254   4.992   4.396
  578SOL    HW2 2634   0.253   5.137   4.471
  579SOL     OW 2635   1.454   4.026   3.630
  579SOL    HW1 2636   1.542   3.979   3.638
  579SOL    HW2 2637   1.423   4.054   3.721
  580SOL     OW 2638   4.336   5.224   5.369
  580SOL    HW1 2639   4.295   5.186   5.286
  580SOL    HW2 2640   4.432   5.245   5.352
  581SOL     OW 2641   1.956   3.062   1.829
  581SOL    HW1 2642   1.932   3.092   1.921
  581SOL    HW2 2643   2.012   2.980   1.834
  582SOL     OW 2644   4.754   5.315   2.437
  582SOL    HW1 2645   4.684   5.255   2.400
  582SOL    HW2 2646   4.736   5.409   2.409
  583SOL     OW 2647   2.304   6.168   5.102
  583SOL    HW1 2648   2.399   6.196   5.113
  583SOL    HW2 2649   2.267   6.208   5.018
  584SOL     OW 2650   3.091   6.621   6.671
  584SOL    HW1 2651   3.167   6.627   6.606
  584SOL    HW2 2652   3.010   6.585   6.624
  585SOL     OW 2653   4.396   0.995   0.336
  585SOL    HW1 2654   4.324   0.986   0.268
  585SOL    HW2 2655   4.480   1.028   0.291
  586SOL     OW 2656   3.121   0.342   0.037
  586SOL    HW1 2657   3.209   0.372   0.073
  586SOL    HW2 2658   3.080   0.276   0.101
  587SOL     OW 2659   4.813   2.409   3.532
  587SOL    HW1 2660   4.825   2.348   3.454
  587SOL    HW2 2661   4.776   2.496   3.500
  588SOL     OW 2662   2.122   4.870   1.656
  588SOL    HW1 2663   2.203   4.926   1.675
  588SOL    HW2 2664   2.149   4.774   1.650
  589SOL     OW 2665   3.702   5.589   1.783
  589SOL    HW1 2666   3.719   5.496   1.814
  589SOL    HW2 2667   3.664   5.643   1.859
  590SOL     OW 2668   5.670   1.575   1.731
  590SOL    HW1 2669   5.762   1.546   1.705
  590SOL    HW2 2670   5.676   1.642   1.806
  591SOL     OW 2671   3.751   6.172   3.509
  591SOL    HW1 2672   3.704   6.150   3.424
  591SOL    HW2 2673   3.846   6.141   3.504
  592SOL     OW 2674   4.581   0.358   1.948
  592SOL    HW1 2675   4.570   0.402   2.037
  592SOL    HW2 2676   4.661   0.299   1.951
  593SOL     OW 2677   5.005   2.751   3.785
  593SOL    HW1 2678   5.086   2.715   3.832
  593SOL    HW2 2679   4.923   2.711   3.825
  594SOL     OW 2680   5.678   0.162   0.877
  594SOL    HW1 2681   5.604   0.109   0.919
  594SOL    HW2 2682   5.766   0.123   0.904
  595SOL     OW 2683   5.151   6.705   3.324
  595SOL    HW1 2684   5.152   6.641   3.401
  595SOL    HW2 2685   5.097   6.786   3.348
  596SOL     OW 2686   0.358   5.294   2.808
  596SOL    HW1 2687   0.349   5.394   2.815
  596SOL    HW2 2688   0.320   5.251   2.890
  597SOL     OW 2689   2.480   6.819   6.699
  597SOL    HW1 2690   2.501   6.868   6.614
  597SOL    HW2 2691   2.408   6.752   6.681
  598SOL     OW 2692   3.749   4.173   4.891
  598SOL    HW1 2693   3.700   4.190   4.806
  598SOL    HW2 2694   3.764   4.259   4.939
  599SOL     OW 2695   2.410   5.579   2.723
  599SOL    HW1 2696   2.480   5.527   2.771
  599SOL    HW2 2697   2.331   5.521   2.705
  600SOL     OW 2698   6.042   1.940   6.747
  600SOL    HW1 2699   6.087   1.903   6.666
  600SOL    HW2 2700   6.071   2.035   6.760
  601SOL     OW 2701   1.517   0.789   3.713
  601SOL    HW1 2702   1.557   0.864   3.660
  601SOL    HW2 2703   1.419   0.781   3.690
  602SOL     OW 2704   1.977   0.358   6.249
  602SOL    HW1 2705   1.948   0.446   6.287
  602SOL    HW2 2706   1.982   0.290   6.322
  603SOL     OW 2707   2.954   2.819   5.337
  603SOL    HW1 2708   3.043   2.814   5.290
  603SOL    HW2 2709   2.897   2.889   5.293
  604SOL     OW 2710   0.547   1.508   1.340
  604SOL    HW1 2711   0.594   1.458   1.268
  604SOL    HW2 2712   0.491   1.445   1.394
  605SOL     OW 2713   6.603   4.835   0.403
  605SOL    HW1 2714   6.665   4.910   0.383
  605SOL    HW2 2715   6.530   4.867   0.464
  606SOL     OW 2716   5.049   6.550   5.404
  606SOL    HW1 2717   5.135   6.585   5.368
  606SOL    HW2 2718   5.057   6.453   5.424
  607SOL     OW 2719   6.469   4.387   5.231
  607SOL    HW1 2720   6.486   4.389   5.133
  607SOL    HW2 2721   6.511   4.306   5.271
  608SOL     OW 2722   4.200   6.240   6.682
  608SOL    HW1 2723   4.116   6.272   6.725
  608SOL    HW2 2724   4.199   6.140   6.677
  609SOL     OW 2725   3.939   3.049   2.661
  609SOL    HW1 2726   3.909   2.977   2.724
  609SOL    HW2 2727   3.964   3.131   2.713
  610SOL     OW 2728   5.832   3.134   0.559
  610SOL    HW1 2729   5.919   3.085   0.556
  610SOL    HW2 2730   5.841   3.222   0.513
  611SOL     OW 2731   4.869   6.997   2.005
  611SOL    HW1 2732   4.866   6.972   2.101
  611SOL    HW2 2733   4.853   0.065   1.996
  612SOL     OW 2734   4.114   5.574   4.420
  612SOL    HW1 2735   4.031   5.544   4.373
  612SOL    HW2 2736   4.193   5.528   4.381
  613SOL     OW 2737   4.159   5.389   5.542
  613SOL    HW1 2738   4.142   5.482   5.508
  613SOL    HW2 2739   4.247   5.357   5.507
  614SOL     OW 2740   5.000   5.378   5.905
  614SOL    HW1 2741   4.970   5.416   5.818
  614SOL    HW2 2742   5.034   5.451   5.964
  615SOL     OW 2743   6.822   2.035   1.293
  615SOL    HW1 2744   6.839   1.979   1.213
  615SOL    HW2 2745   6.909   2.073   1.326
  616SOL     OW 2746   0.165   2.525   2.284
  616SOL    HW1 2747   0.119   2.613   2.293
  616SOL    HW2 2748   0.114   2.455   2.333
  617SOL     OW 2749   6.995   4.596   5.907
  617SOL    HW1 2750   7.009   4.618   6.003
  617SOL    HW2 2751   0.052   4.568   5.866
  618SOL     OW 2752   0.741   2.486   0.706
  618SOL    HW1 2753   0.747   2.387   0.702
  618SOL    HW2 2754   0.660   2.517   0.655
  619SOL     OW 2755   3.805   1.500   0.854
  619SOL    HW1 2756   3.762   1.422   0.807
  619SOL    HW2 2757   3.865   1.466   0.926
  620SOL     OW 2758   4.621   2.162   1.326
  620SOL    HW1 2759   4.661   2.090   1.383
  620SOL    HW2 2760   4.688   2.236   1.316
  621SOL     OW 2761   2.867   6.321   6.717
  621SOL    HW1 2762   2.889   6.386   6.644
  621SOL    HW2 2763   2.884   6.228   6.684
  622SOL     OW 2764   1.106   1.009   6.037
  622SOL    HW1 2765   1.185   1.017   6.098
  622SOL    HW2 2766   1.066   0.918   6.045
  623SOL     OW 2767   0.962   5.550   5.684
  623SOL    HW1 2768   0.903   5.586   5.756
  623SOL    HW2 2769   0.947   5.451   5.675
  624SOL     OW 2770   6.982   2.170   0.952
  624SOL    HW1 2771   6.949   2.174   0.857
  624SOL    HW2 2772   6.968   2.259   0.995
  625SOL     OW 2773   2.868   1.433   1.334
  625SOL    HW1 2774   2.955   1.483   1.323
  625SOL    HW2 2775   2.793   1.490   1.302
  626SOL     OW 2776   2.679   5.336   3.689
  626SOL    HW1 2777   2.692   5.299   3.781
  626SOL    HW2 2778   2.585   5.319   3.659
  627SOL     OW 2779   4.827   0.276   0.538
  627SOL    HW1 2780   4.745   0.219   0.538
  627SOL    HW2 2781   4.854   0.297   0.632
  628SOL     OW 2782   5.935   5.518   5.741
  628SOL    HW1 2783   5.845   5.477   5.727
  628SOL    HW2 2784   5.984   5.470   5.814
  629SOL     OW 2785   6.840   6.803   0.398
  629SOL    HW1 2786   6.905   6.809   0.473
  629SOL    HW2 2787   6.771   6.875   0.408
  630SOL     OW 2788   6.650   1.463   2.355
  630SOL    HW1 2789   6.604   1.376   2.333
  630SOL    HW2 2790   6.684   1.459   2.449
  631SOL     OW 2791   3.042   6.477   4.949
  631SOL    HW1 2792   3.068   6.497   5.044
  631SOL    HW2 2793   3.057   6.380   4.930
  632SOL     OW 2794   3.018   1.471   0.527
  632SOL    HW1 2795   3.054   1.515   0.610
  632SOL    HW2 2796   3.086   1.407   0.492
  633SOL     OW 2797   5.217   4.545   0.501
  633SOL    HW1 2798   5.238   4.478   0.573
  633SOL    HW2 2799   5.135   4.516   0.452
  634SOL     OW 2800   4.806   4.134   1.921
  634SOL    HW1 2801   4.708   4.139   1.941
  634SOL    HW2 2802   4.845   4.227   1.922
  635SOL     OW 2803   4.693   5.005   0.979
  635SOL    HW1 2804   4.615   5.068   0.990
  635SOL    HW2 2805   4.695   4.971   0.886
  636SOL     OW 2806   4.245   5.976   6.725
  636SOL    HW1 2807   4.258   5.965   6.824
  636SOL    HW2 2808   4.251   5.887   6.680
  637SOL     OW 2809   6.624   3.238   1.825
  637SOL    HW1 2810   6.674   3.174   1.767
  637SOL    HW2 2811   6.531   3.249   1.790
  638SOL     OW 2812   5.660   2.546   2.416
  638SOL    HW1 2813   5.600   2.623   2.439
  638SOL    HW2 2814   5.716   2.522   2.495
  639SOL     OW 2815   5.342   4.188   2.573
  639SOL    HW1 2816   5.250   4.189   2.611
  639SOL    HW2 2817   5.403   4.241   2.632
  640SOL     OW 2818   0.540   5.177   4.411
  640SOL    HW1 2819   0.568   5.138   4.324
  640SOL    HW2 2820   0.510   5.103   4.472
  641SOL     OW 2821   7.014   5.756   4.489
  641SOL    HW1 2822   7.020   5.855   4.489
  641SOL    HW2 2823   0.003   5.721   4.398
  642SOL     OW 2824   0.016   3.805   4.436
  642SOL    HW1 2825   0.016   3.892   4.486
  642SOL    HW2 2826   6.963   3.797   4.382
  643SOL     OW 2827   5.567   5.159   5.079
  643SOL    HW1 2828   5.540   5.222   5.152
  643SOL    HW2 2829   5.660   5.182   5.048
  644SOL     OW 2830   1.092   6.654   4.075
  644SOL    HW1 2831   1.085   6.662   3.976
  644SOL    HW2 2832   1.031   6.582   4.108
  645SOL     OW 2833   5.305   1.892   4.046
  645SOL    HW1 2834   5.239   1.817   4.049
  645SOL    HW2 2835   5.264   1.973   4.087
  646SOL     OW 2836   2.508   1.128   3.508
  646SOL    HW1 2837   2.519   1.226   3.496
  646SOL    HW2 2838   2.590   1.089   3.550
  647SOL     OW 2839   5.429   2.272   5.733
  647SOL    HW1 2840   5.341   2.307   5.765
  647SOL    HW2 2841   5.421   2.175   5.713
  648SOL     OW 2842   6.811   3.738   3.163
  648SOL    HW1 2843   6.833   3.813   3.101
  648SOL    HW2 2844   6.882   3.732   3.233
  649SOL     OW 2845   4.048   4.055   0.616
  649SOL    HW1 2846   3.967   4.077   0.672
  649SOL    HW2 2847   4.088   3.969   0.648
  650SOL     OW 2848   5.580   4.139   1.021
  650SOL    HW1 2849   5.591   4.116   1.117
  650SOL    HW2 2850   5.657   4.101   0.969
  651SOL     OW 2851   6.747   6.494   6.406
  651SOL    HW1 2852   6.839   6.471   6.437
  651SOL    HW2 2853   6.723   6.586   6.436
  652SOL     OW 2854   5.917   6.046   3.551
  652SOL    HW1 2855   5.979   6.093   3.489
  652SOL    HW2 2856   5.827   6.090   3.547
  653SOL     OW 2857   3.348   6.708   5.178
  653SOL    HW1 2858   3.410   6.672   5.248
  653SOL    HW2 2859   3.377   6.676   5.088
  654SOL     OW 2860   0.091   3.916   5.541
  654SOL    HW1 2861   7.027   3.947   5.526
  654SOL    HW2 2862   0.097   3.872   5.631
  655SOL     OW 2863   0.978   0.010   1.925
  655SOL    HW1 2864   1.015   7.022   2.016
  655SOL    HW2 2865   0.927   0.095   1.925
  656SOL     OW 2866   1.954   5.254   1.780
  656SOL    HW1 2867   1.967   5.302   1.694
  656SOL    HW2 2868   1.904   5.313   1.844
  657SOL     OW 2869   1.848   1.831   1.675
  657SOL    HW1 2870   1.836   1.803   1.770
  657SOL    HW2 2871   1.811   1.923   1.663
  658SOL     OW 2872   3.180   3.904   6.433
  658SOL    HW1 2873   3.268   3.908   6.481
  658SOL    HW2 2874   3.109   3.940   6.493
  659SOL     OW 2875   2.134   6.381   5.933
  659SOL    HW1 2876   2.147   6.292   5.890
  659SOL    HW2 2877   2.046   6.383   5.980
  660SOL     OW 2878   5.157   4.298   2.064
  660SOL    HW1 2879   5.247   4.317   2.103
  660SOL    HW2 2880   5.095   4.270   2.137
  661SOL     OW 2881   4.319   6.474   3.517
  661SOL    HW1 2882   4.407   6.475   3.564
  661SOL    HW2 2883   4.251   6.522   3.572
  662SOL     OW 2884   4.264   1.047   5.622
  662SOL    HW1 2885   4.260   0.961   5.571
  662SOL    HW2 2886   4.243   1.030   5.718
  663SOL     OW 2887   2.515   3.965   6.318
  663SOL    HW1 2888   2.424   3.954   6.358
  663SOL    HW2 2889   2.527   4.060   6.288
  664SOL     OW 2890   0.394   5.757   6.016
  664SOL    HW1 2891   0.327   5.705   5.962
  664SOL    HW2 2892   0.346   5.823   6.074
  665SOL     OW 2893   4.605   5.264   1.794
  665SOL    HW1 2894   4.538   5.317   1.846
  665SOL    HW2 2895   4.625   5.310   1.708
  666SOL     OW 2896   5.316   1.826   1.663
  666SOL    HW1 2897   5.274   1.905   1.618
  666SOL    HW2 2898   5.409   1.848   1.690
  667SOL     OW 2899   1.026   4.521   3.210
  667SOL    HW1 2900   1.028   4.526   3.310
  667SOL    HW2 2901   0.934   4.544   3.178
  668SOL     OW 2902   4.795   6.583   5.758
  668SOL    HW1 2903   4.786   6.525   5.677
  668SOL    HW2 2904   4.873   6.644   5.747
  669SOL     OW 2905   5.064   0.207   2.897
  669SOL    HW1 2906   5.106   0.117   2.909
  669SOL    HW2 2907   5.012   0.230   2.979
  670SOL     OW 2908   3.083   2.706   1.798
  670SOL    HW1 2909   3.169   2.696   1.748
  670SOL    HW2 2910   3.050   2.615   1.825
  671SOL     OW 2911   2.911   6.406   0.872
  671SOL    HW1 2912   2.879   6.405   0.967
  671SOL    HW2 2913   2.846   6.455   0.815
  672SOL     OW 2914   0.111   5.468   1.546
  672SOL    HW1 2915   0.114   5.407   1.626
  672SOL    HW2 2916   0.181   5.441   1.480
  673SOL     OW 2917   6.662   0.567   1.860
  673SOL    HW1 2918   6.675   0.578   1.761
  673SOL    HW2 2919   6.591   0.498   1.877
  674SOL     OW 2920   0.620   1.196   5.226
  674SOL    HW1 2921   0.708   1.233   5.197
  674SOL    HW2 2922   0.625   1.097   5.232
  675SOL     OW 2923   0.342   1.563   2.205
  675SOL    HW1 2924   0.433   1.564   2.246
  675SOL    HW2 2925   0.342   1.616   2.120
  676SOL     OW 2926   3.316   5.357   2.962
  676SOL    HW1 2927   3.243   5.385   2.899
  676SOL    HW2 2928   3.326   5.258   2.960
  677SOL     OW 2929   5.736   1.580   0.880
  677SOL    HW1 2930   5.787   1.504   0.841
  677SOL    HW2 2931   5.720   1.650   0.809
  678SOL     OW 2932   2.381   6.790   5.024
  678SOL    HW1 2933   2.430   6.715   4.980
  678SOL    HW2 2934   2.444   6.845   5.078
  679SOL     OW 2935   4.424   2.489   3.944
  679SOL    HW1 2936   4.333   2.489   3.901
  679SOL    HW2 2937   4.489   2.444   3.883
  680SOL     OW 2938   5.236   5.433   5.124
  680SOL    HW1 2939   5.285   5.370   5.185
  680SOL    HW2 2940   5.258   5.527   5.149
  681SOL     OW 2941   4.528   4.970   1.803
  681SOL    HW1 2942   4.579   4.928   1.728
  681SOL    HW2 2943   4.547   5.068   1.805
  682SOL     OW 2944   6.553   0.733   1.151
  682SOL    HW1 2945   6.529   0.640   1.124
  682SOL    HW2 2946   6.583   0.785   1.071
  683SOL     OW 2947   5.356   2.967   0.638
  683SOL    HW1 2948   5.312   3.045   0.594
  683SOL    HW2 2949   5.372   2.895   0.571
  684SOL     OW 2950   6.539   0.902   0.266
  684SOL    HW1 2951   6.474   0.973   0.239
  684SOL    HW2 2952   6.583   0.927   0.352
  685SOL     OW 2953   3.882   1.876   3.982
  685SOL    HW1 2954   3.901   1.858   4.078
  685SOL    HW2 2955   3.851   1.971   3.971
  686SOL     OW 2956   4.928   2.555   4.279
  686SOL    HW1 2957   4.944   2.604   4.364
  686SOL    HW2 2958   4.876   2.613   4.216
  687SOL     OW 2959   0.632   2.735   4.455
  687SOL    HW1 2960   0.580   2.705   4.535
  687SOL    HW2 2961   0.591   2.697   4.372
  688SOL     OW 2962   0.277   1.920   6.985
  688SOL    HW1 2963   0.286   1.850   0.026
  688SOL    HW2 2964   0.249   1.877   6.899
  689SOL     OW 2965   1.042   4.916   6.669
  689SOL    HW1 2966   1.111   4.846   6.647
  689SOL    HW2 2967   1.047   4.937   6.766
  690SOL     OW 2968   0.275   2.793   3.004
  690SOL    HW1 2969   0.247   2.803   3.100
  690SOL    HW2 2970   0.353   2.853   2.986
  691SOL     OW 2971   2.682   0.945   0.293
  691SOL    HW1 2972   2.775   0.967   0.262
  691SOL    HW2 2973   2.616   0.991   0.234
  692SOL     OW 2974   3.600   1.042   3.730
  692SOL    HW1 2975   3.551   0.982   3.793
  692SOL    HW2 2976   3.535   1.085   3.668
  693SOL     OW 2977   5.639   6.945   3.980
  693SOL    HW1 2978   5.633   6.888   3.898
  693SOL    HW2 2979   5.682   0.002   3.957
  694SOL     OW 2980   4.381   7.010   4.429
  694SOL    HW1 2981   4.299   6.954   4.442
  694SOL    HW2 2982   4.361   0.055   4.367
  695SOL     OW 2983   4.791   6.772   4.073
  695SOL    HW1 2984   4.852   6.743   4.146
  695SOL    HW2 2985   4.844   6.815   4.000
  696SOL     OW 2986   4.909   4.936   3.452
  696SOL    HW1 2987   4.926   4.911   3.547
  696SOL    HW2 2988   4.883   4.854   3.400
  697SOL     OW 2989   1.376   4.200   2.751
  697SOL    HW1 2990   1.441   4.192   2.676
  697SOL    HW2 2991   1.284   4.181   2.718
  698SOL     OW 2992   4.701   6.269   1.085
  698SOL    HW1 2993   4.762   6.349   1.086
  698SOL    HW2 2994   4.756   6.186   1.083
  699SOL     OW 2995   1.663   3.877   6.815
  699SOL    HW1 2996   1.739   3.857   6.753
  699SOL    HW2 2997   1.597   3.802   6.813
  700SOL     OW 2998   3.074   1.056   2.143
  700SOL    HW1 2999   3.132   1.028   2.219
  700SOL    HW2 3000   3.130   1.089   2.068
  701SOL     OW 3001   6.697   4.024   6.950
  701SOL    HW1 3002   6.723   4.028   6.853
  701SOL    HW2 3003   6.735   4.103   6.998
  702SOL     OW 3004   1.518   6.594   5.232
  702SOL    HW1 3005   1.590   6.551   5.286
  702SOL    HW2 3006   1.456   6.524   5.196
  703SOL     OW 3007   3.659   2.774   6.473
  703SOL    HW1 3008   3.623   2.748   6.563
  703SOL    HW2 3009   3.685   2.693   6.422
  704SOL     OW 3010   1.435   2.726   6.802
  704SOL    HW1 3011   1.336   2.735   6.802
  704SOL    HW2 3012   1.475   2.796   6.742
  705SOL     OW 3013   5.908   4.967   2.930
  705SOL    HW1 3014   5.982   4.917   2.886
  705SOL    HW2 3015   5.820   4.938   2.890
  706SOL     OW 3016   4.168   1.846   5.389
  706SOL    HW1 3017   4.099   1.785   5.428
  706SOL    HW2 3018   4.221   1.796   5.320
  707SOL     OW 3019   4.337   4.840   3.279
  707SOL    HW1 3020   4.357   4.937   3.262
  707SOL    HW2 3021   4.247   4.831   3.321
  708SOL     OW 3022   2.990   0.588   2.500
  708SOL    HW1 3023   2.901   0.585   2.545
  708SOL    HW2 3024   3.025   0.682   2.501
  709SOL     OW 3025   0.384   6.035   0.488
  709SOL    HW1 3026   0.417   6.000   0.576
  709SOL    HW2 3027   0.446   6.005   0.415
  710SOL     OW 3028   3.642   2.390   1.220
  710SOL    HW1 3029   3.720   2.436   1.264
  710SOL    HW2 3030   3.558   2.417   1.267
  711SOL     OW 3031   0.017   3.132   5.908
  711SOL    HW1 3032   0.100   3.165   5.863
  711SOL    HW2 3033   0.034   3.041   5.946
  712SOL     OW 3034   4.306   2.081   1.062
  712SOL    HW1 3035   4.309   1.982   1.074
  712SOL    HW2 3036   4.346   2.125   1.143
  713SOL     OW 3037   3.931   3.158   6.272
  713SOL    HW1 3038   3.950   3.060   6.272
  713SOL    HW2 3039   3.844   3.176   6.318
  714SOL     OW 3040   0.519   4.834   3.681
  714SOL    HW1 3041   0.556   4.765   3.618
  714SOL    HW2 3042   0.576   4.916   3.678
  715SOL     OW 3043   5.070   6.339   6.815
  715SOL    HW1 3044   5.129   6.275   6.765
  715SOL    HW2 3045   5.049   6.303   6.905
  716SOL     OW 3046   0.518   0.995   2.043
  716SOL    HW1 3047   0.538   1.065   1.975
  716SOL    HW2 3048   0.425   1.006   2.076
  717SOL     OW 3049   6.293   4.601   3.899
  717SOL    HW1 3050   6.204   4.639   3.923
  717SOL    HW2 3051   6.314   4.623   3.804
  718SOL     OW 3052   4.585   3.562   5.815
  718SOL    HW1 3053   4.497   3.552   5.770
  718SOL    HW2 3054   4.658   3.557   5.747
  719SOL     OW 3055   6.358   0.290   2.918
  719SOL    HW1 3056   6.445   0.240   2.917
  719SOL    HW2 3057   6.346   0.335   3.006
  720SOL     OW 3058   2.475   0.028   5.914
  720SOL    HW1 3059   2.520   0.029   5.825
  720SOL    HW2 3060   2.377   0.011   5.902
  721SOL     OW 3061   2.682   1.463   2.207
  721SOL    HW1 3062   2.764   1.519   2.223
  721SOL    HW2 3063   2.608   1.521   2.174
  722SOL     OW 3064   2.702   0.875   5.156
  722SOL    HW1 3065   2.614   0.912   5.185
  722SOL    HW2 3066   2.689   0.784   5.115
  723SOL     OW 3067   1.570   4.558   3.473
  723SOL    HW1 3068   1.537   4.467   3.500
  723SOL    HW2 3069   1.654   4.579   3.522
  724SOL     OW 3070   0.724   1.502   3.968
  724SOL    HW1 3071   0.782   1.422   3.949
  724SOL    HW2 3072   0.779   1.585   3.962
  725SOL     OW 3073   1.162   5.270   2.051
  725SOL    HW1 3074   1.241   5.211   2.034
  725SOL    HW2 3075   1.123   5.247   2.140
  726SOL     OW 3076   3.290   4.812   1.443
  726SOL    HW1 3077   3.232   4.893   1.432
  726SOL    HW2 3078   3.275   4.750   1.366
  727SOL     OW 3079   6.365   4.677   5.834
  727SOL    HW1 3080   6.406   4.587   5.848
  727SOL    HW2 3081   6.416   4.726   5.764
  728SOL     OW 3082   6.155   2.776   3.430
  728SOL    HW1 3083   6.212   2.856   3.447
  728SOL    HW2 3084   6.058   2.802   3.437
  729SOL     OW 3085   0.443   1.766   0.967
  729SOL    HW1 3086   0.385   1.840   0.932
  729SOL    HW2 3087   0.446   1.770   1.067
  730SOL     OW 3088   6.590   7.006   4.225
  730SOL    HW1 3089   6.658   0.022   4.168
  730SOL    HW2 3090   6.592   0.014   4.317
  731SOL     OW 3091   4.207   5.413   6.619
  731SOL    HW1 3092   4.125   5.361   6.644
  731SOL    HW2 3093   4.207   5.429   6.520
  732SOL     OW 3094   5.976   2.601   1.670
  732SOL    HW1 3095   5.910   2.676   1.670
  732SOL    HW2 3096   5.955   2.538   1.745
  733SOL     OW 3097   5.456   0.479   4.320
  733SOL    HW1 3098   5.541   0.499   4.369
  733SOL    HW2 3099   5.449   0.380   4.306
  734SOL     OW 3100   5.881   4.703   3.130
  734SOL    HW1 3101   5.978   4.679   3.119
  734SOL    HW2 3102   5.827   4.655   3.061
  735SOL     OW 3103   4.208   1.700   0.598
  735SOL    HW1 3104   4.236   1.768   0.530
  735SOL    HW2 3105   4.277   1.628   0.604
  736SOL     OW 3106   0.613   1.703   3.397
  736SOL    HW1 3107   0.636   1.655   3.313
  736SOL    HW2 3108   0.692   1.755   3.430
  737SOL     OW 3109   5.190   2.393   5.802
  737SOL    HW1 3110   5.201   2.485   5.766
  737SOL    HW2 3111   5.182   2.397   5.902
  738SOL     OW 3112   2.894   3.648   1.569
  738SOL    HW1 3113   2.803   3.608   1.563
  738SOL    HW2 3114   2.935   3.651   1.478
  739SOL     OW 3115   5.284   0.834   4.734
  739SOL    HW1 3116   5.211   0.880   4.785
  739SOL    HW2 3117   5.248   0.750   4.694
  740SOL     OW 3118   5.515   1.147   2.124
  740SOL    HW1 3119   5.513   1.116   2.219
  740SOL    HW2 3120   5.606   1.130   2.086
  741SOL     OW 3121   1.656   0.547   3.168
  741SOL    HW1 3122   1.655   0.573   3.265
  741SOL    HW2 3123   1.741   0.579   3.126
  742SOL     OW 3124   2.295   0.103   2.019
  742SOL    HW1 3125   2.356   0.051   1.959
  742SOL    HW2 3126   2.201   0.095   1.986
  743SOL     OW 3127   0.825   5.288   3.106
  743SOL    HW1 3128   0.794   5.372   3.150
  743SOL    HW2 3129   0.887   5.310   3.031
  744SOL     OW 3130   5.757   0.463   1.168
  744SOL    HW1 3131   5.851   0.439   1.193
  744SOL    HW2 3132   5.693   0.409   1.224
  745SOL     OW 3133   1.717   5.613   5.153
  745SOL    HW1 3134   1.677   5.694   5.196
  745SOL    HW2 3135   1.647   5.543   5.140
  746SOL     OW 3136   6.314   4.053   5.850
  746SOL    HW1 3137   6.266   3.994   5.785
  746SOL    HW2 3138   6.250   4.119   5.888
  747SOL     OW 3139   4.011   6.238   4.887
  747SOL    HW1 3140   4.017   6.226   4.788
  747SOL    HW2 3141   4.038   6.331   4.912
  748SOL     OW 3142   3.936   5.500   2.876
  748SOL    HW1 3143   4.016   5.480   2.819
  748SOL    HW2 3144   3.952   5.465   2.969
  749SOL     OW 3145   6.405   4.161   4.345
  749SOL    HW1 3146   6.399   4.114   4.433
  749SOL    HW2 3147   6.430   4.257   4.360
  750SOL     OW 3148   3.038   1.011   1.523
  750SOL    HW1 3149   3.049   0.934   1.586
  750SOL    HW2 3150   2.954   1.060   1.545
  751SOL     OW 3151   4.579   1.523   6.739
  751SOL    HW1 3152   4.499   1.520   6.679
  751SOL    HW2 3153   4.566   1.594   6.808
  752SOL     OW 3154   2.543   2.669   0.995
  752SOL    HW1 3155   2.531   2.683   1.093
  752SOL    HW2 3156   2.474   2.605   0.962
  753SOL     OW 3157   0.839   3.402   6.268
  753SOL    HW1 3158   0.907   3.396   6.195
  753SOL    HW2 3159   0.766   3.465   6.242
  754SOL     OW 3160   4.827   1.291   6.054
  754SOL    HW1 3161   4.745   1.290   6.111
  754SOL    HW2 3162   4.908   1.289   6.112
  755SOL     OW 3163   1.583   4.416   5.391
  755SOL    HW1 3164   1.507   4.447   5.334
  755SOL    HW2 3165   1.668   4.453   5.356
  756SOL     OW 3166   2.622   5.987   6.805
  756SOL    HW1 3167   2.574   6.059   6.755
  756SOL    HW2 3168   2.569   5.962   6.886
  757SOL     OW 3169   0.363   6.607   4.317
  757SOL    HW1 3170   0.426   6.611   4.240
  757SOL    HW2 3171   0.292   6.539   4.299
  758SOL     OW 3172   4.093   0.630   3.497
  758SOL    HW1 3173   4.106   0.641   3.596
  758SOL    HW2 3174   4.034   0.551   3.480
  759SOL     OW 3175   0.818   2.793   2.057
  759SOL    HW1 3176   0.842   2.706   2.014
  759SOL    HW2 3177   0.892   2.823   2.116
  760SOL     OW 3178   6.365   0.112   3.303
  760SOL    HW1 3179   6.351   0.060   3.387
  760SOL    HW2 3180   6.405   0.053   3.233
  761SOL     OW 3181   5.358   3.980   6.409
  761SOL    HW1 3182   5.457   3.979   6.423
  761SOL    HW2 3183   5.319   3.894   6.445
  762SOL     OW 3184   2.893   0.190   5.306
  762SOL    HW1 3185   2.834   0.246   5.248
  762SOL    HW2 3186   2.970   0.156   5.251
  763SOL     OW 3187   3.903   5.739   6.254
  763SOL    HW1 3188   3.848   5.821   6.270
  763SOL    HW2 3189   3.993   5.751   6.295
  764SOL     OW 3190   5.489   0.885   5.485
  764SOL    HW1 3191   5.452   0.860   5.396
  764SOL    HW2 3192   5.510   0.802   5.537
  765SOL     OW 3193   1.790   5.467   0.798
  765SOL    HW1 3194   1.815   5.405   0.872
  765SOL    HW2 3195   1.843   5.444   0.716
  766SOL     OW 3196   2.668   2.303   5.565
  766SOL    HW1 3197   2.600   2.310   5.492
  766SOL    HW2 3198   2.748   2.252   5.531
  767SOL     OW 3199   6.502   6.388   3.433
  767SOL    HW1 3200   6.577   6.325   3.455
  767SOL    HW2 3201   6.500   6.403   3.334
  768SOL     OW 3202   1.875   5.039   2.835
  768SOL    HW1 3203   1.919   5.093   2.907
  768SOL    HW2 3204   1.856   4.947   2.869
  769SOL     OW 3205   2.656   1.168   5.229
  769SOL    HW1 3206   2.756   1.169   5.227
  769SOL    HW2 3207   2.622   1.262   5.235
  770SOL     OW 3208   1.508   5.487   3.773
  770SOL    HW1 3209   1.554   5.479   3.862
  770SOL    HW2 3210   1.411   5.507   3.787
  771SOL     OW 3211   1.114   5.184   2.901
  771SOL    HW1 3212   1.170   5.267   2.895
  771SOL    HW2 3213   1.165   5.112   2.949
  772SOL     OW 3214   5.542   4.774   6.557
  772SOL    HW1 3215   5.508   4.822   6.638
  772SOL    HW2 3216   5.555   4.677   6.578
  773SOL     OW 3217   0.281   4.251   3.475
  773SOL    HW1 3218   0.300   4.153   3.474
  773SOL    HW2 3219   0.367   4.301   3.482
  774SOL     OW 3220   1.702   1.267   1.522
  774SOL    HW1 3221   1.697   1.221   1.611
  774SOL    HW2 3222   1.762   1.215   1.462
  775SOL     OW 3223   2.027   2.342   3.878
  775SOL    HW1 3224   2.022   2.375   3.784
  775SOL    HW2 3225   1.936   2.312   3.907
  776SOL     OW 3226   0.283   0.134   6.288
  776SOL    HW1 3227   0.222   0.071   6.336
  776SOL    HW2 3228   0.265   0.129   6.189
  777SOL     OW 3229   1.826   4.390   0.775
  777SOL    HW1 3230   1.769   4.436   0.844
  777SOL    HW2 3231   1.922   4.395   0.802
  778SOL     OW 3232   2.079   0.607   1.615
  778SOL    HW1 3233   2.092   0.587   1.518
  778SOL    HW2 3234   1.982   0.612   1.636
  779SOL     OW 3235   6.958   2.418   2.459
  779SOL    HW1 3236   7.007   2.344   2.412
  779SOL    HW2 3237   6.877   2.381   2.504
  780SOL     OW 3238   0.897   2.856   4.540
  780SOL    HW1 3239   0.943   2.837   4.453
  780SOL    HW2 3240   0.811   2.804   4.544
  781SOL     OW 3241   5.515   6.186   0.803
  781SOL    HW1 3242   5.452   6.259   0.831
  781SOL    HW2 3243   5.567   6.215   0.723
  782SOL     OW 3244   1.439   3.358   6.428
  782SOL    HW1 3245   1.404   3.398   6.344
  782SOL    HW2 3246   1.392   3.398   6.507
  783SOL     OW 3247   5.125   4.774   2.003
  783SOL    HW1 3248   5.159   4.867   1.987
  783SOL    HW2 3249   5.131   4.722   1.918
  784SOL     OW 3250   4.053   4.817   0.897
  784SOL    HW1 3251   4.048   4.717   0.890
  784SOL    HW2 3252   4.146   4.847   0.878
  785SOL     OW 3253   0.450   1.786   3.596
  785SOL    HW1 3254   0.499   1.732   3.529
  785SOL    HW2 3255   0.353   1.761   3.595
  786SOL     OW 3256   0.360   0.302   2.434
  786SOL    HW1 3257   0.326   0.264   2.348
  786SOL    HW2 3258   0.292   0.365   2.471
  787SOL     OW 3259   1.444   1.402   6.423
  787SOL    HW1 3260   1.448   1.502   6.422
  787SOL    HW2 3261   1.504   1.366   6.494
  788SOL     OW 3262   4.275   1.645   0.906
  788SOL    HW1 3263   4.337   1.572   0.877
  788SOL    HW2 3264   4.214   1.669   0.830
  789SOL     OW 3265   4.501   4.480   1.766
  789SOL    HW1 3266   4.449   4.395   1.768
  789SOL    HW2 3267   4.567   4.481   1.841
  790SOL     OW 3268   2.436   1.653   2.982
  790SOL    HW1 3269   2.513   1.589   2.984
  790SOL    HW2 3270   2.372   1.626   2.909
  791SOL     OW 3271   1.570   6.631   4.536
  791SOL    HW1 3272   1.513   6.680   4.470
  791SOL    HW2 3273   1.552   6.533   4.529
  792SOL     OW 3274   0.738   1.185   1.953
  792SOL    HW1 3275   0.787   1.184   2.040
  792SOL    HW2 3276   0.791   1.238   1.886
  793SOL     OW 3277   5.008   5.484   4.343
  793SOL    HW1 3278   5.027   5.518   4.251
  793SOL    HW2 3279   4.957   5.553   4.395
  794SOL     OW 3280   2.983   3.972   6.016
  794SOL    HW1 3281   2.885   3.986   5.996
  794SOL    HW2 3282   3.036   4.042   5.968
  795SOL     OW 3283   3.961   0.301   5.439
  795SOL    HW1 3284   4.036   0.298   5.505
  795SOL    HW2 3285   3.953   0.212   5.394
  796SOL     OW 3286   0.888   2.631   6.703
  796SOL    HW1 3287   0.921   2.537   6.707
  796SOL    HW2 3288   0.838   2.653   6.787
  797SOL     OW 3289   4.806   0.444   0.868
  797SOL    HW1 3290   4.711   0.429   0.841
  797SOL    HW2 3291   4.812   0.449   0.968
  798SOL     OW 3292   3.672   6.465   2.412
  798SOL    HW1 3293   3.683   6.555   2.370
  798SOL    HW2 3294   3.643   6.477   2.507
  799SOL     OW 3295   0.153   6.718   6.498
  799SOL    HW1 3296   0.176   6.790   6.563
  799SOL    HW2 3297   0.108   6.758   6.418
  800SOL     OW 3298   6.097   0.792   2.518
  800SOL    HW1 3299   6.081   0.870   2.578
  800SOL    HW2 3300   6.049   0.712   2.554
  801SOL     OW 3301   2.084   4.628   4.715
  801SOL    HW1 3302   2.148   4.649   4.789
  801SOL    HW2 3303   2.079   4.528   4.703
  802SOL     OW 3304   2.795   2.727   0.689
  802SOL    HW1 3305   2.884   2.757   0.724
  802SOL    HW2 3306   2.781   2.631   0.715
  803SOL     OW 3307   1.598   0.427   5.964
  803SOL    HW1 3308   1.573   0.331   5.981
  803SOL    HW2 3309   1.639   0.465   6.046
  804SOL     OW 3310   5.879   6.461   1.084
  804SOL    HW1 3311   5.920   6.372   1.104
  804SOL    HW2 3312   5.945   6.516   1.031
  805SOL     OW 3313   2.120   1.168   4.783
  805SOL    HW1 3314   2.147   1.193   4.690
  805SOL    HW2 3315   2.202   1.149   4.838
  806SOL     OW 3316   5.274   0.347   5.194
  806SOL    HW1 3317   5.299   0.411   5.266
  806SOL    HW2 3318   5.239   0.398   5.115
  807SOL     OW 3319   0.281   0.685   5.031
  807SOL    HW1 3320   0.206   0.704   5.096
  807SOL    HW2 3321   0.305   0.769   4.983
  808SOL     OW 3322   4.347   4.194   6.885
  808SOL    HW1 3323   4.361   4.235   6.794
  808SOL    HW2 3324   4.250   4.170   6.895
  809SOL     OW 3325   0.435   4.953   0.746
  809SOL    HW1 3326   0.426   4.870   0.692
  809SOL    HW2 3327   0.412   5.033   0.690
  810SOL     OW 3328   3.248   4.348   0.556
  810SOL    HW1 3329   3.203   4.363   0.643
  810SOL    HW2 3330   3.237   4.429   0.498
  811SOL     OW 3331   5.385   5.876   4.546
  811SOL    HW1 3332   5.422   5.833   4.628
  811SOL    HW2 3333   5.317   5.945   4.572
  812SOL     OW 3334   6.766   0.915   2.933
  812SOL    HW1 3335   6.774   0.974   2.852
  812SOL    HW2 3336   6.790   0.821   2.907
  813SOL     OW 3337   3.806   7.014   4.301
  813SOL    HW1 3338   3.747   0.048   4.351
  813SOL    HW2 3339   3.795   0.000   4.202
  814SOL     OW 3340   6.551   5.750   2.427
  814SOL    HW1 3341   6.647   5.773   2.411
  814SOL    HW2 3342   6.534   5.657   2.395
  815SOL     OW 3343   6.584   3.076   3.452
  815SOL    HW1 3344   6.639   3.078   3.369
  815SOL    HW2 3345   6.640   3.105   3.530
  816SOL     OW 3346   5.513   5.357   0.564
  816SOL    HW1 3347   5.481   5.308   0.645
  816SOL    HW2 3348   5.465   5.444   0.556
  817SOL     OW 3349   0.953   5.020   1.188
  817SOL    HW1 3350   1.018   5.096   1.194
  817SOL    HW2 3351   1.002   4.933   1.183
  818SOL     OW 3352   6.110   3.143   3.593
  818SOL    HW1 3353   6.031   3.092   3.627
  818SOL    HW2 3354   6.182   3.078   3.567
  819SOL     OW 3355   6.647   3.403   1.415
  819SOL    HW1 3356   6.632   3.482   1.474
  819SOL    HW2 3357   6.586   3.328   1.442
  820SOL     OW 3358   2.589   2.191   5.078
  820SOL    HW1 3359   2.604   2.279   5.034
  820SOL    HW2 3360   2.677   2.150   5.102
  821SOL     OW 3361   6.435   4.713   6.599
  821SOL    HW1 3362   6.368   4.700   6.526
  821SOL    HW2 3363   6.463   4.625   6.636
  822SOL     OW 3364   0.259   3.070   3.192
  822SOL    HW1 3365   0.276   2.985   3.241
  822SOL    HW2 3366   0.214   3.135   3.252
  823SOL     OW 3367   6.527   4.459   6.017
  823SOL    HW1 3368   6.515   4.542   6.070
  823SOL    HW2 3369   6.618   4.459   5.975
  824SOL     OW 3370   4.040   1.026   6.385
  824SOL    HW1 3371   4.042   0.953   6.316
  824SOL    HW2 3372   4.094   0.998   6.464
  825SOL     OW 3373   6.477   5.540   1.181
  825SOL    HW1 3374   6.530   5.622   1.159
  825SOL    HW2 3375   6.411   5.523   1.107
  826SOL     OW 3376   4.375   2.341   5.778
  826SOL    HW1 3377   4.293   2.382   5.817
  826SOL    HW2 3378   4.409   2.270   5.840
  827SOL     OW 3379   2.412   4.420   5.004
  827SOL    HW1 3380   2.441   4.334   5.046
  827SOL    HW2 3381   2.399   4.489   5.075
  828SOL     OW 3382   5.302   6.844   6.828
  828SOL    HW1 3383   5.243   6.887   6.896
  828SOL    HW2 3384   5.374   6.908   6.800
  829SOL     OW 3385   4.061   3.749   2.039
  829SOL    HW1 3386   4.052   3.777   2.134
  829SOL    HW2 3387   3.988   3.685   2.015
  830SOL     OW 3388   5.520   4.966   6.312
  830SOL    HW1 3389   5.531   4.994   6.407
  830SOL    HW2 3390   5.449   4.896   6.305
  831SOL     OW 3391   5.958   6.845   0.318
  831SOL    HW1 3392   5.878   6.801   0.279
  831SOL    HW2 3393   6.028   6.776   0.339
  832SOL     OW 3394   4.048   2.068   3.646
  832SOL    HW1 3395   4.124   2.101   3.703
  832SOL    HW2 3396   4.072   1.979   3.607
  833SOL     OW 3397   1.772   3.865   6.450
  833SOL    HW1 3398   1.831   3.844   6.527
  833SOL    HW2 3399   1.754   3.780   6.399
  834SOL     OW 3400   5.031   3.471   1.017
  834SOL    HW1 3401   5.021   3.415   0.934
  834SOL    HW2 3402   5.049   3.412   1.095
  835SOL     OW 3403   3.214   6.960   5.462
  835SOL    HW1 3404   3.294   6.960   5.403
  835SOL    HW2 3405   3.147   6.893   5.429
  836SOL     OW 3406   4.096   6.855   4.846
  836SOL    HW1 3407   4.060   6.910   4.923
  836SOL    HW2 3408   4.023   6.842   4.779
  837SOL     OW 3409   6.934   0.714   1.299
  837SOL    HW1 3410   6.915   0.799   1.348
  837SOL    HW2 3411   7.028   0.684   1.319
  838SOL     OW 3412   2.358   6.822   4.390
  838SOL    HW1 3413   2.361   6.915   4.352
  838SOL    HW2 3414   2.265   6.803   4.421
  839SOL     OW 3415   2.095   1.207   1.725
  839SOL    HW1 3416   2.011   1.159   1.699
  839SOL    HW2 3417   2.163   1.142   1.755
  840SOL     OW 3418   6.283   6.053   6.890
  840SOL    HW1 3419   6.187   6.038   6.862
  840SOL    HW2 3420   6.343   6.016   6.819
  841SOL     OW 3421   3.452   5.282   6.187
  841SOL    HW1 3422   3.445   5.257   6.091
  841SOL    HW2 3423   3.547   5.279   6.216
  842SOL     OW 3424   3.733   0.363   5.553
  842SOL    HW1 3425   3.666   0.364   5.479
  842SOL    HW2 3426   3.821   0.331   5.518
  843SOL     OW 3427   1.115   1.917   1.702
  843SOL    HW1 3428   1.096   1.880   1.611
  843SOL    HW2 3429   1.193   1.980   1.696
  844SOL     OW 3430   6.459   0.133   0.315
  844SOL    HW1 3431   6.367   0.107   0.288
  844SOL    HW2 3432   6.460   0.229   0.343
  845SOL     OW 3433   5.106   4.072   3.702
  845SOL    HW1 3434   5.140   3.978   3.708
  845SOL    HW2 3435   5.182   4.136   3.717
  846SOL     OW 3436   2.270   1.016   6.007
  846SOL    HW1 3437   2.328   0.977   5.935
  846SOL    HW2 3438   2.313   1.002   6.096
  847SOL     OW 3439   1.388   3.494   1.259
  847SOL    HW1 3440   1.337   3.417   1.222
  847SOL    HW2 3441   1.323   3.562   1.295
  848SOL     OW 3442   6.681   6.954   6.123
  848SOL    HW1 3443   6.642   6.982   6.036
  848SOL    HW2 3444   6.743   7.025   6.157
  849SOL     OW 3445   5.970   4.226   6.633
  849SOL    HW1 3446   6.047   4.247   6.572
  849SOL    HW2 3447   5.997   4.152   6.695
  850SOL     OW 3448   5.896   1.133   4.738
  850SOL    HW1 3449   5.867   1.178   4.822
  850SOL    HW2 3450   5.840   1.052   4.722
  851SOL     OW 3451   0.240   2.720   0.961
  851SOL    HW1 3452   0.147   2.749   0.937
  851SOL    HW2 3453   0.257   2.629   0.923
  852SOL     OW 3454   0.670   4.231   0.556
  852SOL    HW1 3455   0.692   4.307   0.617
  852SOL    HW2 3456   0.738   4.158   0.568
  853SOL     OW 3457   0.920   4.451   0.636
  853SOL    HW1 3458   0.999   4.490   0.682
  853SOL    HW2 3459   0.838   4.464   0.692
  854SOL     OW 3460   5.145   5.975   0.861
  854SOL    HW1 3461   5.159   5.914   0.783
  854SOL    HW2 3462   5.110   5.922   0.938
  855SOL     OW 3463   6.664   6.729   1.390
  855SOL    HW1 3464   6.568   6.703   1.376
  855SOL    HW2 3465   6.711   6.726   1.302
  856SOL     OW 3466   1.253   1.833   6.511
  856SOL    HW1 3467   1.189   1.907   6.489
  856SOL    HW2 3468   1.211   1.773   6.579
  857SOL     OW 3469   6.150   5.140   2.107
  857SOL    HW1 3470   6.117   5.046   2.120
  857SOL    HW2 3471   6.181   5.152   2.013
  858SOL     OW 3472   2.987   3.986   1.283
  858SOL    HW1 3473   2.964   3.889   1.277
  858SOL    HW2 3474   3.081   3.996   1.318
  859SOL     OW 3475   5.735   6.946   4.963
  859SOL    HW1 3476   5.797   6.999   5.022
  859SOL    HW2 3477   5.674   7.009   4.915
  860SOL     OW 3478   6.399   2.769   6.855
  860SOL    HW1 3479   6.383   2.865   6.835
  860SOL    HW2 3480   6.358   2.745   6.943
  861SOL     OW 3481   2.418   5.049   3.796
  861SOL    HW1 3482   2.503   5.043   3.848
  861SOL    HW2 3483   2.432   5.107   3.716
  862SOL     OW 3484   1.533   4.032   3.151
  862SOL    HW1 3485   1.451   3.993   3.193
  862SOL    HW2 3486   1.606   4.035   3.219
  863SOL     OW 3487   5.801   0.637   6.616
  863SOL    HW1 3488   5.720   0.696   6.617
  863SOL    HW2 3489   5.776   0.545   6.645
  864SOL     OW 3490   3.679   5.903   4.063
  864SOL    HW1 3491   3.644   5.972   4.127
  864SOL    HW2 3492   3.712   5.948   3.981
  865SOL     OW 3493   1.573   0.132   5.951
  865SOL    HW1 3494   1.494   0.100   5.900
  865SOL    HW2 3495   1.653   0.076   5.928
  866SOL     OW 3496   2.661   1.179   0.514
  866SOL    HW1 3497   2.706   1.117   0.451
  866SOL    HW2 3498   2.592   1.130   0.566
  867SOL     OW 3499   5.110   4.075   0.369
  867SOL    HW1 3500   5.170   4.005   0.330
  867SOL    HW2 3501   5.050   4.110   0.298
  868SOL     OW 3502   6.401   0.806   1.595
  868SOL    HW1 3503   6.372   0.817   1.500
  868SOL    HW2 3504   6.329   0.761   1.648
  869SOL     OW 3505   0.146   4.361   2.681
  869SOL    HW1 3506   0.176   4.268   2.659
  869SOL    HW2 3507   0.220   4.410   2.726
  870SOL     OW 3508   4.097   3.799   0.794
  870SOL    HW1 3509   4.004   3.794   0.758
  870SOL    HW2 3510   4.124   3.710   0.830
  871SOL     OW 3511   5.215   2.441   3.281
  871SOL    HW1 3512   5.308   2.433   3.315
  871SOL    HW2 3513   5.156   2.375   3.327
  872SOL     OW 3514   6.024   3.216   4.061
  872SOL    HW1 3515   6.036   3.310   4.028
  872SOL    HW2 3516   5.943   3.176   4.019
  873SOL     OW 3517   5.359   5.690   5.181
  873SOL    HW1 3518   5.440   5.704   5.239
  873SOL    HW2 3519   5.300   5.771   5.187
  874SOL     OW 3520   6.702   3.941   6.373
  874SOL    HW1 3521   6.673   3.929   6.468
  874SOL    HW2 3522   6.669   3.865   6.318
  875SOL     OW 3523   5.017   4.926   0.701
  875SOL    HW1 3524   5.008   5.013   0.748
  875SOL    HW2 3525   5.105   4.884   0.724
  876SOL     OW 3526   0.345   4.794   2.804
  876SOL    HW1 3527   0.414   4.817   2.873
  876SOL    HW2 3528   0.374   4.827   2.715
  877SOL     OW 3529   3.500   4.976   5.528
  877SOL    HW1 3530   3.546   5.064   5.535
  877SOL    HW2 3531   3.544   4.921   5.456
  878SOL     OW 3532   4.585   6.503   4.723
  878SOL    HW1 3533   4.594   6.486   4.821
  878SOL    HW2 3534   4.530   6.586   4.709
  879SOL     OW 3535   4.551   1.145   1.387
  879SOL    HW1 3536   4.538   1.047   1.406
  879SOL    HW2 3537   4.488   1.198   1.444
  880SOL     OW 3538   3.043   3.975   4.343
  880SOL    HW1 3539   2.947   4.000   4.362
  880SOL    HW2 3540   3.100   4.007   4.418
  881SOL     OW 3541   5.538   3.628   5.548
  881SOL    HW1 3542   5.578   3.602   5.636
  881SOL    HW2 3543   5.457   3.685   5.563
  882SOL     OW 3544   1.222   2.162   3.891
  882SOL    HW1 3545   1.224   2.261   3.904
  882SOL    HW2 3546   1.145   2.137   3.834
  883SOL     OW 3547   3.545   0.534   0.583
  883SOL    HW1 3548   3.619   0.467   0.573
  883SOL    HW2 3549   3.526   0.548   0.681
  884SOL     OW 3550   0.054   4.452   0.095
  884SOL    HW1 3551   7.012   4.477   0.031
  884SOL    HW2 3552   0.064   4.353   0.097
  885SOL     OW 3553   4.728   0.230   4.886
  885SOL    HW1 3554   4.713   0.218   4.984
  885SOL    HW2 3555   4.742   0.140   4.844
  886SOL     OW 3556   3.760   0.381   0.477
  886SOL    HW1 3557   3.815   0.307   0.516
  886SOL    HW2 3558   3.818   0.460   0.459
  887SOL     OW 3559   3.885   6.300   4.026
  887SOL    HW1 3560   3.904   6.269   4.120
  887SOL    HW2 3561   3.888   6.221   3.965
  888SOL     OW 3562   0.067   6.298   3.786
  888SOL    HW1 3563   0.163   6.273   3.798
  888SOL    HW2 3564   0.050   6.315   3.689
  889SOL     OW 3565   6.862   1.004   6.705
  889SOL    HW1 3566   6.930   1.049   6.647
  889SOL    HW2 3567   6.890   0.910   6.723
  890SOL     OW 3568   2.698   4.975   2.766
  890SOL    HW1 3569   2.657   4.897   2.813
  890SOL    HW2 3570   2.700   5.054   2.828
  891SOL     OW 3571   6.622   3.836   0.795
  891SOL    HW1 3572   6.663   3.906   0.853
  891SOL    HW2 3573   6.663   3.841   0.704
  892SOL     OW 3574   3.336   3.660   4.850
  892SOL    HW1 3575   3.259   3.603   4.819
  892SOL    HW2 3576   3.308   3.713   4.930
  893SOL     OW 3577   2.115   6.795   3.178
  893SOL    HW1 3578   2.139   6.838   3.091
  893SOL    HW2 3579   2.132   6.697   3.172
  894SOL     OW 3580   1.297   2.695   2.935
  894SOL    HW1 3581   1.388   2.695   2.894
  894SOL    HW2 3582   1.261   2.788   2.935
  895SOL     OW 3583   1.245   5.497   4.087
  895SOL    HW1 3584   1.274   5.406   4.116
  895SOL    HW2 3585   1.187   5.538   4.158
  896SOL     OW 3586   5.811   5.125   1.638
  896SOL    HW1 3587   5.889   5.146   1.580
  896SOL    HW2 3588   5.833   5.148   1.733
  897SOL     OW 3589   4.327   0.877   0.089
  897SOL    HW1 3590   4.251   0.842   0.034
  897SOL    HW2 3591   4.414   0.858   0.043
  898SOL     OW 3592   4.179   6.546   2.566
  898SOL    HW1 3593   4.207   6.499   2.651
  898SOL    HW2 3594   4.101   6.606   2.585
  899SOL     OW 3595   0.267   5.975   0.167
  899SOL    HW1 3596   0.244   6.061   0.211
  899SOL    HW2 3597   0.264   5.986   0.067
  900SOL     OW 3598   5.200   6.954   0.038
  900SOL    HW1 3599   5.155   6.923   0.122
  900SOL    HW2 3600   5.171   0.017   0.017
  901SOL     OW 3601   1.096   0.873   3.838
  901SOL    HW1 3602   1.003   0.889   3.805
  901SOL    HW2 3603   1.145   0.960   3.843
  902SOL     OW 3604   1.342   3.071   1.587
  902SOL    HW1 3605   1.314   3.068   1.491
  902SOL    HW2 3606   1.421   3.012   1.601
  903SOL     OW 3607   0.713   3.470   0.098
  903SOL    HW1 3608   0.748   3.421   0.019
  903SOL    HW2 3609   0.760   3.558   0.106
  904SOL     OW 3610   2.115   2.656   2.343
  904SOL    HW1 3611   2.077   2.564   2.333
  904SOL    HW2 3612   2.210   2.656   2.313
  905SOL     OW 3613   4.885   3.839   6.500
  905SOL    HW1 3614   4.847   3.908   6.439
  905SOL    HW2 3615   4.818   3.814   6.569
  906SOL     OW 3616   0.640   1.889   6.294
  906SOL    HW1 3617   0.727   1.840   6.289
  906SOL    HW2 3618   0.600   1.876   6.385
  907SOL     OW 3619   4.851   2.725   1.138
  907SOL    HW1 3620   4.841   2.699   1.043
  907SOL    HW2 3621   4.937   2.688   1.175
  908SOL     OW 3622   2.497   4.568   3.348
  908SOL    HW1 3623   2.545   4.524   3.424
  908SOL    HW2 3624   2.413   4.611   3.383
  909SOL     OW 3625   3.924   6.236   1.989
  909SOL    HW1 3626   3.906   6.188   2.075
  909SOL    HW2 3627   3.862   6.314   1.981
  910SOL     OW 3628   3.333   1.564   1.394
  910SOL    HW1 3629   3.334   1.464   1.406
  910SOL    HW2 3630   3.353   1.608   1.481
  911SOL     OW 3631   1.275   6.378   6.736
  911SOL    HW1 3632   1.339   6.360   6.811
  911SOL    HW2 3633   1.304   6.460   6.687
  912SOL     OW 3634   5.549   1.282   3.042
  912SOL    HW1 3635   5.577   1.344   2.968
  912SOL    HW2 3636   5.507   1.200   3.004
  913SOL     OW 3637   2.865   0.736   4.005
  913SOL    HW1 3638   2.785   0.796   3.999
  913SOL    HW2 3639   2.844   0.658   4.063
  914SOL     OW 3640   2.188   6.546   5.405
  914SOL    HW1 3641   2.187   6.620   5.338
  914SOL    HW2 3642   2.097   6.536   5.444
  915SOL     OW 3643   0.256   3.100   0.558
  915SOL    HW1 3644   0.235   3.007   0.528
  915SOL    HW2 3645   0.261   3.102   0.658
  916SOL     OW 3646   1.891   3.197   2.620
  916SOL    HW1 3647   1.920   3.101   2.629
  916SOL    HW2 3648   1.971   3.256   2.632
  917SOL     OW 3649   0.593   6.510   2.186
  917SOL    HW1 3650   0.604   6.609   2.177
  917SOL    HW2 3651   0.496   6.487   2.193
  918SOL     OW 3652   3.618   0.258   0.786
  918SOL    HW1 3653   3.599   0.232   0.692
  918SOL    HW2 3654   3.544   0.316   0.820
  919SOL     OW 3655   6.974   6.396   3.116
  919SOL    HW1 3656   6.944   6.407   3.211
  919SOL    HW2 3657   6.928   6.463   3.058
  920SOL     OW 3658   2.460   4.659   2.433
  920SOL    HW1 3659   2.518   4.660   2.514
  920SOL    HW2 3660   2.517   4.662   2.351
  921SOL     OW 3661   3.561   5.526   3.764
  921SOL    HW1 3662   3.473   5.532   3.717
  921SOL    HW2 3663   3.546   5.498   3.859
  922SOL     OW 3664   3.176   3.865   4.738
  922SOL    HW1 3665   3.195   3.770   4.714
  922SOL    HW2 3666   3.099   3.868   4.801
  923SOL     OW 3667   2.605   3.761   6.022
  923SOL    HW1 3668   2.657   3.704   6.085
  923SOL    HW2 3669   2.512   3.724   6.013
  924SOL     OW 3670   6.453   3.426   2.182
  924SOL    HW1 3671   6.397   3.347   2.206
  924SOL    HW2 3672   6.550   3.404   2.196
  925SOL     OW 3673   0.020   2.218   0.079
  925SOL    HW1 3674   6.981   2.148   0.065
  925SOL    HW2 3675   0.078   2.224   7.028
  926SOL     OW 3676   6.217   0.540   1.066
  926SOL    HW1 3677   6.154   0.576   0.997
  926SOL    HW2 3678   6.170   0.532   1.154
  927SOL     OW 3679   5.696   4.285   3.159
  927SOL    HW1 3680   5.638   4.215   3.202
  927SOL    HW2 3681   5.791   4.251   3.156
  928SOL     OW 3682   1.580   6.377   0.292
  928SOL    HW1 3683   1.604   6.378   0.195
  928SOL    HW2 3684   1.597   6.466   0.332
  929SOL     OW 3685   1.010   0.509   6.768
  929SOL    HW1 3686   1.053   0.525   6.679
  929SOL    HW2 3687   0.965   0.592   6.799
  930SOL     OW 3688   5.248   5.982   5.266
  930SOL    HW1 3689   5.179   5.958   5.197
  930SOL    HW2 3690   5.236   6.078   5.293
  931SOL     OW 3691   6.047   1.478   5.091
  931SOL    HW1 3692   6.089   1.422   5.020
  931SOL    HW2 3693   6.051   1.575   5.064
  932SOL     OW 3694   3.368   0.397   3.280
  932SOL    HW1 3695   3.313   0.385   3.363
  932SOL    HW2 3696   3.380   0.308   3.235
  933SOL     OW 3697   1.920   6.428   3.357
  933SOL    HW1 3698   1.879   6.428   3.448
  933SOL    HW2 3699   1.863   6.373   3.295
  934SOL     OW 3700   2.264   6.394   0.161
  934SOL    HW1 3701   2.292   6.481   0.202
  934SOL    HW2 3702   2.199   6.412   0.087
  935SOL     OW 3703   5.212   4.045   4.607
  935SOL    HW1 3704   5.177   3.952   4.597
  935SOL    HW2 3705   5.267   4.068   4.527
  936SOL     OW 3706   0.072   0.348   6.212
  936SOL    HW1 3707   0.143   0.310   6.271
  936SOL    HW2 3708   0.007   0.276   6.188
  937SOL     OW 3709   5.340   1.826   6.016
  937SOL    HW1 3710   5.264   1.782   5.968
  937SOL    HW2 3711   5.387   1.758   6.073
  938SOL     OW 3712   5.907   5.073   6.346
  938SOL    HW1 3713   5.959   5.085   6.261
  938SOL    HW2 3714   5.911   5.157   6.400
  939SOL     OW 3715   0.310   0.115   4.395
  939SOL    HW1 3716   0.344   0.029   4.357
  939SOL    HW2 3717   0.243   0.155   4.332
  940SOL     OW 3718   0.638   4.050   1.847
  940SOL    HW1 3719   0.714   4.004   1.893
  940SOL    HW2 3720   0.673   4.116   1.781
  941SOL     OW 3721   5.858   1.328   6.853
  941SOL    HW1 3722   5.929   1.318   6.923
  941SOL    HW2 3723   5.769   1.343   6.897
  942SOL     OW 3724   5.865   6.782   2.798
  942SOL    HW1 3725   5.792   6.723   2.764
  942SOL    HW2 3726   5.898   6.842   2.725
  943SOL     OW 3727   1.747   3.948   3.310
  943SOL    HW1 3728   1.840   3.919   3.285
  943SOL    HW2 3729   1.703   3.875   3.363
  944SOL     OW 3730   0.181   4.860   5.597
  944SOL    HW1 3731   0.267   4.905   5.620
  944SOL    HW2 3732   0.129   4.844   5.681
  945SOL     OW 3733   0.176   3.700   6.338
  945SOL    HW1 3734   0.271   3.732   6.338
  945SOL    HW2 3735   0.150   3.675   6.244
  946SOL     OW 3736   4.932   4.286   5.188
  946SOL    HW1 3737   4.984   4.305   5.105
  946SOL    HW2 3738   4.937   4.188   5.208
  947SOL     OW 3739   3.825   3.211   3.636
  947SOL    HW1 3740   3.890   3.222   3.711
  947SOL    HW2 3741   3.841   3.281   3.567
  948SOL     OW 3742   5.048   0.997   3.109
  948SOL    HW1 3743   5.115   0.925   3.087
  948SOL    HW2 3744   5.082   1.085   3.076
  949SOL     OW 3745   1.805   6.064   0.495
  949SOL    HW1 3746   1.797   6.137   0.562
  949SOL    HW2 3747   1.792   5.975   0.540
  950SOL     OW 3748   4.837   5.884   2.354
  950SOL    HW1 3749   4.923   5.884   2.303
  950SOL    HW2 3750   4.801   5.977   2.359
  951SOL     OW 3751   1.580   0.461   3.869
  951SOL    HW1 3752   1.588   0.437   3.965
  951SOL    HW2 3753   1.486   0.442   3.838
  952SOL     OW 3754   4.328   2.350   3.588
  952SOL    HW1 3755   4.356   2.389   3.500
  952SOL    HW2 3756   4.245   2.297   3.576
  953SOL     OW 3757   5.595   5.473   4.434
  953SOL    HW1 3758   5.624   5.568   4.448
  953SOL    HW2 3759   5.518   5.452   4.495
  954SOL     OW 3760   4.285   5.677   1.915
  954SOL    HW1 3761   4.272   5.760   1.860
  954SOL    HW2 3762   4.199   5.652   1.960
  955SOL     OW 3763   0.258   3.816   1.687
  955SOL    HW1 3764   0.321   3.788   1.615
  955SOL    HW2 3765   0.238   3.739   1.747
  956SOL     OW 3766   6.044   0.500   1.911
  956SOL    HW1 3767   6.065   0.422   1.851
  956SOL    HW2 3768   6.097   0.493   1.995
  957SOL     OW 3769   5.917   2.938   3.314
  957SOL    HW1 3770   5.996   2.945   3.253
  957SOL    HW2 3771   5.846   2.882   3.270
  958SOL     OW 3772   4.266   1.034   1.500
  958SOL    HW1 3773   4.205   1.092   1.555
  958SOL    HW2 3774   4.358   1.036   1.541
  959SOL     OW 3775   3.306   6.346   4.614
  959SOL    HW1 3776   3.398   6.380   4.633
  959SOL    HW2 3777   3.264   6.317   4.700
  960SOL     OW 3778   0.420   0.843   2.471
  960SOL    HW1 3779   0.369   0.911   2.417
  960SOL    HW2 3780   0.486   0.797   2.413
  961SOL     OW 3781   4.059   6.426   3.405
  961SOL    HW1 3782   4.057   6.520   3.370
  961SOL    HW2 3783   4.148   6.409   3.448
  962SOL     OW 3784   0.353   1.250   5.218
  962SOL    HW1 3785   0.451   1.236   5.208
  962SOL    HW2 3786   0.304   1.176   5.171
  963SOL     OW 3787   5.306   1.295   5.947
  963SOL    HW1 3788   5.333   1.379   5.993
  963SOL    HW2 3789   5.228   1.312   5.888
  964SOL     OW 3790   5.412   5.074   0.266
  964SOL    HW1 3791   5.396   5.036   0.357
  964SOL    HW2 3792   5.389   5.006   0.197
  965SOL     OW 3793   5.434   1.668   2.046
  965SOL    HW1 3794   5.416   1.570   2.041
  965SOL    HW2 3795   5.521   1.687   2.001
  966SOL     OW 3796   5.911   3.273   1.910
  966SOL    HW1 3797   5.927   3.267   2.008
  966SOL    HW2 3798   5.965   3.349   1.872
  967SOL     OW 3799   2.811   4.139   1.418
  967SOL    HW1 3800   2.889   4.111   1.361
  967SOL    HW2 3801   2.726   4.116   1.371
  968SOL     OW 3802   3.726   0.715   2.269
  968SOL    HW1 3803   3.803   0.756   2.220
  968SOL    HW2 3804   3.737   0.731   2.367
  969SOL     OW 3805   2.661   4.704   5.483
  969SOL    HW1 3806   2.714   4.658   5.555
  969SOL    HW2 3807   2.657   4.645   5.403
  970SOL     OW 3808   5.591   0.821   6.693
  970SOL    HW1 3809   5.577   0.800   6.790
  970SOL    HW2 3810   5.503   0.832   6.648
  971SOL     OW 3811   0.200   2.637   2.025
  971SOL    HW1 3812   0.224   2.725   2.066
  971SOL    HW2 3813   0.150   2.582   2.091
  972SOL     OW 3814   5.936   1.967   1.384
  972SOL    HW1 3815   5.917   1.949   1.287
  972SOL    HW2 3816   5.879   2.043   1.415
  973SOL     OW 3817   0.841   5.232   6.581
  973SOL    HW1 3818   0.878   5.163   6.518
  973SOL    HW2 3819   0.781   5.188   6.647
  974SOL     OW 3820   5.481   6.430   2.315
  974SOL    HW1 3821   5.522   6.446   2.405
  974SOL    HW2 3822   5.457   6.334   2.305
  975SOL     OW 3823   1.814   0.505   6.891
  975SOL    HW1 3824   1.749   0.502   6.815
  975SOL    HW2 3825   1.782   0.446   6.965
  976SOL     OW 3826   0.030   3.975   1.682
  976SOL    HW1 3827   0.070   3.884   1.675
  976SOL    HW2 3828   6.961   3.968   1.679
  977SOL     OW 3829   0.630   0.300   2.048
  977SOL    HW1 3830   0.635   0.232   2.121
  977SOL    HW2 3831   0.720   0.343   2.035
  978SOL     OW 3832   5.473   2.819   6.143
  978SOL    HW1 3833   5.397   2.874   6.178
  978SOL    HW2 3834   5.438   2.739   6.095
  979SOL     OW 3835   0.744   2.690   6.962
  979SOL    HW1 3836   0.648   2.706   6.938
  979SOL    HW2 3837   0.762   2.728   0.023
  980SOL     OW 3838   5.348   2.051   3.786
  980SOL    HW1 3839   5.355   2.064   3.687
  980SOL    HW2 3840   5.272   1.988   3.806
  981SOL     OW 3841   0.289   1.947   4.977
  981SOL    HW1 3842   0.195   1.936   5.010
  981SOL    HW2 3843   0.290   1.941   4.877
  982SOL     OW 3844   1.062   1.414   4.637
  982SOL    HW1 3845   1.146   1.461   4.608
  982SOL    HW2 3846   1.052   1.329   4.586
  983SOL     OW 3847   6.165   2.641   3.178
  983SOL    HW1 3848   6.163   2.718   3.115
  983SOL    HW2 3849   6.178   2.674   3.271
  984SOL     OW 3850   2.880   2.337   4.462
  984SOL    HW1 3851   2.837   2.398   4.395
  984SOL    HW2 3852   2.975   2.320   4.435
  985SOL     OW 3853   6.496   2.989   4.937
  985SOL    HW1 3854   6.463   2.894   4.933
  985SOL    HW2 3855   6.537   3.006   5.026
  986SOL     OW 3856   4.759   4.645   0.911
  986SOL    HW1 3857   4.845   4.653   0.962
  986SOL    HW2 3858   4.753   4.554   0.871
  987SOL     OW 3859   4.742   6.822   2.608
  987SOL    HW1 3860   4.812   6.890   2.586
  987SOL    HW2 3861   4.731   6.816   2.707
  988SOL     OW 3862   3.515   3.632   1.877
  988SOL    HW1 3863   3.577   3.569   1.923
  988SOL    HW2 3864   3.457   3.677   1.944
  989SOL     OW 3865   6.520   2.171   6.977
  989SOL    HW1 3866   6.518   2.271   6.973
  989SOL    HW2 3867   6.445   2.135   6.921
  990SOL     OW 3868   3.591   1.074   2.156
  990SOL    HW1 3869   3.558   0.986   2.190
  990SOL    HW2 3870   3.526   1.111   2.089
  991SOL     OW 3871   0.748   3.673   4.340
  991SOL    HW1 3872   0.666   3.665   4.283
  991SOL    HW2 3873   0.771   3.584   4.378
  992SOL     OW 3874   0.562   3.264   1.483
  992SOL    HW1 3875   0.599   3.265   1.576
  992SOL    HW2 3876   0.490   3.333   1.475
  993SOL     OW 3877   6.744   4.618   0.495
  993SOL    HW1 3878   6.822   4.658   0.543
  993SOL    HW2 3879   6.695   4.689   0.445
  994SOL     OW 3880   4.199   5.337   1.802
  994SOL    HW1 3881   4.179   5.265   1.869
  994SOL    HW2 3882   4.294   5.367   1.814
  995SOL     OW 3883   4.148   2.947   5.706
  995SOL    HW1 3884   4.218   2.895   5.656
  995SOL    HW2 3885   4.171   2.950   5.803
  996SOL     OW 3886   3.009   5.357   4.788
  996SOL    HW1 3887   3.045   5.356   4.695
  996SOL    HW2 3888   2.912   5.335   4.787
  997SOL     OW 3889   0.898   0.044   3.181
  997SOL    HW1 3890   0.898   0.015   3.085
  997SOL    HW2 3891   0.894   0.144   3.185
  998SOL     OW 3892   5.672   0.496   5.328
  998SOL    HW1 3893   5.584   0.473   5.371
  998SOL    HW2 3894   5.736   0.525   5.399
  999SOL     OW 3895   5.353   4.512   2.224
  999SOL    HW1 3896   5.327   4.608   2.232
  999SOL    HW2 3897   5.432   4.493   2.283
 1000SOL     OW 3898   3.883   1.857   1.651
 1000SOL    HW1 3899   3.851   1.812   1.568
 1000SOL    HW2 3900   3.816   1.926   1.680
 1001SOL     OW 3901   4.859   5.714   1.172
 1001SOL    HW1 3902   4.806   5.672   1.099
 1001SOL    HW2 3903   4.811   5.794   1.207
 1002SOL     OW 3904   5.720   1.777   1.565
 1002SOL    HW1 3905   5.819   1.773   1.573
 1002SOL    HW2 3906   5.680   1.694   1.603
 1003SOL     OW 3907   1.721   6.250   2.832
 1003SOL    HW1 3908   1.814   6.223   2.810
 1003SOL    HW2 3909   1.687   6.312   2.760
 1004SOL     OW 3910   0.491   0.777   1.604
 1004SOL    HW1 3911   0.393   0.760   1.598
 1004SOL    HW2 3912   0.540   0.690   1.614
 1005SOL     OW 3913   1.919   2.777   3.904
 1005SOL    HW1 3914   2.013   2.748   3.889
 1005SOL    HW2 3915   1.885   2.823   3.822
 1006SOL     OW 3916   0.907   4.427   0.117
 1006SOL    HW1 3917   0.969   4.350   0.105
 1006SOL    HW2 3918   0.826   4.396   0.167
 1007SOL     OW 3919   4.627   0.803   5.240
 1007SOL    HW1 3920   4.694   0.850   5.181
 1007SOL    HW2 3921   4.597   0.865   5.313
 1008SOL     OW 3922   0.698   2.982   6.088
 1008SOL    HW1 3923   0.719   2.957   6.183
 1008SOL    HW2 3924   0.751   2.924   6.027
 1009SOL     OW 3925   0.507   4.942   5.261
 1009SOL    HW1 3926   0.516   5.037   5.232
 1009SOL    HW2 3927   0.597   4.908   5.291
 1010SOL     OW 3928   2.728   2.147   0.450
 1010SOL    HW1 3929   2.663   2.077   0.479
 1010SOL    HW2 3930   2.757   2.201   0.529
 1011SOL     OW 3931   1.117   5.527   3.310
 1011SOL    HW1 3932   1.186   5.570   3.251
 1011SOL    HW2 3933   1.032   5.580   3.306
 1012SOL     OW 3934   0.556   6.893   2.246
 1012SOL    HW1 3935   0.509   6.861   2.164
 1012SOL    HW2 3936   0.612   6.973   2.224
 1013SOL     OW 3937   0.932   1.732   6.269
 1013SOL    HW1 3938   1.032   1.739   6.275
 1013SOL    HW2 3939   0.908   1.662   6.201
 1014SOL     OW 3940   0.545   4.403   5.956
 1014SOL    HW1 3941   0.496   4.332   6.005
 1014SOL    HW2 3942   0.615   4.361   5.897
 1015SOL     OW 3943   2.928   6.928   5.828
 1015SOL    HW1 3944   3.009   6.975   5.794
 1015SOL    HW2 3945   2.911   6.956   5.922
 1016SOL     OW 3946   4.301   3.699   0.242
 1016SOL    HW1 3947   4.256   3.772   0.189
 1016SOL    HW2 3948   4.391   3.731   0.273
 1017SOL     OW 3949   4.532   2.476   1.072
 1017SOL    HW1 3950   4.613   2.420   1.091
 1017SOL    HW2 3951   4.499   2.516   1.158
 1018SOL     OW 3952   0.936   4.378   3.938
 1018SOL    HW1 3953   0.937   4.422   4.029
 1018SOL    HW2 3954   0.874   4.427   3.878
 1019SOL     OW 3955   0.024   6.301   0.946
 1019SOL    HW1 3956   6.973   6.335   0.993
 1019SOL    HW2 3957   0.101   6.299   1.010
 1020SOL     OW 3958   6.327   0.793   1.317
 1020SOL    HW1 3959   6.298   0.706   1.276
 1020SOL    HW2 3960   6.418   0.817   1.283
 1021SOL     OW 3961   5.653   6.880   1.753
 1021SOL    HW1 3962   5.612   6.925   1.674
 1021SOL    HW2 3963   5.632   6.783   1.751
 1022SOL     OW 3964   2.865   4.773   5.325
 1022SOL    HW1 3965   2.865   4.699   5.258
 1022SOL    HW2 3966   2.778   4.775   5.374
 1023SOL     OW 3967   0.480   0.897   2.747
 1023SOL    HW1 3968   0.455   0.884   2.651
 1023SOL    HW2 3969   0.476   0.809   2.794
 1024SOL     OW 3970   0.677   2.773   4.145
 1024SOL    HW1 3971   0.686   2.761   4.046
 1024SOL    HW2 3972   0.613   2.705   4.181
 1025SOL     OW 3973   3.361   3.353   1.278
 1025SOL    HW1 3974   3.342   3.256   1.291
 1025SOL    HW2 3975   3.448   3.376   1.322
 1026SOL     OW 3976   2.806   2.768   1.711
 1026SOL    HW1 3977   2.900   2.740   1.693
 1026SOL    HW2 3978   2.746   2.688   1.703
 1027SOL     OW 3979   3.631   6.948   2.030
 1027SOL    HW1 3980   3.534   6.941   2.051
 1027SOL    HW2 3981   3.646   6.926   1.933
 1028SOL     OW 3982   1.724   0.216   2.775
 1028SOL    HW1 3983   1.789   0.291   2.788
 1028SOL    HW2 3984   1.709   0.170   2.862
 1029SOL     OW 3985   1.045   1.331   6.225
 1029SOL    HW1 3986   1.089   1.405   6.174
 1029SOL    HW2 3987   1.115   1.272   6.266
 1030SOL     OW 3988   3.492   3.261   2.079
 1030SOL    HW1 3989   3.420   3.222   2.023
 1030SOL    HW2 3990   3.490   3.219   2.170
 1031SOL     OW 3991   4.762   3.559   1.437
 1031SOL    HW1 3992   4.698   3.625   1.475
 1031SOL    HW2 3993   4.854   3.575   1.475
 1032SOL     OW 3994   0.849   1.423   5.507
 1032SOL    HW1 3995   0.862   1.430   5.408
 1032SOL    HW2 3996   0.786   1.348   5.527
 1033SOL     OW 3997   1.126   5.298   1.169
 1033SOL    HW1 3998   1.204   5.327   1.113
 1033SOL    HW2 3999   1.110   5.366   1.241
 1034SOL     OW 4000   1.397   5.305   4.620
 1034SOL    HW1 4001   1.297   5.302   4.622
 1034SOL    HW2 4002   1.430   5.362   4.696
 1035SOL     OW 4003   6.964   1.089   5.907
 1035SOL    HW1 4004   6.980   1.185   5.931
 1035SOL    HW2 4005   6.924   1.042   5.986
 1036SOL     OW 4006   3.967   0.742   2.010
 1036SOL    HW1 4007   3.913   0.730   1.927
 1036SOL    HW2 4008   4.022   0.825   2.002
 1037SOL     OW 4009   1.327   1.379   2.755
 1037SOL    HW1 4010   1.332   1.345   2.849
 1037SOL    HW2 4011   1.418   1.379   2.714
 1038SOL     OW 4012   1.710   0.924   5.456
 1038SOL    HW1 4013   1.749   0.883   5.375
 1038SOL    HW2 4014   1.778   0.985   5.499
 1039SOL     OW 4015   3.759   3.941   4.683
 1039SOL    HW1 4016   3.753   4.037   4.710
 1039SOL    HW2 4017   3.682   3.890   4.723
 1040SOL     OW 4018   4.792   0.823   2.521
 1040SOL    HW1 4019   4.757   0.912   2.492
 1040SOL    HW2 4020   4.751   0.796   2.608
 1041SOL     OW 4021   6.890   6.519   3.357
 1041SOL    HW1 4022   6.947   6.589   3.400
 1041SOL    HW2 4023   6.834   6.560   3.286
 1042SOL     OW 4024   3.865   5.568   2.511
 1042SOL    HW1 4025   3.798   5.510   2.464
 1042SOL    HW2 4026   3.915   5.513   2.577
 1043SOL     OW 4027   3.457   2.075   3.752
 1043SOL    HW1 4028   3.550   2.099   3.779
 1043SOL    HW2 4029   3.429   2.132   3.674
 1044SOL     OW 4030   5.853   5.127   2.360
 1044SOL    HW1 4031   5.794   5.126   2.441
 1044SOL    HW2 4032   5.916   5.205   2.365
 1045SOL     OW 4033   3.975   0.524   2.191
 1045SOL    HW1 4034   3.963   0.557   2.285
 1045SOL    HW2 4035   3.977   0.602   2.128
 1046SOL     OW 4036   1.821   1.142   0.190
 1046SOL    HW1 4037   1.921   1.140   0.188
 1046SOL    HW2 4038   1.784   1.064   0.139
 1047SOL     OW 4039   2.353   7.013   3.604
 1047SOL    HW1 4040   2.296   6.961   3.541
 1047SOL    HW2 4041   2.386   0.066   3.559
 1048SOL     OW 4042   3.481   6.316   2.948
 1048SOL    HW1 4043   3.456   6.346   3.040
 1048SOL    HW2 4044   3.483   6.396   2.887
 1049SOL     OW 4045   6.718   6.618   3.882
 1049SOL    HW1 4046   6.647   6.599   3.950
 1049SOL    HW2 4047   6.685   6.592   3.792
 1050SOL     OW 4048   3.463   5.116   2.272
 1050SOL    HW1 4049   3.551   5.129   2.227
 1050SOL    HW2 4050   3.438   5.200   2.322
 1051SOL     OW 4051   0.484   5.258   0.680
 1051SOL    HW1 4052   0.428   5.285   0.601
 1051SOL    HW2 4053   0.511   5.340   0.731
 1052SOL     OW 4054   4.493   0.994   5.390
 1052SOL    HW1 4055   4.531   0.956   5.474
 1052SOL    HW2 4056   4.435   1.073   5.412
 1053SOL     OW 4057   5.715   3.928   3.418
 1053SOL    HW1 4058   5.702   3.881   3.506
 1053SOL    HW2 4059   5.707   4.027   3.432
 1054SOL     OW 4060   3.190   3.462   0.921
 1054SOL    HW1 4061   3.135   3.471   1.004
 1054SOL    HW2 4062   3.135   3.488   0.842
 1055SOL     OW 4063   4.149   6.723   5.337
 1055SOL    HW1 4064   4.158   6.719   5.237
 1055SOL    HW2 4065   4.151   6.819   5.366
 1056SOL     OW 4066   2.039   3.574   0.294
 1056SOL    HW1 4067   2.013   3.663   0.333
 1056SOL    HW2 4068   2.036   3.579   0.194
 1057SOL     OW 4069   3.209   3.180   1.531
 1057SOL    HW1 4070   3.225   3.120   1.609
 1057SOL    HW2 4071   3.170   3.267   1.562
 1058SOL     OW 4072   5.546   2.685   3.453
 1058SOL    HW1 4073   5.552   2.769   3.400
 1058SOL    HW2 4074   5.450   2.658   3.461
 1059SOL     OW 4075   2.166   0.733   2.078
 1059SOL    HW1 4076   2.179   0.659   2.145
 1059SOL    HW2 4077   2.232   0.722   2.003
 1060SOL     OW 4078   0.133   4.711   4.206
 1060SOL    HW1 4079   0.034   4.721   4.194
 1060SOL    HW2 4080   0.171   4.653   4.135
 1061SOL     OW 4081   6.425   3.738   6.824
 1061SOL    HW1 4082   6.456   3.735   6.919
 1061SOL    HW2 4083   6.401   3.646   6.794
 1062SOL     OW 4084   5.514   5.533   5.775
 1062SOL    HW1 4085   5.502   5.437   5.797
 1062SOL    HW2 4086   5.434   5.565   5.723
 1063SOL     OW 4087   1.286   5.375   0.691
 1063SOL    HW1 4088   1.252   5.410   0.604
 1063SOL    HW2 4089   1.240   5.290   0.714
 1064SOL     OW 4090   1.501   4.764   3.172
 1064SOL    HW1 4091   1.467   4.764   3.265
 1064SOL    HW2 4092   1.503   4.670   3.137
 1065SOL     OW 4093   4.734   0.823   3.447
 1065SOL    HW1 4094   4.684   0.847   3.363
 1065SOL    HW2 4095   4.748   0.724   3.449
 1066SOL     OW 4096   4.763   6.799   2.879
 1066SOL    HW1 4097   4.787   6.727   2.944
 1066SOL    HW2 4098   4.748   6.885   2.928
 1067SOL     OW 4099   0.671   2.801   0.213
 1067SOL    HW1 4100   0.763   2.802   0.252
 1067SOL    HW2 4101   0.649   2.891   0.178
 1068SOL     OW 4102   6.582   4.950   2.104
 1068SOL    HW1 4103   6.677   4.921   2.119
 1068SOL    HW2 4104   6.541   4.975   2.192
 1069SOL     OW 4105   4.888   5.426   0.458
 1069SOL    HW1 4106   4.924   5.334   0.439
 1069SOL    HW2 4107   4.797   5.435   0.419
 1070SOL     OW 4108   1.110   0.405   1.452
 1070SOL    HW1 4109   1.177   0.379   1.382
 1070SOL    HW2 4110   1.122   0.348   1.533
 1071SOL     OW 4111   1.317   1.013   3.983
 1071SOL    HW1 4112   1.260   1.040   4.061
 1071SOL    HW2 4113   1.349   0.919   3.998
 1072SOL     OW 4114   2.055   0.778   0.988
 1072SOL    HW1 4115   1.988   0.704   0.986
 1072SOL    HW2 4116   2.146   0.741   1.006
 1073SOL     OW 4117   5.023   0.593   3.683
 1073SOL    HW1 4118   5.095   0.660   3.666
 1073SOL    HW2 4119   4.939   0.640   3.709
 1074SOL     OW 4120   2.364   5.523   1.522
 1074SOL    HW1 4121   2.323   5.614   1.524
 1074SOL    HW2 4122   2.386   5.493   1.615
 1075SOL     OW 4123   5.134   6.992   3.375
 1075SOL    HW1 4124   5.087   0.050   3.375
 1075SOL    HW2 4125   5.218   6.998   3.429
 1076SOL     OW 4126   1.118   2.482   5.549
 1076SOL    HW1 4127   1.159   2.531   5.626
 1076SOL    HW2 4128   1.102   2.387   5.574
 1077SOL     OW 4129   6.151   7.021   0.462
 1077SOL    HW1 4130   6.227   0.005   0.525
 1077SOL    HW2 4131   6.132   6.923   0.453
 1078SOL     OW 4132   6.849   0.755   2.530
 1078SOL    HW1 4133   6.754   0.779   2.550
 1078SOL    HW2 4134   6.893   0.830   2.481
 1079SOL     OW 4135   1.439   6.229   2.239
 1079SOL    HW1 4136   1.485   6.317   2.225
 1079SOL    HW2 4137   1.406   6.195   2.151
 1080SOL     OW 4138   2.183   5.383   3.645
 1080SOL    HW1 4139   2.173   5.375   3.744
 1080SOL    HW2 4140   2.097   5.361   3.601
 1081SOL     OW 4141   6.747   5.032   5.115
 1081SOL    HW1 4142   6.816   5.012   5.046
 1081SOL    HW2 4143   6.786   5.090   5.186
 1082SOL     OW 4144   5.301   2.590   5.362
 1082SOL    HW1 4145   5.300   2.500   5.405
 1082SOL    HW2 4146   5.256   2.584   5.273
 1083SOL     OW 4147   4.379   4.246   0.397
 1083SOL    HW1 4148   4.358   4.150   0.416
 1083SOL    HW2 4149   4.381   4.298   0.482
 1084SOL     OW 4150   6.173   6.306   6.524
 1084SOL    HW1 4151   6.208   6.316   6.430
 1084SOL    HW2 4152   6.193   6.214   6.557
 1085SOL     OW 4153   1.447   3.781   4.717
 1085SOL    HW1 4154   1.478   3.736   4.801
 1085SOL    HW2 4155   1.367   3.733   4.682
 1086SOL     OW 4156   0.191   4.623   0.274
 1086SOL    HW1 4157   0.108   4.678   0.282
 1086SOL    HW2 4158   0.184   4.563   0.194
 1087SOL     OW 4159   0.229   2.466   5.169
 1087SOL    HW1 4160   0.178   2.481   5.253
 1087SOL    HW2 4161   0.198   2.530   5.099
 1088SOL     OW 4162   0.400   3.339   2.527
 1088SOL    HW1 4163   0.423   3.435   2.546
 1088SOL    HW2 4164   0.407   3.322   2.428
 1089SOL     OW 4165   6.916   6.046   4.603
 1089SOL    HW1 4166   6.888   6.129   4.651
 1089SOL    HW2 4167   6.877   6.046   4.511
 1090SOL     OW 4168   2.962   1.600   3.523
 1090SOL    HW1 4169   3.022   1.650   3.460
 1090SOL    HW2 4170   2.951   1.653   3.608
 1091SOL     OW 4171   2.696   2.092   4.756
 1091SOL    HW1 4172   2.674   2.189   4.765
 1091SOL    HW2 4173   2.769   2.069   4.820
 1092SOL     OW 4174   0.989   4.559   0.378
 1092SOL    HW1 4175   0.956   4.513   0.461
 1092SOL    HW2 4176   0.912   4.604   0.332
 1093SOL     OW 4177   2.457   0.208   1.570
 1093SOL    HW1 4178   2.466   0.249   1.661
 1093SOL    HW2 4179   2.514   0.259   1.505
 1094SOL     OW 4180   1.382   0.090   3.153
 1094SOL    HW1 4181   1.387   0.020   3.225
 1094SOL    HW2 4182   1.431   0.172   3.183
 1095SOL     OW 4183   1.084   2.867   6.069
 1095SOL    HW1 4184   1.087   2.798   6.141
 1095SOL    HW2 4185   1.164   2.857   6.010
 1096SOL     OW 4186   3.382   4.289   1.587
 1096SOL    HW1 4187   3.403   4.206   1.535
 1096SOL    HW2 4188   3.458   4.309   1.649
 1097SOL     OW 4189   2.762   4.722   4.085
 1097SOL    HW1 4190   2.712   4.697   4.168
 1097SOL    HW2 4191   2.715   4.683   4.006
 1098SOL     OW 4192   4.470   3.672   0.014
 1098SOL    HW1 4193   4.379   3.684   0.055
 1098SOL    HW2 4194   4.460   3.621   6.959
 1099SOL     OW 4195   3.471   0.906   5.892
 1099SOL    HW1 4196   3.462   0.986   5.952
 1099SOL    HW2 4197   3.458   0.822   5.946
 1100SOL     OW 4198   4.116   1.632   5.003
 1100SOL    HW1 4199   4.065   1.707   5.047
 1100SOL    HW2 4200   4.089   1.625   4.907
 1101SOL     OW 4201   5.642   3.032   5.796
 1101SOL    HW1 4202   5.616   2.964   5.728
 1101SOL    HW2 4203   5.655   2.987   5.885
 1102SOL     OW 4204   0.931   0.709   4.710
 1102SOL    HW1 4205   0.874   0.684   4.631
 1102SOL    HW2 4206   1.014   0.654   4.710
 1103SOL     OW 4207   3.989   1.410   0.256
 1103SOL    HW1 4208   3.950   1.362   0.335
 1103SOL    HW2 4209   4.075   1.366   0.230
 1104SOL     OW 4210   2.135   3.373   4.905
 1104SOL    HW1 4211   2.155   3.380   4.807
 1104SOL    HW2 4212   2.094   3.284   4.925
 1105SOL     OW 4213   5.833   3.213   4.609
 1105SOL    HW1 4214   5.852   3.309   4.631
 1105SOL    HW2 4215   5.741   3.205   4.571
 1106SOL     OW 4216   0.255   2.481   0.767
 1106SOL    HW1 4217   0.247   2.399   0.823
 1106SOL    HW2 4218   0.315   2.463   0.690
 1107SOL     OW 4219   1.126   0.245   6.804
 1107SOL    HW1 4220   1.149   0.230   6.900
 1107SOL    HW2 4221   1.089   0.338   6.793
 1108SOL     OW 4222   3.435   6.785   5.753
 1108SOL    HW1 4223   3.371   6.744   5.687
 1108SOL    HW2 4224   3.507   6.719   5.775
 1109SOL     OW 4225   5.217   0.738   3.586
 1109SOL    HW1 4226   5.245   0.832   3.564
 1109SOL    HW2 4227   5.233   0.679   3.506
 1110SOL     OW 4228   4.123   2.133   3.215
 1110SOL    HW1 4229   4.153   2.155   3.122
 1110SOL    HW2 4230   4.155   2.041   3.238
 1111SOL     OW 4231   5.040   5.867   7.026
 1111SOL    HW1 4232   5.140   5.863   7.029
 1111SOL    HW2 4233   5.004   5.778   7.000
 1112SOL     OW 4234   5.423   0.881   2.280
 1112SOL    HW1 4235   5.427   0.967   2.332
 1112SOL    HW2 4236   5.513   0.837   2.282
 1113SOL     OW 4237   5.915   4.201   1.511
 1113SOL    HW1 4238   5.971   4.228   1.433
 1113SOL    HW2 4239   5.961   4.127   1.560
 1114SOL     OW 4240   3.035   1.410   5.831
 1114SOL    HW1 4241   3.047   1.313   5.808
 1114SOL    HW2 4242   3.093   1.466   5.772
 1115SOL     OW 4243   3.714   3.589   6.258
 1115SOL    HW1 4244   3.753   3.570   6.168
 1115SOL    HW2 4245   3.650   3.517   6.283
 1116SOL     OW 4246   4.458   6.445   5.720
 1116SOL    HW1 4247   4.481   6.386   5.797
 1116SOL    HW2 4248   4.480   6.540   5.743
 1117SOL     OW 4249   2.064   1.977   1.941
 1117SOL    HW1 4250   1.971   1.942   1.930
 1117SOL    HW2 4251   2.060   2.073   1.970
 1118SOL     OW 4252   2.504   4.489   0.864
 1118SOL    HW1 4253   2.565   4.569   0.864
 1118SOL    HW2 4254   2.479   4.466   0.770
 1119SOL     OW 4255   4.128   4.513   1.737
 1119SOL    HW1 4256   4.221   4.549   1.745
 1119SOL    HW2 4257   4.064   4.588   1.720
 1120SOL     OW 4258   5.719   5.716   0.696
 1120SOL    HW1 4259   5.622   5.737   0.680
 1120SOL    HW2 4260   5.774   5.796   0.673
 1121SOL     OW 4261   6.707   4.529   4.703
 1121SOL    HW1 4262   6.607   4.525   4.705
 1121SOL    HW2 4263   6.736   4.621   4.676
 1122SOL     OW 4264   5.070   2.623   1.595
 1122SOL    HW1 4265   5.047   2.527   1.610
 1122SOL    HW2 4266   5.147   2.648   1.654
 1123SOL     OW 4267   4.767   2.226   3.039
 1123SOL    HW1 4268   4.699   2.242   2.967
 1123SOL    HW2 4269   4.855   2.204   2.999
 1124SOL     OW 4270   0.088   3.381   5.508
 1124SOL    HW1 4271   0.110   3.304   5.449
 1124SOL    HW2 4272   0.067   3.461   5.452
 1125SOL     OW 4273   2.621   1.880   3.685
 1125SOL    HW1 4274   2.630   1.819   3.764
 1125SOL    HW2 4275   2.700   1.868   3.625
 1126SOL     OW 4276   5.589   5.876   6.608
 1126SOL    HW1 4277   5.612   5.868   6.511
 1126SOL    HW2 4278   5.493   5.851   6.621
 1127SOL     OW 4279   5.446   6.264   4.219
 1127SOL    HW1 4280   5.485   6.289   4.307
 1127SOL    HW2 4281   5.482   6.325   4.148
 1128SOL     OW 4282   6.275   1.407   4.011
 1128SOL    HW1 4283   6.229   1.322   3.987
 1128SOL    HW2 4284   6.350   1.424   3.946
 1129SOL     OW 4285   1.819   0.029   0.469
 1129SOL    HW1 4286   1.761   0.014   0.550
 1129SOL    HW2 4287   1.891   0.094   0.492
 1130SOL     OW 4288   2.313   5.153   0.887
 1130SOL    HW1 4289   2.346   5.246   0.905
 1130SOL    HW2 4290   2.237   5.133   0.948
 1131SOL     OW 4291   1.049   6.404   5.692
 1131SOL    HW1 4292   1.135   6.357   5.711
 1131SOL    HW2 4293   1.003   6.425   5.778
 1132SOL     OW 4294   5.272   0.295   2.723
 1132SOL    HW1 4295   5.364   0.280   2.760
 1132SOL    HW2 4296   5.204   0.276   2.794
 1133SOL     OW 4297   1.270   0.987   0.205
 1133SOL    HW1 4298   1.259   0.953   0.111
 1133SOL    HW2 4299   1.229   0.922   0.269
 1134SOL     OW 4300   5.193   6.685   2.616
 1134SOL    HW1 4301   5.249   6.670   2.535
 1134SOL    HW2 4302   5.158   6.779   2.615
 1135SOL     OW 4303   2.913   6.704   3.660
 1135SOL    HW1 4304   2.836   6.641   3.651
 1135SOL    HW2 4305   2.929   6.750   3.572
 1136SOL     OW 4306   4.409   4.737   3.517
 1136SOL    HW1 4307   4.456   4.649   3.517
 1136SOL    HW2 4308   4.409   4.775   3.425
 1137SOL     OW 4309   1.496   6.863   0.323
 1137SOL    HW1 4310   1.430   6.907   0.384
 1137SOL    HW2 4311   1.560   6.932   0.289
 1138SOL     OW 4312   0.226   0.795   6.249
 1138SOL    HW1 4313   0.137   0.797   6.295
 1138SOL    HW2 4314   0.227   0.862   6.174
 1139SOL     OW 4315   3.212   4.911   2.816
 1139SOL    HW1 4316   3.129   4.881   2.769
 1139SOL    HW2 4317   3.292   4.889   2.759
 1140SOL     OW 4318   2.623   0.844   2.492
 1140SOL    HW1 4319   2.647   0.843   2.395
 1140SOL    HW2 4320   2.655   0.759   2.535
 1141SOL     OW 4321   0.715   6.218   0.161
 1141SOL    HW1 4322   0.680   6.149   0.097
 1141SOL    HW2 4323   0.783   6.177   0.221
 1142SOL     OW 4324   3.477   0.061   3.630
 1142SOL    HW1 4325   3.463   7.018   3.697
 1142SOL    HW2 4326   3.481   0.149   3.676
 1143SOL     OW 4327   2.285   2.801   3.366
 1143SOL    HW1 4328   2.206   2.855   3.395
 1143SOL    HW2 4329   2.301   2.818   3.268
 1144SOL     OW 4330   6.327   4.130   3.897
 1144SOL    HW1 4331   6.351   4.067   3.823
 1144SOL    HW2 4332   6.312   4.079   3.981
 1145SOL     OW 4333   6.318   3.500   1.085
 1145SOL    HW1 4334   6.267   3.579   1.117
 1145SOL    HW2 4335   6.404   3.492   1.135
 1146SOL     OW 4336   0.099   0.641   2.050
 1146SOL    HW1 4337   0.196   0.625   2.068
 1146SOL    HW2 4338   0.062   0.564   1.998
 1147SOL     OW 4339   3.416   5.773   2.175
 1147SOL    HW1 4340   3.350   5.821   2.116
 1147SOL    HW2 4341   3.441   5.832   2.252
 1148SOL     OW 4342   4.586   6.081   0.397
 1148SOL    HW1 4343   4.548   6.140   0.469
 1148SOL    HW2 4344   4.637   6.137   0.332
 1149SOL     OW 4345   6.155   2.702   2.700
 1149SOL    HW1 4346   6.162   2.789   2.652
 1149SOL    HW2 4347   6.074   2.653   2.668
 1150SOL     OW 4348   0.626   3.927   0.022
 1150SOL    HW1 4349   0.590   4.021   0.025
 1150SOL    HW2 4350   0.551   3.863   0.035
 1151SOL     OW 4351   5.708   4.635   5.676
 1151SOL    HW1 4352   5.662   4.632   5.764
 1151SOL    HW2 4353   5.713   4.543   5.638
 1152SOL     OW 4354   4.506   5.432   6.641
 1152SOL    HW1 4355   4.453   5.353   6.673
 1152SOL    HW2 4356   4.478   5.455   6.548
 1153SOL     OW 4357   0.146   0.245   2.042
 1153SOL    HW1 4358   0.225   0.306   2.047
 1153SOL    HW2 4359   0.174   0.153   2.070
 1154SOL     OW 4360   0.109   4.402   1.331
 1154SOL    HW1 4361   0.153   4.476   1.383
 1154SOL    HW2 4362   0.167   4.321   1.333
 1155SOL     OW 4363   2.468   4.902   6.237
 1155SOL    HW1 4364   2.438   4.807   6.228
 1155SOL    HW2 4365   2.562   4.904   6.270
 1156SOL     OW 4366   4.483   1.736   4.763
 1156SOL    HW1 4367   4.489   1.637   4.762
 1156SOL    HW2 4368   4.464   1.770   4.671
 1157SOL     OW 4369   5.278   1.084   6.128
 1157SOL    HW1 4370   5.278   1.170   6.077
 1157SOL    HW2 4371   5.184   1.057   6.149
 1158SOL     OW 4372   6.905   4.976   4.901
 1158SOL    HW1 4373   6.938   4.887   4.870
 1158SOL    HW2 4374   6.981   5.026   4.945
 1159SOL     OW 4375   6.668   0.223   3.717
 1159SOL    HW1 4376   6.651   0.131   3.684
 1159SOL    HW2 4377   6.722   0.219   3.801
 1160SOL     OW 4378   5.407   4.512   1.089
 1160SOL    HW1 4379   5.385   4.493   1.184
 1160SOL    HW2 4380   5.349   4.457   1.029
 1161SOL     OW 4381   6.888   5.350   5.821
 1161SOL    HW1 4382   6.860   5.324   5.914
 1161SOL    HW2 4383   6.934   5.272   5.778
 1162SOL     OW 4384   2.220   2.078   6.570
 1162SOL    HW1 4385   2.232   1.993   6.622
 1162SOL    HW2 4386   2.310   2.120   6.555
 1163SOL     OW 4387   6.659   4.190   1.602
 1163SOL    HW1 4388   6.646   4.171   1.504
 1163SOL    HW2 4389   6.580   4.240   1.636
 1164SOL     OW 4390   5.358   2.958   3.786
 1164SOL    HW1 4391   5.341   2.871   3.833
 1164SOL    HW2 4392   5.438   3.003   3.827
 1165SOL     OW 4393   3.852   5.557   3.860
 1165SOL    HW1 4394   3.835   5.648   3.821
 1165SOL    HW2 4395   3.797   5.546   3.943
 1166SOL     OW 4396   3.206   6.668   0.637
 1166SOL    HW1 4397   3.287   6.625   0.676
 1166SOL    HW2 4398   3.225   6.765   0.619
 1167SOL     OW 4399   3.839   6.701   0.698
 1167SOL    HW1 4400   3.865   6.682   0.793
 1167SOL    HW2 4401   3.774   6.777   0.696
 1168SOL     OW 4402   5.333   2.694   1.720
 1168SOL    HW1 4403   5.390   2.629   1.669
 1168SOL    HW2 4404   5.384   2.779   1.734
 1169SOL     OW 4405   4.694   2.492   5.926
 1169SOL    HW1 4406   4.599   2.503   5.895
 1169SOL    HW2 4407   4.739   2.582   5.926
 1170SOL     OW 4408   5.203   6.955   2.744
 1170SOL    HW1 4409   5.168   6.912   2.827
 1170SOL    HW2 4410   5.303   6.957   2.746
 1171SOL     OW 4411   3.117   6.721   6.924
 1171SOL    HW1 4412   3.120   6.631   6.966
 1171SOL    HW2 4413   3.124   6.713   6.825
 1172SOL     OW 4414   3.400   3.779   1.364
 1172SOL    HW1 4415   3.350   3.693   1.363
 1172SOL    HW2 4416   3.473   3.776   1.296
 1173SOL     OW 4417   3.566   0.817   0.918
 1173SOL    HW1 4418   3.654   0.805   0.964
 1173SOL    HW2 4419   3.581   0.847   0.824
 1174SOL     OW 4420   2.388   4.457   1.616
 1174SOL    HW1 4421   2.317   4.387   1.606
 1174SOL    HW2 4422   2.463   4.422   1.672
 1175SOL     OW 4423   4.094   4.777   6.340
 1175SOL    HW1 4424   4.085   4.875   6.328
 1175SOL    HW2 4425   4.049   4.730   6.264
 1176SOL     OW 4426   5.621   3.547   6.783
 1176SOL    HW1 4427   5.696   3.585   6.836
 1176SOL    HW2 4428   5.613   3.449   6.802
 1177SOL     OW 4429   0.065   3.801   4.820
 1177SOL    HW1 4430   7.005   3.845   4.816
 1177SOL    HW2 4431   0.134   3.861   4.779
 1178SOL     OW 4432   3.582   4.203   1.003
 1178SOL    HW1 4433   3.484   4.181   1.007
 1178SOL    HW2 4434   3.620   4.166   0.918
 1179SOL     OW 4435   2.678   5.615   1.061
 1179SOL    HW1 4436   2.692   5.596   1.158
 1179SOL    HW2 4437   2.583   5.641   1.046
 1180SOL     OW 4438   2.596   5.390   4.217
 1180SOL    HW1 4439   2.534   5.467   4.201
 1180SOL    HW2 4440   2.681   5.425   4.257
 1181SOL     OW 4441   0.530   5.241   4.836
 1181SOL    HW1 4442   0.611   5.298   4.825
 1181SOL    HW2 4443   0.473   5.278   4.910
 1182SOL     OW 4444   4.336   5.882   3.814
 1182SOL    HW1 4445   4.380   5.808   3.865
 1182SOL    HW2 4446   4.245   5.854   3.784
 1183SOL     OW 4447   3.155   4.441   1.146
 1183SOL    HW1 4448   3.199   4.375   1.207
 1183SOL    HW2 4449   3.070   4.402   1.110
 1184SOL     OW 4450   0.195   1.415   5.361
 1184SOL    HW1 4451   0.239   1.334   5.324
 1184SOL    HW2 4452   0.150   1.466   5.287
 1185SOL     OW 4453   1.294   0.986   0.959
 1185SOL    HW1 4454   1.343   1.022   0.880
 1185SOL    HW2 4455   1.217   0.930   0.929
 1186SOL     OW 4456   4.657   6.450   5.524
 1186SOL    HW1 4457   4.640   6.424   5.429
 1186SOL    HW2 4458   4.575   6.433   5.578
 1187SOL     OW 4459   5.005   0.480   5.658
 1187SOL    HW1 4460   5.012   0.577   5.636
 1187SOL    HW2 4461   5.077   0.455   5.723
 1188SOL     OW 4462   3.294   6.159   6.310
 1188SOL    HW1 4463   3.258   6.066   6.299
 1188SOL    HW2 4464   3.280   6.210   6.225
 1189SOL     OW 4465   5.996   1.520   1.467
 1189SOL    HW1 4466   5.929   1.505   1.394
 1189SOL    HW2 4467   6.039   1.433   1.490
 1190SOL     OW 4468   3.252   6.147   3.348
 1190SOL    HW1 4469   3.174   6.190   3.303
 1190SOL    HW2 4470   3.284   6.070   3.293
 1191SOL     OW 4471   4.245   5.374   4.964
 1191SOL    HW1 4472   4.286   5.288   4.935
 1191SOL    HW2 4473   4.271   5.447   4.900
 1192SOL     OW 4474   5.204   4.748   2.970
 1192SOL    HW1 4475   5.128   4.752   2.905
 1192SOL    HW2 4476   5.285   4.712   2.924
 1193SOL     OW 4477   0.125   2.431   5.423
 1193SOL    HW1 4478   0.078   2.358   5.474
 1193SOL    HW2 4479   0.141   2.509   5.483
 1194SOL     OW 4480   6.008   6.826   1.239
 1194SOL    HW1 4481   6.073   6.840   1.313
 1194SOL    HW2 4482   5.976   6.915   1.205
 1195SOL     OW 4483   0.100   4.097   0.868
 1195SOL    HW1 4484   0.166   4.030   0.835
 1195SOL    HW2 4485   0.143   4.187   0.873
 1196SOL     OW 4486   6.438   4.848   3.501
 1196SOL    HW1 4487   6.459   4.900   3.583
 1196SOL    HW2 4488   6.520   4.842   3.443
 1197SOL     OW 4489   4.721   6.879   4.855
 1197SOL    HW1 4490   4.632   6.925   4.858
 1197SOL    HW2 4491   4.750   6.858   4.949
 1198SOL     OW 4492   1.623   3.489   2.667
 1198SOL    HW1 4493   1.681   3.502   2.587
 1198SOL    HW2 4494   1.652   3.552   2.740
 1199SOL     OW 4495   3.729   3.668   1.686
 1199SOL    HW1 4496   3.634   3.659   1.716
 1199SOL    HW2 4497   3.786   3.601   1.733
 1200SOL     OW 4498   3.412   4.003   4.830
 1200SOL    HW1 4499   3.475   3.938   4.789
 1200SOL    HW2 4500   3.320   3.965   4.830
 1201SOL     OW 4501   1.280   1.670   3.776
 1201SOL    HW1 4502   1.349   1.706   3.839
 1201SOL    HW2 4503   1.325   1.629   3.697
 1202SOL     OW 4504   0.716   5.425   5.173
 1202SOL    HW1 4505   0.809   5.391   5.187
 1202SOL    HW2 4506   0.713   5.523   5.193
 1203SOL     OW 4507   0.478   5.783   0.055
 1203SOL    HW1 4508   0.480   5.684   0.067
 1203SOL    HW2 4509   0.386   5.818   0.075
 1204SOL     OW 4510   4.773   1.289   1.789
 1204SOL    HW1 4511   4.826   1.333   1.862
 1204SOL    HW2 4512   4.768   1.350   1.710
 1205SOL     OW 4513   3.963   3.357   1.079
 1205SOL    HW1 4514   3.865   3.370   1.093
 1205SOL    HW2 4515   4.004   3.323   1.163
 1206SOL     OW 4516   2.704   2.470   5.083
 1206SOL    HW1 4517   2.755   2.495   5.166
 1206SOL    HW2 4518   2.633   2.538   5.067
 1207SOL     OW 4519   2.111   6.480   1.182
 1207SOL    HW1 4520   2.077   6.486   1.276
 1207SOL    HW2 4521   2.184   6.411   1.178
 1208SOL     OW 4522   3.998   3.498   1.414
 1208SOL    HW1 4523   3.914   3.552   1.417
 1208SOL    HW2 4524   4.075   3.557   1.389
 1209SOL     OW 4525   4.771   0.668   3.770
 1209SOL    HW1 4526   4.783   0.764   3.798
 1209SOL    HW2 4527   4.675   0.654   3.745
 1210SOL     OW 4528   4.033   6.678   3.291
 1210SOL    HW1 4529   4.069   6.755   3.238
 1210SOL    HW2 4530   3.954   6.707   3.344
 1211SOL     OW 4531   1.036   3.587   2.706
 1211SOL    HW1 4532   1.001   3.499   2.673
 1211SOL    HW2 4533   0.959   3.647   2.727
 1212SOL     OW 4534   6.140   0.484   6.662
 1212SOL    HW1 4535   6.223   0.489   6.717
 1212SOL    HW2 4536   6.060   0.486   6.723
 1213SOL     OW 4537   5.956   2.775   1.255
 1213SOL    HW1 4538   5.938   2.722   1.172
 1213SOL    HW2 4539   5.983   2.868   1.230
 1214SOL     OW 4540   0.907   4.019   6.940
 1214SOL    HW1 4541   0.810   3.995   6.952
 1214SOL    HW2 4542   0.921   4.055   6.848
 1215SOL     OW 4543   0.968   4.629   3.639
 1215SOL    HW1 4544   0.870   4.617   3.654
 1215SOL    HW2 4545   0.991   4.726   3.638
 1216SOL     OW 4546   4.842   7.004   0.697
 1216SOL    HW1 4547   4.934   6.995   0.658
 1216SOL    HW2 4548   4.783   0.021   0.632
 1217SOL     OW 4549   2.338   4.263   1.224
 1217SOL    HW1 4550   2.261   4.218   1.270
 1217SOL    HW2 4551   2.356   4.351   1.267
 1218SOL     OW 4552   1.026   3.203   4.780
 1218SOL    HW1 4553   0.946   3.177   4.725
 1218SOL    HW2 4554   1.046   3.130   4.846
 1219SOL     OW 4555   5.191   6.020   1.866
 1219SOL    HW1 4556   5.198   6.105   1.815
 1219SOL    HW2 4557   5.228   6.033   1.958
 1220SOL     OW 4558   1.178   4.843   3.262
 1220SOL    HW1 4559   1.120   4.915   3.301
 1220SOL    HW2 4560   1.242   4.811   3.331
 1221SOL     OW 4561   4.333   4.440   6.097
 1221SOL    HW1 4562   4.314   4.394   6.184
 1221SOL    HW2 4563   4.257   4.425   6.034
 1222SOL     OW 4564   6.759   0.956   0.089
 1222SOL    HW1 4565   6.719   1.038   0.048
 1222SOL    HW2 4566   6.688   0.907   0.140
 1223SOL     OW 4567   4.292   2.067   0.266
 1223SOL    HW1 4568   4.230   1.990   0.250
 1223SOL    HW2 4569   4.308   2.115   0.180
 1224SOL     OW 4570   3.334   5.180   0.873
 1224SOL    HW1 4571   3.385   5.095   0.854
 1224SOL    HW2 4572   3.399   5.254   0.890
 1225SOL     OW 4573   3.098   3.336   6.716
 1225SOL    HW1 4574   3.156   3.265   6.755
 1225SOL    HW2 4575   3.148   3.384   6.644
 1226SOL     OW 4576   2.202   6.211   1.997
 1226SOL    HW1 4577   2.109   6.210   1.960
 1226SOL    HW2 4578   2.234   6.117   2.009
 1227SOL     OW 4579   6.634   4.682   5.702
 1227SOL    HW1 4580   6.669   4.599   5.744
 1227SOL    HW2 4581   6.699   4.714   5.632
 1228SOL     OW 4582   3.132   2.376   6.207
 1228SOL    HW1 4583   3.122   2.435   6.126
 1228SOL    HW2 4584   3.046   2.328   6.224
 1229SOL     OW 4585   3.937   5.097   6.066
 1229SOL    HW1 4586   3.967   5.118   5.973
 1229SOL    HW2 4587   4.015   5.069   6.120
 1230SOL     OW 4588   4.466   6.792   2.667
 1230SOL    HW1 4589   4.561   6.790   2.636
 1230SOL    HW2 4590   4.406   6.813   2.590
 1231SOL     OW 4591   1.703   2.463   4.449
 1231SOL    HW1 4592   1.616   2.415   4.436
 1231SOL    HW2 4593   1.753   2.420   4.524
 1232SOL     OW 4594   0.390   1.759   5.585
 1232SOL    HW1 4595   0.304   1.732   5.627
 1232SOL    HW2 4596   0.417   1.690   5.518
 1233SOL     OW 4597   1.201   4.860   4.941
 1233SOL    HW1 4598   1.111   4.899   4.925
 1233SOL    HW2 4599   1.244   4.906   5.018
 1234SOL     OW 4600   6.204   3.075   6.220
 1234SOL    HW1 4601   6.174   3.072   6.124
 1234SOL    HW2 4602   6.266   3.153   6.233
 1235SOL     OW 4603   6.794   5.571   2.805
 1235SOL    HW1 4604   6.746   5.646   2.759
 1235SOL    HW2 4605   6.757   5.484   2.775
 1236SOL     OW 4606   4.780   1.463   0.010
 1236SOL    HW1 4607   4.867   1.497   0.046
 1236SOL    HW2 4608   4.783   1.462   6.940
 1237SOL     OW 4609   2.396   4.524   6.421
 1237SOL    HW1 4610   2.305   4.565   6.430
 1237SOL    HW2 4611   2.448   4.540   6.505
 1238SOL     OW 4612   1.772   1.170   0.447
 1238SOL    HW1 4613   1.800   1.151   0.353
 1238SOL    HW2 4614   1.850   1.206   0.499
 1239SOL     OW 4615   6.916   6.988   6.365
 1239SOL    HW1 4616   6.914   0.057   6.378
 1239SOL    HW2 4617   6.834   6.948   6.406
 1240SOL     OW 4618   5.227   6.509   1.435
 1240SOL    HW1 4619   5.286   6.537   1.360
 1240SOL    HW2 4620   5.252   6.417   1.465
 1241SOL     OW 4621   5.186   3.649   4.258
 1241SOL    HW1 4622   5.242   3.718   4.304
 1241SOL    HW2 4623   5.101   3.637   4.308
 1242SOL     OW 4624   0.523   3.319   1.774
 1242SOL    HW1 4625   0.427   3.321   1.747
 1242SOL    HW2 4626   0.535   3.366   1.861
 1243SOL     OW 4627   6.824   6.643   4.642
 1243SOL    HW1 4628   6.790   6.702   4.569
 1243SOL    HW2 4629   6.765   6.651   4.722
 1244SOL     OW 4630   6.121   0.157   4.392
 1244SOL    HW1 4631   6.055   0.218   4.436
 1244SOL    HW2 4632   6.136   0.077   4.449
 1245SOL     OW 4633   5.103   5.202   0.624
 1245SOL    HW1 4634   5.043   5.193   0.545
 1245SOL    HW2 4635   5.091   5.293   0.665
 1246SOL     OW 4636   2.353   6.521   1.381
 1246SOL    HW1 4637   2.326   6.438   1.330
 1246SOL    HW2 4638   2.390   6.588   1.317
 1247SOL     OW 4639   1.847   6.985   6.673
 1247SOL    HW1 4640   1.848   0.055   6.672
 1247SOL    HW2 4641   1.816   6.953   6.762
 1248SOL     OW 4642   2.172   6.779   5.217
 1248SOL    HW1 4643   2.210   6.847   5.279
 1248SOL    HW2 4644   2.234   6.764   5.140
 1249SOL     OW 4645   6.513   1.960   2.513
 1249SOL    HW1 4646   6.562   1.879   2.481
 1249SOL    HW2 4647   6.455   1.996   2.439
 1250SOL     OW 4648   5.808   5.574   4.204
 1250SOL    HW1 4649   5.739   5.523   4.154
 1250SOL    HW2 4650   5.885   5.515   4.226
 1251SOL     OW 4651   2.973   0.657   3.790
 1251SOL    HW1 4652   2.938   0.663   3.883
 1251SOL    HW2 4653   3.029   0.574   3.781
 1252SOL     OW 4654   4.310   3.817   6.018
 1252SOL    HW1 4655   4.240   3.837   5.949
 1252SOL    HW2 4656   4.294   3.873   6.099
 1253SOL     OW 4657   2.948   5.709   2.678
 1253SOL    HW1 4658   2.871   5.665   2.725
 1253SOL    HW2 4659   2.991   5.776   2.739
 1254SOL     OW 4660   1.157   2.477   2.246
 1254SOL    HW1 4661   1.093   2.493   2.171
 1254SOL    HW2 4662   1.106   2.477   2.333
 1255SOL     OW 4663   6.570   1.941   5.241
 1255SOL    HW1 4664   6.587   2.006   5.167
 1255SOL    HW2 4665   6.567   1.989   5.328
 1256SOL     OW 4666   6.753   6.282   3.454
 1256SOL    HW1 4667   6.795   6.371   3.436
 1256SOL    HW2 4668   6.783   6.248   3.543
 1257SOL     OW 4669   0.178   6.137   5.332
 1257SOL    HW1 4670   0.250   6.069   5.314
 1257SOL    HW2 4671   0.124   6.150   5.249
 1258SOL     OW 4672   1.675   5.204   3.505
 1258SOL    HW1 4673   1.654   5.117   3.551
 1258SOL    HW2 4674   1.602   5.225   3.440
 1259SOL     OW 4675   4.120   1.085   4.302
 1259SOL    HW1 4676   4.146   0.994   4.272
 1259SOL    HW2 4677   4.088   1.139   4.223
 1260SOL     OW 4678   1.875   1.625   0.288
 1260SOL    HW1 4679   1.880   1.627   0.387
 1260SOL    HW2 4680   1.918   1.541   0.254
 1261SOL     OW 4681   0.442   5.717   6.597
 1261SOL    HW1 4682   0.425   5.747   6.691
 1261SOL    HW2 4683   0.526   5.662   6.594
 1262SOL     OW 4684   5.258   4.592   1.438
 1262SOL    HW1 4685   5.345   4.620   1.396
 1262SOL    HW2 4686   5.235   4.657   1.511
 1263SOL     OW 4687   0.456   2.118   2.245
 1263SOL    HW1 4688   0.471   2.021   2.227
 1263SOL    HW2 4689   0.371   2.147   2.203
 1264SOL     OW 4690   6.065   4.519   0.466
 1264SOL    HW1 4691   6.074   4.524   0.367
 1264SOL    HW2 4692   6.083   4.609   0.506
 1265SOL     OW 4693   5.719   5.368   4.706
 1265SOL    HW1 4694   5.742   5.319   4.622
 1265SOL    HW2 4695   5.640   5.324   4.749
 1266SOL     OW 4696   0.505   1.326   4.180
 1266SOL    HW1 4697   0.435   1.332   4.250
 1266SOL    HW2 4698   0.536   1.418   4.155
 1267SOL     OW 4699   5.472   0.960   1.100
 1267SOL    HW1 4700   5.569   0.938   1.093
 1267SOL    HW2 4701   5.454   1.046   1.052
 1268SOL     OW 4702   3.200   2.833   6.808
 1268SOL    HW1 4703   3.110   2.838   6.852
 1268SOL    HW2 4704   3.268   2.802   6.875
 1269SOL     OW 4705   6.126   3.899   4.391
 1269SOL    HW1 4706   6.212   3.946   4.372
 1269SOL    HW2 4707   6.121   3.816   4.335
 1270SOL     OW 4708   1.631   3.972   2.901
 1270SOL    HW1 4709   1.566   3.973   2.977
 1270SOL    HW2 4710   1.583   3.946   2.817
 1271SOL     OW 4711   3.735   1.742   2.320
 1271SOL    HW1 4712   3.643   1.709   2.338
 1271SOL    HW2 4713   3.786   1.674   2.268
 1272SOL     OW 4714   5.483   4.317   0.021
 1272SOL    HW1 4715   5.507   4.221   0.006
 1272SOL    HW2 4716   5.389   4.333   7.021
 1273SOL     OW 4717   0.504   3.493   6.786
 1273SOL    HW1 4718   0.599   3.510   6.811
 1273SOL    HW2 4719   0.471   3.412   6.833
 1274SOL     OW 4720   6.917   4.479   1.061
 1274SOL    HW1 4721   6.913   4.379   1.054
 1274SOL    HW2 4722   7.011   4.510   1.049
 1275SOL     OW 4723   4.218   1.474   3.874
 1275SOL    HW1 4724   4.256   1.409   3.809
 1275SOL    HW2 4725   4.287   1.498   3.942
 1276SOL     OW 4726   6.272   5.226   4.855
 1276SOL    HW1 4727   6.289   5.225   4.954
 1276SOL    HW2 4728   6.333   5.160   4.810
 1277SOL     OW 4729   1.849   5.791   6.382
 1277SOL    HW1 4730   1.905   5.760   6.459
 1277SOL    HW2 4731   1.842   5.719   6.314
 1278SOL     OW 4732   1.192   0.003   5.001
 1278SOL    HW1 4733   1.142   0.088   5.015
 1278SOL    HW2 4734   1.275   0.004   5.056
 1279SOL     OW 4735   1.682   5.051   6.981
 1279SOL    HW1 4736   1.781   5.042   6.994
 1279SOL    HW2 4737   1.644   4.962   6.957
 1280SOL     OW 4738   4.258   0.159   4.265
 1280SOL    HW1 4739   4.286   0.089   4.200
 1280SOL    HW2 4740   4.336   0.217   4.289
 1281SOL     OW 4741   2.754   5.955   3.164
 1281SOL    HW1 4742   2.779   5.971   3.259
 1281SOL    HW2 4743   2.714   5.864   3.155
 1282SOL     OW 4744   6.522   2.257   6.524
 1282SOL    HW1 4745   6.547   2.217   6.436
 1282SOL    HW2 4746   6.424   2.272   6.528
 1283SOL     OW 4747   6.608   3.459   4.926
 1283SOL    HW1 4748   6.651   3.546   4.902
 1283SOL    HW2 4749   6.642   3.387   4.865
 1284SOL     OW 4750   4.637   2.067   1.825
 1284SOL    HW1 4751   4.580   2.130   1.879
 1284SOL    HW2 4752   4.664   1.990   1.882
 1285SOL     OW 4753   4.639   1.946   5.952
 1285SOL    HW1 4754   4.606   1.864   5.998
 1285SOL    HW2 4755   4.727   1.973   5.992
 1286SOL     OW 4756   4.404   3.739   1.191
 1286SOL    HW1 4757   4.371   3.699   1.106
 1286SOL    HW2 4758   4.378   3.680   1.268
 1287SOL     OW 4759   5.495   4.326   5.233
 1287SOL    HW1 4760   5.418   4.270   5.205
 1287SOL    HW2 4761   5.556   4.342   5.155
 1288SOL     OW 4762   3.499   3.450   6.544
 1288SOL    HW1 4763   3.559   3.490   6.614
 1288SOL    HW2 4764   3.546   3.452   6.456
 1289SOL     OW 4765   0.133   6.929   0.887
 1289SOL    HW1 4766   0.200   6.991   0.926
 1289SOL    HW2 4767   0.166   6.895   0.798
 1290SOL     OW 4768   1.002   6.412   0.352
 1290SOL    HW1 4769   0.990   6.499   0.398
 1290SOL    HW2 4770   1.046   6.427   0.263
 1291SOL     OW 4771   0.714   4.581   3.814
 1291SOL    HW1 4772   0.689   4.487   3.794
 1291SOL    HW2 4773   0.654   4.618   3.885
 1292SOL     OW 4774   0.657   5.576   2.413
 1292SOL    HW1 4775   0.697   5.630   2.488
 1292SOL    HW2 4776   0.631   5.486   2.447
 1293SOL     OW 4777   1.984   2.342   6.956
 1293SOL    HW1 4778   1.991   2.258   7.011
 1293SOL    HW2 4779   1.989   2.319   6.859
 1294SOL     OW 4780   0.308   4.017   5.804
 1294SOL    HW1 4781   0.261   3.930   5.788
 1294SOL    HW2 4782   0.356   4.012   5.892
 1295SOL     OW 4783   0.004   3.525   1.358
 1295SOL    HW1 4784   0.002   3.614   1.405
 1295SOL    HW2 4785   7.026   3.540   1.259
 1296SOL     OW 4786   3.716   6.201   5.226
 1296SOL    HW1 4787   3.770   6.278   5.192
 1296SOL    HW2 4788   3.690   6.218   5.321
 1297SOL     OW 4789   0.546   0.014   1.133
 1297SOL    HW1 4790   0.554   6.994   1.219
 1297SOL    HW2 4791   0.625   7.025   1.075
 1298SOL     OW 4792   5.134   5.561   3.692
 1298SOL    HW1 4793   5.054   5.523   3.738
 1298SOL    HW2 4794   5.215   5.549   3.750
 1299SOL     OW 4795   2.297   2.407   3.683
 1299SOL    HW1 4796   2.371   2.354   3.642
 1299SOL    HW2 4797   2.335   2.485   3.733
 1300SOL     OW 4798   1.862   3.089   0.334
 1300SOL    HW1 4799   1.792   3.024   0.307
 1300SOL    HW2 4800   1.906   3.127   0.252
 1301SOL     OW 4801   0.468   6.485   1.837
 1301SOL    HW1 4802   0.470   6.485   1.937
 1301SOL    HW2 4803   0.517   6.565   1.803
 1302SOL     OW 4804   4.780   6.723   5.410
 1302SOL    HW1 4805   4.708   6.690   5.472
 1302SOL    HW2 4806   4.864   6.670   5.426
 1303SOL     OW 4807   3.947   1.501   1.367
 1303SOL    HW1 4808   3.977   1.579   1.422
 1303SOL    HW2 4809   4.020   1.475   1.303
 1304SOL     OW 4810   1.510   0.318   0.438
 1304SOL    HW1 4811   1.576   0.259   0.391
 1304SOL    HW2 4812   1.552   0.355   0.521
 1305SOL     OW 4813   5.548   3.754   0.380
 1305SOL    HW1 4814   5.513   3.677   0.434
 1305SOL    HW2 4815   5.632   3.787   0.422
 1306SOL     OW 4816   1.451   5.993   3.806
 1306SOL    HW1 4817   1.492   6.071   3.759
 1306SOL    HW2 4818   1.465   6.004   3.905
 1307SOL     OW 4819   2.181   4.166   3.912
 1307SOL    HW1 4820   2.203   4.199   4.004
 1307SOL    HW2 4821   2.151   4.242   3.856
 1308SOL     OW 4822   6.408   0.236   5.947
 1308SOL    HW1 4823   6.315   0.201   5.956
 1308SOL    HW2 4824   6.445   0.212   5.857
 1309SOL     OW 4825   5.793   5.322   5.581
 1309SOL    HW1 4826   5.747   5.234   5.563
 1309SOL    HW2 4827   5.880   5.305   5.627
 1310SOL     OW 4828   0.166   3.593   3.540
 1310SOL    HW1 4829   0.206   3.506   3.567
 1310SOL    HW2 4830   0.147   3.648   3.622
 1311SOL     OW 4831   6.611   5.673   5.999
 1311SOL    HW1 4832   6.665   5.607   6.050
 1311SOL    HW2 4833   6.645   5.678   5.905
 1312SOL     OW 4834   1.508   6.822   0.049
 1312SOL    HW1 4835   1.491   6.732   0.010
 1312SOL    HW2 4836   1.488   6.820   0.147
 1313SOL     OW 4837   7.020   4.525   2.821
 1313SOL    HW1 4838   0.047   4.464   2.765
 1313SOL    HW2 4839   0.048   4.591   2.868
 1314SOL     OW 4840   3.967   1.635   4.510
 1314SOL    HW1 4841   4.009   1.583   4.584
 1314SOL    HW2 4842   4.011   1.725   4.503
 1315SOL     OW 4843   0.368   1.898   2.690
 1315SOL    HW1 4844   0.425   1.971   2.728
 1315SOL    HW2 4845   0.360   1.824   2.756
 1316SOL     OW 4846   3.277   6.791   6.004
 1316SOL    HW1 4847   3.303   6.882   6.038
 1316SOL    HW2 4848   3.284   6.790   5.904
 1317SOL     OW 4849   2.130   4.316   6.179
 1317SOL    HW1 4850   2.091   4.243   6.234
 1317SOL    HW2 4851   2.141   4.285   6.085
 1318SOL     OW 4852   0.830   2.644   0.993
 1318SOL    HW1 4853   0.904   2.661   1.058
 1318SOL    HW2 4854   0.858   2.573   0.928
 1319SOL     OW 4855   0.032   6.064   1.144
 1319SOL    HW1 4856   0.068   6.154   1.169
 1319SOL    HW2 4857   0.067   5.996   1.209
 1320SOL     OW 4858   3.876   4.434   6.608
 1320SOL    HW1 4859   3.824   4.505   6.657
 1320SOL    HW2 4860   3.934   4.385   6.673
 1321SOL     OW 4861   5.170   2.919   6.514
 1321SOL    HW1 4862   5.100   2.984   6.542
 1321SOL    HW2 4863   5.229   2.898   6.592
 1322SOL     OW 4864   4.175   1.744   3.925
 1322SOL    HW1 4865   4.183   1.650   3.892
 1322SOL    HW2 4866   4.082   1.761   3.955
 1323SOL     OW 4867   3.851   6.708   6.262
 1323SOL    HW1 4868   3.869   6.734   6.167
 1323SOL    HW2 4869   3.820   6.613   6.266
 1324SOL     OW 4870   0.456   3.444   0.192
 1324SOL    HW1 4871   0.452   3.500   0.275
 1324SOL    HW2 4872   0.540   3.465   0.142
 1325SOL     OW 4873   2.901   6.348   4.666
 1325SOL    HW1 4874   2.851   6.364   4.751
 1325SOL    HW2 4875   2.951   6.262   4.673
 1326SOL     OW 4876   5.261   3.160   4.856
 1326SOL    HW1 4877   5.252   3.221   4.935
 1326SOL    HW2 4878   5.345   3.181   4.807
 1327SOL     OW 4879   1.109   6.174   1.220
 1327SOL    HW1 4880   1.118   6.240   1.295
 1327SOL    HW2 4881   1.138   6.217   1.134
 1328SOL     OW 4882   2.887   3.114   0.711
 1328SOL    HW1 4883   2.880   3.116   0.810
 1328SOL    HW2 4884   2.973   3.071   0.684
 1329SOL     OW 4885   1.105   2.047   1.983
 1329SOL    HW1 4886   1.039   2.098   2.039
 1329SOL    HW2 4887   1.073   1.953   1.972
 1330SOL     OW 4888   1.240   1.285   1.382
 1330SOL    HW1 4889   1.232   1.250   1.475
 1330SOL    HW2 4890   1.337   1.296   1.358
 1331SOL     OW 4891   4.960   2.967   2.894
 1331SOL    HW1 4892   4.917   2.957   2.804
 1331SOL    HW2 4893   4.970   3.064   2.916
 1332SOL     OW 4894   2.752   0.124   0.300
 1332SOL    HW1 4895   2.738   0.056   0.228
 1332SOL    HW2 4896   2.663   0.150   0.338
 1333SOL     OW 4897   2.909   3.489   3.537
 1333SOL    HW1 4898   2.923   3.491   3.636
 1333SOL    HW2 4899   2.906   3.583   3.501
 1334SOL     OW 4900   6.488   1.684   3.720
 1334SOL    HW1 4901   6.480   1.596   3.766
 1334SOL    HW2 4902   6.535   1.672   3.633
 1335SOL     OW 4903   2.872   1.843   2.082
 1335SOL    HW1 4904   2.804   1.806   2.020
 1335SOL    HW2 4905   2.916   1.923   2.040
 1336SOL     OW 4906   2.303   2.155   5.095
 1336SOL    HW1 4907   2.397   2.178   5.069
 1336SOL    HW2 4908   2.295   2.153   5.195
 1337SOL     OW 4909   1.190   1.584   3.173
 1337SOL    HW1 4910   1.289   1.584   3.183
 1337SOL    HW2 4911   1.150   1.517   3.235
 1338SOL     OW 4912   0.142   2.782   4.578
 1338SOL    HW1 4913   0.070   2.783   4.647
 1338SOL    HW2 4914   0.141   2.694   4.530
 1339SOL     OW 4915   6.659   1.771   0.078
 1339SOL    HW1 4916   6.755   1.798   0.087
 1339SOL    HW2 4917   6.612   1.787   0.165
 1340SOL     OW 4918   5.634   2.048   2.371
 1340SOL    HW1 4919   5.582   2.125   2.334
 1340SOL    HW2 4920   5.628   2.049   2.471
 1341SOL     OW 4921   4.018   6.626   6.723
 1341SOL    HW1 4922   4.040   6.665   6.633
 1341SOL    HW2 4923   4.101   6.588   6.764
 1342SOL     OW 4924   3.193   5.914   6.214
 1342SOL    HW1 4925   3.203   5.955   6.124
 1342SOL    HW2 4926   3.151   5.824   6.205
 1343SOL     OW 4927   5.040   5.329   2.691
 1343SOL    HW1 4928   4.966   5.267   2.665
 1343SOL    HW2 4929   5.004   5.400   2.752
 1344SOL     OW 4930   0.140   6.008   4.553
 1344SOL    HW1 4931   0.196   6.084   4.587
 1344SOL    HW2 4932   0.045   6.021   4.582
 1345SOL     OW 4933   0.968   6.118   2.677
 1345SOL    HW1 4934   0.900   6.117   2.603
 1345SOL    HW2 4935   1.041   6.182   2.653
 1346SOL     OW 4936   1.365   6.072   4.316
 1346SOL    HW1 4937   1.295   6.128   4.272
 1346SOL    HW2 4938   1.455   6.097   4.280
 1347SOL     OW 4939   0.029   6.920   5.967
 1347SOL    HW1 4940   0.052   6.963   5.880
 1347SOL    HW2 4941   6.976   6.865   5.955
 1348SOL     OW 4942   5.909   6.561   4.264
 1348SOL    HW1 4943   5.982   6.540   4.329
 1348SOL    HW2 4944   5.929   6.648   4.219
 1349SOL     OW 4945   5.386   3.262   5.321
 1349SOL    HW1 4946   5.438   3.194   5.373
 1349SOL    HW2 4947   5.427   3.273   5.230
 1350SOL     OW 4948   5.150   5.350   5.495
 1350SOL    HW1 4949   5.205   5.332   5.414
 1350SOL    HW2 4950   5.202   5.407   5.559
 1351SOL     OW 4951   6.290   1.870   2.681
 1351SOL    HW1 4952   6.307   1.902   2.774
 1351SOL    HW2 4953   6.345   1.924   2.617
 1352SOL     OW 4954   6.558   5.586   4.201
 1352SOL    HW1 4955   6.500   5.579   4.282
 1352SOL    HW2 4956   6.604   5.498   4.186
 1353SOL     OW 4957   0.627   2.713   0.473
 1353SOL    HW1 4958   0.677   2.775   0.534
 1353SOL    HW2 4959   0.626   2.750   0.381
 1354SOL     OW 4960   0.430   4.286   1.733
 1354SOL    HW1 4961   0.410   4.372   1.686
 1354SOL    HW2 4962   0.363   4.272   1.806
 1355SOL     OW 4963   5.699   3.040   4.241
 1355SOL    HW1 4964   5.652   3.028   4.328
 1355SOL    HW2 4965   5.770   3.109   4.251
 1356SOL     OW 4966   3.244   3.491   2.309
 1356SOL    HW1 4967   3.231   3.394   2.329
 1356SOL    HW2 4968   3.232   3.507   2.212
 1357SOL     OW 4969   0.246   4.420   6.461
 1357SOL    HW1 4970   0.345   4.416   6.459
 1357SOL    HW2 4971   0.210   4.343   6.514
 1358SOL     OW 4972   5.331   6.699   6.377
 1358SOL    HW1 4973   5.283   6.615   6.402
 1358SOL    HW2 4974   5.326   6.713   6.278
 1359SOL     OW 4975   5.547   5.023   2.719
 1359SOL    HW1 4976   5.547   5.106   2.775
 1359SOL    HW2 4977   5.641   4.998   2.696
 1360SOL     OW 4978   2.717   3.743   0.365
 1360SOL    HW1 4979   2.625   3.710   0.389
 1360SOL    HW2 4980   2.780   3.666   0.358
 1361SOL     OW 4981   6.269   4.623   5.097
 1361SOL    HW1 4982   6.218   4.642   5.181
 1361SOL    HW2 4983   6.352   4.679   5.095
 1362SOL     OW 4984   3.906   3.829   3.548
 1362SOL    HW1 4985   3.986   3.811   3.606
 1362SOL    HW2 4986   3.830   3.860   3.605
 1363SOL     OW 4987   6.647   5.140   3.411
 1363SOL    HW1 4988   6.695   5.066   3.365
 1363SOL    HW2 4989   6.616   5.109   3.501
 1364SOL     OW 4990   5.483   4.192   1.583
 1364SOL    HW1 4991   5.485   4.228   1.677
 1364SOL    HW2 4992   5.568   4.215   1.537
 1365SOL     OW 4993   0.378   4.117   6.383
 1365SOL    HW1 4994   0.421   4.202   6.354
 1365SOL    HW2 4995   0.281   4.133   6.404
 1366SOL     OW 4996   1.640   5.807   0.678
 1366SOL    HW1 4997   1.733   5.790   0.647
 1366SOL    HW2 4998   1.601   5.722   0.715
 1367SOL     OW 4999   2.670   0.067   3.123
 1367SOL    HW1 5000   2.728   0.102   3.197
 1367SOL    HW2 5001   2.595   0.014   3.161
 1368SOL     OW 5002   5.981   0.428   3.985
 1368SOL    HW1 5003   6.062   0.405   4.039
 1368SOL    HW2 5004   6.009   0.453   3.893
 1369SOL     OW 5005   1.818   6.191   2.314
 1369SOL    HW1 5006   1.872   6.269   2.347
 1369SOL    HW2 5007   1.878   6.112   2.303
 1370SOL     OW 5008   3.588   0.802   0.633
 1370SOL    HW1 5009   3.687   0.819   0.630
 1370SOL    HW2 5010   3.569   0.710   0.600
 1371SOL     OW 5011   5.566   1.591   3.925
 1371SOL    HW1 5012   5.654   1.571   3.967
 1371SOL    HW2 5013   5.513   1.507   3.914
 1372SOL     OW 5014   1.190   2.992   0.735
 1372SOL    HW1 5015   1.150   2.960   0.821
 1372SOL    HW2 5016   1.167   3.088   0.722
 1373SOL     OW 5017   5.965   3.816   0.049
 1373SOL    HW1 5018   6.054   3.859   0.066
 1373SOL    HW2 5019   5.892   3.878   0.076
 1374SOL     OW 5020   4.501   2.495   0.546
 1374SOL    HW1 5021   4.452   2.410   0.566
 1374SOL    HW2 5022   4.592   2.491   0.589
 1375SOL     OW 5023   6.737   4.301   6.529
 1375SOL    HW1 5024   6.708   4.284   6.434
 1375SOL    HW2 5025   6.694   4.385   6.562
 1376SOL     OW 5026   5.103   3.658   3.725
 1376SOL    HW1 5027   5.092   3.639   3.823
 1376SOL    HW2 5028   5.018   3.638   3.677
 1377SOL     OW 5029   6.994   3.860   5.259
 1377SOL    HW1 5030   0.034   3.889   5.193
 1377SOL    HW2 5031   6.955   3.773   5.229
 1378SOL     OW 5032   6.424   1.389   4.948
 1378SOL    HW1 5033   6.486   1.400   4.870
 1378SOL    HW2 5034   6.447   1.306   4.998
 1379SOL     OW 5035   3.277   0.125   2.217
 1379SOL    HW1 5036   3.353   0.148   2.278
 1379SOL    HW2 5037   3.192   0.162   2.255
 1380SOL     OW 5038   0.742   0.076   2.217
 1380SOL    HW1 5039   0.718   0.113   2.307
 1380SOL    HW2 5040   0.839   0.052   2.215
 1381SOL     OW 5041   5.400   2.637   6.801
 1381SOL    HW1 5042   5.482   2.605   6.849
 1381SOL    HW2 5043   5.326   2.650   6.867
 1382SOL     OW 5044   5.003   4.503   0.164
 1382SOL    HW1 5045   4.987   4.557   0.247
 1382SOL    HW2 5046   5.008   4.564   0.085
 1383SOL     OW 5047   0.803   0.752   0.506
 1383SOL    HW1 5048   0.783   0.833   0.452
 1383SOL    HW2 5049   0.899   0.726   0.495
 1384SOL     OW 5050   3.476   1.167   2.656
 1384SOL    HW1 5051   3.445   1.072   2.664
 1384SOL    HW2 5052   3.486   1.206   2.748
 1385SOL     OW 5053   0.799   3.273   2.733
 1385SOL    HW1 5054   0.703   3.258   2.758
 1385SOL    HW2 5055   0.850   3.305   2.812
 1386SOL     OW 5056   2.447   1.310   4.829
 1386SOL    HW1 5057   2.386   1.281   4.903
 1386SOL    HW2 5058   2.412   1.393   4.787
 1387SOL     OW 5059   3.781   0.021   3.447
 1387SOL    HW1 5060   3.722   0.046   3.370
 1387SOL    HW2 5061   3.780   0.095   3.514
 1388SOL     OW 5062   0.442   6.404   4.092
 1388SOL    HW1 5063   0.516   6.385   4.157
 1388SOL    HW2 5064   0.451   6.497   4.057
 1389SOL     OW 5065   0.204   1.162   3.685
 1389SOL    HW1 5066   0.159   1.160   3.595
 1389SOL    HW2 5067   0.213   1.257   3.715
 1390SOL     OW 5068   4.852   1.385   6.491
 1390SOL    HW1 5069   4.860   1.484   6.501
 1390SOL    HW2 5070   4.933   1.349   6.444
 1391SOL     OW 5071   6.519   1.394   5.641
 1391SOL    HW1 5072   6.433   1.420   5.597
 1391SOL    HW2 5073   6.582   1.361   5.571
 1392SOL     OW 5074   5.450   5.457   5.480
 1392SOL    HW1 5075   5.539   5.494   5.451
 1392SOL    HW2 5076   5.397   5.530   5.523
 1393SOL     OW 5077   6.063   3.121   6.523
 1393SOL    HW1 5078   6.017   3.126   6.611
 1393SOL    HW2 5079   6.133   3.192   6.517
 1394SOL     OW 5080   3.887   0.306   3.685
 1394SOL    HW1 5081   3.826   0.317   3.764
 1394SOL    HW2 5082   3.982   0.303   3.716
 1395SOL     OW 5083   0.982   3.990   2.699
 1395SOL    HW1 5084   1.034   3.910   2.669
 1395SOL    HW2 5085   0.993   4.002   2.798
 1396SOL     OW 5086   1.500   6.860   3.468
 1396SOL    HW1 5087   1.532   6.949   3.434
 1396SOL    HW2 5088   1.413   6.837   3.424
 1397SOL     OW 5089   0.260   6.483   4.996
 1397SOL    HW1 5090   0.258   6.524   5.086
 1397SOL    HW2 5091   0.353   6.455   4.974
 1398SOL     OW 5092   1.189   1.533   0.667
 1398SOL    HW1 5093   1.105   1.584   0.684
 1398SOL    HW2 5094   1.267   1.586   0.701
 1399SOL     OW 5095   4.152   0.440   0.440
 1399SOL    HW1 5096   4.120   0.463   0.348
 1399SOL    HW2 5097   4.149   0.521   0.497
 1400SOL     OW 5098   6.460   0.897   4.275
 1400SOL    HW1 5099   6.426   0.975   4.223
 1400SOL    HW2 5100   6.549   0.921   4.315
 1401SOL     OW 5101   6.117   6.732   4.478
 1401SOL    HW1 5102   6.044   6.685   4.527
 1401SOL    HW2 5103   6.079   6.812   4.431
 1402SOL     OW 5104   5.872   4.352   0.042
 1402SOL    HW1 5105   5.780   4.323   0.016
 1402SOL    HW2 5106   5.912   4.284   0.103
 1403SOL     OW 5107   2.006   3.199   0.100
 1403SOL    HW1 5108   1.988   3.137   0.024
 1403SOL    HW2 5109   2.105   3.211   0.111
 1404SOL     OW 5110   4.379   6.850   0.999
 1404SOL    HW1 5111   4.297   6.881   1.047
 1404SOL    HW2 5112   4.455   6.910   1.021
 1405SOL     OW 5113   1.966   3.452   0.692
 1405SOL    HW1 5114   2.011   3.362   0.687
 1405SOL    HW2 5115   1.970   3.497   0.603
 1406SOL     OW 5116   1.697   4.456   1.549
 1406SOL    HW1 5117   1.664   4.540   1.506
 1406SOL    HW2 5118   1.782   4.474   1.597
 1407SOL     OW 5119   1.507   3.591   3.007
 1407SOL    HW1 5120   1.601   3.625   2.998
 1407SOL    HW2 5121   1.459   3.601   2.920
 1408SOL     OW 5122   5.791   6.524   6.852
 1408SOL    HW1 5123   5.884   6.554   6.873
 1408SOL    HW2 5124   5.794   6.438   6.801
 1409SOL     OW 5125   0.167   0.393   5.945
 1409SOL    HW1 5126   0.149   0.490   5.928
 1409SOL    HW2 5127   0.128   0.367   6.034
 1410SOL     OW 5128   2.732   3.654   6.837
 1410SOL    HW1 5129   2.831   3.652   6.851
 1410SOL    HW2 5130   2.708   3.592   6.763
 1411SOL     OW 5131   3.398   6.540   6.726
 1411SOL    HW1 5132   3.321   6.479   6.710
 1411SOL    HW2 5133   3.401   6.610   6.654
 1412SOL     OW 5134   0.411   3.813   1.209
 1412SOL    HW1 5135   0.372   3.866   1.284
 1412SOL    HW2 5136   0.510   3.825   1.207
 1413SOL     OW 5137   1.580   1.826   4.397
 1413SOL    HW1 5138   1.603   1.787   4.487
 1413SOL    HW2 5139   1.604   1.923   4.396
 1414SOL     OW 5140   1.514   2.869   1.596
 1414SOL    HW1 5141   1.611   2.865   1.617
 1414SOL    HW2 5142   1.478   2.776   1.586
 1415SOL     OW 5143   2.778   2.372   4.745
 1415SOL    HW1 5144   2.695   2.427   4.740
 1415SOL    HW2 5145   2.847   2.409   4.683
 1416SOL     OW 5146   4.571   0.853   4.751
 1416SOL    HW1 5147   4.539   0.867   4.657
 1416SOL    HW2 5148   4.661   0.809   4.750
 1417SOL     OW 5149   3.801   3.063   5.852
 1417SOL    HW1 5150   3.890   3.095   5.886
 1417SOL    HW2 5151   3.728   3.106   5.904
 1418SOL     OW 5152   2.947   3.772   0.633
 1418SOL    HW1 5153   2.860   3.818   0.616
 1418SOL    HW2 5154   3.021   3.822   0.587
 1419SOL     OW 5155   1.639   5.402   4.132
 1419SOL    HW1 5156   1.590   5.486   4.153
 1419SOL    HW2 5157   1.656   5.351   4.217
 1420SOL     OW 5158   4.213   5.245   3.114
 1420SOL    HW1 5159   4.296   5.299   3.099
 1420SOL    HW2 5160   4.225   5.189   3.196
 1421SOL     OW 5161   0.944   4.491   4.191
 1421SOL    HW1 5162   1.009   4.559   4.226
 1421SOL    HW2 5163   0.853   4.533   4.183
 1422SOL     OW 5164   2.429   5.087   6.049
 1422SOL    HW1 5165   2.444   5.019   6.121
 1422SOL    HW2 5166   2.422   5.041   5.960
 1423SOL     OW 5167   4.130   1.928   4.547
 1423SOL    HW1 5168   4.075   1.998   4.502
 1423SOL    HW2 5169   4.184   1.878   4.479
 1424SOL     OW 5170   6.183   3.885   6.467
 1424SOL    HW1 5171   6.263   3.925   6.513
 1424SOL    HW2 5172   6.147   3.950   6.400
 1425SOL     OW 5173   2.474   6.191   4.796
 1425SOL    HW1 5174   2.433   6.175   4.706
 1425SOL    HW2 5175   2.531   6.113   4.821
 1426SOL     OW 5176   1.809   2.072   6.250
 1426SOL    HW1 5177   1.906   2.095   6.254
 1426SOL    HW2 5178   1.789   1.998   6.314
 1427SOL     OW 5179   0.267   0.528   3.696
 1427SOL    HW1 5180   0.359   0.561   3.716
 1427SOL    HW2 5181   0.214   0.524   3.781
 1428SOL     OW 5182   0.291   2.249   1.285
 1428SOL    HW1 5183   0.281   2.315   1.210
 1428SOL    HW2 5184   0.371   2.192   1.270
 1429SOL     OW 5185   5.955   1.643   6.787
 1429SOL    HW1 5186   5.986   1.690   6.705
 1429SOL    HW2 5187   5.891   1.570   6.761
 1430SOL     OW 5188   2.184   4.119   4.583
 1430SOL    HW1 5189   2.224   4.175   4.656
 1430SOL    HW2 5190   2.120   4.053   4.623
 1431SOL     OW 5191   2.650   2.587   5.905
 1431SOL    HW1 5192   2.725   2.560   5.845
 1431SOL    HW2 5193   2.676   2.668   5.957
 1432SOL     OW 5194   2.375   1.530   0.710
 1432SOL    HW1 5195   2.456   1.514   0.766
 1432SOL    HW2 5196   2.364   1.628   0.694
 1433SOL     OW 5197   3.480   0.360   3.705
 1433SOL    HW1 5198   3.409   0.426   3.730
 1433SOL    HW2 5199   3.544   0.404   3.642
 1434SOL     OW 5200   6.677   1.306   6.591
 1434SOL    HW1 5201   6.704   1.393   6.551
 1434SOL    HW2 5202   6.711   1.300   6.685
 1435SOL     OW 5203   0.161   0.655   4.085
 1435SOL    HW1 5204   0.140   0.658   4.183
 1435SOL    HW2 5205   0.225   0.580   4.067
 1436SOL     OW 5206   6.044   3.698   0.391
 1436SOL    HW1 5207   6.065   3.622   0.452
 1436SOL    HW2 5208   6.104   3.696   0.312
 1437SOL     OW 5209   3.505   1.008   5.388
 1437SOL    HW1 5210   3.444   0.981   5.462
 1437SOL    HW2 5211   3.480   0.959   5.304
 1438SOL     OW 5212   3.255   1.188   1.735
 1438SOL    HW1 5213   3.237   1.283   1.709
 1438SOL    HW2 5214   3.172   1.134   1.724
 1439SOL     OW 5215   0.929   5.727   0.533
 1439SOL    HW1 5216   0.921   5.662   0.608
 1439SOL    HW2 5217   0.843   5.777   0.523
 1440SOL     OW 5218   3.379   3.432   4.450
 1440SOL    HW1 5219   3.349   3.401   4.360
 1440SOL    HW2 5220   3.354   3.363   4.519
 1441SOL     OW 5221   6.398   3.488   3.254
 1441SOL    HW1 5222   6.379   3.455   3.161
 1441SOL    HW2 5223   6.336   3.444   3.318
 1442SOL     OW 5224   5.343   5.033   0.520
 1442SOL    HW1 5225   5.335   4.937   0.547
 1442SOL    HW2 5226   5.279   5.088   0.574
 1443SOL     OW 5227   0.796   0.863   4.017
 1443SOL    HW1 5228   0.872   0.820   4.067
 1443SOL    HW2 5229   0.809   0.962   4.018
 1444SOL     OW 5230   3.867   5.794   3.260
 1444SOL    HW1 5231   3.926   5.821   3.183
 1444SOL    HW2 5232   3.783   5.753   3.224
 1445SOL     OW 5233   0.547   2.680   1.844
 1445SOL    HW1 5234   0.536   2.718   1.936
 1445SOL    HW2 5235   0.462   2.693   1.792
 1446SOL     OW 5236   5.354   2.934   7.004
 1446SOL    HW1 5237   5.277   2.872   6.993
 1446SOL    HW2 5238   5.426   2.889   0.027
 1447SOL     OW 5239   6.624   0.507   5.123
 1447SOL    HW1 5240   6.606   0.427   5.180
 1447SOL    HW2 5241   6.541   0.561   5.113
 1448SOL     OW 5242   5.946   1.618   0.535
 1448SOL    HW1 5243   5.922   1.692   0.599
 1448SOL    HW2 5244   5.978   1.539   0.587
 1449SOL     OW 5245   5.742   6.774   6.980
 1449SOL    HW1 5246   5.762   6.689   6.930
 1449SOL    HW2 5247   5.817   6.839   6.967
 1450SOL     OW 5248   0.197   1.950   2.328
 1450SOL    HW1 5249   0.148   1.922   2.245
 1450SOL    HW2 5250   0.240   1.870   2.370
 1451SOL     OW 5251   3.069   1.053   2.894
 1451SOL    HW1 5252   3.093   1.149   2.880
 1451SOL    HW2 5253   2.969   1.043   2.890
 1452SOL     OW 5254   5.074   1.854   4.816
 1452SOL    HW1 5255   5.155   1.912   4.821
 1452SOL    HW2 5256   5.034   1.861   4.724
 1453SOL     OW 5257   5.958   3.783   4.887
 1453SOL    HW1 5258   6.010   3.821   4.963
 1453SOL    HW2 5259   5.896   3.852   4.851
 1454SOL     OW 5260   6.184   2.987   2.316
 1454SOL    HW1 5261   6.273   2.943   2.303
 1454SOL    HW2 5262   6.158   2.982   2.413
 1455SOL     OW 5263   0.860   0.427   1.974
 1455SOL    HW1 5264   0.871   0.374   1.890
 1455SOL    HW2 5265   0.808   0.510   1.955
 1456SOL     OW 5266   6.868   6.478   5.204
 1456SOL    HW1 5267   6.940   6.546   5.192
 1456SOL    HW2 5268   6.896   6.410   5.270
 1457SOL     OW 5269   1.528   0.454   2.007
 1457SOL    HW1 5270   1.495   0.523   2.071
 1457SOL    HW2 5271   1.481   0.463   1.919
 1458SOL     OW 5272   5.519   6.578   4.577
 1458SOL    HW1 5273   5.590   6.522   4.621
 1458SOL    HW2 5274   5.452   6.518   4.534
 1459SOL     OW 5275   2.477   4.116   6.651
 1459SOL    HW1 5276   2.483   4.136   6.748
 1459SOL    HW2 5277   2.459   4.018   6.637
 1460SOL     OW 5278   6.971   5.613   5.841
 1460SOL    HW1 5279   6.989   5.636   5.936
 1460SOL    HW2 5280   6.955   5.515   5.833
 1461SOL     OW 5281   6.703   4.820   3.380
 1461SOL    HW1 5282   6.745   4.867   3.303
 1461SOL    HW2 5283   6.753   4.735   3.398
 1462SOL     OW 5284   6.478   1.705   6.911
 1462SOL    HW1 5285   6.553   1.735   6.970
 1462SOL    HW2 5286   6.460   1.775   6.842
 1463SOL     OW 5287   0.275   6.451   5.936
 1463SOL    HW1 5288   0.188   6.501   5.936
 1463SOL    HW2 5289   0.344   6.504   5.985
 1464SOL     OW 5290   6.824   0.191   0.823
 1464SOL    HW1 5291   6.903   0.187   0.762
 1464SOL    HW2 5292   6.848   0.244   0.905
 1465SOL     OW 5293   1.272   1.282   3.287
 1465SOL    HW1 5294   1.361   1.241   3.266
 1465SOL    HW2 5295   1.277   1.332   3.373
 1466SOL     OW 5296   0.513   7.027   3.260
 1466SOL    HW1 5297   0.572   7.009   3.181
 1466SOL    HW2 5298   0.569   0.018   3.340
 1467SOL     OW 5299   1.937   0.136   2.066
 1467SOL    HW1 5300   1.972   0.110   1.976
 1467SOL    HW2 5301   1.933   0.236   2.072
 1468SOL     OW 5302   5.632   5.824   2.905
 1468SOL    HW1 5303   5.681   5.900   2.947
 1468SOL    HW2 5304   5.541   5.816   2.946
 1469SOL     OW 5305   0.300   1.050   2.991
 1469SOL    HW1 5306   0.207   1.026   3.020
 1469SOL    HW2 5307   0.305   1.055   2.892
 1470SOL     OW 5308   0.943   0.763   2.354
 1470SOL    HW1 5309   0.901   0.672   2.349
 1470SOL    HW2 5310   0.900   0.816   2.426
 1471SOL     OW 5311   0.927   0.754   6.845
 1471SOL    HW1 5312   0.975   0.788   6.926
 1471SOL    HW2 5313   0.890   0.831   6.794
 1472SOL     OW 5314   4.585   5.682   4.761
 1472SOL    HW1 5315   4.618   5.647   4.849
 1472SOL    HW2 5316   4.559   5.778   4.772
 1473SOL     OW 5317   6.143   6.066   3.820
 1473SOL    HW1 5318   6.099   6.083   3.732
 1473SOL    HW2 5319   6.145   6.150   3.874
 1474SOL     OW 5320   6.869   5.943   3.649
 1474SOL    HW1 5321   6.851   6.035   3.681
 1474SOL    HW2 5322   6.873   5.942   3.549
 1475SOL     OW 5323   0.494   0.308   1.563
 1475SOL    HW1 5324   0.538   0.391   1.598
 1475SOL    HW2 5325   0.409   0.333   1.517
 1476SOL     OW 5326   1.560   0.746   1.180
 1476SOL    HW1 5327   1.533   0.842   1.181
 1476SOL    HW2 5328   1.573   0.716   1.085
 1477SOL     OW 5329   2.721   0.172   6.667
 1477SOL    HW1 5330   2.751   0.141   6.757
 1477SOL    HW2 5331   2.758   0.263   6.649
 1478SOL     OW 5332   5.430   4.270   0.467
 1478SOL    HW1 5333   5.477   4.350   0.502
 1478SOL    HW2 5334   5.337   4.295   0.437
 1479SOL     OW 5335   1.324   4.529   0.189
 1479SOL    HW1 5336   1.406   4.555   0.139
 1479SOL    HW2 5337   1.333   4.554   0.285
 1480SOL     OW 5338   2.567   0.805   0.502
 1480SOL    HW1 5339   2.476   0.780   0.468
 1480SOL    HW2 5340   2.615   0.858   0.432
 1481SOL     OW 5341   6.162   1.925   4.771
 1481SOL    HW1 5342   6.146   2.015   4.813
 1481SOL    HW2 5343   6.096   1.910   4.698
 1482SOL     OW 5344   5.568   1.544   1.094
 1482SOL    HW1 5345   5.575   1.616   1.163
 1482SOL    HW2 5346   5.641   1.554   1.027
 1483SOL     OW 5347   0.507   3.164   6.140
 1483SOL    HW1 5348   0.585   3.106   6.114
 1483SOL    HW2 5349   0.493   3.233   6.069
 1484SOL     OW 5350   6.671   4.120   3.711
 1484SOL    HW1 5351   6.622   4.058   3.649
 1484SOL    HW2 5352   6.633   4.212   3.703
 1485SOL     OW 5353   4.437   2.498   2.573
 1485SOL    HW1 5354   4.535   2.514   2.574
 1485SOL    HW2 5355   4.401   2.512   2.481
 1486SOL     OW 5356   4.685   2.655   3.480
 1486SOL    HW1 5357   4.687   2.728   3.411
 1486SOL    HW2 5358   4.682   2.695   3.571
 1487SOL     OW 5359   6.461   1.918   6.727
 1487SOL    HW1 5360   6.417   2.007   6.739
 1487SOL    HW2 5361   6.454   1.890   6.632
 1488SOL     OW 5362   5.873   2.065   2.647
 1488SOL    HW1 5363   5.966   2.095   2.624
 1488SOL    HW2 5364   5.827   2.137   2.698
 1489SOL     OW 5365   4.064   4.905   4.436
 1489SOL    HW1 5366   4.002   4.872   4.507
 1489SOL    HW2 5367   4.109   4.989   4.467
 1490SOL     OW 5368   1.422   2.836   1.234
 1490SOL    HW1 5369   1.353   2.895   1.276
 1490SOL    HW2 5370   1.458   2.880   1.152
 1491SOL     OW 5371   0.084   3.843   3.008
 1491SOL    HW1 5372   0.120   3.933   2.985
 1491SOL    HW2 5373   0.044   3.801   2.926
 1492SOL     OW 5374   6.008   1.777   1.575
 1492SOL    HW1 5375   6.010   1.828   1.488
 1492SOL    HW2 5376   6.022   1.680   1.557
 1493SOL     OW 5377   5.015   0.638   4.743
 1493SOL    HW1 5378   5.042   0.722   4.790
 1493SOL    HW2 5379   4.998   0.566   4.810
 1494SOL     OW 5380   4.227   2.542   5.908
 1494SOL    HW1 5381   4.199   2.563   5.814
 1494SOL    HW2 5382   4.311   2.592   5.930
 1495SOL     OW 5383   0.894   3.545   3.390
 1495SOL    HW1 5384   0.868   3.449   3.398
 1495SOL    HW2 5385   0.933   3.577   3.476
 1496SOL     OW 5386   0.713   0.671   1.906
 1496SOL    HW1 5387   0.696   0.757   1.859
 1496SOL    HW2 5388   0.734   0.688   2.002
 1497SOL     OW 5389   0.060   4.027   3.355
 1497SOL    HW1 5390   0.148   4.034   3.401
 1497SOL    HW2 5391   7.025   3.979   3.415
 1498SOL     OW 5392   1.670   5.055   6.686
 1498SOL    HW1 5393   1.701   5.131   6.743
 1498SOL    HW2 5394   1.677   4.969   6.737
 1499SOL     OW 5395   1.142   3.470   5.021
 1499SOL    HW1 5396   1.239   3.459   4.998
 1499SOL    HW2 5397   1.094   3.384   5.001
 1500SOL     OW 5398   5.678   0.109   0.111
 1500SOL    HW1 5399   5.761   0.107   0.166
 1500SOL    HW2 5400   5.637   0.018   0.109
 1501SOL     OW 5401   4.266   0.782   6.301
 1501SOL    HW1 5402   4.258   0.682   6.290
 1501SOL    HW2 5403   4.341   0.802   6.365
 1502SOL     OW 5404   6.066   6.600   0.938
 1502SOL    HW1 5405   6.129   6.656   0.992
 1502SOL    HW2 5406   6.111   6.567   0.856
 1503SOL     OW 5407   2.563   2.674   1.286
 1503SOL    HW1 5408   2.539   2.621   1.368
 1503SOL    HW2 5409   2.663   2.675   1.276
 1504SOL     OW 5410   2.458   0.147   4.669
 1504SOL    HW1 5411   2.433   0.243   4.665
 1504SOL    HW2 5412   2.507   0.121   4.586
 1505SOL     OW 5413   5.258   0.583   6.772
 1505SOL    HW1 5414   5.309   0.653   6.822
 1505SOL    HW2 5415   5.271   0.494   6.815
 1506SOL     OW 5416   1.385   5.405   2.905
 1506SOL    HW1 5417   1.386   5.314   2.948
 1506SOL    HW2 5418   1.451   5.407   2.830
 1507SOL     OW 5419   1.501   1.858   4.661
 1507SOL    HW1 5420   1.407   1.824   4.666
 1507SOL    HW2 5421   1.554   1.823   4.738
 1508SOL     OW 5422   4.740   6.731   0.631
 1508SOL    HW1 5423   4.831   6.768   0.615
 1508SOL    HW2 5424   4.681   6.752   0.553
 1509SOL     OW 5425   3.993   2.717   6.157
 1509SOL    HW1 5426   3.957   2.625   6.170
 1509SOL    HW2 5427   3.951   2.759   6.077
 1510SOL     OW 5428   5.965   1.801   3.938
 1510SOL    HW1 5429   5.907   1.731   3.978
 1510SOL    HW2 5430   6.060   1.784   3.963
 1511SOL     OW 5431   2.756   2.189   6.810
 1511SOL    HW1 5432   2.770   2.287   6.795
 1511SOL    HW2 5433   2.741   2.172   6.908
 1512SOL     OW 5434   6.856   6.302   1.856
 1512SOL    HW1 5435   6.905   6.389   1.860
 1512SOL    HW2 5436   6.825   6.287   1.762
 1513SOL     OW 5437   4.454   0.564   3.796
 1513SOL    HW1 5438   4.376   0.501   3.789
 1513SOL    HW2 5439   4.436   0.632   3.867
 1514SOL     OW 5440   5.193   2.035   4.558
 1514SOL    HW1 5441   5.158   1.942   4.546
 1514SOL    HW2 5442   5.278   2.046   4.506
 1515SOL     OW 5443   6.826   2.701   6.034
 1515SOL    HW1 5444   6.864   2.718   6.125
 1515SOL    HW2 5445   6.822   2.787   5.983
 1516SOL     OW 5446   0.673   0.631   0.717
 1516SOL    HW1 5447   0.715   0.665   0.801
 1516SOL    HW2 5448   0.720   0.669   0.638
 1517SOL     OW 5449   4.780   5.721   3.863
 1517SOL    HW1 5450   4.828   5.790   3.917
 1517SOL    HW2 5451   4.752   5.761   3.775
 1518SOL     OW 5452   0.140   3.045   6.918
 1518SOL    HW1 5453   0.070   3.112   6.891
 1518SOL    HW2 5454   0.109   2.953   6.895
 1519SOL     OW 5455   0.168   4.683   1.864
 1519SOL    HW1 5456   0.154   4.698   1.962
 1519SOL    HW2 5457   0.102   4.738   1.812
 1520SOL     OW 5458   1.848   3.489   2.320
 1520SOL    HW1 5459   1.804   3.551   2.255
 1520SOL    HW2 5460   1.932   3.452   2.279
 1521SOL     OW 5461   2.155   3.519   6.772
 1521SOL    HW1 5462   2.060   3.525   6.803
 1521SOL    HW2 5463   2.208   3.595   6.810
 1522SOL     OW 5464   7.000   1.636   5.920
 1522SOL    HW1 5465   7.027   1.548   5.882
 1522SOL    HW2 5466   6.917   1.668   5.875
 1523SOL     OW 5467   5.000   4.011   6.689
 1523SOL    HW1 5468   5.089   3.965   6.682
 1523SOL    HW2 5469   4.929   3.953   6.650
 1524SOL     OW 5470   0.866   2.033   1.754
 1524SOL    HW1 5471   0.965   2.019   1.758
 1524SOL    HW2 5472   0.847   2.131   1.748
 1525SOL     OW 5473   4.956   2.846   5.714
 1525SOL    HW1 5474   5.056   2.842   5.719
 1525SOL    HW2 5475   4.925   2.937   5.740
 1526SOL     OW 5476   0.946   1.215   0.952
 1526SOL    HW1 5477   1.005   1.180   1.025
 1526SOL    HW2 5478   0.982   1.303   0.920
 1527SOL     OW 5479   3.802   1.335   4.622
 1527SOL    HW1 5480   3.825   1.364   4.529
 1527SOL    HW2 5481   3.715   1.375   4.649
 1528SOL     OW 5482   4.924   5.878   2.994
 1528SOL    HW1 5483   4.903   5.948   3.062
 1528SOL    HW2 5484   4.841   5.826   2.973
 1529SOL     OW 5485   4.141   1.483   6.325
 1529SOL    HW1 5486   4.086   1.410   6.285
 1529SOL    HW2 5487   4.237   1.469   6.302
 1530SOL     OW 5488   3.410   0.329   0.982
 1530SOL    HW1 5489   3.314   0.334   0.953
 1530SOL    HW2 5490   3.417   0.272   1.064
 1531SOL     OW 5491   6.188   1.381   4.841
 1531SOL    HW1 5492   6.273   1.399   4.891
 1531SOL    HW2 5493   6.167   1.460   4.783
 1532SOL     OW 5494   2.522   2.457   4.677
 1532SOL    HW1 5495   2.499   2.534   4.616
 1532SOL    HW2 5496   2.444   2.396   4.683
 1533SOL     OW 5497   7.009   3.683   6.875
 1533SOL    HW1 5498   0.036   3.607   6.843
 1533SOL    HW2 5499   6.937   3.647   6.934
 1534SOL     OW 5500   1.300   5.055   0.005
 1534SOL    HW1 5501   1.286   4.957   7.020
 1534SOL    HW2 5502   1.297   5.103   6.948
 1535SOL     OW 5503   5.872   6.283   4.205
 1535SOL    HW1 5504   5.879   6.380   4.231
 1535SOL    HW2 5505   5.959   6.254   4.164
 1536SOL     OW 5506   3.654   5.154   4.754
 1536SOL    HW1 5507   3.651   5.149   4.654
 1536SOL    HW2 5508   3.583   5.216   4.786
 1537SOL     OW 5509   3.610   5.692   3.192
 1537SOL    HW1 5510   3.522   5.739   3.184
 1537SOL    HW2 5511   3.642   5.666   3.100
 1538SOL     OW 5512   3.473   5.479   5.130
 1538SOL    HW1 5513   3.384   5.452   5.165
 1538SOL    HW2 5514   3.545   5.450   5.193
 1539SOL     OW 5515   4.137   4.318   1.444
 1539SOL    HW1 5516   4.141   4.344   1.347
 1539SOL    HW2 5517   4.214   4.259   1.466
 1540SOL     OW 5518   0.790   6.723   5.110
 1540SOL    HW1 5519   0.747   6.634   5.095
 1540SOL    HW2 5520   0.818   6.762   5.022
 1541SOL     OW 5521   4.077   2.350   1.073
 1541SOL    HW1 5522   4.074   2.433   1.129
 1541SOL    HW2 5523   4.017   2.280   1.112
 1542SOL     OW 5524   6.306   5.872   1.788
 1542SOL    HW1 5525   6.250   5.791   1.803
 1542SOL    HW2 5526   6.378   5.877   1.857
 1543SOL     OW 5527   2.982   3.602   3.988
 1543SOL    HW1 5528   2.908   3.538   3.964
 1543SOL    HW2 5529   2.967   3.636   4.081
 1544SOL     OW 5530   3.203   4.092   2.324
 1544SOL    HW1 5531   3.254   4.105   2.409
 1544SOL    HW2 5532   3.168   4.180   2.291
 1545SOL     OW 5533   5.798   1.063   5.506
 1545SOL    HW1 5534   5.771   1.144   5.454
 1545SOL    HW2 5535   5.734   0.988   5.486
 1546SOL     OW 5536   4.745   0.190   5.939
 1546SOL    HW1 5537   4.832   0.191   5.890
 1546SOL    HW2 5538   4.762   0.171   6.036
 1547SOL     OW 5539   2.008   3.858   2.642
 1547SOL    HW1 5540   1.921   3.893   2.606
 1547SOL    HW2 5541   2.022   3.764   2.609
 1548SOL     OW 5542   4.532   3.885   5.472
 1548SOL    HW1 5543   4.456   3.948   5.483
 1548SOL    HW2 5544   4.518   3.830   5.390
 1549SOL     OW 5545   5.934   0.707   2.306
 1549SOL    HW1 5546   5.968   0.735   2.396
 1549SOL    HW2 5547   6.003   0.652   2.260
 1550SOL     OW 5548   3.018   6.551   5.758
 1550SOL    HW1 5549   2.992   6.628   5.816
 1550SOL    HW2 5550   2.975   6.561   5.668
 1551SOL     OW 5551   1.526   3.204   1.126
 1551SOL    HW1 5552   1.606   3.239   1.176
 1551SOL    HW2 5553   1.538   3.107   1.108
 1552SOL     OW 5554   0.931   7.021   1.341
 1552SOL    HW1 5555   0.912   6.942   1.283
 1552SOL    HW2 5556   0.845   0.024   1.380
 1553SOL     OW 5557   6.265   2.313   6.462
 1553SOL    HW1 5558   6.311   2.381   6.405
 1553SOL    HW2 5559   6.196   2.358   6.518
 1554SOL     OW 5560   3.625   2.148   3.073
 1554SOL    HW1 5561   3.650   2.228   3.018
 1554SOL    HW2 5562   3.706   2.111   3.117
 1555SOL     OW 5563   4.521   2.547   5.620
 1555SOL    HW1 5564   4.489   2.638   5.649
 1555SOL    HW2 5565   4.457   2.478   5.653
 1556SOL     OW 5566   3.915   0.633   0.455
 1556SOL    HW1 5567   3.884   0.726   0.436
 1556SOL    HW2 5568   3.908   0.579   0.371
 1557SOL     OW 5569   2.824   2.307   0.657
 1557SOL    HW1 5570   2.747   2.286   0.716
 1557SOL    HW2 5571   2.909   2.302   0.709
 1558SOL     OW 5572   6.002   2.032   4.299
 1558SOL    HW1 5573   6.004   2.124   4.338
 1558SOL    HW2 5574   5.964   2.037   4.206
 1559SOL     OW 5575   0.584   2.632   1.431
 1559SOL    HW1 5576   0.641   2.682   1.496
 1559SOL    HW2 5577   0.557   2.693   1.357
 1560SOL     OW 5578   3.158   1.311   6.755
 1560SOL    HW1 5579   3.185   1.305   6.851
 1560SOL    HW2 5580   3.067   1.351   6.748
 1561SOL     OW 5581   4.621   5.025   3.350
 1561SOL    HW1 5582   4.574   5.068   3.427
 1561SOL    HW2 5583   4.688   4.959   3.383
 1562SOL     OW 5584   3.766   6.056   2.215
 1562SOL    HW1 5585   3.792   6.141   2.261
 1562SOL    HW2 5586   3.848   6.001   2.197
 1563SOL     OW 5587   2.345   1.732   5.468
 1563SOL    HW1 5588   2.318   1.796   5.540
 1563SOL    HW2 5589   2.313   1.766   5.380
 1564SOL     OW 5590   1.791   1.864   2.216
 1564SOL    HW1 5591   1.786   1.957   2.250
 1564SOL    HW2 5592   1.760   1.800   2.287
 1565SOL     OW 5593   4.559   5.171   4.692
 1565SOL    HW1 5594   4.476   5.158   4.747
 1565SOL    HW2 5595   4.639   5.168   4.752
 1566SOL     OW 5596   6.208   5.148   4.293
 1566SOL    HW1 5597   6.199   5.222   4.227
 1566SOL    HW2 5598   6.265   5.075   4.253
 1567SOL     OW 5599   5.972   5.731   0.120
 1567SOL    HW1 5600   6.072   5.739   0.128
 1567SOL    HW2 5601   5.942   5.645   0.161
 1568SOL     OW 5602   2.498   6.295   3.013
 1568SOL    HW1 5603   2.426   6.363   3.000
 1568SOL    HW2 5604   2.550   6.317   3.095
 1569SOL     OW 5605   3.828   7.027   2.938
 1569SOL    HW1 5606   3.911   0.045   2.967
 1569SOL    HW2 5607   3.785   6.984   3.017
 1570SOL     OW 5608   2.393   6.611   6.542
 1570SOL    HW1 5609   2.321   6.544   6.525
 1570SOL    HW2 5610   2.458   6.611   6.466
 1571SOL     OW 5611   1.084   2.537   2.871
 1571SOL    HW1 5612   1.168   2.560   2.920
 1571SOL    HW2 5613   1.056   2.613   2.813
 1572SOL     OW 5614   1.461   5.284   2.179
 1572SOL    HW1 5615   1.427   5.197   2.143
 1572SOL    HW2 5616   1.558   5.295   2.156
 1573SOL     OW 5617   5.380   5.174   2.383
 1573SOL    HW1 5618   5.308   5.209   2.443
 1573SOL    HW2 5619   5.406   5.082   2.412
 1574SOL     OW 5620   6.603   3.099   2.328
 1574SOL    HW1 5621   6.635   3.189   2.298
 1574SOL    HW2 5622   6.542   3.061   2.259
 1575SOL     OW 5623   2.525   0.406   1.342
 1575SOL    HW1 5624   2.485   0.350   1.270
 1575SOL    HW2 5625   2.558   0.492   1.303
 1576SOL     OW 5626   0.691   6.415   3.410
 1576SOL    HW1 5627   0.745   6.460   3.482
 1576SOL    HW2 5628   0.603   6.387   3.447
 1577SOL     OW 5629   2.600   0.367   6.248
 1577SOL    HW1 5630   2.653   0.452   6.254
 1577SOL    HW2 5631   2.582   0.333   6.340
 1578SOL     OW 5632   5.095   1.248   6.451
 1578SOL    HW1 5633   5.100   1.155   6.485
 1578SOL    HW2 5634   5.131   1.311   6.519
 1579SOL     OW 5635   6.849   2.356   1.152
 1579SOL    HW1 5636   6.914   2.418   1.194
 1579SOL    HW2 5637   6.850   2.268   1.199
 1580SOL     OW 5638   3.130   4.053   3.325
 1580SOL    HW1 5639   3.162   4.138   3.285
 1580SOL    HW2 5640   3.198   4.018   3.389
 1581SOL     OW 5641   6.973   4.065   5.839
 1581SOL    HW1 5642   0.011   4.109   5.780
 1581SOL    HW2 5643   7.018   4.035   5.924
 1582SOL     OW 5644   3.356   6.132   4.440
 1582SOL    HW1 5645   3.315   6.218   4.470
 1582SOL    HW2 5646   3.455   6.138   4.446
 1583SOL     OW 5647   0.816   5.802   4.334
 1583SOL    HW1 5648   0.895   5.829   4.279
 1583SOL    HW2 5649   0.781   5.714   4.301
 1584SOL     OW 5650   1.721   4.802   6.788
 1584SOL    HW1 5651   1.707   4.718   6.839
 1584SOL    HW2 5652   1.819   4.817   6.775
 1585SOL     OW 5653   4.121   1.390   2.882
 1585SOL    HW1 5654   4.144   1.348   2.794
 1585SOL    HW2 5655   4.029   1.428   2.877
 1586SOL     OW 5656   2.920   4.755   3.179
 1586SOL    HW1 5657   3.011   4.751   3.219
 1586SOL    HW2 5658   2.924   4.808   3.094
 1587SOL     OW 5659   2.014   4.877   5.414
 1587SOL    HW1 5660   1.997   4.938   5.337
 1587SOL    HW2 5661   2.019   4.930   5.498
 1588SOL     OW 5662   4.780   0.894   2.857
 1588SOL    HW1 5663   4.722   0.817   2.829
 1588SOL    HW2 5664   4.775   0.905   2.956
 1589SOL     OW 5665   0.124   3.027   2.576
 1589SOL    HW1 5666   0.027   3.041   2.560
 1589SOL    HW2 5667   0.156   3.091   2.647
 1590SOL     OW 5668   4.655   0.900   3.928
 1590SOL    HW1 5669   4.714   0.948   3.992
 1590SOL    HW2 5670   4.621   0.816   3.971
 1591SOL     OW 5671   0.209   6.289   1.182
 1591SOL    HW1 5672   0.268   6.217   1.218
 1591SOL    HW2 5673   0.257   6.377   1.186
 1592SOL     OW 5674   1.898   3.867   7.016
 1592SOL    HW1 5675   1.934   3.777   0.010
 1592SOL    HW2 5676   1.819   3.857   6.955
 1593SOL     OW 5677   0.637   6.960   6.155
 1593SOL    HW1 5678   0.695   6.878   6.156
 1593SOL    HW2 5679   0.584   6.964   6.240
 1594SOL     OW 5680   6.928   5.991   2.251
 1594SOL    HW1 5681   6.879   6.077   2.238
 1594SOL    HW2 5682   7.018   5.998   2.208
 1595SOL     OW 5683   0.691   4.349   0.311
 1595SOL    HW1 5684   0.668   4.443   0.337
 1595SOL    HW2 5685   0.696   4.293   0.394
 1596SOL     OW 5686   6.702   3.349   2.269
 1596SOL    HW1 5687   6.795   3.314   2.278
 1596SOL    HW2 5688   6.686   3.420   2.337
 1597SOL     OW 5689   2.070   6.102   1.216
 1597SOL    HW1 5690   2.046   6.129   1.309
 1597SOL    HW2 5691   2.051   6.005   1.203
 1598SOL     OW 5692   1.370   5.238   6.516
 1598SOL    HW1 5693   1.369   5.331   6.479
 1598SOL    HW2 5694   1.449   5.188   6.480
 1599SOL     OW 5695   5.260   5.070   5.341
 1599SOL    HW1 5696   5.250   4.982   5.294
 1599SOL    HW2 5697   5.280   5.054   5.437
 1600SOL     OW 5698   2.932   1.359   2.374
 1600SOL    HW1 5699   2.964   1.436   2.319
 1600SOL    HW2 5700   2.839   1.334   2.347
 1601SOL     OW 5701   0.557   6.529   4.510
 1601SOL    HW1 5702   0.499   6.588   4.454
 1601SOL    HW2 5703   0.544   6.434   4.483
 1602SOL     OW 5704   4.375   5.183   4.298
 1602SOL    HW1 5705   4.351   5.141   4.210
 1602SOL    HW2 5706   4.452   5.134   4.339
 1603SOL     OW 5707   2.791   5.202   3.481
 1603SOL    HW1 5708   2.752   5.214   3.572
 1603SOL    HW2 5709   2.739   5.132   3.432
 1604SOL     OW 5710   3.867   5.051   1.325
 1604SOL    HW1 5711   3.784   5.082   1.373
 1604SOL    HW2 5712   3.928   5.006   1.389
 1605SOL     OW 5713   6.714   5.378   1.603
 1605SOL    HW1 5714   6.779   5.405   1.532
 1605SOL    HW2 5715   6.621   5.379   1.566
 1606SOL     OW 5716   4.015   5.720   5.453
 1606SOL    HW1 5717   3.938   5.689   5.397
 1606SOL    HW2 5718   4.071   5.784   5.400
 1607SOL     OW 5719   3.998   0.254   0.574
 1607SOL    HW1 5720   4.046   0.168   0.588
 1607SOL    HW2 5721   4.046   0.309   0.505
 1608SOL     OW 5722   6.758   0.640   2.823
 1608SOL    HW1 5723   6.741   0.702   2.747
 1608SOL    HW2 5724   6.671   0.604   2.857
 1609SOL     OW 5725   3.375   6.783   0.930
 1609SOL    HW1 5726   3.417   6.759   0.842
 1609SOL    HW2 5727   3.285   6.742   0.936
 1610SOL     OW 5728   4.863   5.847   0.836
 1610SOL    HW1 5729   4.782   5.789   0.826
 1610SOL    HW2 5730   4.858   5.923   0.772
 1611SOL     OW 5731   1.654   3.289   0.851
 1611SOL    HW1 5732   1.604   3.328   0.928
 1611SOL    HW2 5733   1.714   3.215   0.883
 1612SOL     OW 5734   3.522   6.679   1.687
 1612SOL    HW1 5735   3.505   6.599   1.745
 1612SOL    HW2 5736   3.459   6.752   1.713
 1613SOL     OW 5737   0.643   5.431   1.874
 1613SOL    HW1 5738   0.733   5.473   1.866
 1613SOL    HW2 5739   0.578   5.498   1.910
 1614SOL     OW 5740   5.843   1.824   6.135
 1614SOL    HW1 5741   5.779   1.838   6.211
 1614SOL    HW2 5742   5.852   1.908   6.082
 1615SOL     OW 5743   6.747   5.850   6.523
 1615SOL    HW1 5744   6.654   5.833   6.489
 1615SOL    HW2 5745   6.794   5.912   6.461
 1616SOL     OW 5746   4.177   0.087   3.671
 1616SOL    HW1 5747   4.174   0.177   3.714
 1616SOL    HW2 5748   4.142   0.093   3.578
 1617SOL     OW 5749   4.877   6.177   2.921
 1617SOL    HW1 5750   4.940   6.254   2.933
 1617SOL    HW2 5751   4.909   6.120   2.845
 1618SOL     OW 5752   1.049   6.579   3.201
 1618SOL    HW1 5753   1.057   6.520   3.282
 1618SOL    HW2 5754   1.117   6.551   3.133
 1619SOL     OW 5755   0.324   5.268   0.178
 1619SOL    HW1 5756   0.268   5.186   0.164
 1619SOL    HW2 5757   0.292   5.341   0.116
 1620SOL     OW 5758   3.333   4.669   1.678
 1620SOL    HW1 5759   3.412   4.650   1.735
 1620SOL    HW2 5760   3.352   4.747   1.618
 1621SOL     OW 5761   5.912   0.012   0.883
 1621SOL    HW1 5762   5.875   6.949   0.884
 1621SOL    HW2 5763   5.946   0.034   0.791
 1622SOL     OW 5764   0.553   3.541   5.468
 1622SOL    HW1 5765   0.479   3.533   5.402
 1622SOL    HW2 5766   0.608   3.622   5.446
 1623SOL     OW 5767   0.390   2.504   4.831
 1623SOL    HW1 5768   0.386   2.405   4.835
 1623SOL    HW2 5769   0.322   2.543   4.894
 1624SOL     OW 5770   4.444   1.654   5.688
 1624SOL    HW1 5771   4.503   1.731   5.662
 1624SOL    HW2 5772   4.487   1.603   5.762
 1625SOL     OW 5773   1.510   5.275   6.880
 1625SOL    HW1 5774   1.553   5.204   6.936
 1625SOL    HW2 5775   1.459   5.232   6.805
 1626SOL     OW 5776   3.366   1.274   1.381
 1626SOL    HW1 5777   3.422   1.204   1.426
 1626SOL    HW2 5778   3.277   1.279   1.425
 1627SOL     OW 5779   5.677   2.812   3.678
 1627SOL    HW1 5780   5.654   2.748   3.752
 1627SOL    HW2 5781   5.608   2.805   3.606
 1628SOL     OW 5782   4.301   5.678   6.736
 1628SOL    HW1 5783   4.279   5.594   6.686
 1628SOL    HW2 5784   4.400   5.685   6.748
 1629SOL     OW 5785   2.644   1.175   4.029
 1629SOL    HW1 5786   2.678   1.227   4.107
 1629SOL    HW2 5787   2.545   1.187   4.022
 1630SOL     OW 5788   6.784   4.492   5.484
 1630SOL    HW1 5789   6.696   4.458   5.517
 1630SOL    HW2 5790   6.814   4.567   5.542
 1631SOL     OW 5791   0.800   2.922   0.637
 1631SOL    HW1 5792   0.802   3.001   0.576
 1631SOL    HW2 5793   0.831   2.949   0.729
 1632SOL     OW 5794   4.885   3.367   2.598
 1632SOL    HW1 5795   4.880   3.276   2.558
 1632SOL    HW2 5796   4.872   3.436   2.526
 1633SOL     OW 5797   5.026   4.236   4.697
 1633SOL    HW1 5798   5.086   4.185   4.634
 1633SOL    HW2 5799   4.931   4.213   4.679
 1634SOL     OW 5800   4.744   0.590   4.160
 1634SOL    HW1 5801   4.713   0.635   4.243
 1634SOL    HW2 5802   4.841   0.611   4.145
 1635SOL     OW 5803   0.654   4.972   6.664
 1635SOL    HW1 5804   0.598   4.919   6.728
 1635SOL    HW2 5805   0.712   4.910   6.611
 1636SOL     OW 5806   3.275   5.093   1.757
 1636SOL    HW1 5807   3.252   5.172   1.814
 1636SOL    HW2 5808   3.278   5.010   1.814
 1637SOL     OW 5809   0.066   6.737   3.949
 1637SOL    HW1 5810   0.160   6.732   3.916
 1637SOL    HW2 5811   0.035   6.647   3.978
 1638SOL     OW 5812   0.929   3.045   2.304
 1638SOL    HW1 5813   0.984   2.977   2.254
 1638SOL    HW2 5814   0.960   3.137   2.280
 1639SOL     OW 5815   5.551   5.256   1.943
 1639SOL    HW1 5816   5.642   5.253   1.902
 1639SOL    HW2 5817   5.558   5.245   2.042
 1640SOL     OW 5818   6.034   0.148   6.893
 1640SOL    HW1 5819   6.000   0.199   6.813
 1640SOL    HW2 5820   6.072   0.212   6.959
 1641SOL     OW 5821   6.488   2.277   2.951
 1641SOL    HW1 5822   6.491   2.206   2.881
 1641SOL    HW2 5823   6.565   2.339   2.939
 1642SOL     OW 5824   6.695   3.324   6.705
 1642SOL    HW1 5825   6.630   3.384   6.751
 1642SOL    HW2 5826   6.655   3.233   6.694
 1643SOL     OW 5827   2.706   4.662   3.030
 1643SOL    HW1 5828   2.671   4.755   3.020
 1643SOL    HW2 5829   2.787   4.662   3.088
 1644SOL     OW 5830   5.358   3.554   6.503
 1644SOL    HW1 5831   5.411   3.614   6.444
 1644SOL    HW2 5832   5.262   3.555   6.475
 1645SOL     OW 5833   3.283   6.321   6.049
 1645SOL    HW1 5834   3.197   6.352   6.010
 1645SOL    HW2 5835   3.332   6.398   6.089
 1646SOL     OW 5836   2.268   0.053   0.585
 1646SOL    HW1 5837   2.311   6.996   0.610
 1646SOL    HW2 5838   2.173   0.036   0.556
 1647SOL     OW 5839   6.517   2.399   4.358
 1647SOL    HW1 5840   6.449   2.333   4.389
 1647SOL    HW2 5841   6.558   2.367   4.272
 1648SOL     OW 5842   5.652   6.630   0.507
 1648SOL    HW1 5843   5.599   6.683   0.573
 1648SOL    HW2 5844   5.651   6.676   0.418
 1649SOL     OW 5845   3.570   1.379   4.777
 1649SOL    HW1 5846   3.509   1.338   4.846
 1649SOL    HW2 5847   3.644   1.427   4.823
 1650SOL     OW 5848   0.860   5.689   4.881
 1650SOL    HW1 5849   0.847   5.699   4.783
 1650SOL    HW2 5850   0.931   5.621   4.899
 1651SOL     OW 5851   0.816   2.289   2.595
 1651SOL    HW1 5852   0.795   2.199   2.632
 1651SOL    HW2 5853   0.779   2.296   2.502
 1652SOL     OW 5854   1.347   3.613   2.193
 1652SOL    HW1 5855   1.310   3.659   2.113
 1652SOL    HW2 5856   1.272   3.585   2.253
 1653SOL     OW 5857   0.389   6.520   1.077
 1653SOL    HW1 5858   0.374   6.611   1.116
 1653SOL    HW2 5859   0.347   6.517   0.986
 1654SOL     OW 5860   6.866   3.404   0.890
 1654SOL    HW1 5861   6.769   3.427   0.884
 1654SOL    HW2 5862   6.920   3.488   0.890
 1655SOL     OW 5863   6.808   1.849   4.266
 1655SOL    HW1 5864   6.758   1.800   4.337
 1655SOL    HW2 5865   6.810   1.794   4.182
 1656SOL     OW 5866   1.709   5.361   3.050
 1656SOL    HW1 5867   1.724   5.460   3.058
 1656SOL    HW2 5868   1.792   5.313   3.076
 1657SOL     OW 5869   5.700   0.221   4.065
 1657SOL    HW1 5870   5.703   0.287   4.140
 1657SOL    HW2 5871   5.697   0.269   3.978
 1658SOL     OW 5872   6.358   0.291   1.249
 1658SOL    HW1 5873   6.408   0.257   1.330
 1658SOL    HW2 5874   6.261   0.299   1.271
 1659SOL     OW 5875   3.391   0.360   0.093
 1659SOL    HW1 5876   3.354   0.413   0.170
 1659SOL    HW2 5877   3.399   0.264   0.120
 1660SOL     OW 5878   2.004   6.402   2.331
 1660SOL    HW1 5879   2.043   6.469   2.395
 1660SOL    HW2 5880   2.070   6.382   2.259
 1661SOL     OW 5881   1.866   5.856   1.779
 1661SOL    HW1 5882   1.926   5.871   1.858
 1661SOL    HW2 5883   1.912   5.794   1.714
 1662SOL     OW 5884   0.123   0.948   4.394
 1662SOL    HW1 5885   0.121   0.957   4.294
 1662SOL    HW2 5886   0.103   0.853   4.419
 1663SOL     OW 5887   4.561   5.385   3.644
 1663SOL    HW1 5888   4.474   5.416   3.682
 1663SOL    HW2 5889   4.603   5.459   3.591
 1664SOL     OW 5890   2.035   5.873   5.482
 1664SOL    HW1 5891   1.973   5.917   5.547
 1664SOL    HW2 5892   2.069   5.941   5.417
 1665SOL     OW 5893   6.552   3.612   1.589
 1665SOL    HW1 5894   6.477   3.619   1.656
 1665SOL    HW2 5895   6.639   3.629   1.635
 1666SOL     OW 5896   5.585   0.382   0.470
 1666SOL    HW1 5897   5.563   0.304   0.529
 1666SOL    HW2 5898   5.573   0.467   0.522
 1667SOL     OW 5899   6.702   5.707   1.577
 1667SOL    HW1 5900   6.766   5.728   1.503
 1667SOL    HW2 5901   6.753   5.690   1.661
 1668SOL     OW 5902   4.992   4.849   3.881
 1668SOL    HW1 5903   5.014   4.946   3.875
 1668SOL    HW2 5904   4.895   4.838   3.904
 1669SOL     OW 5905   6.606   4.820   5.951
 1669SOL    HW1 5906   6.622   4.917   5.931
 1669SOL    HW2 5907   6.577   4.773   5.868
 1670SOL     OW 5908   0.777   4.839   5.347
 1670SOL    HW1 5909   0.834   4.797   5.276
 1670SOL    HW2 5910   0.792   4.792   5.434
 1671SOL     OW 5911   5.711   1.178   3.597
 1671SOL    HW1 5912   5.762   1.258   3.627
 1671SOL    HW2 5913   5.773   1.111   3.556
 1672SOL     OW 5914   2.735   3.508   0.588
 1672SOL    HW1 5915   2.663   3.564   0.548
 1672SOL    HW2 5916   2.698   3.457   0.666
 1673SOL     OW 5917   1.220   1.818   4.630
 1673SOL    HW1 5918   1.167   1.854   4.707
 1673SOL    HW2 5919   1.201   1.873   4.549
 1674SOL     OW 5920   0.315   3.305   2.003
 1674SOL    HW1 5921   0.235   3.343   1.955
 1674SOL    HW2 5922   0.322   3.207   1.983
 1675SOL     OW 5923   4.529   0.240   6.955
 1675SOL    HW1 5924   4.553   0.174   7.026
 1675SOL    HW2 5925   4.479   0.317   6.995
 1676SOL     OW 5926   2.327   2.789   1.889
 1676SOL    HW1 5927   2.377   2.704   1.905
 1676SOL    HW2 5928   2.332   2.846   1.971
 1677SOL     OW 5929   3.990   3.728   4.039
 1677SOL    HW1 5930   4.046   3.726   4.122
 1677SOL    HW2 5931   3.936   3.812   4.038
 1678SOL     OW 5932   6.981   5.398   2.087
 1678SOL    HW1 5933   0.008   5.461   2.035
 1678SOL    HW2 5934   6.951   5.323   2.029
 1679SOL     OW 5935   1.707   1.339   4.520
 1679SOL    HW1 5936   1.716   1.407   4.446
 1679SOL    HW2 5937   1.789   1.281   4.522
 1680SOL     OW 5938   6.426   4.382   5.788
 1680SOL    HW1 5939   6.488   4.398   5.865
 1680SOL    HW2 5940   6.472   4.404   5.702
 1681SOL     OW 5941   1.162   5.943   6.075
 1681SOL    HW1 5942   1.255   5.946   6.114
 1681SOL    HW2 5943   1.165   5.977   5.981
 1682SOL     OW 5944   1.706   0.645   5.555
 1682SOL    HW1 5945   1.668   0.737   5.552
 1682SOL    HW2 5946   1.714   0.610   5.462
 1683SOL     OW 5947   6.019   5.629   2.493
 1683SOL    HW1 5948   5.976   5.555   2.545
 1683SOL    HW2 5949   6.118   5.628   2.509
 1684SOL     OW 5950   0.283   5.557   2.198
 1684SOL    HW1 5951   0.372   5.557   2.151
 1684SOL    HW2 5952   0.297   5.534   2.294
 1685SOL     OW 5953   2.069   1.467   5.906
 1685SOL    HW1 5954   2.104   1.560   5.911
 1685SOL    HW2 5955   2.014   1.456   5.824
 1686SOL     OW 5956   2.853   6.194   4.239
 1686SOL    HW1 5957   2.761   6.159   4.255
 1686SOL    HW2 5958   2.918   6.118   4.238
 1687SOL     OW 5959   1.301   2.482   1.857
 1687SOL    HW1 5960   1.264   2.392   1.834
 1687SOL    HW2 5961   1.337   2.480   1.950
 1688SOL     OW 5962   1.956   1.265   3.836
 1688SOL    HW1 5963   1.859   1.275   3.813
 1688SOL    HW2 5964   2.006   1.231   3.757
 1689SOL     OW 5965   6.294   0.717   2.890
 1689SOL    HW1 5966   6.360   0.642   2.892
 1689SOL    HW2 5967   6.202   0.679   2.900
 1690SOL     OW 5968   1.475   3.020   4.637
 1690SOL    HW1 5969   1.393   3.077   4.631
 1690SOL    HW2 5970   1.450   2.924   4.628
 1691SOL     OW 5971   6.324   3.032   3.815
 1691SOL    HW1 5972   6.231   3.066   3.831
 1691SOL    HW2 5973   6.360   2.992   3.899
 1692SOL     OW 5974   4.768   6.242   1.525
 1692SOL    HW1 5975   4.814   6.327   1.499
 1692SOL    HW2 5976   4.803   6.167   1.469
 1693SOL     OW 5977   6.741   2.387   3.216
 1693SOL    HW1 5978   6.837   2.380   3.189
 1693SOL    HW2 5979   6.709   2.480   3.200
 1694SOL     OW 5980   6.484   1.856   3.942
 1694SOL    HW1 5981   6.535   1.787   3.994
 1694SOL    HW2 5982   6.456   1.817   3.854
 1695SOL     OW 5983   3.219   0.775   6.479
 1695SOL    HW1 5984   3.136   0.767   6.535
 1695SOL    HW2 5985   3.215   0.858   6.424
 1696SOL     OW 5986   3.235   5.844   0.770
 1696SOL    HW1 5987   3.331   5.868   0.787
 1696SOL    HW2 5988   3.177   5.889   0.838
 1697SOL     OW 5989   6.759   1.345   0.687
 1697SOL    HW1 5990   6.675   1.329   0.636
 1697SOL    HW2 5991   6.791   1.260   0.728
 1698SOL     OW 5992   4.008   0.364   1.249
 1698SOL    HW1 5993   4.026   0.321   1.160
 1698SOL    HW2 5994   3.916   0.402   1.250
 1699SOL     OW 5995   1.779   1.755   5.794
 1699SOL    HW1 5996   1.864   1.776   5.844
 1699SOL    HW2 5997   1.794   1.766   5.696
 1700SOL     OW 5998   6.658   4.062   2.947
 1700SOL    HW1 5999   6.663   3.973   2.902
 1700SOL    HW2 6000   6.569   4.072   2.993
 1701SOL     OW 6001   5.706   6.083   5.539
 1701SOL    HW1 6002   5.687   6.031   5.622
 1701SOL    HW2 6003   5.803   6.074   5.515
 1702SOL     OW 6004   6.873   1.291   1.199
 1702SOL    HW1 6005   6.953   1.231   1.187
 1702SOL    HW2 6006   6.790   1.237   1.189
 1703SOL     OW 6007   3.876   1.348   6.885
 1703SOL    HW1 6008   3.838   1.441   6.888
 1703SOL    HW2 6009   3.889   1.314   6.978
 1704SOL     OW 6010   1.514   2.644   0.162
 1704SOL    HW1 6011   1.439   2.691   0.116
 1704SOL    HW2 6012   1.501   2.649   0.261
 1705SOL     OW 6013   3.353   2.299   1.801
 1705SOL    HW1 6014   3.364   2.214   1.748
 1705SOL    HW2 6015   3.415   2.297   1.879
 1706SOL     OW 6016   4.162   1.831   2.096
 1706SOL    HW1 6017   4.121   1.872   2.014
 1706SOL    HW2 6018   4.122   1.873   2.177
 1707SOL     OW 6019   4.733   2.718   2.632
 1707SOL    HW1 6020   4.701   2.812   2.625
 1707SOL    HW2 6021   4.711   2.681   2.722
 1708SOL     OW 6022   4.418   5.433   1.453
 1708SOL    HW1 6023   4.389   5.499   1.522
 1708SOL    HW2 6024   4.355   5.356   1.451
 1709SOL     OW 6025   3.685   6.782   2.720
 1709SOL    HW1 6026   3.616   6.767   2.649
 1709SOL    HW2 6027   3.687   6.703   2.782
 1710SOL     OW 6028   4.342   4.995   3.566
 1710SOL    HW1 6029   4.415   5.055   3.600
 1710SOL    HW2 6030   4.378   4.902   3.555
 1711SOL     OW 6031   1.963   5.345   4.551
 1711SOL    HW1 6032   2.059   5.369   4.532
 1711SOL    HW2 6033   1.904   5.394   4.487
 1712SOL     OW 6034   0.115   2.238   4.894
 1712SOL    HW1 6035   0.093   2.332   4.918
 1712SOL    HW2 6036   0.198   2.209   4.940
 1713SOL     OW 6037   4.238   1.383   2.613
 1713SOL    HW1 6038   4.293   1.355   2.535
 1713SOL    HW2 6039   4.231   1.483   2.615
 1714SOL     OW 6040   4.188   1.730   5.731
 1714SOL    HW1 6041   4.277   1.690   5.708
 1714SOL    HW2 6042   4.200   1.799   5.802
 1715SOL     OW 6043   1.703   6.385   3.146
 1715SOL    HW1 6044   1.750   6.347   3.065
 1715SOL    HW2 6045   1.708   6.319   3.221
 1716SOL     OW 6046   4.406   0.397   4.029
 1716SOL    HW1 6047   4.504   0.378   4.022
 1716SOL    HW2 6048   4.392   0.496   4.035
 1717SOL     OW 6049   3.399   5.912   4.262
 1717SOL    HW1 6050   3.398   5.990   4.324
 1717SOL    HW2 6051   3.342   5.933   4.182
 1718SOL     OW 6052   2.657   1.218   2.084
 1718SOL    HW1 6053   2.640   1.308   2.124
 1718SOL    HW2 6054   2.578   1.159   2.101
 1719SOL     OW 6055   1.940   3.322   0.951
 1719SOL    HW1 6056   1.946   3.400   0.887
 1719SOL    HW2 6057   2.033   3.293   0.977
 1720SOL     OW 6058   0.092   2.883   6.071
 1720SOL    HW1 6059   0.172   2.907   6.127
 1720SOL    HW2 6060   0.016   2.860   6.131
 1721SOL     OW 6061   1.513   6.860   1.562
 1721SOL    HW1 6062   1.561   6.830   1.479
 1721SOL    HW2 6063   1.574   6.851   1.640
 1722SOL     OW 6064   4.192   1.407   3.526
 1722SOL    HW1 6065   4.139   1.487   3.500
 1722SOL    HW2 6066   4.163   1.328   3.472
 1723SOL     OW 6067   5.003   2.562   0.045
 1723SOL    HW1 6068   4.970   2.505   0.120
 1723SOL    HW2 6069   4.997   2.511   6.989
 1724SOL     OW 6070   6.987   2.393   1.961
 1724SOL    HW1 6071   6.951   2.483   1.936
 1724SOL    HW2 6072   0.018   2.361   1.889
 1725SOL     OW 6073   1.959   5.044   6.984
 1725SOL    HW1 6074   2.039   5.017   6.930
 1725SOL    HW2 6075   1.985   5.115   0.019
 1726SOL     OW 6076   5.150   3.769   4.628
 1726SOL    HW1 6077   5.197   3.692   4.671
 1726SOL    HW2 6078   5.052   3.750   4.622
 1727SOL     OW 6079   4.082   3.652   3.703
 1727SOL    HW1 6080   4.153   3.690   3.761
 1727SOL    HW2 6081   4.008   3.617   3.761
 1728SOL     OW 6082   5.540   4.787   5.471
 1728SOL    HW1 6083   5.607   4.760   5.539
 1728SOL    HW2 6084   5.487   4.865   5.505
 1729SOL     OW 6085   1.841   3.571   3.061
 1729SOL    HW1 6086   1.769   3.513   3.099
 1729SOL    HW2 6087   1.916   3.513   3.027
 1730SOL     OW 6088   2.728   6.947   4.845
 1730SOL    HW1 6089   2.732   6.852   4.816
 1730SOL    HW2 6090   2.785   7.003   4.784
 1731SOL     OW 6091   6.567   4.490   3.456
 1731SOL    HW1 6092   6.650   4.539   3.429
 1731SOL    HW2 6093   6.555   4.409   3.399
 1732SOL     OW 6094   2.187   4.659   6.518
 1732SOL    HW1 6095   2.116   4.708   6.466
 1732SOL    HW2 6096   2.144   4.595   6.582
 1733SOL     OW 6097   1.981   4.234   1.789
 1733SOL    HW1 6098   1.955   4.319   1.743
 1733SOL    HW2 6099   1.984   4.160   1.722
 1734SOL     OW 6100   5.790   2.804   1.876
 1734SOL    HW1 6101   5.699   2.799   1.835
 1734SOL    HW2 6102   5.809   2.719   1.924
 1735SOL     OW 6103   4.940   5.898   6.095
 1735SOL    HW1 6104   4.964   5.804   6.118
 1735SOL    HW2 6105   4.948   5.912   5.997
 1736SOL     OW 6106   3.993   3.563   0.608
 1736SOL    HW1 6107   3.907   3.516   0.591
 1736SOL    HW2 6108   4.029   3.535   0.697
 1737SOL     OW 6109   4.941   6.677   4.960
 1737SOL    HW1 6110   4.876   6.631   4.899
 1737SOL    HW2 6111   4.891   6.736   5.024
 1738SOL     OW 6112   2.203   3.050   3.729
 1738SOL    HW1 6113   2.246   2.979   3.786
 1738SOL    HW2 6114   2.166   3.122   3.788
 1739SOL     OW 6115   6.496   1.575   4.624
 1739SOL    HW1 6116   6.571   1.541   4.681
 1739SOL    HW2 6117   6.447   1.498   4.584
 1740SOL     OW 6118   0.006   1.928   5.007
 1740SOL    HW1 6119   6.969   1.921   4.933
 1740SOL    HW2 6120   6.990   1.914   5.095
 1741SOL     OW 6121   2.496   0.968   4.833
 1741SOL    HW1 6122   2.464   0.981   4.739
 1741SOL    HW2 6123   2.586   1.010   4.844
 1742SOL     OW 6124   5.374   0.617   5.652
 1742SOL    HW1 6125   5.314   0.613   5.731
 1742SOL    HW2 6126   5.467   0.643   5.681
 1743SOL     OW 6127   0.534   1.149   2.789
 1743SOL    HW1 6128   0.507   1.053   2.798
 1743SOL    HW2 6129   0.630   1.154   2.761
 1744SOL     OW 6130   5.858   3.231   2.970
 1744SOL    HW1 6131   5.884   3.300   3.038
 1744SOL    HW2 6132   5.759   3.232   2.959
 1745SOL     OW 6133   5.265   6.332   2.545
 1745SOL    HW1 6134   5.315   6.254   2.582
 1745SOL    HW2 6135   5.166   6.315   2.551
 1746SOL     OW 6136   1.517   4.511   4.129
 1746SOL    HW1 6137   1.535   4.426   4.179
 1746SOL    HW2 6138   1.430   4.503   4.081
 1747SOL     OW 6139   3.208   1.604   2.786
 1747SOL    HW1 6140   3.176   1.548   2.710
 1747SOL    HW2 6141   3.158   1.578   2.869
 1748SOL     OW 6142   6.723   2.181   4.019
 1748SOL    HW1 6143   6.643   2.231   4.051
 1748SOL    HW2 6144   6.739   2.102   4.079
 1749SOL     OW 6145   2.042   6.974   6.351
 1749SOL    HW1 6146   2.126   6.926   6.377
 1749SOL    HW2 6147   1.963   6.923   6.382
 1750SOL     OW 6148   5.517   0.523   3.767
 1750SOL    HW1 6149   5.545   0.608   3.813
 1750SOL    HW2 6150   5.592   0.457   3.771
 1751SOL     OW 6151   5.526   1.608   5.059
 1751SOL    HW1 6152   5.592   1.656   5.117
 1751SOL    HW2 6153   5.535   1.641   4.965
 1752SOL     OW 6154   5.906   0.778   1.373
 1752SOL    HW1 6155   5.813   0.769   1.407
 1752SOL    HW2 6156   5.905   0.803   1.276
 1753SOL     OW 6157   6.872   0.670   2.079
 1753SOL    HW1 6158   6.842   0.578   2.053
 1753SOL    HW2 6159   6.970   0.679   2.062
 1754SOL     OW 6160   1.826   5.568   6.698
 1754SOL    HW1 6161   1.897   5.611   6.643
 1754SOL    HW2 6162   1.827   5.469   6.683
 1755SOL     OW 6163   0.060   6.092   6.712
 1755SOL    HW1 6164   0.132   6.150   6.672
 1755SOL    HW2 6165   7.002   6.118   6.672
 1756SOL     OW 6166   4.367   5.759   6.432
 1756SOL    HW1 6167   4.459   5.790   6.459
 1756SOL    HW2 6168   4.376   5.689   6.360
 1757SOL     OW 6169   3.568   5.748   5.075
 1757SOL    HW1 6170   3.667   5.752   5.070
 1757SOL    HW2 6171   3.538   5.653   5.082
 1758SOL     OW 6172   1.545   0.571   4.449
 1758SOL    HW1 6173   1.542   0.668   4.424
 1758SOL    HW2 6174   1.531   0.562   4.547
 1759SOL     OW 6175   1.954   6.420   5.534
 1759SOL    HW1 6176   1.932   6.456   5.624
 1759SOL    HW2 6177   2.000   6.331   5.543
 1760SOL     OW 6178   5.994   0.827   3.840
 1760SOL    HW1 6179   5.915   0.845   3.899
 1760SOL    HW2 6180   6.051   0.757   3.882
 1761SOL     OW 6181   6.857   0.653   1.650
 1761SOL    HW1 6182   6.788   0.662   1.579
 1761SOL    HW2 6183   6.918   0.578   1.628
 1762SOL     OW 6184   0.044   1.959   4.333
 1762SOL    HW1 6185   6.984   1.940   4.293
 1762SOL    HW2 6186   0.100   1.877   4.331
 1763SOL     OW 6187   1.382   4.753   4.466
 1763SOL    HW1 6188   1.419   4.797   4.384
 1763SOL    HW2 6189   1.451   4.693   4.505
 1764SOL     OW 6190   1.102   3.694   2.076
 1764SOL    HW1 6191   1.065   3.625   2.014
 1764SOL    HW2 6192   1.050   3.693   2.162
 1765SOL     OW 6193   3.697   1.389   1.302
 1765SOL    HW1 6194   3.630   1.463   1.304
 1765SOL    HW2 6195   3.786   1.424   1.329
 1766SOL     OW 6196   5.505   4.437   4.114
 1766SOL    HW1 6197   5.529   4.358   4.170
 1766SOL    HW2 6198   5.588   4.484   4.086
 1767SOL     OW 6199   0.750   4.994   3.437
 1767SOL    HW1 6200   0.792   5.077   3.401
 1767SOL    HW2 6201   0.736   5.004   3.536
 1768SOL     OW 6202   3.703   1.001   6.926
 1768SOL    HW1 6203   3.732   1.070   6.861
 1768SOL    HW2 6204   3.765   1.001   7.005
 1769SOL     OW 6205   5.789   1.029   6.954
 1769SOL    HW1 6206   5.738   1.010   0.007
 1769SOL    HW2 6207   5.870   1.083   6.976
 1770SOL     OW 6208   0.801   4.600   5.204
 1770SOL    HW1 6209   0.727   4.640   5.150
 1770SOL    HW2 6210   0.882   4.588   5.147
 1771SOL     OW 6211   1.333   5.039   0.555
 1771SOL    HW1 6212   1.416   5.090   0.531
 1771SOL    HW2 6213   1.253   5.089   0.524
 1772SOL     OW 6214   3.656   5.627   4.162
 1772SOL    HW1 6215   3.667   5.725   4.147
 1772SOL    HW2 6216   3.592   5.590   4.095
 1773SOL     OW 6217   1.865   2.088   5.724
 1773SOL    HW1 6218   1.881   1.999   5.682
 1773SOL    HW2 6219   1.866   2.159   5.654
 1774SOL     OW 6220   5.141   6.261   2.125
 1774SOL    HW1 6221   5.202   6.323   2.075
 1774SOL    HW2 6222   5.184   6.171   2.134
 1775SOL     OW 6223   2.297   5.916   6.390
 1775SOL    HW1 6224   2.238   5.835   6.390
 1775SOL    HW2 6225   2.384   5.894   6.344
 1776SOL     OW 6226   5.044   0.960   6.153
 1776SOL    HW1 6227   4.968   0.983   6.091
 1776SOL    HW2 6228   5.017   0.883   6.211
 1777SOL     OW 6229   3.678   6.887   6.377
 1777SOL    HW1 6230   3.704   6.979   6.347
 1777SOL    HW2 6231   3.755   6.824   6.364
 1778SOL     OW 6232   4.671   1.598   4.531
 1778SOL    HW1 6233   4.683   1.522   4.595
 1778SOL    HW2 6234   4.577   1.599   4.498
 1779SOL     OW 6235   4.631   0.393   5.731
 1779SOL    HW1 6236   4.627   0.320   5.800
 1779SOL    HW2 6237   4.718   0.389   5.683
 1780SOL     OW 6238   1.793   3.753   5.083
 1780SOL    HW1 6239   1.880   3.708   5.064
 1780SOL    HW2 6240   1.810   3.839   5.132
 1781SOL     OW 6241   5.254   6.651   5.225
 1781SOL    HW1 6242   5.302   6.723   5.275
 1781SOL    HW2 6243   5.274   6.658   5.128
 1782SOL     OW 6244   2.327   1.062   2.662
 1782SOL    HW1 6245   2.361   0.971   2.635
 1782SOL    HW2 6246   2.277   1.055   2.748
 1783SOL     OW 6247   2.652   3.714   6.403
 1783SOL    HW1 6248   2.605   3.798   6.377
 1783SOL    HW2 6249   2.665   3.657   6.323
 1784SOL     OW 6250   2.126   1.247   1.282
 1784SOL    HW1 6251   2.202   1.183   1.270
 1784SOL    HW2 6252   2.161   1.335   1.313
 1785SOL     OW 6253   0.047   6.831   4.221
 1785SOL    HW1 6254   0.084   6.738   4.231
 1785SOL    HW2 6255   0.065   6.864   4.129
 1786SOL     OW 6256   2.078   5.192   0.238
 1786SOL    HW1 6257   2.068   5.148   0.327
 1786SOL    HW2 6258   2.167   5.168   0.199
 1787SOL     OW 6259   1.643   2.257   5.615
 1787SOL    HW1 6260   1.575   2.221   5.551
 1787SOL    HW2 6261   1.735   2.246   5.576
 1788SOL     OW 6262   4.714   4.107   6.449
 1788SOL    HW1 6263   4.709   4.188   6.508
 1788SOL    HW2 6264   4.742   4.135   6.357
 1789SOL     OW 6265   6.317   2.962   1.571
 1789SOL    HW1 6266   6.403   2.999   1.536
 1789SOL    HW2 6267   6.240   3.001   1.521
 1790SOL     OW 6268   2.804   1.293   4.241
 1790SOL    HW1 6269   2.887   1.237   4.247
 1790SOL    HW2 6270   2.824   1.385   4.275
 1791SOL     OW 6271   6.614   1.343   3.217
 1791SOL    HW1 6272   6.628   1.246   3.197
 1791SOL    HW2 6273   6.522   1.369   3.188
 1792SOL     OW 6274   0.371   2.248   4.663
 1792SOL    HW1 6275   0.414   2.321   4.609
 1792SOL    HW2 6276   0.288   2.217   4.616
 1793SOL     OW 6277   6.394   1.828   4.576
 1793SOL    HW1 6278   6.444   1.743   4.595
 1793SOL    HW2 6279   6.314   1.833   4.635
 1794SOL     OW 6280   5.669   0.188   5.586
 1794SOL    HW1 6281   5.714   0.105   5.619
 1794SOL    HW2 6282   5.737   0.255   5.559
 1795SOL     OW 6283   5.966   4.956   1.285
 1795SOL    HW1 6284   5.975   5.056   1.282
 1795SOL    HW2 6285   6.045   4.917   1.333
 1796SOL     OW 6286   2.114   1.248   5.571
 1796SOL    HW1 6287   2.054   1.296   5.635
 1796SOL    HW2 6288   2.172   1.315   5.524
 1797SOL     OW 6289   1.186   0.102   5.619
 1797SOL    HW1 6290   1.249   0.025   5.625
 1797SOL    HW2 6291   1.099   0.078   5.662
 1798SOL     OW 6292   3.779   2.922   4.775
 1798SOL    HW1 6293   3.804   2.825   4.768
 1798SOL    HW2 6294   3.824   2.962   4.854
 1799SOL     OW 6295   4.130   2.532   6.497
 1799SOL    HW1 6296   4.124   2.603   6.567
 1799SOL    HW2 6297   4.205   2.552   6.435
 1800SOL     OW 6298   5.336   4.625   3.814
 1800SOL    HW1 6299   5.314   4.714   3.853
 1800SOL    HW2 6300   5.303   4.621   3.720
 1801SOL     OW 6301   0.983   1.804   1.945
 1801SOL    HW1 6302   1.031   1.716   1.939
 1801SOL    HW2 6303   0.910   1.806   1.877
 1802SOL     OW 6304   6.090   5.547   3.044
 1802SOL    HW1 6305   6.036   5.592   2.973
 1802SOL    HW2 6306   6.050   5.458   3.065
 1803SOL     OW 6307   0.099   6.501   2.498
 1803SOL    HW1 6308   0.134   6.579   2.551
 1803SOL    HW2 6309   0.087   6.529   2.403
 1804SOL     OW 6310   3.788   3.189   5.444
 1804SOL    HW1 6311   3.869   3.210   5.498
 1804SOL    HW2 6312   3.729   3.269   5.439
 1805SOL     OW 6313   0.962   5.453   6.213
 1805SOL    HW1 6314   1.059   5.441   6.238
 1805SOL    HW2 6315   0.950   5.541   6.168
 1806SOL     OW 6316   0.544   2.803   2.104
 1806SOL    HW1 6317   0.504   2.762   2.185
 1806SOL    HW2 6318   0.643   2.790   2.105
 1807SOL     OW 6319   5.865   3.615   6.899
 1807SOL    HW1 6320   5.863   3.677   6.821
 1807SOL    HW2 6321   5.896   3.664   6.980
 1808SOL     OW 6322   5.915   3.535   4.390
 1808SOL    HW1 6323   5.998   3.578   4.356
 1808SOL    HW2 6324   5.930   3.504   4.484
 1809SOL     OW 6325   3.147   1.341   4.887
 1809SOL    HW1 6326   3.125   1.280   4.811
 1809SOL    HW2 6327   3.242   1.328   4.914
 1810SOL     OW 6328   0.183   1.069   5.122
 1810SOL    HW1 6329   0.246   0.992   5.125
 1810SOL    HW2 6330   0.089   1.035   5.119
 1811SOL     OW 6331   5.117   4.734   1.651
 1811SOL    HW1 6332   5.102   4.821   1.698
 1811SOL    HW2 6333   5.052   4.725   1.576
 1812SOL     OW 6334   4.244   6.681   6.146
 1812SOL    HW1 6335   4.247   6.607   6.214
 1812SOL    HW2 6336   4.337   6.707   6.121
 1813SOL     OW 6337   4.751   4.350   2.128
 1813SOL    HW1 6338   4.688   4.314   2.060
 1813SOL    HW2 6339   4.712   4.338   2.219
 1814SOL     OW 6340   6.158   6.552   0.690
 1814SOL    HW1 6341   6.101   6.568   0.609
 1814SOL    HW2 6342   6.238   6.611   0.686
 1815SOL     OW 6343   5.792   6.387   2.833
 1815SOL    HW1 6344   5.792   6.458   2.904
 1815SOL    HW2 6345   5.870   6.326   2.846
 1816SOL     OW 6346   3.845   5.485   6.372
 1816SOL    HW1 6347   3.848   5.580   6.342
 1816SOL    HW2 6348   3.810   5.428   6.298
 1817SOL     OW 6349   3.175   1.283   3.310
 1817SOL    HW1 6350   3.199   1.245   3.220
 1817SOL    HW2 6351   3.106   1.225   3.353
 1818SOL     OW 6352   1.658   6.662   0.666
 1818SOL    HW1 6353   1.740   6.718   0.673
 1818SOL    HW2 6354   1.678   6.570   0.700
 1819SOL     OW 6355   1.433   4.763   2.298
 1819SOL    HW1 6356   1.360   4.824   2.330
 1819SOL    HW2 6357   1.522   4.809   2.309
 1820SOL     OW 6358   3.971   0.540   3.042
 1820SOL    HW1 6359   3.922   0.592   3.113
 1820SOL    HW2 6360   4.031   0.601   2.991
 1821SOL     OW 6361   3.656   1.298   1.570
 1821SOL    HW1 6362   3.698   1.330   1.485
 1821SOL    HW2 6363   3.595   1.222   1.550
 1822SOL     OW 6364   1.289   3.142   2.071
 1822SOL    HW1 6365   1.368   3.202   2.084
 1822SOL    HW2 6366   1.244   3.164   1.985
 1823SOL     OW 6367   3.436   6.312   3.476
 1823SOL    HW1 6368   3.367   6.247   3.446
 1823SOL    HW2 6369   3.503   6.265   3.534
 1824SOL     OW 6370   3.686   3.783   0.342
 1824SOL    HW1 6371   3.695   3.706   0.279
 1824SOL    HW2 6372   3.699   3.752   0.436
 1825SOL     OW 6373   0.363   3.057   4.996
 1825SOL    HW1 6374   0.315   3.137   4.961
 1825SOL    HW2 6375   0.454   3.052   4.953
 1826SOL     OW 6376   3.831   1.583   0.591
 1826SOL    HW1 6377   3.826   1.582   0.691
 1826SOL    HW2 6378   3.888   1.506   0.560
 1827SOL     OW 6379   4.978   5.460   0.734
 1827SOL    HW1 6380   5.072   5.494   0.743
 1827SOL    HW2 6381   4.938   5.497   0.650
 1828SOL     OW 6382   1.858   3.527   6.790
 1828SOL    HW1 6383   1.776   3.506   6.737
 1828SOL    HW2 6384   1.849   3.490   6.882
 1829SOL     OW 6385   3.551   0.148   3.398
 1829SOL    HW1 6386   3.510   0.119   3.484
 1829SOL    HW2 6387   3.572   0.246   3.402
 1830SOL     OW 6388   6.015   6.635   4.894
 1830SOL    HW1 6389   6.081   6.568   4.929
 1830SOL    HW2 6390   5.997   6.615   4.798
 1831SOL     OW 6391   4.709   5.961   2.762
 1831SOL    HW1 6392   4.749   5.877   2.725
 1831SOL    HW2 6393   4.721   6.035   2.696
 1832SOL     OW 6394   3.036   3.353   0.127
 1832SOL    HW1 6395   3.056   3.360   0.225
 1832SOL    HW2 6396   3.099   3.289   0.084
 1833SOL     OW 6397   4.858   0.014   0.987
 1833SOL    HW1 6398   4.835   0.005   0.890
 1833SOL    HW2 6399   4.929   0.084   0.997
 1834SOL     OW 6400   2.865   2.769   1.023
 1834SOL    HW1 6401   2.767   2.771   1.001
 1834SOL    HW2 6402   2.892   2.674   1.040
 1835SOL     OW 6403   0.328   5.097   1.487
 1835SOL    HW1 6404   0.372   5.183   1.460
 1835SOL    HW2 6405   0.366   5.067   1.575
 1836SOL     OW 6406   5.630   2.163   2.037
 1836SOL    HW1 6407   5.555   2.104   2.067
 1836SOL    HW2 6408   5.649   2.232   2.107
 1837SOL     OW 6409   2.145   0.588   5.723
 1837SOL    HW1 6410   2.236   0.584   5.683
 1837SOL    HW2 6411   2.110   0.681   5.718
 1838SOL     OW 6412   6.565   0.465   6.743
 1838SOL    HW1 6413   6.470   0.477   6.774
 1838SOL    HW2 6414   6.603   0.553   6.716
 1839SOL     OW 6415   6.803   1.698   6.749
 1839SOL    HW1 6416   6.883   1.672   6.804
 1839SOL    HW2 6417   6.805   1.796   6.732
 1840SOL     OW 6418   3.889   0.813   2.713
 1840SOL    HW1 6419   3.926   0.888   2.658
 1840SOL    HW2 6420   3.843   0.850   2.793
 1841SOL     OW 6421   2.350   0.666   2.388
 1841SOL    HW1 6422   2.291   0.587   2.374
 1841SOL    HW2 6423   2.298   0.750   2.371
 1842SOL     OW 6424   1.357   4.819   0.317
 1842SOL    HW1 6425   1.368   4.907   0.363
 1842SOL    HW2 6426   1.422   4.813   0.241
 1843SOL     OW 6427   4.662   0.725   4.375
 1843SOL    HW1 6428   4.599   0.788   4.421
 1843SOL    HW2 6429   4.699   0.661   4.441
 1844SOL     OW 6430   5.219   1.889   5.275
 1844SOL    HW1 6431   5.121   1.890   5.255
 1844SOL    HW2 6432   5.233   1.875   5.373
 1845SOL     OW 6433   2.803   0.174   3.354
 1845SOL    HW1 6434   2.843   0.257   3.314
 1845SOL    HW2 6435   2.840   0.161   3.446
 1846SOL     OW 6436   5.390   1.100   2.910
 1846SOL    HW1 6437   5.388   1.009   2.951
 1846SOL    HW2 6438   5.306   1.116   2.859
 1847SOL     OW 6439   1.561   0.431   5.269
 1847SOL    HW1 6440   1.496   0.484   5.324
 1847SOL    HW2 6441   1.643   0.485   5.252
 1848SOL     OW 6442   1.950   6.256   4.128
 1848SOL    HW1 6443   1.945   6.327   4.198
 1848SOL    HW2 6444   1.920   6.169   4.167
 1849SOL     OW 6445   4.996   3.124   1.957
 1849SOL    HW1 6446   4.960   3.191   1.892
 1849SOL    HW2 6447   4.920   3.081   2.005
 1850SOL     OW 6448   5.414   1.645   2.328
 1850SOL    HW1 6449   5.382   1.661   2.235
 1850SOL    HW2 6450   5.504   1.601   2.326
 1851SOL     OW 6451   0.596   3.207   6.660
 1851SOL    HW1 6452   0.562   3.183   6.569
 1851SOL    HW2 6453   0.524   3.190   6.728
 1852SOL     OW 6454   6.674   4.872   1.138
 1852SOL    HW1 6455   6.694   4.792   1.083
 1852SOL    HW2 6456   6.744   4.942   1.123
 1853SOL     OW 6457   0.245   2.404   3.776
 1853SOL    HW1 6458   0.228   2.310   3.746
 1853SOL    HW2 6459   0.312   2.446   3.715
 1854SOL     OW 6460   1.537   5.446   3.376
 1854SOL    HW1 6461   1.615   5.495   3.416
 1854SOL    HW2 6462   1.568   5.397   3.295
 1855SOL     OW 6463   5.544   3.202   4.750
 1855SOL    HW1 6464   5.597   3.265   4.806
 1855SOL    HW2 6465   5.561   3.108   4.779
 1856SOL     OW 6466   4.468   3.420   6.594
 1856SOL    HW1 6467   4.467   3.453   6.500
 1856SOL    HW2 6468   4.401   3.346   6.604
 1857SOL     OW 6469   5.354   0.979   0.405
 1857SOL    HW1 6470   5.291   0.918   0.453
 1857SOL    HW2 6471   5.433   0.998   0.462
 1858SOL     OW 6472   5.305   2.788   3.390
 1858SOL    HW1 6473   5.312   2.770   3.292
 1858SOL    HW2 6474   5.219   2.751   3.425
 1859SOL     OW 6475   5.113   1.922   3.760
 1859SOL    HW1 6476   5.032   1.946   3.707
 1859SOL    HW2 6477   5.134   1.825   3.745
 1860SOL     OW 6478   0.667   1.942   5.236
 1860SOL    HW1 6479   0.579   1.907   5.204
 1860SOL    HW2 6480   0.724   1.964   5.157
 1861SOL     OW 6481   5.549   0.531   2.962
 1861SOL    HW1 6482   5.571   0.585   3.043
 1861SOL    HW2 6483   5.502   0.589   2.896
 1862SOL     OW 6484   1.168   0.270   0.022
 1862SOL    HW1 6485   1.108   0.338   0.063
 1862SOL    HW2 6486   1.245   0.252   0.083
 1863SOL     OW 6487   0.223   2.786   1.390
 1863SOL    HW1 6488   0.141   2.733   1.373
 1863SOL    HW2 6489   0.199   2.883   1.397
 1864SOL     OW 6490   3.163   5.506   4.106
 1864SOL    HW1 6491   3.183   5.513   4.203
 1864SOL    HW2 6492   3.097   5.433   4.090
 1865SOL     OW 6493   3.729   1.108   1.233
 1865SOL    HW1 6494   3.678   1.183   1.191
 1865SOL    HW2 6495   3.788   1.144   1.305
 1866SOL     OW 6496   6.491   4.477   4.263
 1866SOL    HW1 6497   6.430   4.458   4.186
 1866SOL    HW2 6498   6.505   4.575   4.272
 1867SOL     OW 6499   2.418   3.160   1.138
 1867SOL    HW1 6500   2.401   3.089   1.207
 1867SOL    HW2 6501   2.337   3.216   1.126
 1868SOL     OW 6502   4.991   3.481   5.412
 1868SOL    HW1 6503   5.003   3.405   5.348
 1868SOL    HW2 6504   4.992   3.567   5.363
 1869SOL     OW 6505   5.369   2.654   4.324
 1869SOL    HW1 6506   5.413   2.722   4.265
 1869SOL    HW2 6507   5.424   2.571   4.326
 1870SOL     OW 6508   0.520   3.179   4.639
 1870SOL    HW1 6509   0.448   3.110   4.653
 1870SOL    HW2 6510   0.479   3.270   4.641
 1871SOL     OW 6511   6.700   6.583   0.366
 1871SOL    HW1 6512   6.753   6.649   0.419
 1871SOL    HW2 6513   6.638   6.631   0.305
 1872SOL     OW 6514   3.379   2.678   0.768
 1872SOL    HW1 6515   3.405   2.771   0.743
 1872SOL    HW2 6516   3.368   2.672   0.868
 1873SOL     OW 6517   6.269   1.037   6.220
 1873SOL    HW1 6518   6.348   1.098   6.213
 1873SOL    HW2 6519   6.301   0.942   6.223
 1874SOL     OW 6520   1.105   0.893   6.624
 1874SOL    HW1 6521   1.140   0.827   6.691
 1874SOL    HW2 6522   1.127   0.986   6.654
 1875SOL     OW 6523   6.368   5.886   0.788
 1875SOL    HW1 6524   6.353   5.810   0.724
 1875SOL    HW2 6525   6.415   5.960   0.741
 1876SOL     OW 6526   5.312   6.684   5.840
 1876SOL    HW1 6527   5.290   6.609   5.777
 1876SOL    HW2 6528   5.411   6.694   5.845
 1877SOL     OW 6529   0.190   1.139   2.592
 1877SOL    HW1 6530   0.123   1.172   2.525
 1877SOL    HW2 6531   0.147   1.069   2.650
 1878SOL     OW 6532   6.932   4.442   3.265
 1878SOL    HW1 6533   6.836   4.463   3.246
 1878SOL    HW2 6534   6.941   4.408   3.359
 1879SOL     OW 6535   2.647   4.985   3.958
 1879SOL    HW1 6536   2.725   4.927   3.933
 1879SOL    HW2 6537   2.629   4.975   4.056
 1880SOL     OW 6538   0.839   2.450   2.818
 1880SOL    HW1 6539   0.935   2.468   2.839
 1880SOL    HW2 6540   0.832   2.379   2.749
 1881SOL     OW 6541   0.818   2.202   3.504
 1881SOL    HW1 6542   0.790   2.288   3.461
 1881SOL    HW2 6543   0.737   2.151   3.533
 1882SOL     OW 6544   1.027   6.391   6.614
 1882SOL    HW1 6545   0.960   6.464   6.624
 1882SOL    HW2 6546   1.102   6.405   6.679
 1883SOL     OW 6547   1.595   3.695   3.326
 1883SOL    HW1 6548   1.495   3.703   3.331
 1883SOL    HW2 6549   1.618   3.611   3.277
 1884SOL     OW 6550   5.020   0.959   1.828
 1884SOL    HW1 6551   5.006   1.051   1.791
 1884SOL    HW2 6552   5.020   0.893   1.753
 1885SOL     OW 6553   6.648   2.037   0.840
 1885SOL    HW1 6554   6.599   2.053   0.755
 1885SOL    HW2 6555   6.742   2.069   0.831
 1886SOL     OW 6556   1.980   2.107   0.081
 1886SOL    HW1 6557   2.068   2.092   0.125
 1886SOL    HW2 6558   1.939   2.019   0.057
 1887SOL     OW 6559   0.167   4.278   5.962
 1887SOL    HW1 6560   0.071   4.281   5.987
 1887SOL    HW2 6561   0.185   4.344   5.889
 1888SOL     OW 6562   2.223   1.272   6.046
 1888SOL    HW1 6563   2.230   1.177   6.015
 1888SOL    HW2 6564   2.157   1.320   5.989
 1889SOL     OW 6565   4.515   3.946   6.471
 1889SOL    HW1 6566   4.532   3.924   6.375
 1889SOL    HW2 6567   4.588   4.005   6.505
 1890SOL     OW 6568   1.596   5.824   6.550
 1890SOL    HW1 6569   1.629   5.759   6.618
 1890SOL    HW2 6570   1.657   5.823   6.470
 1891SOL     OW 6571   5.060   2.248   5.128
 1891SOL    HW1 6572   5.138   2.198   5.166
 1891SOL    HW2 6573   5.078   2.271   5.033
 1892SOL     OW 6574   3.949   6.006   1.059
 1892SOL    HW1 6575   3.902   5.937   1.004
 1892SOL    HW2 6576   4.039   5.971   1.085
 1893SOL     OW 6577   3.531   2.016   4.792
 1893SOL    HW1 6578   3.607   2.079   4.774
 1893SOL    HW2 6579   3.455   2.068   4.832
 1894SOL     OW 6580   4.576   3.718   1.578
 1894SOL    HW1 6581   4.491   3.669   1.598
 1894SOL    HW2 6582   4.557   3.816   1.571
 1895SOL     OW 6583   6.410   0.510   2.508
 1895SOL    HW1 6584   6.342   0.472   2.446
 1895SOL    HW2 6585   6.383   0.603   2.534
 1896SOL     OW 6586   6.416   0.842   3.137
 1896SOL    HW1 6587   6.364   0.873   3.216
 1896SOL    HW2 6588   6.360   0.781   3.081
 1897SOL     OW 6589   6.442   5.284   3.329
 1897SOL    HW1 6590   6.517   5.226   3.363
 1897SOL    HW2 6591   6.403   5.335   3.405
 1898SOL     OW 6592   3.671   6.380   1.450
 1898SOL    HW1 6593   3.725   6.357   1.531
 1898SOL    HW2 6594   3.712   6.459   1.404
 1899SOL     OW 6595   1.341   3.635   2.764
 1899SOL    HW1 6596   1.246   3.662   2.781
 1899SOL    HW2 6597   1.343   3.539   2.735
 1900SOL     OW 6598   0.941   6.761   6.245
 1900SOL    HW1 6599   0.961   6.838   6.184
 1900SOL    HW2 6600   0.853   6.776   6.290
 1901SOL     OW 6601   2.308   1.495   0.433
 1901SOL    HW1 6602   2.325   1.502   0.531
 1901SOL    HW2 6603   2.223   1.544   0.410
 1902SOL     OW 6604   1.628   2.734   4.556
 1902SOL    HW1 6605   1.627   2.748   4.457
 1902SOL    HW2 6606   1.681   2.652   4.578
 1903SOL     OW 6607   0.152   3.641   3.159
 1903SOL    HW1 6608   0.219   3.666   3.228
 1903SOL    HW2 6609   0.125   3.722   3.107
 1904SOL     OW 6610   6.810   0.143   4.508
 1904SOL    HW1 6611   6.871   0.066   4.488
 1904SOL    HW2 6612   6.864   0.219   4.546
 1905SOL     OW 6613   0.360   2.768   3.812
 1905SOL    HW1 6614   0.423   2.845   3.822
 1905SOL    HW2 6615   0.395   2.705   3.742
 1906SOL     OW 6616   3.047   0.247   5.537
 1906SOL    HW1 6617   2.972   0.225   5.475
 1906SOL    HW2 6618   3.082   0.162   5.578
 1907SOL     OW 6619   3.362   6.973   3.350
 1907SOL    HW1 6620   3.382   6.907   3.422
 1907SOL    HW2 6621   3.446   7.021   3.324
 1908SOL     OW 6622   4.772   1.252   5.346
 1908SOL    HW1 6623   4.676   1.232   5.329
 1908SOL    HW2 6624   4.780   1.321   5.418
 1909SOL     OW 6625   2.271   4.199   4.171
 1909SOL    HW1 6626   2.243   4.263   4.243
 1909SOL    HW2 6627   2.224   4.112   4.184
 1910SOL     OW 6628   5.577   2.704   6.377
 1910SOL    HW1 6629   5.525   2.751   6.305
 1910SOL    HW2 6630   5.557   2.747   6.465
 1911SOL     OW 6631   6.590   2.106   5.454
 1911SOL    HW1 6632   6.671   2.067   5.497
 1911SOL    HW2 6633   6.539   2.160   5.521
 1912SOL     OW 6634   3.774   6.217   2.596
 1912SOL    HW1 6635   3.697   6.153   2.591
 1912SOL    HW2 6636   3.816   6.226   2.506
 1913SOL     OW 6637   1.571   6.451   4.913
 1913SOL    HW1 6638   1.495   6.434   4.850
 1913SOL    HW2 6639   1.571   6.382   4.985
 1914SOL     OW 6640   2.677   2.014   6.596
 1914SOL    HW1 6641   2.681   2.058   6.686
 1914SOL    HW2 6642   2.758   2.040   6.543
 1915SOL     OW 6643   3.784   1.375   5.699
 1915SOL    HW1 6644   3.849   1.445   5.727
 1915SOL    HW2 6645   3.699   1.418   5.667
 1916SOL     OW 6646   3.557   5.336   0.924
 1916SOL    HW1 6647   3.574   5.323   1.022
 1916SOL    HW2 6648   3.613   5.271   0.872
 1917SOL     OW 6649   3.531   3.180   4.910
 1917SOL    HW1 6650   3.435   3.156   4.898
 1917SOL    HW2 6651   3.560   3.155   5.003
 1918SOL     OW 6652   6.215   6.516   6.106
 1918SOL    HW1 6653   6.298   6.524   6.052
 1918SOL    HW2 6654   6.224   6.440   6.171
 1919SOL     OW 6655   1.317   6.757   1.795
 1919SOL    HW1 6656   1.343   6.793   1.706
 1919SOL    HW2 6657   1.373   6.801   1.866
 1920SOL     OW 6658   0.545   4.657   3.422
 1920SOL    HW1 6659   0.641   4.681   3.406
 1920SOL    HW2 6660   0.489   4.693   3.347
 1921SOL     OW 6661   0.509   5.059   0.276
 1921SOL    HW1 6662   0.482   5.151   0.249
 1921SOL    HW2 6663   0.538   5.008   0.195
 1922SOL     OW 6664   4.097   3.128   0.960
 1922SOL    HW1 6665   4.028   3.082   0.904
 1922SOL    HW2 6666   4.056   3.206   1.008
 1923SOL     OW 6667   2.823   1.309   6.941
 1923SOL    HW1 6668   2.895   1.376   6.954
 1923SOL    HW2 6669   2.863   1.217   6.943
 1924SOL     OW 6670   5.629   5.225   2.518
 1924SOL    HW1 6671   5.633   5.201   2.614
 1924SOL    HW2 6672   5.538   5.206   2.481
 1925SOL     OW 6673   3.020   3.766   2.008
 1925SOL    HW1 6674   3.032   3.845   2.069
 1925SOL    HW2 6675   2.982   3.796   1.921
 1926SOL     OW 6676   1.120   0.223   3.960
 1926SOL    HW1 6677   1.191   0.284   3.925
 1926SOL    HW2 6678   1.045   0.217   3.894
 1927SOL     OW 6679   3.849   5.151   6.398
 1927SOL    HW1 6680   3.794   5.082   6.445
 1927SOL    HW2 6681   3.937   5.112   6.372
 1928SOL     OW 6682   6.989   3.553   6.235
 1928SOL    HW1 6683   7.008   3.458   6.210
 1928SOL    HW2 6684   7.014   3.567   6.331
 1929SOL     OW 6685   0.661   5.529   1.445
 1929SOL    HW1 6686   0.739   5.549   1.385
 1929SOL    HW2 6687   0.637   5.432   1.438
 1930SOL     OW 6688   5.187   4.373   6.991
 1930SOL    HW1 6689   5.145   4.423   0.036
 1930SOL    HW2 6690   5.125   4.301   6.960
 1931SOL     OW 6691   0.036   3.403   3.060
 1931SOL    HW1 6692   0.088   3.467   3.117
 1931SOL    HW2 6693   6.981   3.380   3.107
 1932SOL     OW 6694   5.271   3.509   3.148
 1932SOL    HW1 6695   5.355   3.457   3.162
 1932SOL    HW2 6696   5.195   3.446   3.133
 1933SOL     OW 6697   2.349   5.052   1.316
 1933SOL    HW1 6698   2.337   5.112   1.395
 1933SOL    HW2 6699   2.371   4.960   1.347
 1934SOL     OW 6700   0.407   0.278   5.848
 1934SOL    HW1 6701   0.322   0.328   5.865
 1934SOL    HW2 6702   0.484   0.341   5.850
 1935SOL     OW 6703   3.165   0.712   4.889
 1935SOL    HW1 6704   3.121   0.670   4.810
 1935SOL    HW2 6705   3.095   0.746   4.952
 1936SOL     OW 6706   5.792   4.377   4.083
 1936SOL    HW1 6707   5.783   4.314   4.006
 1936SOL    HW2 6708   5.861   4.341   4.147
 1937SOL     OW 6709   4.164   6.427   1.842
 1937SOL    HW1 6710   4.106   6.481   1.781
 1937SOL    HW2 6711   4.180   6.477   1.927
 1938SOL     OW 6712   4.495   1.733   2.780
 1938SOL    HW1 6713   4.539   1.805   2.834
 1938SOL    HW2 6714   4.512   1.751   2.683
 1939SOL     OW 6715   0.697   6.726   4.121
 1939SOL    HW1 6716   0.734   6.812   4.085
 1939SOL    HW2 6717   0.599   6.722   4.105
 1940SOL     OW 6718   4.885   5.216   5.522
 1940SOL    HW1 6719   4.817   5.286   5.501
 1940SOL    HW2 6720   4.977   5.251   5.505
 1941SOL     OW 6721   6.983   3.611   3.335
 1941SOL    HW1 6722   7.020   3.593   3.425
 1941SOL    HW2 6723   0.025   3.605   3.266
 1942SOL     OW 6724   6.682   0.114   2.671
 1942SOL    HW1 6725   6.660   0.208   2.643
 1942SOL    HW2 6726   6.600   0.058   2.667
 1943SOL     OW 6727   3.115   6.064   2.479
 1943SOL    HW1 6728   3.190   6.100   2.423
 1943SOL    HW2 6729   3.107   5.966   2.465
 1944SOL     OW 6730   5.076   2.557   6.244
 1944SOL    HW1 6731   4.986   2.531   6.210
 1944SOL    HW2 6732   5.102   2.496   6.319
 1945SOL     OW 6733   3.880   5.774   2.721
 1945SOL    HW1 6734   3.795   5.804   2.765
 1945SOL    HW2 6735   3.859   5.707   2.650
 1946SOL     OW 6736   0.010   0.588   0.193
 1946SOL    HW1 6737   6.989   0.653   0.137
 1946SOL    HW2 6738   6.981   0.511   0.218
 1947SOL     OW 6739   5.104   6.470   3.532
 1947SOL    HW1 6740   5.029   6.531   3.559
 1947SOL    HW2 6741   5.091   6.380   3.573
 1948SOL     OW 6742   6.527   5.589   3.540
 1948SOL    HW1 6743   6.583   5.638   3.473
 1948SOL    HW2 6744   6.517   5.646   3.622
 1949SOL     OW 6745   4.506   4.785   5.890
 1949SOL    HW1 6746   4.479   4.857   5.826
 1949SOL    HW2 6747   4.600   4.758   5.871
 1950SOL     OW 6748   4.047   3.943   1.143
 1950SOL    HW1 6749   3.979   4.014   1.123
 1950SOL    HW2 6750   4.071   3.895   1.059
 1951SOL     OW 6751   6.476   3.753   0.399
 1951SOL    HW1 6752   6.406   3.787   0.462
 1951SOL    HW2 6753   6.563   3.801   0.417
 1952SOL     OW 6754   3.601   2.126   6.625
 1952SOL    HW1 6755   3.505   2.151   6.641
 1952SOL    HW2 6756   3.655   2.149   6.706
 1953SOL     OW 6757   6.282   2.503   6.990
 1953SOL    HW1 6758   6.303   2.527   0.055
 1953SOL    HW2 6759   6.191   2.538   6.966
 1954SOL     OW 6760   5.894   1.417   3.921
 1954SOL    HW1 6761   5.864   1.339   3.976
 1954SOL    HW2 6762   5.888   1.501   3.975
 1955SOL     OW 6763   1.412   6.949   1.955
 1955SOL    HW1 6764   1.457   0.000   1.919
 1955SOL    HW2 6765   1.431   6.940   2.053
 1956SOL     OW 6766   6.234   6.996   2.472
 1956SOL    HW1 6767   6.162   0.013   2.423
 1956SOL    HW2 6768   6.283   0.030   2.531
 1957SOL     OW 6769   6.462   5.047   4.720
 1957SOL    HW1 6770   6.484   5.092   4.633
 1957SOL    HW2 6771   6.531   5.072   4.788
 1958SOL     OW 6772   6.074   2.584   4.160
 1958SOL    HW1 6773   6.026   2.669   4.140
 1958SOL    HW2 6774   6.167   2.605   4.190
 1959SOL     OW 6775   6.976   2.029   5.993
 1959SOL    HW1 6776   6.958   2.117   6.035
 1959SOL    HW2 6777   0.006   1.975   6.052
 1960SOL     OW 6778   6.405   4.925   0.577
 1960SOL    HW1 6779   6.365   5.017   0.572
 1960SOL    HW2 6780   6.416   4.900   0.673
 1961SOL     OW 6781   5.893   4.720   4.593
 1961SOL    HW1 6782   5.864   4.665   4.671
 1961SOL    HW2 6783   5.813   4.765   4.553
 1962SOL     OW 6784   2.829   6.258   3.017
 1962SOL    HW1 6785   2.838   6.204   2.934
 1962SOL    HW2 6786   2.739   6.242   3.057
 1963SOL     OW 6787   0.745   1.061   1.018
 1963SOL    HW1 6788   0.812   1.135   1.012
 1963SOL    HW2 6789   0.749   1.020   1.109
 1964SOL     OW 6790   4.214   2.362   1.480
 1964SOL    HW1 6791   4.276   2.312   1.542
 1964SOL    HW2 6792   4.124   2.369   1.522
 1965SOL     OW 6793   1.258   3.483   3.109
 1965SOL    HW1 6794   1.234   3.404   3.053
 1965SOL    HW2 6795   1.350   3.515   3.085
 1966SOL     OW 6796   0.075   5.380   4.836
 1966SOL    HW1 6797   0.102   5.461   4.784
 1966SOL    HW2 6798   0.011   5.325   4.781
 1967SOL     OW 6799   4.766   2.077   5.234
 1967SOL    HW1 6800   4.781   2.147   5.164
 1967SOL    HW2 6801   4.668   2.064   5.249
 1968SOL     OW 6802   2.855   5.911   0.739
 1968SOL    HW1 6803   2.918   5.873   0.671
 1968SOL    HW2 6804   2.764   5.872   0.725
 1969SOL     OW 6805   0.451   1.267   1.101
 1969SOL    HW1 6806   0.412   1.213   1.027
 1969SOL    HW2 6807   0.378   1.307   1.156
 1970SOL     OW 6808   2.455   0.205   6.654
 1970SOL    HW1 6809   2.548   0.172   6.639
 1970SOL    HW2 6810   2.415   0.233   6.566
 1971SOL     OW 6811   6.144   6.798   6.200
 1971SOL    HW1 6812   6.128   6.706   6.164
 1971SOL    HW2 6813   6.233   6.801   6.246
 1972SOL     OW 6814   6.685   2.894   3.002
 1972SOL    HW1 6815   6.758   2.915   2.937
 1972SOL    HW2 6816   6.670   2.795   3.004
 1973SOL     OW 6817   2.624   3.394   1.303
 1973SOL    HW1 6818   2.565   3.321   1.340
 1973SOL    HW2 6819   2.705   3.353   1.263
 1974SOL     OW 6820   6.399   5.698   4.003
 1974SOL    HW1 6821   6.452   5.673   4.084
 1974SOL    HW2 6822   6.351   5.784   4.020
 1975SOL     OW 6823   2.434   1.243   3.146
 1975SOL    HW1 6824   2.404   1.149   3.130
 1975SOL    HW2 6825   2.527   1.255   3.109
 1976SOL     OW 6826   0.690   5.557   6.616
 1976SOL    HW1 6827   0.763   5.609   6.571
 1976SOL    HW2 6828   0.718   5.536   6.709
 1977SOL     OW 6829   1.754   2.909   3.478
 1977SOL    HW1 6830   1.796   2.829   3.434
 1977SOL    HW2 6831   1.810   2.936   3.557
 1978SOL     OW 6832   0.756   0.685   3.808
 1978SOL    HW1 6833   0.736   0.766   3.863
 1978SOL    HW2 6834   0.792   0.714   3.719
 1979SOL     OW 6835   6.856   3.927   4.846
 1979SOL    HW1 6836   6.813   3.987   4.779
 1979SOL    HW2 6837   6.899   3.983   4.918
 1980SOL     OW 6838   2.907   1.129   6.045
 1980SOL    HW1 6839   2.928   1.217   6.086
 1980SOL    HW2 6840   2.809   1.110   6.053
 1981SOL     OW 6841   6.143   1.819   2.405
 1981SOL    HW1 6842   6.189   1.756   2.468
 1981SOL    HW2 6843   6.052   1.840   2.440
 1982SOL     OW 6844   0.170   4.306   5.561
 1982SOL    HW1 6845   0.231   4.228   5.567
 1982SOL    HW2 6846   0.076   4.274   5.546
 1983SOL     OW 6847   1.121   2.080   2.687
 1983SOL    HW1 6848   1.133   2.094   2.589
 1983SOL    HW2 6849   1.189   2.015   2.721
 1984SOL     OW 6850   5.746   0.901   4.678
 1984SOL    HW1 6851   5.656   0.917   4.717
 1984SOL    HW2 6852   5.749   0.809   4.639
 1985SOL     OW 6853   0.834   0.853   2.607
 1985SOL    HW1 6854   0.788   0.942   2.608
 1985SOL    HW2 6855   0.766   0.780   2.603
 1986SOL     OW 6856   1.287   0.397   0.709
 1986SOL    HW1 6857   1.343   0.407   0.791
 1986SOL    HW2 6858   1.345   0.374   0.632
 1987SOL     OW 6859   1.794   2.824   1.579
 1987SOL    HW1 6860   1.890   2.848   1.596
 1987SOL    HW2 6861   1.781   2.807   1.481
 1988SOL     OW 6862   4.690   4.477   1.271
 1988SOL    HW1 6863   4.700   4.452   1.367
 1988SOL    HW2 6864   4.694   4.576   1.262
 1989SOL     OW 6865   2.581   6.452   5.178
 1989SOL    HW1 6866   2.534   6.473   5.264
 1989SOL    HW2 6867   2.646   6.377   5.193
 1990SOL     OW 6868   3.144   6.650   0.961
 1990SOL    HW1 6869   3.158   6.584   1.035
 1990SOL    HW2 6870   3.131   6.602   0.875
 1991SOL     OW 6871   4.367   5.138   6.233
 1991SOL    HW1 6872   4.292   5.073   6.242
 1991SOL    HW2 6873   4.424   5.135   6.316
 1992SOL     OW 6874   1.234   0.034   6.696
 1992SOL    HW1 6875   1.250   6.988   6.760
 1992SOL    HW2 6876   1.175   0.102   6.739
 1993SOL     OW 6877   4.065   3.680   5.120
 1993SOL    HW1 6878   3.966   3.669   5.130
 1993SOL    HW2 6879   4.084   3.749   5.051
 1994SOL     OW 6880   1.322   1.795   1.211
 1994SOL    HW1 6881   1.240   1.753   1.174
 1994SOL    HW2 6882   1.396   1.790   1.144
 1995SOL     OW 6883   6.103   2.218   1.665
 1995SOL    HW1 6884   6.122   2.181   1.574
 1995SOL    HW2 6885   6.187   2.254   1.704
 1996SOL     OW 6886   2.954   3.775   1.009
 1996SOL    HW1 6887   2.956   3.873   0.989
 1996SOL    HW2 6888   2.870   3.735   0.973
 1997SOL     OW 6889   4.876   0.411   5.426
 1997SOL    HW1 6890   4.930   0.435   5.507
 1997SOL    HW2 6891   4.802   0.477   5.415
 1998SOL     OW 6892   3.241   3.460   6.535
 1998SOL    HW1 6893   3.212   3.469   6.440
 1998SOL    HW2 6894   3.341   3.459   6.540
 1999SOL     OW 6895   2.997   6.533   1.885
 1999SOL    HW1 6896   3.039   6.619   1.859
 1999SOL    HW2 6897   3.061   6.458   1.869
 2000SOL     OW 6898   3.906   2.307   5.268
 2000SOL    HW1 6899   3.944   2.397   5.291
 2000SOL    HW2 6900   3.979   2.240   5.264
 2001SOL     OW 6901   3.465   2.057   1.951
 2001SOL    HW1 6902   3.543   2.113   1.980
 2001SOL    HW2 6903   3.462   2.055   1.851
 2002SOL     OW 6904   1.238   5.539   5.944
 2002SOL    HW1 6905   1.259   5.476   5.870
 2002SOL    HW2 6906   1.139   5.556   5.947
 2003SOL     OW 6907   5.854   6.866   3.460
 2003SOL    HW1 6908   5.770   6.878   3.408
 2003SOL    HW2 6909   5.841   6.899   3.553
 2004SOL     OW 6910   5.312   1.551   5.267
 2004SOL    HW1 6911   5.294   1.641   5.308
 2004SOL    HW2 6912   5.365   1.563   5.183
 2005SOL     OW 6913   1.008   5.469   6.541
 2005SOL    HW1 6914   0.937   5.400   6.558
 2005SOL    HW2 6915   1.040   5.505   6.629
 2006SOL     OW 6916   5.145   4.343   4.138
 2006SOL    HW1 6917   5.165   4.283   4.061
 2006SOL    HW2 6918   5.103   4.289   4.212
 2007SOL     OW 6919   3.915   5.260   0.521
 2007SOL    HW1 6920   3.935   5.230   0.428
 2007SOL    HW2 6921   3.840   5.327   0.519
 2008SOL     OW 6922   0.906   6.106   3.337
 2008SOL    HW1 6923   0.986   6.056   3.306
 2008SOL    HW2 6924   0.926   6.150   3.424
 2009SOL     OW 6925   6.639   6.999   1.412
 2009SOL    HW1 6926   6.617   0.010   1.500
 2009SOL    HW2 6927   6.661   6.902   1.425
 2010SOL     OW 6928   1.430   0.998   1.198
 2010SOL    HW1 6929   1.436   1.092   1.231
 2010SOL    HW2 6930   1.381   0.996   1.111
 2011SOL     OW 6931   0.346   2.254   5.443
 2011SOL    HW1 6932   0.285   2.333   5.436
 2011SOL    HW2 6933   0.320   2.186   5.375
 2012SOL     OW 6934   0.979   3.194   1.641
 2012SOL    HW1 6935   0.904   3.198   1.707
 2012SOL    HW2 6936   0.952   3.239   1.556
 2013SOL     OW 6937   5.518   0.308   3.338
 2013SOL    HW1 6938   5.457   0.275   3.266
 2013SOL    HW2 6939   5.599   0.349   3.296
 2014SOL     OW 6940   1.676   5.470   2.499
 2014SOL    HW1 6941   1.692   5.461   2.598
 2014SOL    HW2 6942   1.659   5.379   2.460
 2015SOL     OW 6943   2.339   1.560   6.389
 2015SOL    HW1 6944   2.415   1.532   6.448
 2015SOL    HW2 6945   2.375   1.616   6.314
 2016SOL     OW 6946   1.274   5.466   5.264
 2016SOL    HW1 6947   1.233   5.540   5.211
 2016SOL    HW2 6948   1.262   5.484   5.362
 2017SOL     OW 6949   2.793   6.693   4.354
 2017SOL    HW1 6950   2.792   6.597   4.382
 2017SOL    HW2 6951   2.880   6.714   4.310
 2018SOL     OW 6952   5.913   6.909   5.999
 2018SOL    HW1 6953   5.996   6.913   6.054
 2018SOL    HW2 6954   5.911   6.824   5.947
 2019SOL     OW 6955   4.478   2.160   2.346
 2019SOL    HW1 6956   4.423   2.110   2.278
 2019SOL    HW2 6957   4.561   2.196   2.301
 2020SOL     OW 6958   1.506   5.599   5.592
 2020SOL    HW1 6959   1.424   5.612   5.536
 2020SOL    HW2 6960   1.501   5.657   5.673
 2021SOL     OW 6961   2.167   6.030   3.819
 2021SOL    HW1 6962   2.125   6.110   3.777
 2021SOL    HW2 6963   2.241   5.996   3.761
 2022SOL     OW 6964   2.083   3.430   2.642
 2022SOL    HW1 6965   2.124   3.353   2.592
 2022SOL    HW2 6966   2.079   3.510   2.582
 2023SOL     OW 6967   6.596   1.469   6.814
 2023SOL    HW1 6968   6.605   1.460   6.714
 2023SOL    HW2 6969   6.557   1.557   6.836
 2024SOL     OW 6970   6.964   0.518   3.047
 2024SOL    HW1 6971   6.951   0.539   3.144
 2024SOL    HW2 6972   6.878   0.532   2.998
 2025SOL     OW 6973   2.231   2.924   2.148
 2025SOL    HW1 6974   2.213   3.022   2.141
 2025SOL    HW2 6975   2.283   2.905   2.232
 2026SOL     OW 6976   1.170   2.218   6.258
 2026SOL    HW1 6977   1.193   2.282   6.185
 2026SOL    HW2 6978   1.254   2.175   6.292
 2027SOL     OW 6979   0.857   1.287   1.310
 2027SOL    HW1 6980   0.931   1.237   1.265
 2027SOL    HW2 6981   0.895   1.367   1.357
 2028SOL     OW 6982   3.460   1.354   6.457
 2028SOL    HW1 6983   3.496   1.437   6.416
 2028SOL    HW2 6984   3.382   1.321   6.403
 2029SOL     OW 6985   6.819   0.436   0.635
 2029SOL    HW1 6986   6.831   0.470   0.728
 2029SOL    HW2 6987   6.908   0.430   0.590
 2030SOL     OW 6988   2.684   0.536   3.678
 2030SOL    HW1 6989   2.762   0.599   3.677
 2030SOL    HW2 6990   2.685   0.480   3.596
 2031SOL     OW 6991   5.003   6.223   2.585
 2031SOL    HW1 6992   4.987   6.137   2.633
 2031SOL    HW2 6993   4.940   6.293   2.618
 2032SOL     OW 6994   3.748   6.729   2.293
 2032SOL    HW1 6995   3.780   6.682   2.211
 2032SOL    HW2 6996   3.819   6.789   2.328
 2033SOL     OW 6997   3.659   4.523   6.886
 2033SOL    HW1 6998   3.615   4.493   6.971
 2033SOL    HW2 6999   3.631   4.617   6.866
 2034SOL     OW 7000   3.315   6.939   4.479
 2034SOL    HW1 7001   3.345   6.928   4.384
 2034SOL    HW2 7002   3.216   6.950   4.482
 2035SOL     OW 7003   0.217   0.898   2.041
 2035SOL    HW1 7004   0.231   0.936   1.950
 2035SOL    HW2 7005   0.147   0.827   2.037
 2036SOL     OW 7006   0.871   5.575   2.998
 2036SOL    HW1 7007   0.818   5.512   2.941
 2036SOL    HW2 7008   0.834   5.574   3.091
 2037SOL     OW 7009   0.650   2.620   6.239
 2037SOL    HW1 7010   0.744   2.587   6.250
 2037SOL    HW2 7011   0.594   2.549   6.196
 2038SOL     OW 7012   1.416   2.164   6.575
 2038SOL    HW1 7013   1.504   2.199   6.608
 2038SOL    HW2 7014   1.430   2.109   6.492
 2039SOL     OW 7015   0.318   5.066   2.100
 2039SOL    HW1 7016   0.375   5.097   2.175
 2039SOL    HW2 7017   0.241   5.129   2.088
 2040SOL     OW 7018   3.230   3.406   5.360
 2040SOL    HW1 7019   3.251   3.492   5.407
 2040SOL    HW2 7020   3.313   3.372   5.315
 2041SOL     OW 7021   0.020   5.820   5.606
 2041SOL    HW1 7022   6.995   5.854   5.529
 2041SOL    HW2 7023   6.991   5.797   5.683
 2042SOL     OW 7024   5.340   5.123   6.781
 2042SOL    HW1 7025   5.271   5.185   6.816
 2042SOL    HW2 7026   5.414   5.175   6.739
 2043SOL     OW 7027   6.136   4.300   2.379
 2043SOL    HW1 7028   6.217   4.242   2.390
 2043SOL    HW2 7029   6.055   4.251   2.410
 2044SOL     OW 7030   4.852   0.252   2.036
 2044SOL    HW1 7031   4.871   0.250   2.134
 2044SOL    HW2 7032   4.930   0.292   1.987
 2045SOL     OW 7033   2.028   4.894   4.619
 2045SOL    HW1 7034   1.946   4.947   4.640
 2045SOL    HW2 7035   2.022   4.805   4.663
 2046SOL     OW 7036   0.114   1.220   4.451
 2046SOL    HW1 7037   0.107   1.121   4.436
 2046SOL    HW2 7038   0.206   1.251   4.429
 2047SOL     OW 7039   4.770   2.226   0.101
 2047SOL    HW1 7040   4.708   2.198   0.175
 2047SOL    HW2 7041   4.797   2.321   0.116
 2048SOL     OW 7042   2.030   5.901   0.752
 2048SOL    HW1 7043   2.058   5.980   0.807
 2048SOL    HW2 7044   2.015   5.822   0.812
 2049SOL     OW 7045   4.499   1.299   6.464
 2049SOL    HW1 7046   4.525   1.371   6.528
 2049SOL    HW2 7047   4.464   1.221   6.514
 2050SOL     OW 7048   6.718   2.363   2.556
 2050SOL    HW1 7049   6.684   2.450   2.592
 2050SOL    HW2 7050   6.739   2.302   2.632
 2051SOL     OW 7051   0.395   5.932   0.746
 2051SOL    HW1 7052   0.309   5.956   0.792
 2051SOL    HW2 7053   0.458   6.009   0.750
 2052SOL     OW 7054   0.250   4.432   0.688
 2052SOL    HW1 7055   0.294   4.352   0.647
 2052SOL    HW2 7056   0.188   4.474   0.622
 2053SOL     OW 7057   6.330   0.447   5.767
 2053SOL    HW1 7058   6.367   0.519   5.708
 2053SOL    HW2 7059   6.376   0.360   5.745
 2054SOL     OW 7060   4.263   2.629   1.424
 2054SOL    HW1 7061   4.268   2.538   1.466
 2054SOL    HW2 7062   4.299   2.697   1.488
 2055SOL     OW 7063   6.194   3.304   2.821
 2055SOL    HW1 7064   6.100   3.272   2.832
 2055SOL    HW2 7065   6.206   3.340   2.728
 2056SOL     OW 7066   2.417   0.538   2.964
 2056SOL    HW1 7067   2.345   0.489   3.013
 2056SOL    HW2 7068   2.495   0.552   3.024
 2057SOL     OW 7069   5.612   2.936   3.344
 2057SOL    HW1 7070   5.574   2.927   3.251
 2057SOL    HW2 7071   5.617   3.032   3.369
 2058SOL     OW 7072   1.450   1.685   3.247
 2058SOL    HW1 7073   1.484   1.602   3.292
 2058SOL    HW2 7074   1.519   1.756   3.252
 2059SOL     OW 7075   2.650   6.145   6.452
 2059SOL    HW1 7076   2.621   6.225   6.399
 2059SOL    HW2 7077   2.601   6.143   6.539
 2060SOL     OW 7078   5.596   4.476   0.523
 2060SOL    HW1 7079   5.599   4.481   0.423
 2060SOL    HW2 7080   5.655   4.547   0.562
 2061SOL     OW 7081   0.926   1.730   2.939
 2061SOL    HW1 7082   0.976   1.644   2.927
 2061SOL    HW2 7083   0.926   1.755   3.036
 2062SOL     OW 7084   5.909   0.377   3.581
 2062SOL    HW1 7085   5.901   0.299   3.519
 2062SOL    HW2 7086   5.883   0.460   3.533
 2063SOL     OW 7087   2.086   0.576   6.066
 2063SOL    HW1 7088   2.068   0.487   6.109
 2063SOL    HW2 7089   2.175   0.610   6.097
 2064SOL     OW 7090   1.154   2.173   5.952
 2064SOL    HW1 7091   1.221   2.234   5.993
 2064SOL    HW2 7092   1.202   2.103   5.898
 2065SOL     OW 7093   6.856   3.374   3.229
 2065SOL    HW1 7094   6.885   3.461   3.269
 2065SOL    HW2 7095   6.758   3.360   3.245
 2066SOL     OW 7096   0.245   5.742   3.396
 2066SOL    HW1 7097   0.214   5.772   3.487
 2066SOL    HW2 7098   0.179   5.774   3.327
 2067SOL     OW 7099   6.804   5.577   0.957
 2067SOL    HW1 7100   6.762   5.507   1.014
 2067SOL    HW2 7101   6.734   5.640   0.924
 2068SOL     OW 7102   1.366   1.652   5.303
 2068SOL    HW1 7103   1.345   1.569   5.252
 2068SOL    HW2 7104   1.285   1.680   5.356
 2069SOL     OW 7105   1.258   3.039   3.365
 2069SOL    HW1 7106   1.309   2.956   3.386
 2069SOL    HW2 7107   1.294   3.115   3.420
 2070SOL     OW 7108   1.308   0.893   2.163
 2070SOL    HW1 7109   1.221   0.910   2.117
 2070SOL    HW2 7110   1.297   0.908   2.262
 2071SOL     OW 7111   6.351   6.091   5.075
 2071SOL    HW1 7112   6.256   6.068   5.050
 2071SOL    HW2 7113   6.350   6.160   5.146
 2072SOL     OW 7114   4.303   6.876   2.452
 2072SOL    HW1 7115   4.287   6.908   2.359
 2072SOL    HW2 7116   4.245   6.927   2.515
 2073SOL     OW 7117   3.913   0.043   4.656
 2073SOL    HW1 7118   3.968   0.099   4.594
 2073SOL    HW2 7119   3.932   6.977   4.639
 2074SOL     OW 7120   1.269   3.352   0.345
 2074SOL    HW1 7121   1.234   3.400   0.264
 2074SOL    HW2 7122   1.194   3.333   0.407
 2075SOL     OW 7123   5.596   2.969   1.432
 2075SOL    HW1 7124   5.522   3.021   1.475
 2075SOL    HW2 7125   5.558   2.912   1.359
 2076SOL     OW 7126   5.063   0.017   6.627
 2076SOL    HW1 7127   4.968   7.019   6.639
 2076SOL    HW2 7128   5.093   7.024   6.534
 2077SOL     OW 7129   5.481   2.245   2.771
 2077SOL    HW1 7130   5.577   2.273   2.774
 2077SOL    HW2 7131   5.458   2.192   2.853
 2078SOL     OW 7132   1.558   6.247   6.521
 2078SOL    HW1 7133   1.572   6.202   6.609
 2078SOL    HW2 7134   1.498   6.191   6.464
 2079SOL     OW 7135   5.912   1.763   3.153
 2079SOL    HW1 7136   5.987   1.716   3.199
 2079SOL    HW2 7137   5.917   1.746   3.055
 2080SOL     OW 7138   1.129   0.610   4.329
 2080SOL    HW1 7139   1.228   0.617   4.331
 2080SOL    HW2 7140   1.089   0.697   4.357
 2081SOL     OW 7141   1.925   5.693   4.205
 2081SOL    HW1 7142   2.001   5.709   4.268
 2081SOL    HW2 7143   1.939   5.747   4.121
 2082SOL     OW 7144   6.997   0.085   3.067
 2082SOL    HW1 7145   7.028   0.085   3.162
 2082SOL    HW2 7146   0.046   0.092   3.006
 2083SOL     OW 7147   5.455   5.240   5.844
 2083SOL    HW1 7148   5.383   5.240   5.913
 2083SOL    HW2 7149   5.517   5.162   5.859
 2084SOL     OW 7150   0.442   3.995   4.171
 2084SOL    HW1 7151   0.375   3.945   4.116
 2084SOL    HW2 7152   0.502   4.047   4.110
 2085SOL     OW 7153   4.596   0.396   6.562
 2085SOL    HW1 7154   4.548   0.477   6.595
 2085SOL    HW2 7155   4.623   0.339   6.640
 2086SOL     OW 7156   3.924   6.805   6.000
 2086SOL    HW1 7157   4.011   6.827   5.956
 2086SOL    HW2 7158   3.857   6.875   5.976
 2087SOL     OW 7159   5.221   0.236   1.468
 2087SOL    HW1 7160   5.209   0.171   1.392
 2087SOL    HW2 7161   5.219   0.186   1.555
 2088SOL     OW 7162   2.903   5.784   0.985
 2088SOL    HW1 7163   2.814   5.747   1.010
 2088SOL    HW2 7164   2.894   5.836   0.900
 2089SOL     OW 7165   5.542   2.419   6.393
 2089SOL    HW1 7166   5.489   2.378   6.318
 2089SOL    HW2 7167   5.562   2.514   6.371
 2090SOL     OW 7168   3.394   3.167   5.599
 2090SOL    HW1 7169   3.407   3.177   5.500
 2090SOL    HW2 7170   3.478   3.131   5.640
 2091SOL     OW 7171   0.086   5.551   0.443
 2091SOL    HW1 7172   7.026   5.571   0.483
 2091SOL    HW2 7173   0.156   5.603   0.492
 2092SOL     OW 7174   5.042   4.459   6.734
 2092SOL    HW1 7175   5.108   4.485   6.663
 2092SOL    HW2 7176   5.013   4.541   6.784
 2093SOL     OW 7177   2.324   2.468   1.389
 2093SOL    HW1 7178   2.376   2.393   1.429
 2093SOL    HW2 7179   2.314   2.542   1.456
 2094SOL     OW 7180   5.726   1.240   1.350
 2094SOL    HW1 7181   5.658   1.274   1.415
 2094SOL    HW2 7182   5.682   1.223   1.262
 2095SOL     OW 7183   5.263   0.510   4.949
 2095SOL    HW1 7184   5.246   0.583   5.015
 2095SOL    HW2 7185   5.351   0.526   4.904
 2096SOL     OW 7186   5.141   4.206   3.429
 2096SOL    HW1 7187   5.107   4.218   3.336
 2096SOL    HW2 7188   5.078   4.147   3.480
 2097SOL     OW 7189   2.132   3.152   6.615
 2097SOL    HW1 7190   2.178   3.222   6.670
 2097SOL    HW2 7191   2.198   3.083   6.586
 2098SOL     OW 7192   4.310   5.817   2.902
 2098SOL    HW1 7193   4.385   5.864   2.948
 2098SOL    HW2 7194   4.335   5.721   2.888
 2099SOL     OW 7195   2.679   3.323   5.366
 2099SOL    HW1 7196   2.682   3.266   5.447
 2099SOL    HW2 7197   2.607   3.292   5.305
 2100SOL     OW 7198   4.720   3.216   5.761
 2100SOL    HW1 7199   4.700   3.294   5.702
 2100SOL    HW2 7200   4.718   3.131   5.707
 2101SOL     OW 7201   1.411   6.061   2.459
 2101SOL    HW1 7202   1.417   6.120   2.378
 2101SOL    HW2 7203   1.441   5.969   2.435
 2102SOL     OW 7204   6.206   5.012   1.763
 2102SOL    HW1 7205   6.202   5.110   1.782
 2102SOL    HW2 7206   6.113   4.975   1.762
 2103SOL     OW 7207   3.979   4.269   6.139
 2103SOL    HW1 7208   3.886   4.270   6.103
 2103SOL    HW2 7209   4.036   4.211   6.080
 2104SOL     OW 7210   1.535   2.969   0.995
 2104SOL    HW1 7211   1.514   2.978   0.898
 2104SOL    HW2 7212   1.626   2.930   1.006
 2105SOL     OW 7213   5.441   5.954   4.841
 2105SOL    HW1 7214   5.403   5.876   4.891
 2105SOL    HW2 7215   5.367   6.003   4.794
 2106SOL     OW 7216   4.747   4.407   0.800
 2106SOL    HW1 7217   4.790   4.317   0.799
 2106SOL    HW2 7218   4.733   4.438   0.706
 2107SOL     OW 7219   5.525   2.587   5.101
 2107SOL    HW1 7220   5.429   2.561   5.110
 2107SOL    HW2 7221   5.560   2.556   5.013
 2108SOL     OW 7222   6.561   6.029   5.231
 2108SOL    HW1 7223   6.488   6.025   5.162
 2108SOL    HW2 7224   6.535   5.974   5.310
 2109SOL     OW 7225   4.107   6.230   2.682
 2109SOL    HW1 7226   4.118   6.137   2.716
 2109SOL    HW2 7227   4.010   6.247   2.665
 2110SOL     OW 7228   3.003   1.622   6.760
 2110SOL    HW1 7229   2.916   1.625   6.712
 2110SOL    HW2 7230   2.987   1.603   6.857
 2111SOL     OW 7231   0.940   2.752   0.316
 2111SOL    HW1 7232   0.974   2.731   0.407
 2111SOL    HW2 7233   0.954   2.673   0.256
 2112SOL     OW 7234   5.195   2.718   6.970
 2112SOL    HW1 7235   5.104   2.729   6.929
 2112SOL    HW2 7236   5.196   2.637   7.028
 2113SOL     OW 7237   1.018   1.651   5.044
 2113SOL    HW1 7238   1.036   1.569   4.989
 2113SOL    HW2 7239   0.920   1.657   5.062
 2114SOL     OW 7240   1.344   2.698   0.822
 2114SOL    HW1 7241   1.297   2.645   0.752
 2114SOL    HW2 7242   1.389   2.777   0.779
 2115SOL     OW 7243   1.994   3.613   2.828
 2115SOL    HW1 7244   2.018   3.538   2.767
 2115SOL    HW2 7245   2.047   3.605   2.913
 2116SOL     OW 7246   6.546   4.772   3.085
 2116SOL    HW1 7247   6.466   4.787   3.144
 2116SOL    HW2 7248   6.518   4.721   3.003
 2117SOL     OW 7249   6.418   4.758   1.929
 2117SOL    HW1 7250   6.419   4.832   1.996
 2117SOL    HW2 7251   6.512   4.733   1.905
 2118SOL     OW 7252   6.205   3.515   1.673
 2118SOL    HW1 7253   6.257   3.430   1.673
 2118SOL    HW2 7254   6.253   3.583   1.729
 2119SOL     OW 7255   2.332   5.853   1.158
 2119SOL    HW1 7256   2.415   5.903   1.135
 2119SOL    HW2 7257   2.254   5.916   1.160
 2120SOL     OW 7258   0.111   5.141   3.814
 2120SOL    HW1 7259   0.194   5.183   3.776
 2120SOL    HW2 7260   0.132   5.100   3.903
 2121SOL     OW 7261   1.138   3.312   5.744
 2121SOL    HW1 7262   1.049   3.358   5.752
 2121SOL    HW2 7263   1.137   3.254   5.662
 2122SOL     OW 7264   5.818   4.349   5.930
 2122SOL    HW1 7265   5.895   4.411   5.946
 2122SOL    HW2 7266   5.841   4.288   5.853
 2123SOL     OW 7267   6.412   5.880   2.052
 2123SOL    HW1 7268   6.436   5.783   2.058
 2123SOL    HW2 7269   6.369   5.910   2.137
 2124SOL     OW 7270   2.836   1.534   1.726
 2124SOL    HW1 7271   2.902   1.513   1.798
 2124SOL    HW2 7272   2.805   1.449   1.683
 2125SOL     OW 7273   1.797   0.697   1.849
 2125SOL    HW1 7274   1.789   0.723   1.753
 2125SOL    HW2 7275   1.810   0.599   1.856
 2126SOL     OW 7276   3.895   1.140   6.716
 2126SOL    HW1 7277   3.985   1.128   6.676
 2126SOL    HW2 7278   3.894   1.223   6.772
 2127SOL     OW 7279   6.811   3.267   4.372
 2127SOL    HW1 7280   6.853   3.309   4.453
 2127SOL    HW2 7281   6.825   3.168   4.375
 2128SOL     OW 7282   6.954   3.243   3.444
 2128SOL    HW1 7283   6.934   3.277   3.352
 2128SOL    HW2 7284   6.868   3.222   3.491
 2129SOL     OW 7285   4.051   3.867   5.560
 2129SOL    HW1 7286   4.006   3.781   5.535
 2129SOL    HW2 7287   3.981   3.938   5.571
 2130SOL     OW 7288   3.649   0.811   1.835
 2130SOL    HW1 7289   3.554   0.835   1.854
 2130SOL    HW2 7290   3.710   0.881   1.872
 2131SOL     OW 7291   6.248   0.321   0.083
 2131SOL    HW1 7292   6.243   0.235   0.133
 2131SOL    HW2 7293   6.277   0.304   7.019
 2132SOL     OW 7294   3.549   1.478   1.727
 2132SOL    HW1 7295   3.620   1.514   1.787
 2132SOL    HW2 7296   3.589   1.413   1.662
 2133SOL     OW 7297   3.267   3.196   0.048
 2133SOL    HW1 7298   3.264   3.103   0.085
 2133SOL    HW2 7299   3.281   3.192   6.980
 2134SOL     OW 7300   0.183   2.371   6.641
 2134SOL    HW1 7301   0.221   2.407   6.556
 2134SOL    HW2 7302   0.090   2.406   6.653
 2135SOL     OW 7303   0.527   3.634   4.224
 2135SOL    HW1 7304   0.440   3.684   4.229
 2135SOL    HW2 7305   0.509   3.536   4.223
 2136SOL     OW 7306   1.561   4.235   2.498
 2136SOL    HW1 7307   1.628   4.309   2.491
 2136SOL    HW2 7308   1.607   4.148   2.479
 2137SOL     OW 7309   2.406   5.850   5.520
 2137SOL    HW1 7310   2.488   5.819   5.473
 2137SOL    HW2 7311   2.360   5.919   5.465
 2138SOL     OW 7312   6.825   6.605   2.936
 2138SOL    HW1 7313   6.728   6.581   2.934
 2138SOL    HW2 7314   6.868   6.577   2.851
 2139SOL     OW 7315   4.608   1.005   3.672
 2139SOL    HW1 7316   4.604   0.959   3.761
 2139SOL    HW2 7317   4.679   0.963   3.616
 2140SOL     OW 7318   3.501   0.025   4.032
 2140SOL    HW1 7319   3.441   0.104   4.044
 2140SOL    HW2 7320   3.592   0.046   4.069
 2141SOL     OW 7321   6.754   3.004   1.658
 2141SOL    HW1 7322   6.846   3.036   1.636
 2141SOL    HW2 7323   6.759   2.922   1.715
 2142SOL     OW 7324   1.733   1.573   3.093
 2142SOL    HW1 7325   1.701   1.634   3.166
 2142SOL    HW2 7326   1.828   1.597   3.070
 2143SOL     OW 7327   3.087   4.492   1.410
 2143SOL    HW1 7328   3.102   4.534   1.320
 2143SOL    HW2 7329   2.991   4.466   1.418
 2144SOL     OW 7330   1.183   5.651   4.354
 2144SOL    HW1 7331   1.119   5.608   4.417
 2144SOL    HW2 7332   1.260   5.690   4.406
 2145SOL     OW 7333   3.732   6.604   4.294
 2145SOL    HW1 7334   3.703   6.630   4.202
 2145SOL    HW2 7335   3.771   6.684   4.340
 2146SOL     OW 7336   2.232   3.306   0.965
 2146SOL    HW1 7337   2.221   3.366   1.045
 2146SOL    HW2 7338   2.254   3.361   0.885
 2147SOL     OW 7339   6.607   1.685   5.645
 2147SOL    HW1 7340   6.578   1.593   5.618
 2147SOL    HW2 7341   6.526   1.743   5.657
 2148SOL     OW 7342   6.258   3.403   5.924
 2148SOL    HW1 7343   6.238   3.308   5.900
 2148SOL    HW2 7344   6.177   3.459   5.907
 2149SOL     OW 7345   3.091   1.594   1.248
 2149SOL    HW1 7346   3.183   1.611   1.284
 2149SOL    HW2 7347   3.098   1.548   1.160
 2150SOL     OW 7348   2.469   2.564   1.957
 2150SOL    HW1 7349   2.536   2.579   1.885
 2150SOL    HW2 7350   2.478   2.471   1.992
 2151SOL     OW 7351   1.795   7.027   5.911
 2151SOL    HW1 7352   1.863   7.026   5.984
 2151SOL    HW2 7353   1.838   0.029   5.827
 2152SOL     OW 7354   3.193   5.164   2.155
 2152SOL    HW1 7355   3.291   5.149   2.165
 2152SOL    HW2 7356   3.146   5.076   2.146
 2153SOL     OW 7357   4.852   1.897   2.878
 2153SOL    HW1 7358   4.776   1.957   2.902
 2153SOL    HW2 7359   4.866   1.830   2.951
 2154SOL     OW 7360   5.330   1.137   4.868
 2154SOL    HW1 7361   5.400   1.202   4.837
 2154SOL    HW2 7362   5.349   1.108   4.961
 2155SOL     OW 7363   3.892   6.742   0.983
 2155SOL    HW1 7364   3.976   6.709   1.025
 2155SOL    HW2 7365   3.815   6.683   1.009
 2156SOL     OW 7366   1.160   2.173   5.017
 2156SOL    HW1 7367   1.096   2.197   5.089
 2156SOL    HW2 7368   1.211   2.254   4.988
 2157SOL     OW 7369   5.657   0.130   3.105
 2157SOL    HW1 7370   5.710   0.067   3.162
 2157SOL    HW2 7371   5.647   0.090   3.013
 2158SOL     OW 7372   3.530   5.597   0.787
 2158SOL    HW1 7373   3.523   5.609   0.688
 2158SOL    HW2 7374   3.581   5.513   0.807
 2159SOL     OW 7375   1.454   0.051   5.100
 2159SOL    HW1 7376   1.489   0.145   5.105
 2159SOL    HW2 7377   1.496   0.004   5.022
 2160SOL     OW 7378   4.893   4.260   6.642
 2160SOL    HW1 7379   4.949   4.178   6.650
 2160SOL    HW2 7380   4.948   4.340   6.665
 2161SOL     OW 7381   5.834   4.783   2.452
 2161SOL    HW1 7382   5.799   4.729   2.528
 2161SOL    HW2 7383   5.790   4.754   2.367
 2162SOL     OW 7384   3.915   0.231   2.262
 2162SOL    HW1 7385   3.935   0.328   2.248
 2162SOL    HW2 7386   3.818   0.215   2.246
 2163SOL     OW 7387   1.687   4.322   6.892
 2163SOL    HW1 7388   1.722   4.356   6.805
 2163SOL    HW2 7389   1.764   4.303   6.954
 2164SOL     OW 7390   2.035   2.648   6.290
 2164SOL    HW1 7391   2.120   2.676   6.244
 2164SOL    HW2 7392   1.970   2.724   6.289
 2165SOL     OW 7393   0.117   2.548   3.277
 2165SOL    HW1 7394   0.029   2.521   3.316
 2165SOL    HW2 7395   0.136   2.493   3.196
 2166SOL     OW 7396   1.556   2.760   4.861
 2166SOL    HW1 7397   1.597   2.768   4.770
 2166SOL    HW2 7398   1.598   2.684   4.910
 2167SOL     OW 7399   1.327   2.642   3.188
 2167SOL    HW1 7400   1.406   2.581   3.187
 2167SOL    HW2 7401   1.310   2.676   3.095
 2168SOL     OW 7402   0.571   2.287   3.696
 2168SOL    HW1 7403   0.517   2.365   3.667
 2168SOL    HW2 7404   0.542   2.257   3.787
 2169SOL     OW 7405   5.820   1.966   6.923
 2169SOL    HW1 7406   5.892   1.947   6.856
 2169SOL    HW2 7407   5.855   2.029   6.993
 2170SOL     OW 7408   6.792   4.226   5.035
 2170SOL    HW1 7409   6.829   4.223   4.942
 2170SOL    HW2 7410   6.835   4.300   5.086
 2171SOL     OW 7411   0.035   5.204   1.079
 2171SOL    HW1 7412   0.037   5.303   1.078
 2171SOL    HW2 7413   0.128   5.168   1.075
 2172SOL     OW 7414   2.089   1.847   6.410
 2172SOL    HW1 7415   2.170   1.862   6.467
 2172SOL    HW2 7416   2.006   1.866   6.463
 2173SOL     OW 7417   4.195   0.736   5.145
 2173SOL    HW1 7418   4.122   0.669   5.133
 2173SOL    HW2 7419   4.267   0.720   5.077
 2174SOL     OW 7420   6.588   6.004   4.911
 2174SOL    HW1 7421   6.640   5.998   4.996
 2174SOL    HW2 7422   6.490   6.004   4.931
 2175SOL     OW 7423   1.839   2.333   4.649
 2175SOL    HW1 7424   1.889   2.367   4.729
 2175SOL    HW2 7425   1.803   2.242   4.668
 2176SOL     OW 7426   5.704   2.001   0.284
 2176SOL    HW1 7427   5.735   1.930   0.221
 2176SOL    HW2 7428   5.604   2.007   0.280
 2177SOL     OW 7429   0.064   1.871   3.696
 2177SOL    HW1 7430   0.067   1.880   3.795
 2177SOL    HW2 7431   0.024   1.953   3.656
 2178SOL     OW 7432   2.318   1.902   1.823
 2178SOL    HW1 7433   2.228   1.932   1.854
 2178SOL    HW2 7434   2.371   1.981   1.792
 2179SOL     OW 7435   2.056   5.005   5.648
 2179SOL    HW1 7436   2.150   5.039   5.655
 2179SOL    HW2 7437   2.004   5.036   5.728
 2180SOL     OW 7438   2.310   2.192   2.033
 2180SOL    HW1 7439   2.323   2.257   2.108
 2180SOL    HW2 7440   2.311   2.099   2.069
 2181SOL     OW 7441   4.954   4.948   4.809
 2181SOL    HW1 7442   4.988   4.860   4.843
 2181SOL    HW2 7443   4.891   4.933   4.733
 2182SOL     OW 7444   1.678   4.182   3.432
 2182SOL    HW1 7445   1.696   4.256   3.367
 2182SOL    HW2 7446   1.721   4.098   3.400
 2183SOL     OW 7447   1.931   4.839   6.232
 2183SOL    HW1 7448   1.981   4.753   6.224
 2183SOL    HW2 7449   1.853   4.839   6.170
 2184SOL     OW 7450   4.276   1.042   5.919
 2184SOL    HW1 7451   4.308   1.124   5.872
 2184SOL    HW2 7452   4.321   1.036   6.009
 2185SOL     OW 7453   0.659   0.427   0.928
 2185SOL    HW1 7454   0.683   0.477   0.844
 2185SOL    HW2 7455   0.577   0.373   0.912
 2186SOL     OW 7456   7.029   5.679   0.774
 2186SOL    HW1 7457   0.029   5.732   0.853
 2186SOL    HW2 7458   6.935   5.647   0.789
 2187SOL     OW 7459   6.442   6.035   2.918
 2187SOL    HW1 7460   6.523   5.983   2.946
 2187SOL    HW2 7461   6.366   5.972   2.904
 2188SOL     OW 7462   6.783   5.638   4.569
 2188SOL    HW1 7463   6.721   5.694   4.622
 2188SOL    HW2 7464   6.862   5.693   4.541
 2189SOL     OW 7465   2.151   6.792   0.838
 2189SOL    HW1 7466   2.222   6.753   0.780
 2189SOL    HW2 7467   2.154   6.892   0.832
 2190SOL     OW 7468   0.645   3.050   2.031
 2190SOL    HW1 7469   0.548   3.060   2.008
 2190SOL    HW2 7470   0.658   2.965   2.081
 2191SOL     OW 7471   2.716   1.472   6.221
 2191SOL    HW1 7472   2.624   1.438   6.199
 2191SOL    HW2 7473   2.713   1.571   6.231
 2192SOL     OW 7474   5.120   1.123   2.740
 2192SOL    HW1 7475   5.050   1.100   2.672
 2192SOL    HW2 7476   5.090   1.202   2.793
 2193SOL     OW 7477   5.451   5.995   0.070
 2193SOL    HW1 7478   5.398   6.042   0.140
 2193SOL    HW2 7479   5.401   5.999   7.013
 2194SOL     OW 7480   2.155   4.718   6.039
 2194SOL    HW1 7481   2.156   4.818   6.043
 2194SOL    HW2 7482   2.111   4.689   5.954
 2195SOL     OW 7483   0.503   0.103   5.152
 2195SOL    HW1 7484   0.603   0.099   5.161
 2195SOL    HW2 7485   0.479   0.114   5.055
 2196SOL     OW 7486   3.893   0.567   5.077
 2196SOL    HW1 7487   3.934   0.623   5.005
 2196SOL    HW2 7488   3.828   0.502   5.036
 2197SOL     OW 7489   2.626   3.485   0.211
 2197SOL    HW1 7490   2.584   3.531   0.133
 2197SOL    HW2 7491   2.572   3.503   0.293
 2198SOL     OW 7492   5.341   0.230   0.787
 2198SOL    HW1 7493   5.389   0.273   0.864
 2198SOL    HW2 7494   5.407   0.202   0.718
 2199SOL     OW 7495   4.969   0.175   3.414
 2199SOL    HW1 7496   4.878   0.192   3.451
 2199SOL    HW2 7497   5.003   0.258   3.370
 2200SOL     OW 7498   2.229   1.944   4.381
 2200SOL    HW1 7499   2.175   1.966   4.462
 2200SOL    HW2 7500   2.182   1.873   4.328
 2201SOL     OW 7501   6.693   2.798   3.370
 2201SOL    HW1 7502   6.774   2.846   3.403
 2201SOL    HW2 7503   6.617   2.862   3.361
 2202SOL     OW 7504   3.050   5.649   2.300
 2202SOL    HW1 7505   3.033   5.551   2.293
 2202SOL    HW2 7506   2.989   5.698   2.239
 2203SOL     OW 7507   1.824   3.057   0.878
 2203SOL    HW1 7508   1.922   3.053   0.860
 2203SOL    HW2 7509   1.804   3.006   0.962
 2204SOL     OW 7510   4.608   1.705   1.234
 2204SOL    HW1 7511   4.704   1.724   1.254
 2204SOL    HW2 7512   4.555   1.706   1.320
 2205SOL     OW 7513   0.488   6.812   6.399
 2205SOL    HW1 7514   0.427   6.855   6.466
 2205SOL    HW2 7515   0.435   6.783   6.319
 2206SOL     OW 7516   3.715   5.287   6.221
 2206SOL    HW1 7517   3.764   5.238   6.294
 2206SOL    HW2 7518   3.757   5.265   6.133
 2207SOL     OW 7519   2.679   5.051   6.728
 2207SOL    HW1 7520   2.771   5.075   6.695
 2207SOL    HW2 7521   2.625   5.014   6.653
 2208SOL     OW 7522   1.381   5.692   2.914
 2208SOL    HW1 7523   1.322   5.763   2.954
 2208SOL    HW2 7524   1.384   5.614   2.976
 2209SOL     OW 7525   1.271   6.879   5.583
 2209SOL    HW1 7526   1.309   6.801   5.533
 2209SOL    HW2 7527   1.219   6.847   5.662
 2210SOL     OW 7528   0.164   4.758   4.658
 2210SOL    HW1 7529   0.203   4.729   4.746
 2210SOL    HW2 7530   0.118   4.846   4.670
 2211SOL     OW 7531   6.381   0.038   0.626
 2211SOL    HW1 7532   6.380   0.137   0.615
 2211SOL    HW2 7533   6.444   0.013   0.699
 2212SOL     OW 7534   2.439   5.805   0.151
 2212SOL    HW1 7535   2.379   5.838   0.224
 2212SOL    HW2 7536   2.529   5.785   0.189
 2213SOL     OW 7537   3.119   1.892   5.288
 2213SOL    HW1 7538   3.175   1.830   5.232
 2213SOL    HW2 7539   3.022   1.873   5.271
 2214SOL     OW 7540   3.537   3.702   5.622
 2214SOL    HW1 7541   3.635   3.711   5.635
 2214SOL    HW2 7542   3.489   3.753   5.693
 2215SOL     OW 7543   6.036   1.217   0.012
 2215SOL    HW1 7544   6.090   1.136   7.018
 2215SOL    HW2 7545   6.066   1.252   0.100
 2216SOL     OW 7546   1.742   0.948   6.173
 2216SOL    HW1 7547   1.826   0.930   6.121
 2216SOL    HW2 7548   1.725   1.047   6.176
 2217SOL     OW 7549   4.160   6.894   2.182
 2217SOL    HW1 7550   4.084   6.857   2.237
 2217SOL    HW2 7551   4.127   6.972   2.128
 2218SOL     OW 7552   6.717   5.486   6.668
 2218SOL    HW1 7553   6.671   5.402   6.697
 2218SOL    HW2 7554   6.756   5.473   6.577
 2219SOL     OW 7555   5.282   1.661   0.966
 2219SOL    HW1 7556   5.268   1.718   1.047
 2219SOL    HW2 7557   5.365   1.606   0.977
 2220SOL     OW 7558   1.911   6.668   5.203
 2220SOL    HW1 7559   1.830   6.725   5.188
 2220SOL    HW2 7560   1.993   6.724   5.197
 2221SOL     OW 7561   6.074   1.448   5.748
 2221SOL    HW1 7562   6.017   1.530   5.737
 2221SOL    HW2 7563   6.161   1.462   5.701
 2222SOL     OW 7564   5.359   0.928   0.114
 2222SOL    HW1 7565   5.345   0.902   0.210
 2222SOL    HW2 7566   5.455   0.953   0.101
 2223SOL     OW 7567   5.976   1.223   5.211
 2223SOL    HW1 7568   6.016   1.309   5.180
 2223SOL    HW2 7569   5.893   1.241   5.264
 2224SOL     OW 7570   0.262   3.185   1.144
 2224SOL    HW1 7571   0.162   3.175   1.138
 2224SOL    HW2 7572   0.306   3.102   1.111
 2225SOL     OW 7573   6.653   6.984   3.686
 2225SOL    HW1 7574   6.710   6.935   3.753
 2225SOL    HW2 7575   6.659   6.937   3.598
 2226SOL     OW 7576   3.461   5.243   1.232
 2226SOL    HW1 7577   3.534   5.306   1.257
 2226SOL    HW2 7578   3.375   5.272   1.275
 2227SOL     OW 7579   5.341   3.480   6.791
 2227SOL    HW1 7580   5.296   3.391   6.786
 2227SOL    HW2 7581   5.382   3.502   6.702
 2228SOL     OW 7582   3.748   4.846   0.877
 2228SOL    HW1 7583   3.758   4.831   0.975
 2228SOL    HW2 7584   3.836   4.875   0.839
 2229SOL     OW 7585   4.539   2.622   5.320
 2229SOL    HW1 7586   4.526   2.591   5.415
 2229SOL    HW2 7587   4.632   2.654   5.307
 2230SOL     OW 7588   5.729   6.695   0.221
 2230SOL    HW1 7589   5.722   6.744   0.134
 2230SOL    HW2 7590   5.643   6.648   0.240
 2231SOL     OW 7591   0.803   0.419   1.464
 2231SOL    HW1 7592   0.902   0.430   1.454
 2231SOL    HW2 7593   0.760   0.420   1.374
 2232SOL     OW 7594   1.180   2.554   4.777
 2232SOL    HW1 7595   1.184   2.648   4.745
 2232SOL    HW2 7596   1.111   2.504   4.725
 2233SOL     OW 7597   1.571   3.413   0.190
 2233SOL    HW1 7598   1.630   3.449   0.262
 2233SOL    HW2 7599   1.535   3.324   0.218
 2234SOL     OW 7600   4.363   1.325   1.493
 2234SOL    HW1 7601   4.325   1.369   1.412
 2234SOL    HW2 7602   4.291   1.310   1.561
 2235SOL     OW 7603   2.919   6.703   1.652
 2235SOL    HW1 7604   2.847   6.707   1.721
 2235SOL    HW2 7605   2.880   6.674   1.565
 2236SOL     OW 7606   2.039   4.108   6.628
 2236SOL    HW1 7607   2.101   4.175   6.588
 2236SOL    HW2 7608   1.945   4.128   6.600
 2237SOL     OW 7609   5.817   4.785   4.288
 2237SOL    HW1 7610   5.866   4.707   4.327
 2237SOL    HW2 7611   5.766   4.831   4.361
 2238SOL     OW 7612   4.772   4.610   1.908
 2238SOL    HW1 7613   4.782   4.631   1.811
 2238SOL    HW2 7614   4.829   4.531   1.931
 2239SOL     OW 7615   3.664   5.145   4.123
 2239SOL    HW1 7616   3.687   5.091   4.204
 2239SOL    HW2 7617   3.629   5.084   4.052
 2240SOL     OW 7618   4.032   5.727   3.451
 2240SOL    HW1 7619   3.955   5.753   3.391
 2240SOL    HW2 7620   4.101   5.799   3.450
 2241SOL     OW 7621   0.492   5.699   3.441
 2241SOL    HW1 7622   0.404   5.713   3.396
 2241SOL    HW2 7623   0.549   5.780   3.428
 2242SOL     OW 7624   5.478   3.157   2.769
 2242SOL    HW1 7625   5.508   3.216   2.844
 2242SOL    HW2 7626   5.378   3.151   2.769
 2243SOL     OW 7627   1.481   6.676   6.227
 2243SOL    HW1 7628   1.529   6.751   6.272
 2243SOL    HW2 7629   1.468   6.601   6.292
 2244SOL     OW 7630   1.653   6.166   1.846
 2244SOL    HW1 7631   1.578   6.232   1.841
 2244SOL    HW2 7632   1.628   6.093   1.910
 2245SOL     OW 7633   0.713   2.151   0.996
 2245SOL    HW1 7634   0.710   2.176   0.899
 2245SOL    HW2 7635   0.767   2.068   1.007
 2246SOL     OW 7636   1.316   1.266   4.561
 2246SOL    HW1 7637   1.350   1.320   4.638
 2246SOL    HW2 7638   1.338   1.313   4.476
 2247SOL     OW 7639   3.438   2.918   3.480
 2247SOL    HW1 7640   3.534   2.946   3.491
 2247SOL    HW2 7641   3.388   2.935   3.565
 2248SOL     OW 7642   6.256   3.877   5.605
 2248SOL    HW1 7643   6.214   3.799   5.558
 2248SOL    HW2 7644   6.301   3.936   5.539
 2249SOL     OW 7645   5.544   6.401   3.611
 2249SOL    HW1 7646   5.453   6.433   3.638
 2249SOL    HW2 7647   5.580   6.459   3.539
 2250SOL     OW 7648   4.256   3.543   5.794
 2250SOL    HW1 7649   4.203   3.561   5.877
 2250SOL    HW2 7650   4.213   3.589   5.717
 2251SOL     OW 7651   5.184   0.102   6.159
 2251SOL    HW1 7652   5.090   0.129   6.139
 2251SOL    HW2 7653   5.244   0.181   6.152
 2252SOL     OW 7654   4.712   2.517   2.470
 2252SOL    HW1 7655   4.741   2.440   2.527
 2252SOL    HW2 7656   4.717   2.602   2.522
 2253SOL     OW 7657   0.243   4.110   6.762
 2253SOL    HW1 7658   0.239   4.017   6.799
 2253SOL    HW2 7659   0.200   4.112   6.672
 2254SOL     OW 7660   3.719   2.779   5.486
 2254SOL    HW1 7661   3.666   2.855   5.523
 2254SOL    HW2 7662   3.657   2.706   5.457
 2255SOL     OW 7663   4.555   3.165   5.964
 2255SOL    HW1 7664   4.569   3.075   6.005
 2255SOL    HW2 7665   4.642   3.201   5.929
 2256SOL     OW 7666   4.683   6.137   2.335
 2256SOL    HW1 7667   4.719   6.124   2.243
 2256SOL    HW2 7668   4.590   6.173   2.329
 2257SOL     OW 7669   0.230   2.557   4.466
 2257SOL    HW1 7670   0.184   2.492   4.525
 2257SOL    HW2 7671   0.205   2.539   4.371
 2258SOL     OW 7672   1.522   5.435   4.816
 2258SOL    HW1 7673   1.612   5.473   4.791
 2258SOL    HW2 7674   1.521   5.416   4.914
 2259SOL     OW 7675   5.252   3.736   6.193
 2259SOL    HW1 7676   5.233   3.833   6.178
 2259SOL    HW2 7677   5.195   3.701   6.267
 2260SOL     OW 7678   6.618   4.278   2.023
 2260SOL    HW1 7679   6.697   4.330   1.990
 2260SOL    HW2 7680   6.649   4.194   2.066
 2261SOL     OW 7681   6.223   5.418   6.978
 2261SOL    HW1 7682   6.272   5.496   7.016
 2261SOL    HW2 7683   6.276   5.335   6.991
 2262SOL     OW 7684   5.897   1.054   3.216
 2262SOL    HW1 7685   5.904   1.022   3.310
 2262SOL    HW2 7686   5.942   1.142   3.207
 2263SOL     OW 7687   3.161   6.388   6.438
 2263SOL    HW1 7688   3.069   6.362   6.408
 2263SOL    HW2 7689   3.225   6.315   6.412
 2264SOL     OW 7690   2.434   4.418   0.601
 2264SOL    HW1 7691   2.335   4.407   0.592
 2264SOL    HW2 7692   2.479   4.332   0.577
 2265SOL     OW 7693   1.084   0.456   4.115
 2265SOL    HW1 7694   1.091   0.358   4.134
 2265SOL    HW2 7695   1.120   0.508   4.193
 2266SOL     OW 7696   5.098   1.803   0.227
 2266SOL    HW1 7697   5.162   1.804   0.305
 2266SOL    HW2 7698   5.071   1.897   0.205
 2267SOL     OW 7699   4.686   1.972   4.766
 2267SOL    HW1 7700   4.599   1.923   4.774
 2267SOL    HW2 7701   4.734   1.941   4.684
 2268SOL     OW 7702   6.257   3.884   7.012
 2268SOL    HW1 7703   6.289   3.850   6.923
 2268SOL    HW2 7704   6.323   3.950   0.017
 2269SOL     OW 7705   6.372   4.827   5.569
 2269SOL    HW1 7706   6.385   4.778   5.483
 2269SOL    HW2 7707   6.404   4.921   5.559
 2270SOL     OW 7708   3.255   2.573   6.362
 2270SOL    HW1 7709   3.236   2.523   6.278
 2270SOL    HW2 7710   3.249   2.671   6.345
 2271SOL     OW 7711   4.983   3.615   0.513
 2271SOL    HW1 7712   5.078   3.612   0.482
 2271SOL    HW2 7713   4.974   3.566   0.599
 2272SOL     OW 7714   6.161   2.876   6.554
 2272SOL    HW1 7715   6.119   2.965   6.541
 2272SOL    HW2 7716   6.199   2.844   6.467
 2273SOL     OW 7717   1.756   1.609   2.329
 2273SOL    HW1 7718   1.744   1.594   2.231
 2273SOL    HW2 7719   1.793   1.526   2.371
 2274SOL     OW 7720   6.975   2.512   6.702
 2274SOL    HW1 7721   6.891   2.458   6.693
 2274SOL    HW2 7722   6.971   2.591   6.640
 2275SOL     OW 7723   6.386   6.939   4.049
 2275SOL    HW1 7724   6.382   6.839   4.046
 2275SOL    HW2 7725   6.444   6.969   4.125
 2276SOL     OW 7726   2.168   5.471   1.039
 2276SOL    HW1 7727   2.263   5.439   1.033
 2276SOL    HW2 7728   2.149   5.501   1.132
 2277SOL     OW 7729   3.637   3.943   4.432
 2277SOL    HW1 7730   3.661   3.908   4.523
 2277SOL    HW2 7731   3.558   4.003   4.440
 2278SOL     OW 7732   6.432   4.549   4.653
 2278SOL    HW1 7733   6.403   4.606   4.576
 2278SOL    HW2 7734   6.401   4.455   4.638
 2279SOL     OW 7735   5.327   6.598   5.550
 2279SOL    HW1 7736   5.404   6.601   5.487
 2279SOL    HW2 7737   5.336   6.518   5.610
 2280SOL     OW 7738   6.463   6.878   4.770
 2280SOL    HW1 7739   6.399   6.824   4.825
 2280SOL    HW2 7740   6.556   6.846   4.786
 2281SOL     OW 7741   3.414   1.215   2.386
 2281SOL    HW1 7742   3.450   1.181   2.472
 2281SOL    HW2 7743   3.489   1.242   2.326
 2282SOL     OW 7744   5.484   0.585   4.758
 2282SOL    HW1 7745   5.582   0.587   4.774
 2282SOL    HW2 7746   5.463   0.632   4.672
 2283SOL     OW 7747   0.544   5.054   0.981
 2283SOL    HW1 7748   0.508   5.021   0.893
 2283SOL    HW2 7749   0.553   5.153   0.978
 2284SOL     OW 7750   0.949   2.808   6.508
 2284SOL    HW1 7751   1.046   2.824   6.526
 2284SOL    HW2 7752   0.917   2.730   6.562
 2285SOL     OW 7753   2.213   2.368   1.083
 2285SOL    HW1 7754   2.205   2.325   1.173
 2285SOL    HW2 7755   2.250   2.301   1.017
 2286SOL     OW 7756   7.029   0.029   3.735
 2286SOL    HW1 7757   6.954   7.000   3.763
 2286SOL    HW2 7758   6.998   0.124   3.736
 2287SOL     OW 7759   1.896   0.622   3.088
 2287SOL    HW1 7760   1.978   0.664   3.048
 2287SOL    HW2 7761   1.918   0.530   3.121
 2288SOL     OW 7762   6.096   5.170   4.521
 2288SOL    HW1 7763   6.014   5.216   4.489
 2288SOL    HW2 7764   6.158   5.154   4.444
 2289SOL     OW 7765   0.636   4.819   1.984
 2289SOL    HW1 7766   0.548   4.846   1.943
 2289SOL    HW2 7767   0.669   4.736   1.939
 2290SOL     OW 7768   0.383   3.871   0.731
 2290SOL    HW1 7769   0.455   3.801   0.731
 2290SOL    HW2 7770   0.347   3.881   0.824
 2291SOL     OW 7771   2.693   2.814   5.518
 2291SOL    HW1 7772   2.604   2.852   5.495
 2291SOL    HW2 7773   2.761   2.847   5.452
 2292SOL     OW 7774   6.879   1.927   5.238
 2292SOL    HW1 7775   6.912   1.946   5.330
 2292SOL    HW2 7776   6.782   1.948   5.232
 2293SOL     OW 7777   4.364   6.282   1.359
 2293SOL    HW1 7778   4.372   6.346   1.283
 2293SOL    HW2 7779   4.380   6.329   1.446
 2294SOL     OW 7780   3.112   0.744   6.901
 2294SOL    HW1 7781   3.134   0.833   6.940
 2294SOL    HW2 7782   3.028   0.709   6.943
 2295SOL     OW 7783   0.879   2.034   2.867
 2295SOL    HW1 7784   0.896   1.941   2.902
 2295SOL    HW2 7785   0.966   2.080   2.853
 2296SOL     OW 7786   4.369   5.091   1.131
 2296SOL    HW1 7787   4.278   5.057   1.109
 2296SOL    HW2 7788   4.401   5.151   1.058
 2297SOL     OW 7789   4.153   4.554   5.598
 2297SOL    HW1 7790   4.145   4.542   5.499
 2297SOL    HW2 7791   4.124   4.646   5.624
 2298SOL     OW 7792   4.017   2.828   1.631
 2298SOL    HW1 7793   4.103   2.831   1.682
 2298SOL    HW2 7794   4.013   2.905   1.568
 2299SOL     OW 7795   3.913   5.839   4.827
 2299SOL    HW1 7796   3.878   5.911   4.887
 2299SOL    HW2 7797   3.902   5.750   4.871
 2300SOL     OW 7798   2.532   5.715   1.765
 2300SOL    HW1 7799   2.473   5.742   1.841
 2300SOL    HW2 7800   2.515   5.619   1.741
 2301SOL     OW 7801   3.452   2.879   3.065
 2301SOL    HW1 7802   3.409   2.951   3.119
 2301SOL    HW2 7803   3.435   2.790   3.107
 2302SOL     OW 7804   3.882   0.362   0.811
 2302SOL    HW1 7805   3.789   0.331   0.833
 2302SOL    HW2 7806   3.915   0.312   0.731
 2303SOL     OW 7807   2.625   3.288   6.206
 2303SOL    HW1 7808   2.592   3.195   6.213
 2303SOL    HW2 7809   2.568   3.349   6.261
 2304SOL     OW 7810   4.617   0.012   3.800
 2304SOL    HW1 7811   4.620   0.001   3.899
 2304SOL    HW2 7812   4.618   0.109   3.777
 2305SOL     OW 7813   2.422   6.396   2.655
 2305SOL    HW1 7814   2.399   6.480   2.703
 2305SOL    HW2 7815   2.496   6.349   2.704
 2306SOL     OW 7816   3.086   4.961   2.435
 2306SOL    HW1 7817   3.158   4.998   2.493
 2306SOL    HW2 7818   3.126   4.923   2.351
 2307SOL     OW 7819   6.330   3.683   2.615
 2307SOL    HW1 7820   6.388   3.735   2.552
 2307SOL    HW2 7821   6.234   3.697   2.592
 2308SOL     OW 7822   0.747   5.371   1.122
 2308SOL    HW1 7823   0.826   5.317   1.093
 2308SOL    HW2 7824   0.775   5.440   1.189
 2309SOL     OW 7825   1.582   0.850   6.398
 2309SOL    HW1 7826   1.578   0.750   6.395
 2309SOL    HW2 7827   1.658   0.882   6.343
 2310SOL     OW 7828   5.174   6.450   1.113
 2310SOL    HW1 7829   5.125   6.385   1.171
 2310SOL    HW2 7830   5.237   6.503   1.170
 2311SOL     OW 7831   2.246   6.460   1.872
 2311SOL    HW1 7832   2.256   6.519   1.953
 2311SOL    HW2 7833   2.223   6.367   1.901
 2312SOL     OW 7834   3.682   6.776   3.686
 2312SOL    HW1 7835   3.710   6.780   3.590
 2312SOL    HW2 7836   3.664   6.682   3.711
 2313SOL     OW 7837   5.665   5.553   1.388
 2313SOL    HW1 7838   5.619   5.479   1.438
 2313SOL    HW2 7839   5.599   5.627   1.371
 2314SOL     OW 7840   5.956   6.908   4.337
 2314SOL    HW1 7841   5.863   6.902   4.301
 2314SOL    HW2 7842   6.011   6.966   4.277
 2315SOL     OW 7843   5.076   3.258   5.264
 2315SOL    HW1 7844   5.119   3.320   5.198
 2315SOL    HW2 7845   5.146   3.200   5.305
 2316SOL     OW 7846   3.537   0.739   4.478
 2316SOL    HW1 7847   3.527   0.658   4.536
 2316SOL    HW2 7848   3.464   0.804   4.499
 2317SOL     OW 7849   0.622   5.801   3.836
 2317SOL    HW1 7850   0.536   5.749   3.833
 2317SOL    HW2 7851   0.615   5.881   3.775
 2318SOL     OW 7852   1.993   2.802   4.617
 2318SOL    HW1 7853   2.053   2.736   4.661
 2318SOL    HW2 7854   1.974   2.877   4.680
 2319SOL     OW 7855   1.977   5.086   4.344
 2319SOL    HW1 7856   1.926   5.083   4.430
 2319SOL    HW2 7857   2.031   5.003   4.333
 2320SOL     OW 7858   0.761   2.839   4.906
 2320SOL    HW1 7859   0.705   2.923   4.904
 2320SOL    HW2 7860   0.821   2.841   4.985
 2321SOL     OW 7861   2.512   6.451   7.002
 2321SOL    HW1 7862   2.465   6.532   0.006
 2321SOL    HW2 7863   2.510   6.451   6.902
 2322SOL     OW 7864   2.121   2.626   3.843
 2322SOL    HW1 7865   2.093   2.595   3.752
 2322SOL    HW2 7866   2.142   2.547   3.901
 2323SOL     OW 7867   3.187   4.891   2.184
 2323SOL    HW1 7868   3.245   4.880   2.103
 2323SOL    HW2 7869   3.093   4.866   2.160
 2324SOL     OW 7870   6.626   6.780   0.927
 2324SOL    HW1 7871   6.562   6.817   0.994
 2324SOL    HW2 7872   6.621   6.680   0.927
 2325SOL     OW 7873   0.549   4.826   1.315
 2325SOL    HW1 7874   0.604   4.907   1.293
 2325SOL    HW2 7875   0.466   4.826   1.258
 2326SOL     OW 7876   4.063   5.377   6.039
 2326SOL    HW1 7877   4.163   5.372   6.039
 2326SOL    HW2 7878   4.028   5.331   5.958
 2327SOL     OW 7879   6.634   2.166   3.724
 2327SOL    HW1 7880   6.695   2.245   3.723
 2327SOL    HW2 7881   6.596   2.153   3.815
 2328SOL     OW 7882   2.794   1.646   2.516
 2328SOL    HW1 7883   2.878   1.694   2.491
 2328SOL    HW2 7884   2.747   1.698   2.588
 2329SOL     OW 7885   1.929   4.096   4.864
 2329SOL    HW1 7886   1.989   4.093   4.944
 2329SOL    HW2 7887   1.980   4.065   4.783
 2330SOL     OW 7888   0.629   4.048   1.329
 2330SOL    HW1 7889   0.678   3.965   1.300
 2330SOL    HW2 7890   0.638   4.118   1.258
 2331SOL     OW 7891   4.613   5.310   0.104
 2331SOL    HW1 7892   4.687   5.325   0.038
 2331SOL    HW2 7893   4.568   5.223   0.084
 2332SOL     OW 7894   4.827   1.803   4.969
 2332SOL    HW1 7895   4.748   1.864   4.975
 2332SOL    HW2 7896   4.893   1.841   4.904
 2333SOL     OW 7897   0.542   4.864   3.031
 2333SOL    HW1 7898   0.555   4.963   3.032
 2333SOL    HW2 7899   0.481   4.837   3.105
 2334SOL     OW 7900   2.055   0.721   0.128
 2334SOL    HW1 7901   2.060   0.802   0.070
 2334SOL    HW2 7902   2.110   0.648   0.088
 2335SOL     OW 7903   6.486   0.515   2.839
 2335SOL    HW1 7904   6.454   0.433   2.888
 2335SOL    HW2 7905   6.476   0.501   2.741
 2336SOL     OW 7906   4.367   2.400   4.815
 2336SOL    HW1 7907   4.308   2.352   4.750
 2336SOL    HW2 7908   4.315   2.424   4.897
 2337SOL     OW 7909   4.852   1.245   2.433
 2337SOL    HW1 7910   4.910   1.206   2.504
 2337SOL    HW2 7911   4.907   1.263   2.351
 2338SOL     OW 7912   1.582   1.943   5.314
 2338SOL    HW1 7913   1.519   2.020   5.302
 2338SOL    HW2 7914   1.577   1.883   5.233
 2339SOL     OW 7915   3.773   3.937   5.042
 2339SOL    HW1 7916   3.766   3.991   4.958
 2339SOL    HW2 7917   3.724   3.983   5.115
 2340SOL     OW 7918   5.404   4.694   0.267
 2340SOL    HW1 7919   5.477   4.629   0.250
 2340SOL    HW2 7920   5.400   4.715   0.365
 2341SOL     OW 7921   4.441   4.990   1.371
 2341SOL    HW1 7922   4.521   5.041   1.401
 2341SOL    HW2 7923   4.419   5.014   1.277
 2342SOL     OW 7924   0.267   6.696   5.215
 2342SOL    HW1 7925   0.290   6.792   5.199
 2342SOL    HW2 7926   0.343   6.651   5.262
 2343SOL     OW 7927   2.357   5.806   2.565
 2343SOL    HW1 7928   2.385   5.711   2.578
 2343SOL    HW2 7929   2.258   5.810   2.553
 2344SOL     OW 7930   1.754   6.914   0.913
 2344SOL    HW1 7931   1.799   6.934   1.000
 2344SOL    HW2 7932   1.821   6.879   0.848
 2345SOL     OW 7933   2.981   5.238   4.524
 2345SOL    HW1 7934   3.002   5.192   4.438
 2345SOL    HW2 7935   2.907   5.305   4.508
 2346SOL     OW 7936   4.768   2.158   4.944
 2346SOL    HW1 7937   4.739   2.105   4.864
 2346SOL    HW2 7938   4.866   2.176   4.937
 2347SOL     OW 7939   2.530   3.365   1.689
 2347SOL    HW1 7940   2.498   3.400   1.777
 2347SOL    HW2 7941   2.453   3.323   1.640
 2348SOL     OW 7942   3.816   6.424   3.535
 2348SOL    HW1 7943   3.916   6.432   3.526
 2348SOL    HW2 7944   3.791   6.327   3.541
 2349SOL     OW 7945   1.198   4.810   6.079
 2349SOL    HW1 7946   1.152   4.740   6.133
 2349SOL    HW2 7947   1.155   4.899   6.096
 2350SOL     OW 7948   4.506   6.743   6.151
 2350SOL    HW1 7949   4.575   6.708   6.088
 2350SOL    HW2 7950   4.503   6.685   6.233
 2351SOL     OW 7951   3.122   5.031   3.301
 2351SOL    HW1 7952   3.076   4.990   3.380
 2351SOL    HW2 7953   3.074   5.005   3.217
 2352SOL     OW 7954   0.438   5.065   1.723
 2352SOL    HW1 7955   0.534   5.040   1.705
 2352SOL    HW2 7956   0.397   4.997   1.784
 2353SOL     OW 7957   3.312   4.591   5.331
 2353SOL    HW1 7958   3.226   4.545   5.351
 2353SOL    HW2 7959   3.294   4.686   5.307
 2354SOL     OW 7960   2.341   1.593   5.783
 2354SOL    HW1 7961   2.425   1.648   5.793
 2354SOL    HW2 7962   2.355   1.504   5.826
 2355SOL     OW 7963   1.701   6.009   0.242
 2355SOL    HW1 7964   1.776   5.956   0.203
 2355SOL    HW2 7965   1.724   6.036   0.335
 2356SOL     OW 7966   1.860   4.036   0.336
 2356SOL    HW1 7967   1.819   4.056   0.425
 2356SOL    HW2 7968   1.790   4.044   0.265
 2357SOL     OW 7969   4.543   6.184   4.157
 2357SOL    HW1 7970   4.451   6.182   4.197
 2357SOL    HW2 7971   4.542   6.136   4.069
 2358SOL     OW 7972   3.646   5.381   5.352
 2358SOL    HW1 7973   3.707   5.338   5.285
 2358SOL    HW2 7974   3.578   5.314   5.382
 2359SOL     OW 7975   0.455   0.661   6.132
 2359SOL    HW1 7976   0.377   0.688   6.189
 2359SOL    HW2 7977   0.457   0.561   6.123
 2360SOL     OW 7978   5.836   5.310   6.519
 2360SOL    HW1 7979   5.920   5.364   6.523
 2360SOL    HW2 7980   5.758   5.370   6.537
 2361SOL     OW 7981   2.314   0.822   5.229
 2361SOL    HW1 7982   2.348   0.809   5.136
 2361SOL    HW2 7983   2.387   0.861   5.286
 2362SOL     OW 7984   2.434   0.439   5.384
 2362SOL    HW1 7985   2.446   0.353   5.432
 2362SOL    HW2 7986   2.429   0.514   5.450
 2363SOL     OW 7987   4.354   2.381   5.360
 2363SOL    HW1 7988   4.381   2.286   5.371
 2363SOL    HW2 7989   4.265   2.396   5.404
 2364SOL     OW 7990   1.131   2.108   2.410
 2364SOL    HW1 7991   1.102   2.204   2.408
 2364SOL    HW2 7992   1.224   2.100   2.375
 2365SOL     OW 7993   5.986   2.558   6.926
 2365SOL    HW1 7994   5.921   2.481   6.926
 2365SOL    HW2 7995   5.994   2.594   6.833
 2366SOL     OW 7996   1.304   4.439   6.184
 2366SOL    HW1 7997   1.400   4.458   6.164
 2366SOL    HW2 7998   1.269   4.374   6.116
 2367SOL     OW 7999   3.583   3.982   0.510
 2367SOL    HW1 8000   3.622   3.921   0.441
 2367SOL    HW2 8001   3.505   4.031   0.472
 2368SOL     OW 8002   4.870   6.952   3.232
 2368SOL    HW1 8003   4.907   0.013   3.249
 2368SOL    HW2 8004   4.936   6.898   3.180
 2369SOL     OW 8005   1.577   2.635   5.426
 2369SOL    HW1 8006   1.565   2.585   5.512
 2369SOL    HW2 8007   1.646   2.707   5.439
 2370SOL     OW 8008   4.803   4.163   6.185
 2370SOL    HW1 8009   4.712   4.200   6.168
 2370SOL    HW2 8010   4.828   4.099   6.113
 2371SOL     OW 8011   0.346   6.420   2.148
 2371SOL    HW1 8012   0.333   6.330   2.189
 2371SOL    HW2 8013   0.262   6.448   2.102
 2372SOL     OW 8014   6.721   1.809   1.488
 2372SOL    HW1 8015   6.693   1.784   1.395
 2372SOL    HW2 8016   6.737   1.908   1.492
 2373SOL     OW 8017   0.257   0.343   0.125
 2373SOL    HW1 8018   0.341   0.299   0.155
 2373SOL    HW2 8019   0.246   0.330   0.026
 2374SOL     OW 8020   6.387   0.717   4.012
 2374SOL    HW1 8021   6.417   0.809   4.037
 2374SOL    HW2 8022   6.463   0.667   3.972
 2375SOL     OW 8023   1.850   6.976   3.742
 2375SOL    HW1 8024   1.904   6.936   3.816
 2375SOL    HW2 8025   1.879   6.937   3.655
 2376SOL     OW 8026   6.225   2.358   4.374
 2376SOL    HW1 8027   6.199   2.439   4.426
 2376SOL    HW2 8028   6.243   2.384   4.279
 2377SOL     OW 8029   3.360   4.070   3.174
 2377SOL    HW1 8030   3.358   3.983   3.124
 2377SOL    HW2 8031   3.455   4.095   3.193
 2378SOL     OW 8032   4.908   2.641   0.459
 2378SOL    HW1 8033   4.889   2.576   0.533
 2378SOL    HW2 8034   4.947   2.725   0.497
 2379SOL     OW 8035   5.849   2.242   6.518
 2379SOL    HW1 8036   5.891   2.216   6.605
 2379SOL    HW2 8037   5.916   2.236   6.445
 2380SOL     OW 8038   0.268   0.117   6.029
 2380SOL    HW1 8039   0.279   0.025   5.993
 2380SOL    HW2 8040   0.306   0.183   5.964
 2381SOL     OW 8041   2.180   3.957   4.256
 2381SOL    HW1 8042   2.260   3.960   4.316
 2381SOL    HW2 8043   2.112   3.895   4.295
 2382SOL     OW 8044   2.471   4.780   3.699
 2382SOL    HW1 8045   2.390   4.759   3.646
 2382SOL    HW2 8046   2.454   4.862   3.755
 2383SOL     OW 8047   5.867   6.441   0.498
 2383SOL    HW1 8048   5.838   6.345   0.498
 2383SOL    HW2 8049   5.790   6.500   0.474
 2384SOL     OW 8050   6.544   6.504   2.264
 2384SOL    HW1 8051   6.508   6.439   2.196
 2384SOL    HW2 8052   6.631   6.470   2.300
 2385SOL     OW 8053   6.593   6.492   1.045
 2385SOL    HW1 8054   6.672   6.432   1.032
 2385SOL    HW2 8055   6.558   6.481   1.138
 2386SOL     OW 8056   5.373   5.734   4.319
 2386SOL    HW1 8057   5.389   5.779   4.407
 2386SOL    HW2 8058   5.350   5.638   4.334
 2387SOL     OW 8059   1.098   1.875   3.831
 2387SOL    HW1 8060   1.100   1.946   3.760
 2387SOL    HW2 8061   1.168   1.806   3.812
 2388SOL     OW 8062   1.599   2.252   3.340
 2388SOL    HW1 8063   1.638   2.256   3.432
 2388SOL    HW2 8064   1.544   2.169   3.331
 2389SOL     OW 8065   5.341   3.264   3.547
 2389SOL    HW1 8066   5.285   3.320   3.609
 2389SOL    HW2 8067   5.289   3.185   3.517
 2390SOL     OW 8068   3.678   3.678   3.939
 2390SOL    HW1 8069   3.658   3.717   4.028
 2390SOL    HW2 8070   3.742   3.602   3.949
 2391SOL     OW 8071   4.954   4.940   5.542
 2391SOL    HW1 8072   5.039   4.896   5.512
 2391SOL    HW2 8073   4.953   5.035   5.511
 2392SOL     OW 8074   3.545   0.268   5.327
 2392SOL    HW1 8075   3.515   0.214   5.405
 2392SOL    HW2 8076   3.617   0.219   5.277
 2393SOL     OW 8077   4.348   5.340   6.049
 2393SOL    HW1 8078   4.346   5.288   5.963
 2393SOL    HW2 8079   4.366   5.278   6.125
 2394SOL     OW 8080   2.051   3.337   4.620
 2394SOL    HW1 8081   1.973   3.324   4.682
 2394SOL    HW2 8082   2.029   3.408   4.554
 2395SOL     OW 8083   6.196   2.467   6.691
 2395SOL    HW1 8084   6.125   2.533   6.667
 2395SOL    HW2 8085   6.263   2.510   6.752
 2396SOL     OW 8086   3.846   5.191   1.085
 2396SOL    HW1 8087   3.804   5.153   1.002
 2396SOL    HW2 8088   3.825   5.133   1.163
 2397SOL     OW 8089   0.087   4.194   0.079
 2397SOL    HW1 8090   0.156   4.159   0.143
 2397SOL    HW2 8091   0.047   4.117   0.029
 2398SOL     OW 8092   3.017   3.634   6.519
 2398SOL    HW1 8093   2.933   3.683   6.542
 2398SOL    HW2 8094   3.066   3.683   6.447
 2399SOL     OW 8095   4.961   1.375   2.765
 2399SOL    HW1 8096   4.951   1.396   2.862
 2399SOL    HW2 8097   4.912   1.290   2.744
 2400SOL     OW 8098   3.694   5.434   0.465
 2400SOL    HW1 8099   3.638   5.513   0.490
 2400SOL    HW2 8100   3.635   5.357   0.440
 2401SOL     OW 8101   4.355   6.962   6.019
 2401SOL    HW1 8102   4.389   6.899   6.088
 2401SOL    HW2 8103   4.429   6.985   5.955
 2402SOL     OW 8104   0.680   1.116   4.533
 2402SOL    HW1 8105   0.717   1.201   4.571
 2402SOL    HW2 8106   0.696   1.114   4.434
 2403SOL     OW 8107   2.510   2.440   0.417
 2403SOL    HW1 8108   2.605   2.470   0.422
 2403SOL    HW2 8109   2.452   2.502   0.470
 2404SOL     OW 8110   5.291   0.589   1.521
 2404SOL    HW1 8111   5.325   0.667   1.572
 2404SOL    HW2 8112   5.354   0.567   1.447
 2405SOL     OW 8113   3.665   3.586   3.252
 2405SOL    HW1 8114   3.718   3.545   3.326
 2405SOL    HW2 8115   3.713   3.571   3.165
 2406SOL     OW 8116   2.225   0.425   3.113
 2406SOL    HW1 8117   2.128   0.403   3.108
 2406SOL    HW2 8118   2.270   0.365   3.179
 2407SOL     OW 8119   5.424   2.523   2.907
 2407SOL    HW1 8120   5.478   2.443   2.934
 2407SOL    HW2 8121   5.327   2.501   2.912
 2408SOL     OW 8122   4.344   4.662   3.778
 2408SOL    HW1 8123   4.253   4.684   3.813
 2408SOL    HW2 8124   4.354   4.697   3.685
 2409SOL     OW 8125   1.639   3.032   1.392
 2409SOL    HW1 8126   1.623   3.006   1.488
 2409SOL    HW2 8127   1.605   3.124   1.377
 2410SOL     OW 8128   4.797   2.682   6.564
 2410SOL    HW1 8129   4.783   2.745   6.640
 2410SOL    HW2 8130   4.894   2.658   6.558
 2411SOL     OW 8131   4.590   5.543   5.713
 2411SOL    HW1 8132   4.492   5.537   5.733
 2411SOL    HW2 8133   4.642   5.528   5.797
 2412SOL     OW 8134   3.770   4.533   0.579
 2412SOL    HW1 8135   3.765   4.491   0.670
 2412SOL    HW2 8136   3.682   4.522   0.533
 2413SOL     OW 8137   6.513   2.050   0.589
 2413SOL    HW1 8138   6.600   2.066   0.542
 2413SOL    HW2 8139   6.459   1.983   0.539
 2414SOL     OW 8140   4.863   3.990   2.199
 2414SOL    HW1 8141   4.786   3.933   2.169
 2414SOL    HW2 8142   4.926   4.005   2.124
 2415SOL     OW 8143   0.822   6.838   2.029
 2415SOL    HW1 8144   0.879   6.900   1.975
 2415SOL    HW2 8145   0.734   6.882   2.049
 2416SOL     OW 8146   3.354   2.118   4.972
 2416SOL    HW1 8147   3.423   2.169   5.024
 2416SOL    HW2 8148   3.262   2.150   4.998
 2417SOL     OW 8149   4.414   3.224   5.699
 2417SOL    HW1 8150   4.343   3.295   5.701
 2417SOL    HW2 8151   4.445   3.206   5.792
 2418SOL     OW 8152   3.384   4.107   4.186
 2418SOL    HW1 8153   3.287   4.089   4.169
 2418SOL    HW2 8154   3.431   4.123   4.099
 2419SOL     OW 8155   0.792   6.328   4.050
 2419SOL    HW1 8156   0.771   6.233   4.028
 2419SOL    HW2 8157   0.777   6.343   4.148
 2420SOL     OW 8158   3.828   1.995   1.360
 2420SOL    HW1 8159   3.927   1.990   1.361
 2420SOL    HW2 8160   3.790   1.902   1.356
 2421SOL     OW 8161   2.568   1.254   5.515
 2421SOL    HW1 8162   2.666   1.237   5.521
 2421SOL    HW2 8163   2.549   1.317   5.440
 2422SOL     OW 8164   6.314   0.128   1.505
 2422SOL    HW1 8165   6.274   0.145   1.595
 2422SOL    HW2 8166   6.386   0.059   1.513
 2423SOL     OW 8167   1.545   6.477   3.838
 2423SOL    HW1 8168   1.497   6.556   3.801
 2423SOL    HW2 8169   1.485   6.397   3.835
 2424SOL     OW 8170   6.402   6.106   5.839
 2424SOL    HW1 8171   6.348   6.056   5.907
 2424SOL    HW2 8172   6.468   6.044   5.797
 2425SOL     OW 8173   6.539   0.398   4.179
 2425SOL    HW1 8174   6.561   0.490   4.211
 2425SOL    HW2 8175   6.467   0.360   4.236
 2426SOL     OW 8176   1.079   5.475   4.912
 2426SOL    HW1 8177   1.163   5.513   4.875
 2426SOL    HW2 8178   1.097   5.383   4.947
 2427SOL     OW 8179   5.604   5.458   6.387
 2427SOL    HW1 8180   5.570   5.394   6.318
 2427SOL    HW2 8181   5.526   5.500   6.434
 2428SOL     OW 8182   6.996   6.985   3.337
 2428SOL    HW1 8183   7.010   0.039   3.389
 2428SOL    HW2 8184   6.965   6.913   3.398
 2429SOL     OW 8185   6.436   5.573   4.439
 2429SOL    HW1 8186   6.464   5.633   4.514
 2429SOL    HW2 8187   6.349   5.530   4.462
 2430SOL     OW 8188   6.409   1.444   0.800
 2430SOL    HW1 8189   6.369   1.365   0.753
 2430SOL    HW2 8190   6.483   1.412   0.860
 2431SOL     OW 8191   4.121   0.144   2.077
 2431SOL    HW1 8192   4.161   0.229   2.043
 2431SOL    HW2 8193   4.059   0.164   2.153
 2432SOL     OW 8194   3.311   6.578   2.852
 2432SOL    HW1 8195   3.266   6.490   2.871
 2432SOL    HW2 8196   3.242   6.647   2.831
 2433SOL     OW 8197   3.152   6.819   1.285
 2433SOL    HW1 8198   3.130   6.861   1.197
 2433SOL    HW2 8199   3.206   6.883   1.340
 2434SOL     OW 8200   4.579   1.281   3.757
 2434SOL    HW1 8201   4.630   1.197   3.735
 2434SOL    HW2 8202   4.642   1.351   3.791
 2435SOL     OW 8203   4.361   5.258   5.765
 2435SOL    HW1 8204   4.324   5.341   5.724
 2435SOL    HW2 8205   4.447   5.235   5.720
 2436SOL     OW 8206   1.881   6.394   1.643
 2436SOL    HW1 8207   1.878   6.481   1.593
 2436SOL    HW2 8208   1.838   6.323   1.588
 2437SOL     OW 8209   3.807   5.808   0.892
 2437SOL    HW1 8210   3.814   5.728   0.832
 2437SOL    HW2 8211   3.794   5.890   0.837
 2438SOL     OW 8212   3.781   1.731   5.662
 2438SOL    HW1 8213   3.689   1.755   5.630
 2438SOL    HW2 8214   3.829   1.814   5.690
 2439SOL     OW 8215   0.903   4.056   6.635
 2439SOL    HW1 8216   0.859   3.970   6.609
 2439SOL    HW2 8217   0.944   4.098   6.554
 2440SOL     OW 8218   5.044   6.199   5.003
 2440SOL    HW1 8219   5.009   6.281   5.048
 2440SOL    HW2 8220   5.118   6.224   4.941
 2441SOL     OW 8221   6.517   0.509   0.091
 2441SOL    HW1 8222   6.560   0.599   0.078
 2441SOL    HW2 8223   6.560   0.443   0.030
 2442SOL     OW 8224   6.626   5.344   4.265
 2442SOL    HW1 8225   6.569   5.345   4.347
 2442SOL    HW2 8226   6.622   5.254   4.222
 2443SOL     OW 8227   3.470   6.527   5.356
 2443SOL    HW1 8228   3.451   6.443   5.304
 2443SOL    HW2 8229   3.528   6.505   5.434
 2444SOL     OW 8230   3.494   4.697   5.793
 2444SOL    HW1 8231   3.418   4.761   5.786
 2444SOL    HW2 8232   3.529   4.676   5.702
 2445SOL     OW 8233   0.743   0.145   1.503
 2445SOL    HW1 8234   0.800   0.225   1.486
 2445SOL    HW2 8235   0.648   0.173   1.512
 2446SOL     OW 8236   0.075   3.818   3.875
 2446SOL    HW1 8237   0.049   3.722   3.890
 2446SOL    HW2 8238   7.023   3.872   3.857
 2447SOL     OW 8239   3.172   1.878   0.617
 2447SOL    HW1 8240   3.152   1.924   0.531
 2447SOL    HW2 8241   3.268   1.849   0.618
 2448SOL     OW 8242   1.016   0.774   5.498
 2448SOL    HW1 8243   1.018   0.862   5.451
 2448SOL    HW2 8244   1.038   0.701   5.433
 2449SOL     OW 8245   7.016   4.479   1.715
 2449SOL    HW1 8246   0.051   4.555   1.710
 2449SOL    HW2 8247   0.037   4.393   1.719
 2450SOL     OW 8248   2.809   4.849   4.584
 2450SOL    HW1 8249   2.888   4.890   4.630
 2450SOL    HW2 8250   2.755   4.798   4.651
 2451SOL     OW 8251   0.641   0.387   3.436
 2451SOL    HW1 8252   0.547   0.382   3.404
 2451SOL    HW2 8253   0.672   0.296   3.464
 2452SOL     OW 8254   2.102   2.540   2.873
 2452SOL    HW1 8255   2.093   2.639   2.873
 2452SOL    HW2 8256   2.146   2.510   2.958
 2453SOL     OW 8257   6.466   3.771   1.390
 2453SOL    HW1 8258   6.412   3.837   1.441
 2453SOL    HW2 8259   6.480   3.688   1.445
 2454SOL     OW 8260   3.414   1.415   0.515
 2454SOL    HW1 8261   3.495   1.358   0.526
 2454SOL    HW2 8262   3.440   1.504   0.477
 2455SOL     OW 8263   5.560   6.758   0.725
 2455SOL    HW1 8264   5.473   6.790   0.687
 2455SOL    HW2 8265   5.558   6.766   0.824
 2456SOL     OW 8266   5.954   0.114   0.592
 2456SOL    HW1 8267   6.031   0.064   0.554
 2456SOL    HW2 8268   5.878   0.113   0.527
 2457SOL     OW 8269   6.751   6.157   0.389
 2457SOL    HW1 8270   6.731   6.167   0.291
 2457SOL    HW2 8271   6.842   6.195   0.409
 2458SOL     OW 8272   2.698   5.687   3.993
 2458SOL    HW1 8273   2.709   5.785   3.982
 2458SOL    HW2 8274   2.621   5.668   4.054
 2459SOL     OW 8275   2.417   6.808   0.630
 2459SOL    HW1 8276   2.412   6.709   0.614
 2459SOL    HW2 8277   2.504   6.843   0.597
 2460SOL     OW 8278   2.079   0.364   0.890
 2460SOL    HW1 8279   2.162   0.315   0.915
 2460SOL    HW2 8280   2.077   0.380   0.792
 2461SOL     OW 8281   4.922   0.557   2.845
 2461SOL    HW1 8282   4.924   0.513   2.755
 2461SOL    HW2 8283   4.985   0.635   2.845
 2462SOL     OW 8284   2.288   5.466   0.121
 2462SOL    HW1 8285   2.356   5.497   0.187
 2462SOL    HW2 8286   2.226   5.541   0.098
 2463SOL     OW 8287   6.333   2.176   4.573
 2463SOL    HW1 8288   6.398   2.108   4.541
 2463SOL    HW2 8289   6.276   2.206   4.496
 2464SOL     OW 8290   1.534   4.335   1.712
 2464SOL    HW1 8291   1.593   4.393   1.655
 2464SOL    HW2 8292   1.549   4.358   1.808
 2465SOL     OW 8293   6.624   5.777   1.122
 2465SOL    HW1 8294   6.636   5.784   1.023
 2465SOL    HW2 8295   6.588   5.864   1.157
 2466SOL     OW 8296   3.201   0.798   1.703
 2466SOL    HW1 8297   3.277   0.820   1.765
 2466SOL    HW2 8298   3.117   0.784   1.756
 2467SOL     OW 8299   5.838   1.898   5.526
 2467SOL    HW1 8300   5.756   1.949   5.502
 2467SOL    HW2 8301   5.849   1.898   5.625
 2468SOL     OW 8302   5.894   6.494   2.227
 2468SOL    HW1 8303   5.837   6.413   2.244
 2468SOL    HW2 8304   5.886   6.521   2.131
 2469SOL     OW 8305   3.795   5.072   4.999
 2469SOL    HW1 8306   3.717   5.013   5.024
 2469SOL    HW2 8307   3.774   5.120   4.914
 2470SOL     OW 8308   3.085   4.420   5.942
 2470SOL    HW1 8309   3.089   4.412   6.042
 2470SOL    HW2 8310   3.076   4.516   5.917
 2471SOL     OW 8311   1.936   6.236   1.889
 2471SOL    HW1 8312   1.933   6.288   1.803
 2471SOL    HW2 8313   1.844   6.202   1.911
 2472SOL     OW 8314   5.325   1.537   4.325
 2472SOL    HW1 8315   5.395   1.591   4.371
 2472SOL    HW2 8316   5.314   1.569   4.231
 2473SOL     OW 8317   1.768   4.005   5.341
 2473SOL    HW1 8318   1.825   4.064   5.399
 2473SOL    HW2 8319   1.675   4.002   5.378
 2474SOL     OW 8320   0.570   5.592   0.269
 2474SOL    HW1 8321   0.666   5.619   0.256
 2474SOL    HW2 8322   0.540   5.539   0.189
 2475SOL     OW 8323   4.748   1.149   0.796
 2475SOL    HW1 8324   4.738   1.192   0.706
 2475SOL    HW2 8325   4.806   1.205   0.854
 2476SOL     OW 8326   0.505   3.034   3.386
 2476SOL    HW1 8327   0.566   3.090   3.441
 2476SOL    HW2 8328   0.556   2.955   3.350
 2477SOL     OW 8329   6.466   0.197   2.510
 2477SOL    HW1 8330   6.402   0.209   2.586
 2477SOL    HW2 8331   6.420   0.218   2.424
 2478SOL     OW 8332   5.281   6.653   2.348
 2478SOL    HW1 8333   5.222   6.636   2.269
 2478SOL    HW2 8334   5.353   6.584   2.352
 2479SOL     OW 8335   0.790   3.487   1.658
 2479SOL    HW1 8336   0.791   3.451   1.752
 2479SOL    HW2 8337   0.870   3.451   1.609
 2480SOL     OW 8338   5.835   3.980   0.597
 2480SOL    HW1 8339   5.933   3.965   0.589
 2480SOL    HW2 8340   5.811   4.070   0.560
 2481SOL     OW 8341   2.975   6.620   0.313
 2481SOL    HW1 8342   2.967   6.719   0.305
 2481SOL    HW2 8343   3.064   6.590   0.279
 2482SOL     OW 8344   5.557   3.045   5.448
 2482SOL    HW1 8345   5.589   2.963   5.495
 2482SOL    HW2 8346   5.539   3.117   5.514
 2483SOL     OW 8347   2.646   1.316   0.143
 2483SOL    HW1 8348   2.699   1.379   0.201
 2483SOL    HW2 8349   2.700   1.292   0.062
 2484SOL     OW 8350   2.117   0.895   0.607
 2484SOL    HW1 8351   2.153   0.836   0.534
 2484SOL    HW2 8352   2.032   0.856   0.641
 2485SOL     OW 8353   4.486   4.980   2.080
 2485SOL    HW1 8354   4.497   4.980   1.981
 2485SOL    HW2 8355   4.403   5.031   2.105
 2486SOL     OW 8356   3.041   6.024   3.107
 2486SOL    HW1 8357   2.942   6.014   3.114
 2486SOL    HW2 8358   3.069   6.109   3.152
 2487SOL     OW 8359   3.875   5.451   6.950
 2487SOL    HW1 8360   3.951   5.463   7.014
 2487SOL    HW2 8361   3.906   5.395   6.873
 2488SOL     OW 8362   2.385   4.363   1.986
 2488SOL    HW1 8363   2.412   4.460   1.987
 2488SOL    HW2 8364   2.345   4.339   2.075
 2489SOL     OW 8365   2.256   5.007   4.090
 2489SOL    HW1 8366   2.336   5.066   4.097
 2489SOL    HW2 8367   2.285   4.911   4.093
 2490SOL     OW 8368   6.141   5.403   0.800
 2490SOL    HW1 8369   6.210   5.472   0.823
 2490SOL    HW2 8370   6.118   5.410   0.703
 2491SOL     OW 8371   2.013   5.496   3.075
 2491SOL    HW1 8372   1.938   5.536   3.127
 2491SOL    HW2 8373   2.098   5.503   3.128
 2492SOL     OW 8374   3.857   2.932   6.662
 2492SOL    HW1 8375   3.816   2.944   6.753
 2492SOL    HW2 8376   3.825   2.847   6.622
 2493SOL     OW 8377   6.230   0.462   3.126
 2493SOL    HW1 8378   6.145   0.488   3.173
 2493SOL    HW2 8379   6.303   0.450   3.193
 2494SOL     OW 8380   5.476   3.511   2.496
 2494SOL    HW1 8381   5.551   3.445   2.500
 2494SOL    HW2 8382   5.389   3.462   2.482
 2495SOL     OW 8383   4.806   0.635   5.012
 2495SOL    HW1 8384   4.816   0.647   5.110
 2495SOL    HW2 8385   4.855   0.552   4.983
 2496SOL     OW 8386   0.711   5.299   0.023
 2496SOL    HW1 8387   0.784   5.236   0.049
 2496SOL    HW2 8388   0.627   5.247   0.006
 2497SOL     OW 8389   0.292   1.717   0.138
 2497SOL    HW1 8390   0.385   1.720   0.173
 2497SOL    HW2 8391   0.237   1.653   0.192
 2498SOL     OW 8392   2.856   2.261   3.370
 2498SOL    HW1 8393   2.826   2.238   3.463
 2498SOL    HW2 8394   2.780   2.300   3.319
 2499SOL     OW 8395   5.544   1.229   4.709
 2499SOL    HW1 8396   5.484   1.290   4.657
 2499SOL    HW2 8397   5.578   1.156   4.649
 2500SOL     OW 8398   4.783   3.450   5.604
 2500SOL    HW1 8399   4.864   3.459   5.546
 2500SOL    HW2 8400   4.706   3.415   5.550
 2501SOL     OW 8401   6.600   5.242   6.696
 2501SOL    HW1 8402   6.553   5.237   6.784
 2501SOL    HW2 8403   6.532   5.252   6.623
 2502SOL     OW 8404   2.763   6.362   3.551
 2502SOL    HW1 8405   2.697   6.287   3.560
 2502SOL    HW2 8406   2.855   6.324   3.542
 2503SOL     OW 8407   3.787   5.708   5.301
 2503SOL    HW1 8408   3.744   5.798   5.308
 2503SOL    HW2 8409   3.755   5.650   5.375
 2504SOL     OW 8410   2.551   5.377   5.004
 2504SOL    HW1 8411   2.459   5.377   5.043
 2504SOL    HW2 8412   2.579   5.471   4.984
 2505SOL     OW 8413   2.792   6.432   4.371
 2505SOL    HW1 8414   2.791   6.401   4.466
 2505SOL    HW2 8415   2.839   6.363   4.315
 2506SOL     OW 8416   0.270   3.432   6.157
 2506SOL    HW1 8417   0.330   3.421   6.078
 2506SOL    HW2 8418   0.192   3.369   6.149
 2507SOL     OW 8419   5.834   5.131   6.819
 2507SOL    HW1 8420   5.786   5.045   6.837
 2507SOL    HW2 8421   5.902   5.146   6.890
 2508SOL     OW 8422   2.671   1.687   1.900
 2508SOL    HW1 8423   2.723   1.620   1.848
 2508SOL    HW2 8424   2.641   1.761   1.840
 2509SOL     OW 8425   5.954   2.612   2.502
 2509SOL    HW1 8426   6.026   2.624   2.433
 2509SOL    HW2 8427   5.883   2.680   2.489
 2510SOL     OW 8428   2.680   4.260   0.915
 2510SOL    HW1 8429   2.594   4.301   0.885
 2510SOL    HW2 8430   2.679   4.162   0.896
 2511SOL     OW 8431   1.368   1.518   4.825
 2511SOL    HW1 8432   1.360   1.564   4.737
 2511SOL    HW2 8433   1.449   1.460   4.824
 2512SOL     OW 8434   5.799   4.588   4.805
 2512SOL    HW1 8435   5.753   4.516   4.753
 2512SOL    HW2 8436   5.861   4.547   4.872
 2513SOL     OW 8437   1.574   2.251   6.132
 2513SOL    HW1 8438   1.632   2.205   6.065
 2513SOL    HW2 8439   1.630   2.312   6.188
 2514SOL     OW 8440   0.645   3.231   3.547
 2514SOL    HW1 8441   0.579   3.292   3.503
 2514SOL    HW2 8442   0.733   3.237   3.499
 2515SOL     OW 8443   1.023   6.536   1.155
 2515SOL    HW1 8444   0.997   6.475   1.081
 2515SOL    HW2 8445   1.104   6.588   1.129
 2516SOL     OW 8446   6.193   5.257   2.862
 2516SOL    HW1 8447   6.261   5.223   2.797
 2516SOL    HW2 8448   6.229   5.253   2.955
 2517SOL     OW 8449   2.198   5.676   6.262
 2517SOL    HW1 8450   2.229   5.654   6.170
 2517SOL    HW2 8451   2.108   5.718   6.258
 2518SOL     OW 8452   1.795   3.377   0.013
 2518SOL    HW1 8453   1.744   3.398   0.097
 2518SOL    HW2 8454   1.882   3.335   0.037
 2519SOL     OW 8455   4.960   4.690   4.421
 2519SOL    HW1 8456   5.045   4.640   4.431
 2519SOL    HW2 8457   4.970   4.760   4.350
 2520SOL     OW 8458   1.254   2.624   1.272
 2520SOL    HW1 8459   1.297   2.548   1.322
 2520SOL    HW2 8460   1.320   2.698   1.260
 2521SOL     OW 8461   1.037   7.012   6.066
 2521SOL    HW1 8462   1.083   6.951   6.001
 2521SOL    HW2 8463   1.104   0.031   6.121
 2522SOL     OW 8464   0.787   3.157   5.200
 2522SOL    HW1 8465   0.709   3.218   5.213
 2522SOL    HW2 8466   0.772   3.072   5.250
 2523SOL     OW 8467   6.818   2.725   0.778
 2523SOL    HW1 8468   6.913   2.735   0.748
 2523SOL    HW2 8469   6.785   2.812   0.813
 2524SOL     OW 8470   0.283   6.215   4.677
 2524SOL    HW1 8471   0.328   6.140   4.727
 2524SOL    HW2 8472   0.208   6.251   4.732
 2525SOL     OW 8473   1.892   2.982   4.081
 2525SOL    HW1 8474   1.952   2.979   4.161
 2525SOL    HW2 8475   1.903   2.898   4.028
 2526SOL     OW 8476   0.346   3.487   5.306
 2526SOL    HW1 8477   0.313   3.393   5.315
 2526SOL    HW2 8478   0.271   3.546   5.274
 2527SOL     OW 8479   5.879   7.014   5.199
 2527SOL    HW1 8480   5.798   0.042   5.213
 2527SOL    HW2 8481   5.920   6.994   5.287
 2528SOL     OW 8482   5.802   4.595   1.365
 2528SOL    HW1 8483   5.770   4.548   1.283
 2528SOL    HW2 8484   5.810   4.693   1.348
 2529SOL     OW 8485   5.594   4.621   5.947
 2529SOL    HW1 8486   5.535   4.581   6.017
 2529SOL    HW2 8487   5.640   4.701   5.985
 2530SOL     OW 8488   1.207   6.594   4.545
 2530SOL    HW1 8489   1.120   6.612   4.590
 2530SOL    HW2 8490   1.220   6.660   4.470
 2531SOL     OW 8491   5.925   6.303   4.601
 2531SOL    HW1 8492   5.838   6.351   4.603
 2531SOL    HW2 8493   5.985   6.345   4.533
 2532SOL     OW 8494   0.731   5.659   0.744
 2532SOL    HW1 8495   0.689   5.600   0.675
 2532SOL    HW2 8496   0.731   5.754   0.712
 2533SOL     OW 8497   5.396   6.504   4.937
 2533SOL    HW1 8498   5.343   6.588   4.924
 2533SOL    HW2 8499   5.493   6.528   4.951
 2534SOL     OW 8500   2.292   0.674   3.271
 2534SOL    HW1 8501   2.278   0.665   3.370
 2534SOL    HW2 8502   2.258   0.593   3.225
 2535SOL     OW 8503   2.085   2.125   6.308
 2535SOL    HW1 8504   2.122   2.137   6.400
 2535SOL    HW2 8505   2.106   2.033   6.275
 2536SOL     OW 8506   0.870   1.847   3.210
 2536SOL    HW1 8507   0.867   1.947   3.218
 2536SOL    HW2 8508   0.893   1.808   3.299
 2537SOL     OW 8509   4.782   6.294   0.808
 2537SOL    HW1 8510   4.739   6.204   0.805
 2537SOL    HW2 8511   4.714   6.364   0.785
 2538SOL     OW 8512   1.734   4.158   5.110
 2538SOL    HW1 8513   1.732   4.103   5.194
 2538SOL    HW2 8514   1.727   4.097   5.031
 2539SOL     OW 8515   4.152   6.958   5.445
 2539SOL    HW1 8516   4.227   7.020   5.468
 2539SOL    HW2 8517   4.109   6.925   5.529
 2540SOL     OW 8518   5.142   0.907   1.400
 2540SOL    HW1 8519   5.179   0.853   1.324
 2540SOL    HW2 8520   5.216   0.945   1.454
 2541SOL     OW 8521   1.378   0.564   5.817
 2541SOL    HW1 8522   1.335   0.517   5.740
 2541SOL    HW2 8523   1.367   0.663   5.806
 2542SOL     OW 8524   3.982   2.186   4.538
 2542SOL    HW1 8525   3.986   2.232   4.449
 2542SOL    HW2 8526   3.915   2.112   4.533
 2543SOL     OW 8527   2.243   0.568   2.729
 2543SOL    HW1 8528   2.289   0.572   2.818
 2543SOL    HW2 8529   2.243   0.474   2.696
 2544SOL     OW 8530   0.720   4.942   2.205
 2544SOL    HW1 8531   0.677   4.880   2.138
 2544SOL    HW2 8532   0.728   5.033   2.165
 2545SOL     OW 8533   1.485   0.760   1.561
 2545SOL    HW1 8534   1.584   0.753   1.551
 2545SOL    HW2 8535   1.448   0.822   1.492
 2546SOL     OW 8536   6.810   3.036   0.837
 2546SOL    HW1 8537   6.723   3.069   0.872
 2546SOL    HW2 8538   6.884   3.093   0.871
 2547SOL     OW 8539   5.426   5.935   0.819
 2547SOL    HW1 8540   5.466   6.024   0.795
 2547SOL    HW2 8541   5.334   5.948   0.854
 2548SOL     OW 8542   2.434   0.414   4.636
 2548SOL    HW1 8543   2.380   0.472   4.575
 2548SOL    HW2 8544   2.531   0.434   4.625
 2549SOL     OW 8545   2.433   2.246   1.784
 2549SOL    HW1 8546   2.391   2.243   1.875
 2549SOL    HW2 8547   2.498   2.170   1.775
 2550SOL     OW 8548   5.403   0.756   6.928
 2550SOL    HW1 8549   5.386   0.835   6.985
 2550SOL    HW2 8550   5.444   0.683   6.983
 2551SOL     OW 8551   3.381   5.302   0.083
 2551SOL    HW1 8552   3.414   5.393   0.055
 2551SOL    HW2 8553   3.440   5.267   0.155
 2552SOL     OW 8554   2.204   5.259   6.731
 2552SOL    HW1 8555   2.295   5.238   6.767
 2552SOL    HW2 8556   2.207   5.346   6.681
 2553SOL     OW 8557   3.211   2.854   6.149
 2553SOL    HW1 8558   3.167   2.912   6.080
 2553SOL    HW2 8559   3.282   2.799   6.105
 2554SOL     OW 8560   1.637   5.907   6.970
 2554SOL    HW1 8561   1.650   5.808   6.979
 2554SOL    HW2 8562   1.572   5.939   0.009
 2555SOL     OW 8563   5.969   6.187   6.738
 2555SOL    HW1 8564   5.995   6.107   6.684
 2555SOL    HW2 8565   5.911   6.246   6.683
 2556SOL     OW 8566   3.845   7.015   1.174
 2556SOL    HW1 8567   3.853   6.921   1.205
 2556SOL    HW2 8568   3.782   7.019   1.095
 2557SOL     OW 8569   2.762   0.243   6.947
 2557SOL    HW1 8570   2.752   0.159   7.001
 2557SOL    HW2 8571   2.804   0.314   7.004
 2558SOL     OW 8572   4.305   4.170   5.438
 2558SOL    HW1 8573   4.377   4.213   5.383
 2558SOL    HW2 8574   4.279   4.083   5.396
 2559SOL     OW 8575   6.547   3.216   3.785
 2559SOL    HW1 8576   6.621   3.157   3.754
 2559SOL    HW2 8577   6.462   3.164   3.788
 2560SOL     OW 8578   5.309   3.845   3.602
 2560SOL    HW1 8579   5.245   3.782   3.646
 2560SOL    HW2 8580   5.321   3.819   3.507
 2561SOL     OW 8581   3.804   1.155   3.455
 2561SOL    HW1 8582   3.786   1.236   3.511
 2561SOL    HW2 8583   3.838   1.081   3.513
 2562SOL     OW 8584   3.052   5.540   3.440
 2562SOL    HW1 8585   3.058   5.447   3.404
 2562SOL    HW2 8586   3.124   5.596   3.399
 2563SOL     OW 8587   3.694   1.253   6.066
 2563SOL    HW1 8588   3.600   1.288   6.065
 2563SOL    HW2 8589   3.709   1.201   6.150
 2564SOL     OW 8590   1.804   6.666   0.287
 2564SOL    HW1 8591   1.712   6.648   0.322
 2564SOL    HW2 8592   1.868   6.599   0.326
 2565SOL     OW 8593   0.416   0.541   0.284
 2565SOL    HW1 8594   0.362   0.546   0.200
 2565SOL    HW2 8595   0.374   0.475   0.347
 2566SOL     OW 8596   2.297   6.700   1.651
 2566SOL    HW1 8597   2.367   6.674   1.584
 2566SOL    HW2 8598   2.242   6.774   1.613
 2567SOL     OW 8599   1.521   1.233   1.317
 2567SOL    HW1 8600   1.575   1.241   1.401
 2567SOL    HW2 8601   1.577   1.262   1.239
 2568SOL     OW 8602   2.717   0.095   0.742
 2568SOL    HW1 8603   2.759   0.179   0.711
 2568SOL    HW2 8604   2.723   0.088   0.842
 2569SOL     OW 8605   2.471   1.574   2.034
 2569SOL    HW1 8606   2.392   1.525   1.996
 2569SOL    HW2 8607   2.522   1.617   1.960
 2570SOL     OW 8608   4.544   6.388   6.227
 2570SOL    HW1 8609   4.502   6.438   6.303
 2570SOL    HW2 8610   4.520   6.291   6.234
 2571SOL     OW 8611   3.727   3.147   4.596
 2571SOL    HW1 8612   3.666   3.225   4.605
 2571SOL    HW2 8613   3.720   3.089   4.677
 2572SOL     OW 8614   2.420   6.082   1.006
 2572SOL    HW1 8615   2.419   6.038   0.916
 2572SOL    HW2 8616   2.448   6.178   0.996
 2573SOL     OW 8617   6.440   1.419   2.820
 2573SOL    HW1 8618   6.431   1.431   2.918
 2573SOL    HW2 8619   6.463   1.507   2.777
 2574SOL     OW 8620   6.155   3.738   1.097
 2574SOL    HW1 8621   6.077   3.786   1.136
 2574SOL    HW2 8622   6.221   3.804   1.062
 2575SOL     OW 8623   5.435   3.338   1.729
 2575SOL    HW1 8624   5.399   3.365   1.640
 2575SOL    HW2 8625   5.533   3.319   1.721
 2576SOL     OW 8626   3.763   0.105   4.056
 2576SOL    HW1 8627   3.761   0.051   3.972
 2576SOL    HW2 8628   3.785   0.200   4.035
 2577SOL     OW 8629   4.933   0.334   3.662
 2577SOL    HW1 8630   4.963   0.430   3.661
 2577SOL    HW2 8631   5.001   0.278   3.615
 2578SOL     OW 8632   4.899   2.463   5.120
 2578SOL    HW1 8633   4.940   2.375   5.146
 2578SOL    HW2 8634   4.951   2.504   5.046
 2579SOL     OW 8635   1.276   1.406   5.175
 2579SOL    HW1 8636   1.206   1.381   5.242
 2579SOL    HW2 8637   1.235   1.404   5.083
 2580SOL     OW 8638   2.002   2.295   5.980
 2580SOL    HW1 8639   1.992   2.328   6.074
 2580SOL    HW2 8640   1.923   2.238   5.956
 2581SOL     OW 8641   5.956   4.878   1.799
 2581SOL    HW1 8642   5.861   4.896   1.773
 2581SOL    HW2 8643   5.960   4.845   1.893
 2582SOL     OW 8644   2.081   4.866   3.127
 2582SOL    HW1 8645   2.061   4.772   3.100
 2582SOL    HW2 8646   2.007   4.900   3.186
 2583SOL     OW 8647   1.612   0.834   0.797
 2583SOL    HW1 8648   1.685   0.901   0.803
 2583SOL    HW2 8649   1.527   0.879   0.769
 2584SOL     OW 8650   4.283   5.940   0.311
 2584SOL    HW1 8651   4.362   6.000   0.296
 2584SOL    HW2 8652   4.214   5.958   0.241
 2585SOL     OW 8653   2.886   0.514   0.863
 2585SOL    HW1 8654   2.951   0.560   0.924
 2585SOL    HW2 8655   2.841   0.582   0.805
 2586SOL     OW 8656   5.005   1.499   4.412
 2586SOL    HW1 8657   5.083   1.556   4.388
 2586SOL    HW2 8658   4.996   1.425   4.345
 2587SOL     OW 8659   6.784   0.488   4.704
 2587SOL    HW1 8660   6.866   0.441   4.671
 2587SOL    HW2 8661   6.734   0.428   4.767
 2588SOL     OW 8662   4.486   0.299   0.282
 2588SOL    HW1 8663   4.529   0.232   0.223
 2588SOL    HW2 8664   4.440   0.253   0.358
 2589SOL     OW 8665   0.604   6.651   5.598
 2589SOL    HW1 8666   0.605   6.622   5.694
 2589SOL    HW2 8667   0.664   6.591   5.545
 2590SOL     OW 8668   3.964   6.804   2.850
 2590SOL    HW1 8669   3.908   6.885   2.868
 2590SOL    HW2 8670   4.056   6.819   2.884
 2591SOL     OW 8671   5.047   5.994   2.775
 2591SOL    HW1 8672   5.145   5.974   2.774
 2591SOL    HW2 8673   5.004   5.948   2.852
 2592SOL     OW 8674   2.583   6.200   1.854
 2592SOL    HW1 8675   2.541   6.177   1.766
 2592SOL    HW2 8676   2.585   6.299   1.866
 2593SOL     OW 8677   3.760   6.449   1.964
 2593SOL    HW1 8678   3.693   6.429   2.035
 2593SOL    HW2 8679   3.811   6.532   1.988
 2594SOL     OW 8680   6.970   6.156   5.663
 2594SOL    HW1 8681   0.027   6.107   5.667
 2594SOL    HW2 8682   6.907   6.118   5.730
 2595SOL     OW 8683   6.814   2.112   5.800
 2595SOL    HW1 8684   6.867   2.060   5.868
 2595SOL    HW2 8685   6.828   2.072   5.710
 2596SOL     OW 8686   3.731   1.904   1.941
 2596SOL    HW1 8687   3.717   1.971   2.014
 2596SOL    HW2 8688   3.722   1.948   1.852
 2597SOL     OW 8689   1.822   3.686   0.520
 2597SOL    HW1 8690   1.776   3.599   0.543
 2597SOL    HW2 8691   1.784   3.722   0.435
 2598SOL     OW 8692   5.710   1.811   4.286
 2598SOL    HW1 8693   5.785   1.867   4.319
 2598SOL    HW2 8694   5.644   1.868   4.237
 2599SOL     OW 8695   3.722   5.695   6.975
 2599SOL    HW1 8696   3.729   5.744   0.031
 2599SOL    HW2 8697   3.797   5.630   6.967
 2600SOL     OW 8698   4.910   3.644   4.348
 2600SOL    HW1 8699   4.889   3.664   4.443
 2600SOL    HW2 8700   4.915   3.545   4.335
 2601SOL     OW 8701   3.925   1.769   6.576
 2601SOL    HW1 8702   3.940   1.848   6.635
 2601SOL    HW2 8703   3.980   1.778   6.493
 2602SOL     OW 8704   6.793   4.690   3.967
 2602SOL    HW1 8705   6.869   4.665   3.908
 2602SOL    HW2 8706   6.727   4.615   3.971
 2603SOL     OW 8707   2.948   2.026   1.664
 2603SOL    HW1 8708   2.889   1.945   1.671
 2603SOL    HW2 8709   3.036   1.999   1.625
 2604SOL     OW 8710   4.934   1.517   1.998
 2604SOL    HW1 8711   4.941   1.495   2.096
 2604SOL    HW2 8712   5.004   1.467   1.947
 2605SOL     OW 8713   4.010   5.323   3.666
 2605SOL    HW1 8714   4.013   5.359   3.573
 2605SOL    HW2 8715   4.045   5.393   3.730
 2606SOL     OW 8716   6.358   4.486   0.427
 2606SOL    HW1 8717   6.360   4.551   0.351
 2606SOL    HW2 8718   6.278   4.504   0.484
 2607SOL     OW 8719   0.389   1.920   5.976
 2607SOL    HW1 8720   0.486   1.898   5.963
 2607SOL    HW2 8721   0.335   1.836   5.970
 2608SOL     OW 8722   4.102   5.942   2.723
 2608SOL    HW1 8723   4.040   5.874   2.684
 2608SOL    HW2 8724   4.150   5.903   2.801
 2609SOL     OW 8725   0.807   2.383   1.112
 2609SOL    HW1 8726   0.754   2.464   1.085
 2609SOL    HW2 8727   0.764   2.301   1.074
 2610SOL     OW 8728   6.708   5.253   3.923
 2610SOL    HW1 8729   6.760   5.219   3.844
 2610SOL    HW2 8730   6.674   5.176   3.976
 2611SOL     OW 8731   5.637   6.560   1.179
 2611SOL    HW1 8732   5.657   6.645   1.130
 2611SOL    HW2 8733   5.716   6.499   1.175
 2612SOL     OW 8734   6.606   6.647   5.335
 2612SOL    HW1 8735   6.549   6.647   5.417
 2612SOL    HW2 8736   6.698   6.681   5.357
 2613SOL     OW 8737   2.859   6.139   1.710
 2613SOL    HW1 8738   2.785   6.145   1.777
 2613SOL    HW2 8739   2.828   6.087   1.630
 2614SOL     OW 8740   6.387   6.558   5.893
 2614SOL    HW1 8741   6.364   6.652   5.867
 2614SOL    HW2 8742   6.468   6.528   5.842
 2615SOL     OW 8743   5.864   4.462   2.941
 2615SOL    HW1 8744   5.872   4.433   2.846
 2615SOL    HW2 8745   5.837   4.385   2.998
 2616SOL     OW 8746   3.632   3.827   4.167
 2616SOL    HW1 8747   3.709   3.874   4.123
 2616SOL    HW2 8748   3.635   3.845   4.266
 2617SOL     OW 8749   2.995   6.411   1.324
 2617SOL    HW1 8750   2.911   6.357   1.324
 2617SOL    HW2 8751   3.052   6.383   1.402
 2618SOL     OW 8752   0.317   6.753   3.768
 2618SOL    HW1 8753   0.264   6.681   3.723
 2618SOL    HW2 8754   0.292   6.842   3.729
 2619SOL     OW 8755   3.361   1.527   3.347
 2619SOL    HW1 8756   3.414   1.532   3.431
 2619SOL    HW2 8757   3.306   1.443   3.348
 2620SOL     OW 8758   0.742   5.878   3.433
 2620SOL    HW1 8759   0.769   5.919   3.346
 2620SOL    HW2 8760   0.809   5.810   3.460
 2621SOL     OW 8761   1.860   5.918   3.164
 2621SOL    HW1 8762   1.828   5.942   3.072
 2621SOL    HW2 8763   1.885   5.821   3.166
 2622SOL     OW 8764   2.420   2.126   5.996
 2622SOL    HW1 8765   2.365   2.198   6.039
 2622SOL    HW2 8766   2.506   2.116   6.046
 2623SOL     OW 8767   3.305   1.809   4.958
 2623SOL    HW1 8768   3.326   1.899   4.998
 2623SOL    HW2 8769   3.223   1.817   4.902
 2624SOL     OW 8770   6.590   3.316   4.219
 2624SOL    HW1 8771   6.674   3.315   4.274
 2624SOL    HW2 8772   6.511   3.324   4.279
 2625SOL     OW 8773   2.434   2.912   5.432
 2625SOL    HW1 8774   2.453   2.954   5.343
 2625SOL    HW2 8775   2.357   2.959   5.475
 2626SOL     OW 8776   0.716   7.012   4.415
 2626SOL    HW1 8777   0.641   0.047   4.400
 2626SOL    HW2 8778   0.759   0.001   4.503
 2627SOL     OW 8779   0.396   0.905   4.510
 2627SOL    HW1 8780   0.313   0.911   4.455
 2627SOL    HW2 8781   0.409   0.990   4.561
 2628SOL     OW 8782   3.129   5.790   6.609
 2628SOL    HW1 8783   3.153   5.872   6.557
 2628SOL    HW2 8784   3.135   5.811   6.707
 2629SOL     OW 8785   3.346   4.151   2.590
 2629SOL    HW1 8786   3.290   4.181   2.667
 2629SOL    HW2 8787   3.437   4.124   2.624
 2630SOL     OW 8788   3.562   1.529   3.128
 2630SOL    HW1 8789   3.501   1.522   3.049
 2630SOL    HW2 8790   3.508   1.534   3.211
 2631SOL     OW 8791   4.609   0.100   4.502
 2631SOL    HW1 8792   4.649   0.141   4.421
 2631SOL    HW2 8793   4.533   0.040   4.476
 2632SOL     OW 8794   2.115   2.032   5.849
 2632SOL    HW1 8795   2.038   2.067   5.796
 2632SOL    HW2 8796   2.157   2.106   5.901
 2633SOL     OW 8797   6.037   2.198   6.338
 2633SOL    HW1 8798   6.042   2.106   6.300
 2633SOL    HW2 8799   6.129   2.230   6.361
 2634SOL     OW 8800   2.218   4.080   3.109
 2634SOL    HW1 8801   2.150   4.099   3.038
 2634SOL    HW2 8802   2.255   3.988   3.096
 2635SOL     OW 8803   5.990   6.025   4.585
 2635SOL    HW1 8804   5.965   5.999   4.492
 2635SOL    HW2 8805   5.975   6.123   4.598
 2636SOL     OW 8806   4.872   0.679   6.235
 2636SOL    HW1 8807   4.785   0.629   6.231
 2636SOL    HW2 8808   4.944   0.624   6.194
 2637SOL     OW 8809   6.334   1.163   3.695
 2637SOL    HW1 8810   6.308   1.179   3.790
 2637SOL    HW2 8811   6.418   1.109   3.691
 2638SOL     OW 8812   0.220   6.736   2.703
 2638SOL    HW1 8813   0.216   6.825   2.657
 2638SOL    HW2 8814   0.310   6.724   2.745
 2639SOL     OW 8815   0.367   0.374   2.037
 2639SOL    HW1 8816   0.452   0.325   2.056
 2639SOL    HW2 8817   0.388   0.460   1.991
 2640SOL     OW 8818   6.913   5.918   5.379
 2640SOL    HW1 8819   6.872   5.897   5.290
 2640SOL    HW2 8820   6.921   6.017   5.390
 2641SOL     OW 8821   5.497   2.927   1.839
 2641SOL    HW1 8822   5.400   2.929   1.862
 2641SOL    HW2 8823   5.535   3.019   1.846
 2642SOL     OW 8824   5.385   6.835   4.568
 2642SOL    HW1 8825   5.380   6.870   4.661
 2642SOL    HW2 8826   5.464   6.775   4.559
 2643SOL     OW 8827   1.396   4.790   3.429
 2643SOL    HW1 8828   1.372   4.852   3.504
 2643SOL    HW2 8829   1.439   4.708   3.466
 2644SOL     OW 8830   6.915   4.251   5.560
 2644SOL    HW1 8831   6.868   4.340   5.561
 2644SOL    HW2 8832   6.858   4.184   5.513
 2645SOL     OW 8833   4.186   6.593   4.308
 2645SOL    HW1 8834   4.142   6.682   4.314
 2645SOL    HW2 8835   4.280   6.600   4.343
 2646SOL     OW 8836   5.753   6.830   6.443
 2646SOL    HW1 8837   5.837   6.884   6.433
 2646SOL    HW2 8838   5.764   6.764   6.517
 2647SOL     OW 8839   5.334   0.717   1.211
 2647SOL    HW1 8840   5.419   0.758   1.245
 2647SOL    HW2 8841   5.353   0.667   1.127
 2648SOL     OW 8842   6.881   0.688   4.152
 2648SOL    HW1 8843   6.862   0.714   4.057
 2648SOL    HW2 8844   6.803   0.638   4.189
 2649SOL     OW 8845   4.839   2.232   6.280
 2649SOL    HW1 8846   4.860   2.180   6.198
 2649SOL    HW2 8847   4.887   2.192   6.358
 2650SOL     OW 8848   0.630   4.040   3.764
 2650SOL    HW1 8849   0.563   3.969   3.745
 2650SOL    HW2 8850   0.716   4.019   3.716
 2651SOL     OW 8851   1.212   1.651   0.242
 2651SOL    HW1 8852   1.158   1.575   0.278
 2651SOL    HW2 8853   1.306   1.620   0.226
 2652SOL     OW 8854   3.125   3.817   3.917
 2652SOL    HW1 8855   3.209   3.776   3.882
 2652SOL    HW2 8856   3.064   3.744   3.949
 2653SOL     OW 8857   5.020   0.023   5.113
 2653SOL    HW1 8858   5.005   0.045   5.209
 2653SOL    HW2 8859   4.967   0.086   5.056
 2654SOL     OW 8860   4.654   3.406   0.909
 2654SOL    HW1 8861   4.662   3.460   0.993
 2654SOL    HW2 8862   4.672   3.465   0.830
 2655SOL     OW 8863   5.180   4.536   4.373
 2655SOL    HW1 8864   5.188   4.481   4.290
 2655SOL    HW2 8865   5.230   4.492   4.447
 2656SOL     OW 8866   4.503   4.937   4.504
 2656SOL    HW1 8867   4.444   4.862   4.535
 2656SOL    HW2 8868   4.523   4.997   4.581
 2657SOL     OW 8869   2.700   4.564   6.328
 2657SOL    HW1 8870   2.607   4.539   6.355
 2657SOL    HW2 8871   2.712   4.546   6.230
 2658SOL     OW 8872   5.241   3.613   0.370
 2658SOL    HW1 8873   5.214   3.535   0.312
 2658SOL    HW2 8874   5.325   3.590   0.418
 2659SOL     OW 8875   6.711   2.574   4.402
 2659SOL    HW1 8876   6.636   2.514   4.375
 2659SOL    HW2 8877   6.684   2.670   4.390
 2660SOL     OW 8878   0.404   1.360   1.506
 2660SOL    HW1 8879   0.463   1.352   1.586
 2660SOL    HW2 8880   0.338   1.434   1.520
 2661SOL     OW 8881   2.247   6.348   2.211
 2661SOL    HW1 8882   2.249   6.310   2.119
 2661SOL    HW2 8883   2.341   6.366   2.241
 2662SOL     OW 8884   4.354   0.148   5.414
 2662SOL    HW1 8885   4.302   0.229   5.439
 2662SOL    HW2 8886   4.450   0.162   5.437
 2663SOL     OW 8887   2.902   3.888   1.720
 2663SOL    HW1 8888   2.818   3.942   1.712
 2663SOL    HW2 8889   2.889   3.801   1.673
 2664SOL     OW 8890   3.958   3.856   4.505
 2664SOL    HW1 8891   3.977   3.949   4.472
 2664SOL    HW2 8892   3.893   3.860   4.580
 2665SOL     OW 8893   2.666   1.908   5.029
 2665SOL    HW1 8894   2.702   1.880   4.940
 2665SOL    HW2 8895   2.637   2.004   5.024
 2666SOL     OW 8896   4.445   3.962   1.724
 2666SOL    HW1 8897   4.446   4.046   1.778
 2666SOL    HW2 8898   4.406   3.888   1.779
 2667SOL     OW 8899   1.880   6.226   4.569
 2667SOL    HW1 8900   1.867   6.143   4.515
 2667SOL    HW2 8901   1.937   6.290   4.518
 2668SOL     OW 8902   6.908   2.927   3.444
 2668SOL    HW1 8903   6.922   3.021   3.475
 2668SOL    HW2 8904   6.982   2.901   3.382
 2669SOL     OW 8905   3.073   4.828   5.027
 2669SOL    HW1 8906   3.016   4.899   5.068
 2669SOL    HW2 8907   3.015   4.756   4.989
 2670SOL     OW 8908   5.771   1.494   6.632
 2670SOL    HW1 8909   5.804   1.479   6.539
 2670SOL    HW2 8910   5.800   1.418   6.690
 2671SOL     OW 8911   3.186   5.146   0.318
 2671SOL    HW1 8912   3.159   5.231   0.273
 2671SOL    HW2 8913   3.110   5.111   0.372
 2672SOL     OW 8914   0.229   5.459   6.987
 2672SOL    HW1 8915   0.196   5.509   0.036
 2672SOL    HW2 8916   0.158   5.457   6.916
 2673SOL     OW 8917   6.235   1.788   3.568
 2673SOL    HW1 8918   6.326   1.794   3.609
 2673SOL    HW2 8919   6.195   1.880   3.564
 2674SOL     OW 8920   2.043   3.915   4.703
 2674SOL    HW1 8921   1.992   3.849   4.648
 2674SOL    HW2 8922   2.095   3.866   4.773
 2675SOL     OW 8923   0.680   4.908   4.557
 2675SOL    HW1 8924   0.767   4.955   4.540
 2675SOL    HW2 8925   0.697   4.810   4.569
 2676SOL     OW 8926   4.478   1.000   2.621
 2676SOL    HW1 8927   4.382   1.025   2.610
 2676SOL    HW2 8928   4.522   1.066   2.682
 2677SOL     OW 8929   3.212   4.557   0.365
 2677SOL    HW1 8930   3.135   4.620   0.372
 2677SOL    HW2 8931   3.293   4.607   0.336
 2678SOL     OW 8932   0.138   4.142   1.508
 2678SOL    HW1 8933   0.121   4.223   1.563
 2678SOL    HW2 8934   0.108   4.061   1.558
 2679SOL     OW 8935   3.941   5.059   0.706
 2679SOL    HW1 8936   3.958   5.133   0.642
 2679SOL    HW2 8937   4.014   4.991   0.699
 2680SOL     OW 8938   1.483   1.752   0.993
 2680SOL    HW1 8939   1.470   1.736   0.895
 2680SOL    HW2 8940   1.524   1.842   1.006
 2681SOL     OW 8941   1.442   2.364   4.456
 2681SOL    HW1 8942   1.358   2.314   4.436
 2681SOL    HW2 8943   1.437   2.400   4.550
 2682SOL     OW 8944   5.428   3.774   2.527
 2682SOL    HW1 8945   5.329   3.786   2.538
 2682SOL    HW2 8946   5.451   3.677   2.532
 2683SOL     OW 8947   1.135   3.458   6.863
 2683SOL    HW1 8948   1.036   3.463   6.847
 2683SOL    HW2 8949   1.175   3.549   6.853
 2684SOL     OW 8950   4.203   5.387   2.735
 2684SOL    HW1 8951   4.209   5.294   2.771
 2684SOL    HW2 8952   4.176   5.384   2.639
 2685SOL     OW 8953   6.789   6.422   6.021
 2685SOL    HW1 8954   6.760   6.339   6.068
 2685SOL    HW2 8955   6.747   6.502   6.065
 2686SOL     OW 8956   1.489   1.885   5.571
 2686SOL    HW1 8957   1.512   1.902   5.475
 2686SOL    HW2 8958   1.572   1.857   5.621
 2687SOL     OW 8959   4.109   4.778   2.914
 2687SOL    HW1 8960   4.068   4.858   2.871
 2687SOL    HW2 8961   4.064   4.760   3.002
 2688SOL     OW 8962   4.743   5.495   6.707
 2688SOL    HW1 8963   4.797   5.567   6.663
 2688SOL    HW2 8964   4.652   5.492   6.666
 2689SOL     OW 8965   2.459   1.876   3.139
 2689SOL    HW1 8966   2.456   1.963   3.090
 2689SOL    HW2 8967   2.429   1.802   3.078
 2690SOL     OW 8968   3.146   4.019   4.091
 2690SOL    HW1 8969   3.098   4.011   4.178
 2690SOL    HW2 8970   3.131   3.937   4.036
 2691SOL     OW 8971   1.117   5.550   2.040
 2691SOL    HW1 8972   1.084   5.597   2.122
 2691SOL    HW2 8973   1.140   5.455   2.063
 2692SOL     OW 8974   4.704   4.986   3.841
 2692SOL    HW1 8975   4.688   5.017   3.934
 2692SOL    HW2 8976   4.665   4.895   3.829
 2693SOL     OW 8977   1.797   4.162   2.923
 2693SOL    HW1 8978   1.728   4.093   2.946
 2693SOL    HW2 8979   1.874   4.119   2.877
 2694SOL     OW 8980   3.945   0.643   2.480
 2694SOL    HW1 8981   3.947   0.703   2.560
 2694SOL    HW2 8982   3.925   0.549   2.509
 2695SOL     OW 8983   5.636   1.412   2.810
 2695SOL    HW1 8984   5.565   1.421   2.740
 2695SOL    HW2 8985   5.697   1.336   2.786
 2696SOL     OW 8986   3.445   3.318   5.203
 2696SOL    HW1 8987   3.481   3.364   5.122
 2696SOL    HW2 8988   3.456   3.219   5.193
 2697SOL     OW 8989   4.125   1.672   3.136
 2697SOL    HW1 8990   4.185   1.732   3.189
 2697SOL    HW2 8991   4.170   1.583   3.123
 2698SOL     OW 8992   1.936   5.388   0.580
 2698SOL    HW1 8993   1.888   5.433   0.505
 2698SOL    HW2 8994   2.008   5.449   0.614
 2699SOL     OW 8995   3.379   5.812   0.276
 2699SOL    HW1 8996   3.426   5.842   0.193
 2699SOL    HW2 8997   3.394   5.877   0.350
 2700SOL     OW 8998   2.203   3.862   1.205
 2700SOL    HW1 8999   2.129   3.807   1.243
 2700SOL    HW2 9000   2.165   3.948   1.170
 2701SOL     OW 9001   3.102   0.456   6.578
 2701SOL    HW1 9002   3.097   0.394   6.499
 2701SOL    HW2 9003   3.138   0.407   6.657
 2702SOL     OW 9004   0.440   2.617   3.231
 2702SOL    HW1 9005   0.385   2.609   3.148
 2702SOL    HW2 9006   0.441   2.529   3.279
 2703SOL     OW 9007   2.210   0.908   2.416
 2703SOL    HW1 9008   2.238   0.964   2.494
 2703SOL    HW2 9009   2.111   0.911   2.407
 2704SOL     OW 9010   0.550   5.372   0.923
 2704SOL    HW1 9011   0.494   5.447   0.959
 2704SOL    HW2 9012   0.630   5.359   0.982
 2705SOL     OW 9013   1.567   5.703   4.648
 2705SOL    HW1 9014   1.655   5.714   4.695
 2705SOL    HW2 9015   1.545   5.786   4.597
 2706SOL     OW 9016   0.574   0.661   1.242
 2706SOL    HW1 9017   0.597   0.691   1.335
 2706SOL    HW2 9018   0.653   0.614   1.202
 2707SOL     OW 9019   2.041   0.382   5.326
 2707SOL    HW1 9020   2.086   0.457   5.278
 2707SOL    HW2 9021   2.093   0.298   5.313
 2708SOL     OW 9022   1.745   2.070   1.427
 2708SOL    HW1 9023   1.692   1.985   1.427
 2708SOL    HW2 9024   1.784   2.085   1.518
 2709SOL     OW 9025   5.299   6.853   0.733
 2709SOL    HW1 9026   5.268   6.919   0.802
 2709SOL    HW2 9027   5.258   6.764   0.752
 2710SOL     OW 9028   0.053   2.707   2.857
 2710SOL    HW1 9029   0.060   2.719   2.758
 2710SOL    HW2 9030   0.145   2.709   2.897
 2711SOL     OW 9031   2.833   1.156   3.317
 2711SOL    HW1 9032   2.853   1.206   3.402
 2711SOL    HW2 9033   2.789   1.218   3.252
 2712SOL     OW 9034   3.149   5.658   1.439
 2712SOL    HW1 9035   3.223   5.719   1.468
 2712SOL    HW2 9036   3.188   5.574   1.403
 2713SOL     OW 9037   1.661   1.784   4.878
 2713SOL    HW1 9038   1.734   1.851   4.892
 2713SOL    HW2 9039   1.628   1.752   4.967
 2714SOL     OW 9040   4.812   1.882   6.538
 2714SOL    HW1 9041   4.851   1.963   6.495
 2714SOL    HW2 9042   4.757   1.908   6.617
 2715SOL     OW 9043   5.536   0.623   0.571
 2715SOL    HW1 9044   5.535   0.642   0.472
 2715SOL    HW2 9045   5.573   0.703   0.620
 2716SOL     OW 9046   5.583   5.234   2.214
 2716SOL    HW1 9047   5.510   5.269   2.273
 2716SOL    HW2 9048   5.660   5.204   2.270
 2717SOL     OW 9049   0.785   4.962   1.664
 2717SOL    HW1 9050   0.854   4.914   1.718
 2717SOL    HW2 9051   0.705   4.904   1.652
 2718SOL     OW 9052   2.167   3.799   4.896
 2718SOL    HW1 9053   2.133   3.727   4.956
 2718SOL    HW2 9054   2.201   3.876   4.951
 2719SOL     OW 9055   5.843   5.164   1.901
 2719SOL    HW1 9056   5.895   5.239   1.943
 2719SOL    HW2 9057   5.852   5.082   1.957
 2720SOL     OW 9058   2.179   6.266   3.391
 2720SOL    HW1 9059   2.097   6.323   3.388
 2720SOL    HW2 9060   2.209   6.256   3.486
 2721SOL     OW 9061   3.412   0.283   4.120
 2721SOL    HW1 9062   3.339   0.224   4.154
 2721SOL    HW2 9063   3.377   0.339   4.045
 2722SOL     OW 9064   6.276   5.598   2.556
 2722SOL    HW1 9065   6.320   5.546   2.482
 2722SOL    HW2 9066   6.327   5.584   2.641
 2723SOL     OW 9067   1.111   6.893   5.833
 2723SOL    HW1 9068   1.148   6.801   5.845
 2723SOL    HW2 9069   1.022   6.888   5.787
 2724SOL     OW 9070   2.773   6.401   6.038
 2724SOL    HW1 9071   2.743   6.485   5.993
 2724SOL    HW2 9072   2.699   6.367   6.097
 2725SOL     OW 9073   6.151   4.874   3.656
 2725SOL    HW1 9074   6.174   4.781   3.630
 2725SOL    HW2 9075   6.169   4.887   3.754
 2726SOL     OW 9076   6.917   4.206   0.991
 2726SOL    HW1 9077   6.836   4.171   0.943
 2726SOL    HW2 9078   6.997   4.153   0.965
 2727SOL     OW 9079   0.343   4.503   2.809
 2727SOL    HW1 9080   0.347   4.599   2.780
 2727SOL    HW2 9081   0.325   4.499   2.907
 2728SOL     OW 9082   3.666   0.122   5.111
 2728SOL    HW1 9083   3.741   0.134   5.045
 2728SOL    HW2 9084   3.658   0.025   5.135
 2729SOL     OW 9085   6.083   5.929   1.537
 2729SOL    HW1 9086   6.108   5.926   1.441
 2729SOL    HW2 9087   6.045   6.019   1.559
 2730SOL     OW 9088   1.661   5.800   1.596
 2730SOL    HW1 9089   1.572   5.789   1.641
 2730SOL    HW2 9090   1.725   5.844   1.660
 2731SOL     OW 9091   4.058   3.770   1.618
 2731SOL    HW1 9092   3.985   3.710   1.585
 2731SOL    HW2 9093   4.063   3.851   1.560
 2732SOL     OW 9094   5.966   3.003   1.788
 2732SOL    HW1 9095   5.940   3.088   1.832
 2732SOL    HW2 9096   5.906   2.929   1.819
 2733SOL     OW 9097   0.302   0.110   5.623
 2733SOL    HW1 9098   0.325   0.149   5.534
 2733SOL    HW2 9099   0.347   0.163   5.695
 2734SOL     OW 9100   2.200   5.130   2.316
 2734SOL    HW1 9101   2.221   5.134   2.218
 2734SOL    HW2 9102   2.176   5.221   2.349
 2735SOL     OW 9103   0.816   3.762   2.732
 2735SOL    HW1 9104   0.728   3.762   2.779
 2735SOL    HW2 9105   0.849   3.856   2.722
 2736SOL     OW 9106   5.211   0.305   4.705
 2736SOL    HW1 9107   5.169   0.216   4.689
 2736SOL    HW2 9108   5.155   0.358   4.768
 2737SOL     OW 9109   3.254   3.230   5.837
 2737SOL    HW1 9110   3.298   3.208   5.750
 2737SOL    HW2 9111   3.236   3.328   5.842
 2738SOL     OW 9112   5.062   5.228   4.337
 2738SOL    HW1 9113   5.025   5.175   4.413
 2738SOL    HW2 9114   5.021   5.319   4.337
 2739SOL     OW 9115   5.730   5.149   0.162
 2739SOL    HW1 9116   5.825   5.153   0.132
 2739SOL    HW2 9117   5.671   5.190   0.093
 2740SOL     OW 9118   6.086   3.256   2.420
 2740SOL    HW1 9119   6.144   3.188   2.377
 2740SOL    HW2 9120   6.142   3.324   2.467
 2741SOL     OW 9121   7.007   0.777   6.342
 2741SOL    HW1 9122   6.968   0.856   6.294
 2741SOL    HW2 9123   6.951   0.696   6.324
 2742SOL     OW 9124   1.796   5.344   6.972
 2742SOL    HW1 9125   1.829   5.329   6.879
 2742SOL    HW2 9126   1.739   5.266   7.000
 2743SOL     OW 9127   6.657   5.507   1.959
 2743SOL    HW1 9128   6.599   5.442   1.911
 2743SOL    HW2 9129   6.600   5.576   2.004
 2744SOL     OW 9130   4.330   1.973   6.719
 2744SOL    HW1 9131   4.423   2.007   6.707
 2744SOL    HW2 9132   4.266   2.038   6.678
 2745SOL     OW 9133   1.294   6.872   6.871
 2745SOL    HW1 9134   1.365   6.836   6.932
 2745SOL    HW2 9135   1.212   6.814   6.878
 2746SOL     OW 9136   2.446   2.006   4.660
 2746SOL    HW1 9137   2.544   2.013   4.678
 2746SOL    HW2 9138   2.431   1.989   4.562
 2747SOL     OW 9139   5.714   3.413   5.400
 2747SOL    HW1 9140   5.675   3.491   5.448
 2747SOL    HW2 9141   5.660   3.331   5.420
 2748SOL     OW 9142   4.053   1.541   1.055
 2748SOL    HW1 9143   4.141   1.548   1.008
 2748SOL    HW2 9144   4.007   1.630   1.055
 2749SOL     OW 9145   6.010   4.597   3.909
 2749SOL    HW1 9146   6.007   4.539   3.828
 2749SOL    HW2 9147   5.987   4.542   3.990
 2750SOL     OW 9148   0.196   5.403   1.816
 2750SOL    HW1 9149   0.291   5.404   1.786
 2750SOL    HW2 9150   0.179   5.481   1.876
 2751SOL     OW 9151   1.304   6.699   0.468
 2751SOL    HW1 9152   1.299   6.619   0.528
 2751SOL    HW2 9153   1.372   6.682   0.397
 2752SOL     OW 9154   5.401   5.273   5.264
 2752SOL    HW1 9155   5.421   5.331   5.342
 2752SOL    HW2 9156   5.338   5.200   5.291
 2753SOL     OW 9157   1.856   0.217   6.685
 2753SOL    HW1 9158   1.768   0.247   6.723
 2753SOL    HW2 9159   1.930   0.245   6.746
 2754SOL     OW 9160   6.625   0.663   4.297
 2754SOL    HW1 9161   6.652   0.685   4.391
 2754SOL    HW2 9162   6.546   0.719   4.271
 2755SOL     OW 9163   3.455   6.784   2.944
 2755SOL    HW1 9164   3.495   6.831   2.865
 2755SOL    HW2 9165   3.411   6.699   2.914
 2756SOL     OW 9166   6.329   3.743   5.082
 2756SOL    HW1 9167   6.327   3.652   5.041
 2756SOL    HW2 9168   6.394   3.800   5.032
 2757SOL     OW 9169   2.554   1.476   6.547
 2757SOL    HW1 9170   2.559   1.424   6.632
 2757SOL    HW2 9171   2.623   1.549   6.549
 2758SOL     OW 9172   5.173   6.027   3.678
 2758SOL    HW1 9173   5.124   5.959   3.624
 2758SOL    HW2 9174   5.122   6.113   3.678
 2759SOL     OW 9175   3.840   5.689   5.045
 2759SOL    HW1 9176   3.882   5.604   5.013
 2759SOL    HW2 9177   3.834   5.689   5.144
 2760SOL     OW 9178   6.840   5.291   2.768
 2760SOL    HW1 9179   6.878   5.377   2.802
 2760SOL    HW2 9180   6.811   5.235   2.845
 2761SOL     OW 9181   1.493   4.328   3.837
 2761SOL    HW1 9182   1.481   4.331   3.738
 2761SOL    HW2 9183   1.566   4.391   3.863
 2762SOL     OW 9184   1.625   1.896   6.791
 2762SOL    HW1 9185   1.543   1.921   6.844
 2762SOL    HW2 9186   1.598   1.844   6.711
 2763SOL     OW 9187   4.956   2.175   5.455
 2763SOL    HW1 9188   4.899   2.231   5.514
 2763SOL    HW2 9189   4.905   2.150   5.373
 2764SOL     OW 9190   0.561   5.906   2.694
 2764SOL    HW1 9191   0.542   5.964   2.615
 2764SOL    HW2 9192   0.594   5.963   2.769
 2765SOL     OW 9193   6.833   0.224   0.436
 2765SOL    HW1 9194   6.869   0.293   0.373
 2765SOL    HW2 9195   6.781   0.270   0.508
 2766SOL     OW 9196   4.037   1.371   6.561
 2766SOL    HW1 9197   4.056   1.351   6.464
 2766SOL    HW2 9198   3.953   1.426   6.567
 2767SOL     OW 9199   6.043   5.782   6.346
 2767SOL    HW1 9200   6.052   5.879   6.323
 2767SOL    HW2 9201   5.946   5.759   6.348
 2768SOL     OW 9202   4.553   1.284   0.012
 2768SOL    HW1 9203   4.592   1.274   6.951
 2768SOL    HW2 9204   4.600   1.357   0.061
 2769SOL     OW 9205   2.291   4.818   6.812
 2769SOL    HW1 9206   2.268   4.900   6.864
 2769SOL    HW2 9207   2.315   4.843   6.718
 2770SOL     OW 9208   4.048   5.844   5.998
 2770SOL    HW1 9209   4.093   5.855   6.087
 2770SOL    HW2 9210   3.961   5.892   5.999
 2771SOL     OW 9211   6.044   0.556   4.586
 2771SOL    HW1 9212   6.029   0.612   4.668
 2771SOL    HW2 9213   6.141   0.560   4.561
 2772SOL     OW 9214   3.251   1.455   1.654
 2772SOL    HW1 9215   3.212   1.547   1.657
 2772SOL    HW2 9216   3.343   1.455   1.694
 2773SOL     OW 9217   6.796   2.963   3.956
 2773SOL    HW1 9218   6.747   2.932   3.874
 2773SOL    HW2 9219   6.730   2.987   4.026
 2774SOL     OW 9220   5.292   3.093   2.440
 2774SOL    HW1 9221   5.378   3.083   2.391
 2774SOL    HW2 9222   5.232   3.016   2.418
 2775SOL     OW 9223   6.301   3.530   4.071
 2775SOL    HW1 9224   6.359   3.450   4.055
 2775SOL    HW2 9225   6.249   3.550   3.988
 2776SOL     OW 9226   5.681   4.304   5.430
 2776SOL    HW1 9227   5.604   4.305   5.367
 2776SOL    HW2 9228   5.648   4.291   5.523
 2777SOL     OW 9229   2.158   1.691   0.135
 2777SOL    HW1 9230   2.080   1.664   0.079
 2777SOL    HW2 9231   2.242   1.655   0.095
 2778SOL     OW 9232   1.880   6.053   6.275
 2778SOL    HW1 9233   1.863   5.960   6.310
 2778SOL    HW2 9234   1.799   6.084   6.224
 2779SOL     OW 9235   5.139   6.617   2.117
 2779SOL    HW1 9236   5.056   6.565   2.135
 2779SOL    HW2 9237   5.121   6.688   2.049
 2780SOL     OW 9238   6.624   6.982   5.801
 2780SOL    HW1 9239   6.626   6.967   5.703
 2780SOL    HW2 9240   6.691   0.022   5.825
 2781SOL     OW 9241   5.805   0.188   3.402
 2781SOL    HW1 9242   5.757   0.230   3.324
 2781SOL    HW2 9243   5.854   0.106   3.370
 2782SOL     OW 9244   4.790   1.479   5.483
 2782SOL    HW1 9245   4.750   1.528   5.560
 2782SOL    HW2 9246   4.802   1.542   5.406
 2783SOL     OW 9247   6.717   3.855   1.419
 2783SOL    HW1 9248   6.742   3.932   1.361
 2783SOL    HW2 9249   6.620   3.833   1.407
 2784SOL     OW 9250   3.510   1.574   2.130
 2784SOL    HW1 9251   3.442   1.508   2.099
 2784SOL    HW2 9252   3.468   1.664   2.139
 2785SOL     OW 9253   5.442   2.275   0.869
 2785SOL    HW1 9254   5.410   2.363   0.904
 2785SOL    HW2 9255   5.500   2.231   0.938
 2786SOL     OW 9256   6.842   6.262   1.353
 2786SOL    HW1 9257   6.801   6.173   1.372
 2786SOL    HW2 9258   6.884   6.298   1.437
 2787SOL     OW 9259   6.684   5.778   5.451
 2787SOL    HW1 9260   6.747   5.844   5.410
 2787SOL    HW2 9261   6.595   5.784   5.405
 2788SOL     OW 9262   2.910   6.328   6.284
 2788SOL    HW1 9263   2.911   6.230   6.300
 2788SOL    HW2 9264   2.846   6.350   6.210
 2789SOL     OW 9265   2.327   1.817   3.641
 2789SOL    HW1 9266   2.394   1.845   3.572
 2789SOL    HW2 9267   2.375   1.778   3.720
 2790SOL     OW 9268   3.033   5.506   0.838
 2790SOL    HW1 9269   3.022   5.411   0.869
 2790SOL    HW2 9270   3.098   5.553   0.898
 2791SOL     OW 9271   0.343   4.371   2.330
 2791SOL    HW1 9272   0.328   4.414   2.240
 2791SOL    HW2 9273   0.272   4.302   2.346
 2792SOL     OW 9274   2.854   1.286   4.672
 2792SOL    HW1 9275   2.799   1.238   4.602
 2792SOL    HW2 9276   2.943   1.309   4.633
 2793SOL     OW 9277   5.313   3.908   2.139
 2793SOL    HW1 9278   5.286   3.833   2.079
 2793SOL    HW2 9279   5.409   3.932   2.123
 2794SOL     OW 9280   6.532   2.020   6.248
 2794SOL    HW1 9281   6.517   2.114   6.215
 2794SOL    HW2 9282   6.468   2.000   6.322
 2795SOL     OW 9283   0.328   4.741   1.130
 2795SOL    HW1 9284   0.335   4.820   1.070
 2795SOL    HW2 9285   0.292   4.770   1.219
 2796SOL     OW 9286   0.662   5.568   4.201
 2796SOL    HW1 9287   0.628   5.661   4.185
 2796SOL    HW2 9288   0.587   5.510   4.233
 2797SOL     OW 9289   5.673   5.705   5.615
 2797SOL    HW1 9290   5.633   5.648   5.687
 2797SOL    HW2 9291   5.692   5.650   5.535
 2798SOL     OW 9292   5.976   6.091   2.432
 2798SOL    HW1 9293   6.041   6.158   2.467
 2798SOL    HW2 9294   5.896   6.139   2.396
 2799SOL     OW 9295   5.027   6.356   5.770
 2799SOL    HW1 9296   4.931   6.352   5.741
 2799SOL    HW2 9297   5.036   6.422   5.845
 2800SOL     OW 9298   5.913   0.586   6.361
 2800SOL    HW1 9299   5.843   0.556   6.295
 2800SOL    HW2 9300   5.872   0.595   6.451
 2801SOL     OW 9301   1.362   5.699   6.146
 2801SOL    HW1 9302   1.302   5.644   6.088
 2801SOL    HW2 9303   1.327   5.698   6.240
 2802SOL     OW 9304   6.563   6.429   5.688
 2802SOL    HW1 9305   6.661   6.436   5.706
 2802SOL    HW2 9306   6.545   6.350   5.630
 2803SOL     OW 9307   3.700   4.629   5.994
 2803SOL    HW1 9308   3.771   4.576   5.947
 2803SOL    HW2 9309   3.622   4.641   5.932
 2804SOL     OW 9310   0.258   3.974   4.682
 2804SOL    HW1 9311   0.340   3.981   4.626
 2804SOL    HW2 9312   0.179   4.010   4.631
 2805SOL     OW 9313   6.073   4.086   2.771
 2805SOL    HW1 9314   6.141   4.067   2.700
 2805SOL    HW2 9315   5.991   4.125   2.729
 2806SOL     OW 9316   1.626   4.793   6.532
 2806SOL    HW1 9317   1.672   4.798   6.621
 2806SOL    HW2 9318   1.670   4.723   6.476
 2807SOL     OW 9319   4.109   0.733   2.907
 2807SOL    HW1 9320   4.034   0.735   2.841
 2807SOL    HW2 9321   4.150   0.824   2.915
 2808SOL     OW 9322   6.211   6.047   0.979
 2808SOL    HW1 9323   6.296   6.096   0.998
 2808SOL    HW2 9324   6.228   5.977   0.910
 2809SOL     OW 9325   5.694   2.492   1.410
 2809SOL    HW1 9326   5.723   2.582   1.445
 2809SOL    HW2 9327   5.711   2.487   1.312
 2810SOL     OW 9328   2.044   5.610   2.813
 2810SOL    HW1 9329   1.994   5.577   2.893
 2810SOL    HW2 9330   2.085   5.699   2.833
 2811SOL     OW 9331   0.866   1.659   2.681
 2811SOL    HW1 9332   0.916   1.683   2.764
 2811SOL    HW2 9333   0.768   1.652   2.700
 2812SOL     OW 9334   6.213   3.539   0.615
 2812SOL    HW1 9335   6.222   3.444   0.585
 2812SOL    HW2 9336   6.164   3.542   0.702
 2813SOL     OW 9337   0.702   1.551   0.445
 2813SOL    HW1 9338   0.749   1.622   0.394
 2813SOL    HW2 9339   0.762   1.471   0.454
 2814SOL     OW 9340   2.877   4.407   5.584
 2814SOL    HW1 9341   2.824   4.322   5.594
 2814SOL    HW2 9342   2.835   4.478   5.641
 2815SOL     OW 9343   0.041   5.218   6.065
 2815SOL    HW1 9344   0.079   5.128   6.087
 2815SOL    HW2 9345   0.107   5.270   6.011
 2816SOL     OW 9346   6.662   5.370   4.597
 2816SOL    HW1 9347   6.564   5.389   4.606
 2816SOL    HW2 9348   6.712   5.456   4.588
 2817SOL     OW 9349   3.716   1.500   2.634
 2817SOL    HW1 9350   3.633   1.508   2.689
 2817SOL    HW2 9351   3.692   1.469   2.542
 2818SOL     OW 9352   6.880   1.139   2.290
 2818SOL    HW1 9353   6.813   1.096   2.351
 2818SOL    HW2 9354   6.856   1.120   2.195
 2819SOL     OW 9355   1.655   0.059   1.214
 2819SOL    HW1 9356   1.606   0.057   1.302
 2819SOL    HW2 9357   1.749   0.090   1.229
 2820SOL     OW 9358   0.897   2.169   2.205
 2820SOL    HW1 9359   0.946   2.136   2.286
 2820SOL    HW2 9360   0.807   2.202   2.232
 2821SOL     OW 9361   2.825   5.164   6.087
 2821SOL    HW1 9362   2.851   5.165   6.183
 2821SOL    HW2 9363   2.866   5.242   6.040
 2822SOL     OW 9364   4.568   2.529   6.990
 2822SOL    HW1 9365   4.604   2.617   6.959
 2822SOL    HW2 9366   4.570   2.525   0.060
 2823SOL     OW 9367   5.952   0.781   6.905
 2823SOL    HW1 9368   5.890   0.853   6.935
 2823SOL    HW2 9369   5.982   0.799   6.811
 2824SOL     OW 9370   1.885   3.021   5.452
 2824SOL    HW1 9371   1.802   2.966   5.441
 2824SOL    HW2 9372   1.860   3.115   5.475
 2825SOL     OW 9373   5.547   0.566   6.329
 2825SOL    HW1 9374   5.557   0.664   6.345
 2825SOL    HW2 9375   5.585   0.515   6.406
 2826SOL     OW 9376   2.440   3.326   6.486
 2826SOL    HW1 9377   2.394   3.292   6.568
 2826SOL    HW2 9378   2.375   3.332   6.411
 2827SOL     OW 9379   0.416   0.850   6.810
 2827SOL    HW1 9380   0.437   0.897   6.896
 2827SOL    HW2 9381   0.490   0.866   6.745
 2828SOL     OW 9382   1.864   3.500   1.254
 2828SOL    HW1 9383   1.807   3.419   1.265
 2828SOL    HW2 9384   1.960   3.474   1.256
 2829SOL     OW 9385   3.097   3.117   3.300
 2829SOL    HW1 9386   3.037   3.195   3.281
 2829SOL    HW2 9387   3.051   3.032   3.275
 2830SOL     OW 9388   3.477   4.263   5.545
 2830SOL    HW1 9389   3.559   4.316   5.568
 2830SOL    HW2 9390   3.491   4.218   5.457
 2831SOL     OW 9391   0.414   2.543   2.865
 2831SOL    HW1 9392   0.466   2.626   2.885
 2831SOL    HW2 9393   0.474   2.464   2.867
 2832SOL     OW 9394   0.537   3.561   1.586
 2832SOL    HW1 9395   0.620   3.510   1.607
 2832SOL    HW2 9396   0.539   3.650   1.632
 2833SOL     OW 9397   2.460   1.418   1.631
 2833SOL    HW1 9398   2.459   1.516   1.653
 2833SOL    HW2 9399   2.368   1.388   1.606
 2834SOL     OW 9400   5.075   6.493   4.681
 2834SOL    HW1 9401   5.093   6.571   4.621
 2834SOL    HW2 9402   4.978   6.468   4.676
 2835SOL     OW 9403   0.906   6.322   0.621
 2835SOL    HW1 9404   0.840   6.272   0.565
 2835SOL    HW2 9405   0.887   6.420   0.617
 2836SOL     OW 9406   2.208   6.066   2.337
 2836SOL    HW1 9407   2.288   6.008   2.325
 2836SOL    HW2 9408   2.226   6.157   2.299
 2837SOL     OW 9409   5.485   4.660   2.467
 2837SOL    HW1 9410   5.554   4.614   2.523
 2837SOL    HW2 9411   5.530   4.700   2.387
 2838SOL     OW 9412   4.865   4.027   0.517
 2838SOL    HW1 9413   4.944   3.969   0.496
 2838SOL    HW2 9414   4.786   3.994   0.465
 2839SOL     OW 9415   0.473   2.499   2.308
 2839SOL    HW1 9416   0.499   2.527   2.400
 2839SOL    HW2 9417   0.375   2.513   2.295
 2840SOL     OW 9418   1.302   5.721   2.649
 2840SOL    HW1 9419   1.312   5.711   2.748
 2840SOL    HW2 9420   1.341   5.641   2.603
 2841SOL     OW 9421   6.825   2.449   7.024
 2841SOL    HW1 9422   6.813   2.404   0.083
 2841SOL    HW2 9423   6.788   2.390   6.952
 2842SOL     OW 9424   1.430   6.141   4.583
 2842SOL    HW1 9425   1.362   6.211   4.604
 2842SOL    HW2 9426   1.409   6.099   4.495
 2843SOL     OW 9427   2.704   1.930   2.701
 2843SOL    HW1 9428   2.720   1.879   2.786
 2843SOL    HW2 9429   2.612   1.911   2.668
 2844SOL     OW 9430   5.515   4.738   1.418
 2844SOL    HW1 9431   5.582   4.787   1.362
 2844SOL    HW2 9432   5.561   4.670   1.474
 2845SOL     OW 9433   5.212   3.094   2.709
 2845SOL    HW1 9434   5.197   3.000   2.740
 2845SOL    HW2 9435   5.253   3.094   2.618
 2846SOL     OW 9436   3.185   1.249   0.445
 2846SOL    HW1 9437   3.214   1.159   0.413
 2846SOL    HW2 9438   3.261   1.296   0.490
 2847SOL     OW 9439   4.848   4.094   2.480
 2847SOL    HW1 9440   4.830   4.070   2.384
 2847SOL    HW2 9441   4.934   4.146   2.485
 2848SOL     OW 9442   1.889   2.277   5.224
 2848SOL    HW1 9443   1.793   2.296   5.204
 2848SOL    HW2 9444   1.944   2.359   5.204
 2849SOL     OW 9445   3.922   1.236   1.408
 2849SOL    HW1 9446   4.005   1.189   1.378
 2849SOL    HW2 9447   3.938   1.335   1.411
 2850SOL     OW 9448   2.390   6.641   3.443
 2850SOL    HW1 9449   2.461   6.633   3.373
 2850SOL    HW2 9450   2.331   6.719   3.422
 2851SOL     OW 9451   4.125   3.499   6.847
 2851SOL    HW1 9452   4.067   3.579   6.863
 2851SOL    HW2 9453   4.099   3.455   6.761
 2852SOL     OW 9454   6.220   4.592   7.001
 2852SOL    HW1 9455   6.232   4.493   6.989
 2852SOL    HW2 9456   6.137   4.621   6.955
 2853SOL     OW 9457   0.803   3.436   0.657
 2853SOL    HW1 9458   0.813   3.338   0.642
 2853SOL    HW2 9459   0.711   3.465   0.630
 2854SOL     OW 9460   3.309   0.580   6.288
 2854SOL    HW1 9461   3.261   0.641   6.352
 2854SOL    HW2 9462   3.393   0.623   6.257
 2855SOL     OW 9463   1.097   2.837   4.715
 2855SOL    HW1 9464   1.077   2.892   4.797
 2855SOL    HW2 9465   1.015   2.834   4.658
 2856SOL     OW 9466   1.437   2.771   3.403
 2856SOL    HW1 9467   1.483   2.832   3.339
 2856SOL    HW2 9468   1.366   2.719   3.355
 2857SOL     OW 9469   0.366   2.971   0.985
 2857SOL    HW1 9470   0.321   2.882   0.993
 2857SOL    HW2 9471   0.462   2.962   1.011
 2858SOL     OW 9472   4.967   6.331   2.345
 2858SOL    HW1 9473   4.984   6.278   2.428
 2858SOL    HW2 9474   5.040   6.314   2.278
 2859SOL     OW 9475   5.146   6.294   0.547
 2859SOL    HW1 9476   5.148   6.223   0.617
 2859SOL    HW2 9477   5.065   6.352   0.559
 2860SOL     OW 9478   1.666   6.564   1.889
 2860SOL    HW1 9479   1.653   6.653   1.932
 2860SOL    HW2 9480   1.703   6.499   1.956
 2861SOL     OW 9481   2.958   5.924   5.394
 2861SOL    HW1 9482   2.931   5.936   5.490
 2861SOL    HW2 9483   2.969   5.826   5.375
 2862SOL     OW 9484   4.681   2.659   2.244
 2862SOL    HW1 9485   4.744   2.736   2.252
 2862SOL    HW2 9486   4.687   2.603   2.327
 2863SOL     OW 9487   5.229   1.476   0.026
 2863SOL    HW1 9488   5.195   1.476   6.962
 2863SOL    HW2 9489   5.160   1.433   0.085
 2864SOL     OW 9490   4.743   2.983   0.982
 2864SOL    HW1 9491   4.681   2.934   1.042
 2864SOL    HW2 9492   4.691   3.037   0.916
 2865SOL     OW 9493   4.351   7.012   4.074
 2865SOL    HW1 9494   4.446   6.984   4.061
 2865SOL    HW2 9495   4.312   0.008   3.985
 2866SOL     OW 9496   5.615   4.141   0.277
 2866SOL    HW1 9497   5.552   4.189   0.338
 2866SOL    HW2 9498   5.587   4.156   0.182
 2867SOL     OW 9499   6.303   6.401   2.856
 2867SOL    HW1 9500   6.384   6.343   2.843
 2867SOL    HW2 9501   6.281   6.445   2.769
 2868SOL     OW 9502   0.858   1.416   5.223
 2868SOL    HW1 9503   0.789   1.489   5.222
 2868SOL    HW2 9504   0.909   1.417   5.138
 2869SOL     OW 9505   6.181   0.577   3.789
 2869SOL    HW1 9506   6.234   0.605   3.869
 2869SOL    HW2 9507   6.184   0.651   3.721
 2870SOL     OW 9508   0.638   1.683   6.702
 2870SOL    HW1 9509   0.688   1.645   6.624
 2870SOL    HW2 9510   0.565   1.743   6.669
 2871SOL     OW 9511   6.315   0.535   6.860
 2871SOL    HW1 9512   6.285   0.607   6.923
 2871SOL    HW2 9513   6.346   0.456   6.912
 2872SOL     OW 9514   3.006   1.597   0.849
 2872SOL    HW1 9515   3.098   1.601   0.808
 2872SOL    HW2 9516   3.004   1.527   0.919
 2873SOL     OW 9517   6.657   6.096   1.650
 2873SOL    HW1 9518   6.706   6.071   1.733
 2873SOL    HW2 9519   6.693   6.043   1.573
 2874SOL     OW 9520   4.466   7.007   2.851
 2874SOL    HW1 9521   4.469   6.934   2.783
 2874SOL    HW2 9522   4.554   0.025   2.852
 2875SOL     OW 9523   3.736   0.139   2.715
 2875SOL    HW1 9524   3.743   0.234   2.744
 2875SOL    HW2 9525   3.778   0.080   2.785
 2876SOL     OW 9526   1.317   6.485   2.297
 2876SOL    HW1 9527   1.296   6.399   2.343
 2876SOL    HW2 9528   1.370   6.467   2.214
 2877SOL     OW 9529   2.230   0.847   6.810
 2877SOL    HW1 9530   2.245   0.914   6.738
 2877SOL    HW2 9531   2.291   0.769   6.796
 2878SOL     OW 9532   2.853   3.964   5.120
 2878SOL    HW1 9533   2.805   3.969   5.208
 2878SOL    HW2 9534   2.800   4.011   5.050
 2879SOL     OW 9535   4.313   5.559   5.762
 2879SOL    HW1 9536   4.226   5.566   5.712
 2879SOL    HW2 9537   4.325   5.640   5.819
 2880SOL     OW 9538   0.393   1.713   3.876
 2880SOL    HW1 9539   0.361   1.619   3.885
 2880SOL    HW2 9540   0.403   1.736   3.780
 2881SOL     OW 9541   3.514   5.892   0.047
 2881SOL    HW1 9542   3.525   5.888   6.978
 2881SOL    HW2 9543   3.604   5.894   0.091
 2882SOL     OW 9544   6.067   5.894   1.247
 2882SOL    HW1 9545   5.978   5.851   1.230
 2882SOL    HW2 9546   6.114   5.909   1.161
 2883SOL     OW 9547   5.766   6.617   3.498
 2883SOL    HW1 9548   5.825   6.699   3.496
 2883SOL    HW2 9549   5.802   6.553   3.566
 2884SOL     OW 9550   6.991   5.825   1.888
 2884SOL    HW1 9551   6.977   5.744   1.832
 2884SOL    HW2 9552   6.919   5.892   1.868
 2885SOL     OW 9553   0.956   2.340   4.252
 2885SOL    HW1 9554   0.928   2.359   4.158
 2885SOL    HW2 9555   0.976   2.426   4.299
 2886SOL     OW 9556   2.100   4.513   6.718
 2886SOL    HW1 9557   2.115   4.542   6.813
 2886SOL    HW2 9558   2.157   4.433   6.699
 2887SOL     OW 9559   6.867   6.018   4.318
 2887SOL    HW1 9560   6.805   5.941   4.335
 2887SOL    HW2 9561   6.858   6.047   4.223
 2888SOL     OW 9562   0.325   5.331   0.456
 2888SOL    HW1 9563   0.332   5.318   0.357
 2888SOL    HW2 9564   0.240   5.378   0.477
 2889SOL     OW 9565   2.701   6.535   2.978
 2889SOL    HW1 9566   2.763   6.490   2.914
 2889SOL    HW2 9567   2.736   6.525   3.071
 2890SOL     OW 9568   1.910   5.153   0.742
 2890SOL    HW1 9569   1.925   5.223   0.672
 2890SOL    HW2 9570   1.943   5.185   0.830
 2891SOL     OW 9571   1.331   3.523   3.413
 2891SOL    HW1 9572   1.283   3.544   3.327
 2891SOL    HW2 9573   1.320   3.426   3.435
 2892SOL     OW 9574   6.013   2.980   0.922
 2892SOL    HW1 9575   6.004   3.006   1.018
 2892SOL    HW2 9576   6.093   2.922   0.910
 2893SOL     OW 9577   1.781   5.602   4.848
 2893SOL    HW1 9578   1.768   5.626   4.944
 2893SOL    HW2 9579   1.869   5.637   4.816
 2894SOL     OW 9580   1.821   4.009   1.336
 2894SOL    HW1 9581   1.749   3.977   1.397
 2894SOL    HW2 9582   1.804   4.105   1.312
 2895SOL     OW 9583   3.977   0.508   6.558
 2895SOL    HW1 9584   3.894   0.554   6.588
 2895SOL    HW2 9585   3.978   0.504   6.458
 2896SOL     OW 9586   5.338   7.007   5.787
 2896SOL    HW1 9587   5.342   6.924   5.842
 2896SOL    HW2 9588   5.288   6.989   5.702
 2897SOL     OW 9589   4.256   5.135   2.846
 2897SOL    HW1 9590   4.253   5.154   2.944
 2897SOL    HW2 9591   4.169   5.095   2.817
 2898SOL     OW 9592   5.276   4.230   3.940
 2898SOL    HW1 9593   5.273   4.131   3.959
 2898SOL    HW2 9594   5.332   4.247   3.859
 2899SOL     OW 9595   6.558   1.786   0.797
 2899SOL    HW1 9596   6.645   1.742   0.774
 2899SOL    HW2 9597   6.576   1.874   0.842
 2900SOL     OW 9598   4.487   4.739   6.390
 2900SOL    HW1 9599   4.408   4.724   6.450
 2900SOL    HW2 9600   4.455   4.746   6.295
 2901SOL     OW 9601   1.873   4.904   3.433
 2901SOL    HW1 9602   1.853   4.874   3.340
 2901SOL    HW2 9603   1.793   4.951   3.471
 2902SOL     OW 9604   6.978   5.310   3.425
 2902SOL    HW1 9605   6.931   5.397   3.411
 2902SOL    HW2 9606   6.927   5.255   3.492
 2903SOL     OW 9607   4.179   6.241   0.986
 2903SOL    HW1 9608   4.275   6.269   0.988
 2903SOL    HW2 9609   4.154   6.203   1.074
 2904SOL     OW 9610   3.152   5.192   4.977
 2904SOL    HW1 9611   3.095   5.246   4.916
 2904SOL    HW2 9612   3.182   5.109   4.930
 2905SOL     OW 9613   1.418   4.081   3.901
 2905SOL    HW1 9614   1.476   4.154   3.864
 2905SOL    HW2 9615   1.328   4.118   3.924
 2906SOL     OW 9616   5.300   5.905   2.740
 2906SOL    HW1 9617   5.316   5.985   2.798
 2906SOL    HW2 9618   5.389   5.868   2.711
 2907SOL     OW 9619   0.824   1.612   4.245
 2907SOL    HW1 9620   0.754   1.542   4.259
 2907SOL    HW2 9621   0.833   1.631   4.147
 2908SOL     OW 9622   5.299   6.464   3.734
 2908SOL    HW1 9623   5.236   6.483   3.659
 2908SOL    HW2 9624   5.270   6.382   3.782
 2909SOL     OW 9625   1.926   6.934   3.332
 2909SOL    HW1 9626   1.994   6.871   3.296
 2909SOL    HW2 9627   1.885   6.896   3.414
 2910SOL     OW 9628   6.736   0.850   3.657
 2910SOL    HW1 9629   6.672   0.926   3.648
 2910SOL    HW2 9630   6.786   0.837   3.571
 2911SOL     OW 9631   1.325   4.925   3.657
 2911SOL    HW1 9632   1.305   5.022   3.674
 2911SOL    HW2 9633   1.309   4.873   3.741
 2912SOL     OW 9634   6.906   5.957   6.322
 2912SOL    HW1 9635   6.944   6.010   6.246
 2912SOL    HW2 9636   6.954   5.870   6.329
 2913SOL     OW 9637   3.478   4.935   2.662
 2913SOL    HW1 9638   3.569   4.947   2.702
 2913SOL    HW2 9639   3.485   4.927   2.563
 2914SOL     OW 9640   5.528   5.851   1.212
 2914SOL    HW1 9641   5.608   5.903   1.239
 2914SOL    HW2 9642   5.557   5.770   1.161
 2915SOL     OW 9643   3.260   2.031   3.968
 2915SOL    HW1 9644   3.201   1.955   3.994
 2915SOL    HW2 9645   3.289   2.020   3.873
 2916SOL     OW 9646   1.542   5.246   0.426
 2916SOL    HW1 9647   1.577   5.179   0.360
 2916SOL    HW2 9648   1.605   5.323   0.431
 2917SOL     OW 9649   3.190   0.582   4.252
 2917SOL    HW1 9650   3.254   0.545   4.320
 2917SOL    HW2 9651   3.232   0.577   4.162
 2918SOL     OW 9652   5.766   3.888   6.714
 2918SOL    HW1 9653   5.680   3.940   6.712
 2918SOL    HW2 9654   5.783   3.850   6.623
 2919SOL     OW 9655   6.134   0.245   3.374
 2919SOL    HW1 9656   6.222   0.199   3.383
 2919SOL    HW2 9657   6.062   0.177   3.359
 2920SOL     OW 9658   3.541   0.139   1.708
 2920SOL    HW1 9659   3.572   0.210   1.644
 2920SOL    HW2 9660   3.493   0.182   1.784
 2921SOL     OW 9661   0.769   0.027   5.941
 2921SOL    HW1 9662   0.861   0.031   5.979
 2921SOL    HW2 9663   0.712   6.998   5.998
 2922SOL     OW 9664   3.854   6.384   1.671
 2922SOL    HW1 9665   3.898   6.473   1.662
 2922SOL    HW2 9666   3.826   6.370   1.766
 2923SOL     OW 9667   6.606   5.168   4.926
 2923SOL    HW1 9668   6.662   5.112   4.987
 2923SOL    HW2 9669   6.641   5.261   4.924
 2924SOL     OW 9670   0.300   1.919   4.695
 2924SOL    HW1 9671   0.395   1.902   4.671
 2924SOL    HW2 9672   0.270   2.005   4.654
 2925SOL     OW 9673   5.824   1.810   0.127
 2925SOL    HW1 9674   5.797   1.796   0.032
 2925SOL    HW2 9675   5.837   1.721   0.172
 2926SOL     OW 9676   6.495   2.308   6.192
 2926SOL    HW1 9677   6.460   2.395   6.224
 2926SOL    HW2 9678   6.540   2.321   6.103
 2927SOL     OW 9679   1.449   2.951   0.721
 2927SOL    HW1 9680   1.477   3.046   0.726
 2927SOL    HW2 9681   1.351   2.943   0.743
 2928SOL     OW 9682   6.340   1.192   6.879
 2928SOL    HW1 9683   6.322   1.285   6.909
 2928SOL    HW2 9684   6.278   1.168   6.805
 2929SOL     OW 9685   1.627   2.425   4.880
 2929SOL    HW1 9686   1.614   2.340   4.931
 2929SOL    HW2 9687   1.721   2.458   4.893
 2930SOL     OW 9688   5.360   6.411   5.202
 2930SOL    HW1 9689   5.353   6.503   5.242
 2930SOL    HW2 9690   5.360   6.418   5.103
 2931SOL     OW 9691   4.698   4.943   6.830
 2931SOL    HW1 9692   4.728   5.038   6.830
 2931SOL    HW2 9693   4.604   4.937   6.798
 2932SOL     OW 9694   0.083   5.817   0.982
 2932SOL    HW1 9695   0.092   5.917   0.990
 2932SOL    HW2 9696   0.142   5.773   1.050
 2933SOL     OW 9697   0.492   6.845   1.997
 2933SOL    HW1 9698   0.528   6.814   1.909
 2933SOL    HW2 9699   0.407   6.894   1.984
 2934SOL     OW 9700   5.216   2.796   1.266
 2934SOL    HW1 9701   5.164   2.877   1.293
 2934SOL    HW2 9702   5.173   2.715   1.306
 2935SOL     OW 9703   0.299   3.007   6.209
 2935SOL    HW1 9704   0.364   3.076   6.177
 2935SOL    HW2 9705   0.272   3.027   6.303
 2936SOL     OW 9706   3.853   6.372   0.925
 2936SOL    HW1 9707   3.850   6.320   1.011
 2936SOL    HW2 9708   3.924   6.442   0.931
 2937SOL     OW 9709   4.780   5.340   0.854
 2937SOL    HW1 9710   4.763   5.244   0.831
 2937SOL    HW2 9711   4.849   5.377   0.792
 2938SOL     OW 9712   6.520   5.452   0.045
 2938SOL    HW1 9713   6.614   5.433   0.074
 2938SOL    HW2 9714   6.513   5.548   0.017
 2939SOL     OW 9715   1.620   0.431   1.682
 2939SOL    HW1 9716   1.533   0.431   1.730
 2939SOL    HW2 9717   1.605   0.411   1.585
 2940SOL     OW 9718   6.458   5.481   4.831
 2940SOL    HW1 9719   6.388   5.418   4.865
 2940SOL    HW2 9720   6.418   5.572   4.818
 2941SOL     OW 9721   2.480   2.111   3.004
 2941SOL    HW1 9722   2.431   2.170   3.069
 2941SOL    HW2 9723   2.470   2.147   2.911
 2942SOL     OW 9724   3.453   2.475   0.569
 2942SOL    HW1 9725   3.505   2.531   0.504
 2942SOL    HW2 9726   3.442   2.526   0.654
 2943SOL     OW 9727   5.639   4.873   3.898
 2943SOL    HW1 9728   5.620   4.819   3.816
 2943SOL    HW2 9729   5.659   4.813   3.975
 2944SOL     OW 9730   2.432   6.323   3.892
 2944SOL    HW1 9731   2.513   6.267   3.875
 2944SOL    HW2 9732   2.458   6.419   3.902
 2945SOL     OW 9733   4.990   2.876   1.632
 2945SOL    HW1 9734   5.006   2.794   1.578
 2945SOL    HW2 9735   4.902   2.868   1.679
 2946SOL     OW 9736   2.124   4.177   5.922
 2946SOL    HW1 9737   2.056   4.163   5.850
 2946SOL    HW2 9738   2.188   4.100   5.922
 2947SOL     OW 9739   6.886   5.314   0.381
 2947SOL    HW1 9740   6.859   5.400   0.338
 2947SOL    HW2 9741   6.919   5.333   0.474
 2948SOL     OW 9742   6.886   4.316   3.497
 2948SOL    HW1 9743   6.797   4.271   3.483
 2948SOL    HW2 9744   6.906   4.318   3.595
 2949SOL     OW 9745   0.622   5.721   6.846
 2949SOL    HW1 9746   0.599   5.729   6.942
 2949SOL    HW2 9747   0.646   5.626   6.825
 2950SOL     OW 9748   6.102   5.843   3.618
 2950SOL    HW1 9749   6.090   5.793   3.704
 2950SOL    HW2 9750   6.016   5.886   3.593
 2951SOL     OW 9751   5.379   1.403   2.059
 2951SOL    HW1 9752   5.344   1.374   1.970
 2951SOL    HW2 9753   5.447   1.337   2.091
 2952SOL     OW 9754   6.950   0.027   5.142
 2952SOL    HW1 9755   7.004   0.022   5.226
 2952SOL    HW2 9756   6.963   0.116   5.099
 2953SOL     OW 9757   0.040   4.206   3.124
 2953SOL    HW1 9758   0.008   4.290   3.166
 2953SOL    HW2 9759   0.065   4.140   3.196
 2954SOL     OW 9760   0.022   4.323   6.727
 2954SOL    HW1 9761   0.017   4.423   6.722
 2954SOL    HW2 9762   0.079   4.297   6.805
 2955SOL     OW 9763   0.774   4.458   0.858
 2955SOL    HW1 9764   0.838   4.503   0.920
 2955SOL    HW2 9765   0.775   4.359   0.874
 2956SOL     OW 9766   6.780   5.461   3.599
 2956SOL    HW1 9767   6.772   5.393   3.672
 2956SOL    HW2 9768   6.689   5.489   3.569
 2957SOL     OW 9769   4.622   4.856   1.581
 2957SOL    HW1 9770   4.662   4.872   1.491
 2957SOL    HW2 9771   4.655   4.769   1.618
 2958SOL     OW 9772   2.073   4.842   3.608
 2958SOL    HW1 9773   2.075   4.902   3.688
 2958SOL    HW2 9774   2.004   4.875   3.544
 2959SOL     OW 9775   5.475   2.781   2.450
 2959SOL    HW1 9776   5.470   2.785   2.550
 2959SOL    HW2 9777   5.505   2.870   2.415
 2960SOL     OW 9778   3.794   0.430   6.863
 2960SOL    HW1 9779   3.739   0.394   6.787
 2960SOL    HW2 9780   3.858   0.360   6.894
 2961SOL     OW 9781   6.184   4.476   3.366
 2961SOL    HW1 9782   6.157   4.382   3.347
 2961SOL    HW2 9783   6.117   4.518   3.427
 2962SOL     OW 9784   4.785   6.288   3.551
 2962SOL    HW1 9785   4.736   6.373   3.569
 2962SOL    HW2 9786   4.796   6.276   3.452
 2963SOL     OW 9787   0.982   0.749   6.420
 2963SOL    HW1 9788   0.889   0.712   6.426
 2963SOL    HW2 9789   0.996   0.815   6.494
 2964SOL     OW 9790   0.096   2.086   6.294
 2964SOL    HW1 9791   0.145   2.143   6.228
 2964SOL    HW2 9792   0.091   1.993   6.260
 2965SOL     OW 9793   0.789   0.654   4.488
 2965SOL    HW1 9794   0.699   0.695   4.505
 2965SOL    HW2 9795   0.785   0.597   4.406
 2966SOL     OW 9796   4.754   5.503   3.478
 2966SOL    HW1 9797   4.741   5.602   3.473
 2966SOL    HW2 9798   4.802   5.480   3.563
 2967SOL     OW 9799   6.498   1.054   5.839
 2967SOL    HW1 9800   6.404   1.030   5.814
 2967SOL    HW2 9801   6.500   1.147   5.875
 2968SOL     OW 9802   1.375   2.454   0.987
 2968SOL    HW1 9803   1.380   2.541   0.937
 2968SOL    HW2 9804   1.296   2.456   1.048
 2969SOL     OW 9805   4.925   3.118   4.728
 2969SOL    HW1 9806   4.900   3.137   4.633
 2969SOL    HW2 9807   5.013   3.070   4.730
 2970SOL     OW 9808   2.792   3.027   5.315
 2970SOL    HW1 9809   2.806   3.070   5.404
 2970SOL    HW2 9810   2.697   3.042   5.286
 2971SOL     OW 9811   5.141   4.271   0.565
 2971SOL    HW1 9812   5.138   4.192   0.504
 2971SOL    HW2 9813   5.083   4.254   0.645
 2972SOL     OW 9814   5.546   5.113   6.560
 2972SOL    HW1 9815   5.477   5.046   6.588
 2972SOL    HW2 9816   5.637   5.079   6.585
 2973SOL     OW 9817   4.692   6.632   2.281
 2973SOL    HW1 9818   4.597   6.599   2.285
 2973SOL    HW2 9819   4.729   6.640   2.373
 2974SOL     OW 9820   6.610   4.232   3.340
 2974SOL    HW1 9821   6.608   4.208   3.243
 2974SOL    HW2 9822   6.570   4.157   3.394
 2975SOL     OW 9823   5.288   4.390   4.591
 2975SOL    HW1 9824   5.330   4.372   4.680
 2975SOL    HW2 9825   5.193   4.360   4.592
 2976SOL     OW 9826   5.234   2.059   2.943
 2976SOL    HW1 9827   5.216   1.977   2.889
 2976SOL    HW2 9828   5.321   2.049   2.992
 2977SOL     OW 9829   0.036   0.914   2.439
 2977SOL    HW1 9830   0.100   0.847   2.477
 2977SOL    HW2 9831   0.088   0.986   2.392
 2978SOL     OW 9832   3.705   4.265   0.387
 2978SOL    HW1 9833   3.695   4.166   0.390
 2978SOL    HW2 9834   3.785   4.290   0.333
 2979SOL     OW 9835   3.453   1.942   4.394
 2979SOL    HW1 9836   3.420   2.016   4.336
 2979SOL    HW2 9837   3.407   1.946   4.482
 2980SOL     OW 9838   2.238   5.489   6.572
 2980SOL    HW1 9839   2.153   5.471   6.522
 2980SOL    HW2 9840   2.316   5.463   6.516
 2981SOL     OW 9841   2.478   1.080   0.188
 2981SOL    HW1 9842   2.408   1.085   0.259
 2981SOL    HW2 9843   2.522   1.170   0.178
 2982SOL     OW 9844   2.320   5.949   2.020
 2982SOL    HW1 9845   2.310   5.857   1.981
 2982SOL    HW2 9846   2.362   5.942   2.111
 2983SOL     OW 9847   0.044   2.154   1.363
 2983SOL    HW1 9848   0.134   2.191   1.341
 2983SOL    HW2 9849   0.001   2.210   1.434
 2984SOL     OW 9850   5.833   5.364   6.197
 2984SOL    HW1 9851   5.891   5.443   6.177
 2984SOL    HW2 9852   5.773   5.386   6.274
 2985SOL     OW 9853   0.794   1.419   4.917
 2985SOL    HW1 9854   0.855   1.473   4.858
 2985SOL    HW2 9855   0.699   1.436   4.891
 2986SOL     OW 9856   3.770   3.856   2.336
 2986SOL    HW1 9857   3.699   3.789   2.313
 2986SOL    HW2 9858   3.727   3.939   2.373
 2987SOL     OW 9859   1.439   1.215   4.212
 2987SOL    HW1 9860   1.519   1.171   4.171
 2987SOL    HW2 9861   1.363   1.150   4.214
 2988SOL     OW 9862   1.727   0.113   1.795
 2988SOL    HW1 9863   1.726   0.014   1.780
 2988SOL    HW2 9864   1.642   0.140   1.841
 2989SOL     OW 9865   5.368   4.003   5.308
 2989SOL    HW1 9866   5.386   4.033   5.402
 2989SOL    HW2 9867   5.289   3.941   5.308
 2990SOL     OW 9868   5.015   2.241   4.558
 2990SOL    HW1 9869   4.958   2.244   4.476
 2990SOL    HW2 9870   5.083   2.168   4.549
 2991SOL     OW 9871   5.935   3.366   6.426
 2991SOL    HW1 9872   5.984   3.281   6.445
 2991SOL    HW2 9873   5.974   3.409   6.345
 2992SOL     OW 9874   1.747   4.745   4.701
 2992SOL    HW1 9875   1.755   4.805   4.622
 2992SOL    HW2 9876   1.786   4.655   4.679
 2993SOL     OW 9877   0.324   4.989   0.489
 2993SOL    HW1 9878   0.252   5.058   0.490
 2993SOL    HW2 9879   0.395   5.017   0.425
 2994SOL     OW 9880   3.774   5.843   0.151
 2994SOL    HW1 9881   3.771   5.850   0.250
 2994SOL    HW2 9882   3.859   5.882   0.117
 2995SOL     OW 9883   4.119   0.089   0.310
 2995SOL    HW1 9884   4.031   0.114   0.268
 2995SOL    HW2 9885   4.103   0.054   0.402
 2996SOL     OW 9886   0.778   2.132   4.779
 2996SOL    HW1 9887   0.717   2.053   4.777
 2996SOL    HW2 9888   0.730   2.211   4.817
 2997SOL     OW 9889   4.663   6.882   3.387
 2997SOL    HW1 9890   4.735   6.894   3.318
 2997SOL    HW2 9891   4.619   6.794   3.373
 2998SOL     OW 9892   4.089   6.560   3.049
 2998SOL    HW1 9893   4.148   6.618   2.993
 2998SOL    HW2 9894   4.044   6.615   3.119
 2999SOL     OW 9895   2.682   4.901   5.921
 2999SOL    HW1 9896   2.684   4.990   5.966
 2999SOL    HW2 9897   2.740   4.837   5.970
 3000SOL     OW 9898   2.679   3.929   6.886
 3000SOL    HW1 9899   2.688   3.841   6.840
 3000SOL    HW2 9900   2.766   3.979   6.881
 3001SOL     OW 9901   6.382   1.823   0.384
 3001SOL    HW1 9902   6.356   1.774   0.300
 3001SOL    HW2 9903   6.304   1.822   0.447
 3002SOL     OW 9904   3.384   2.201   0.223
 3002SOL    HW1 9905   3.383   2.159   0.132
 3002SOL    HW2 9906   3.290   2.214   0.254
 3003SOL     OW 9907   0.780   6.474   1.276
 3003SOL    HW1 9908   0.879   6.462   1.280
 3003SOL    HW2 9909   0.737   6.385   1.258
 3004SOL     OW 9910   1.400   4.879   2.752
 3004SOL    HW1 9911   1.455   4.826   2.817
 3004SOL    HW2 9912   1.329   4.820   2.713
 3005SOL     OW 9913   1.455   3.108   6.513
 3005SOL    HW1 9914   1.394   3.095   6.591
 3005SOL    HW2 9915   1.456   3.205   6.487
 3006SOL     OW 9916   5.814   1.564   4.871
 3006SOL    HW1 9917   5.819   1.465   4.881
 3006SOL    HW2 9918   5.893   1.607   4.914
 3007SOL     OW 9919   4.849   4.872   0.007
 3007SOL    HW1 9920   4.775   4.890   6.972
 3007SOL    HW2 9921   4.812   4.859   0.098
 3008SOL     OW 9922   3.347   2.226   6.370
 3008SOL    HW1 9923   3.272   2.282   6.334
 3008SOL    HW2 9924   3.426   2.234   6.309
 3009SOL     OW 9925   0.212   2.824   2.433
 3009SOL    HW1 9926   0.187   2.888   2.506
 3009SOL    HW2 9927   0.300   2.782   2.454
 3010SOL     OW 9928   2.893   5.785   4.494
 3010SOL    HW1 9929   2.946   5.727   4.556
 3010SOL    HW2 9930   2.801   5.799   4.532
 3011SOL     OW 9931   6.124   0.257   1.786
 3011SOL    HW1 9932   6.052   0.239   1.719
 3011SOL    HW2 9933   6.127   0.182   1.852
 3012SOL     OW 9934   2.242   3.384   0.316
 3012SOL    HW1 9935   2.238   3.322   0.238
 3012SOL    HW2 9936   2.151   3.420   0.336
 3013SOL     OW 9937   6.330   4.823   3.212
 3013SOL    HW1 9938   6.282   4.906   3.183
 3013SOL    HW2 9939   6.340   4.823   3.311
 3014SOL     OW 9940   4.944   1.654   6.463
 3014SOL    HW1 9941   5.032   1.681   6.502
 3014SOL    HW2 9942   4.874   1.720   6.490
 3015SOL     OW 9943   2.274   1.883   0.333
 3015SOL    HW1 9944   2.304   1.957   0.274
 3015SOL    HW2 9945   2.220   1.817   0.279
 3016SOL     OW 9946   3.319   6.678   4.558
 3016SOL    HW1 9947   3.235   6.625   4.546
 3016SOL    HW2 9948   3.299   6.775   4.551
 3017SOL     OW 9949   5.293   5.242   2.649
 3017SOL    HW1 9950   5.202   5.273   2.676
 3017SOL    HW2 9951   5.362   5.292   2.701
 3018SOL     OW 9952   3.283   0.041   6.867
 3018SOL    HW1 9953   3.318   6.994   6.920
 3018SOL    HW2 9954   3.357   0.084   6.817
 3019SOL     OW 9955   0.819   0.088   0.334
 3019SOL    HW1 9956   0.885   0.162   0.343
 3019SOL    HW2 9957   0.727   0.124   0.349
 3020SOL     OW 9958   4.391   3.100   1.084
 3020SOL    HW1 9959   4.292   3.105   1.068
 3020SOL    HW2 9960   4.418   3.005   1.092
 3021SOL     OW 9961   2.567   6.866   4.124
 3021SOL    HW1 9962   2.634   6.814   4.177
 3021SOL    HW2 9963   2.610   6.901   4.041
 3022SOL     OW 9964   4.137   5.410   4.633
 3022SOL    HW1 9965   4.127   5.465   4.551
 3022SOL    HW2 9966   4.218   5.440   4.684
 3023SOL     OW 9967   3.801   6.768   3.411
 3023SOL    HW1 9968   3.784   6.866   3.400
 3023SOL    HW2 9969   3.754   6.717   3.339
 3024SOL     OW 9970   5.803   6.620   5.491
 3024SOL    HW1 9971   5.894   6.657   5.472
 3024SOL    HW2 9972   5.812   6.534   5.541
 3025SOL     OW 9973   4.020   6.036   1.838
 3025SOL    HW1 9974   3.945   5.972   1.857
 3025SOL    HW2 9975   4.000   6.124   1.883
 3026SOL     OW 9976   0.258   1.221   6.100
 3026SOL    HW1 9977   0.285   1.201   6.194
 3026SOL    HW2 9978   0.340   1.244   6.047
 3027SOL     OW 9979   4.061   1.484   2.005
 3027SOL    HW1 9980   4.125   1.539   2.059
 3027SOL    HW2 9981   4.028   1.539   1.928
 3028SOL     OW 9982   1.331   4.252   6.411
 3028SOL    HW1 9983   1.429   4.235   6.424
 3028SOL    HW2 9984   1.318   4.323   6.342
 3029SOL     OW 9985   1.132   2.564   3.514
 3029SOL    HW1 9986   1.177   2.480   3.483
 3029SOL    HW2 9987   1.138   2.570   3.613
 3030SOL     OW 9988   1.064   4.196   0.773
 3030SOL    HW1 9989   1.144   4.234   0.728
 3030SOL    HW2 9990   0.992   4.180   0.705
 3031SOL     OW 9991   1.133   4.541   0.783
 3031SOL    HW1 9992   1.160   4.636   0.764
 3031SOL    HW2 9993   1.215   4.485   0.795
 3032SOL     OW 9994   2.487   6.165   1.575
 3032SOL    HW1 9995   2.427   6.243   1.591
 3032SOL    HW2 9996   2.526   6.170   1.483
 3033SOL     OW 9997   6.474   1.642   2.667
 3033SOL    HW1 9998   6.537   1.682   2.601
 3033SOL    HW2 9999   6.399   1.706   2.684
 3034SOL     OW10000   0.610   5.998   3.648
 3034SOL    HW110001   0.653   5.952   3.570
 3034SOL    HW210002   0.675   6.063   3.689
 3035SOL     OW10003   1.212   3.171   5.962
 3035SOL    HW110004   1.183   3.216   5.877
 3035SOL    HW210005   1.250   3.081   5.941
 3036SOL     OW10006   1.401   2.555   5.207
 3036SOL    HW110007   1.345   2.491   5.260
 3036SOL    HW210008   1.492   2.562   5.248
 3037SOL     OW10009   6.514   4.846   5.114
 3037SOL    HW110010   6.581   4.920   5.105
 3037SOL    HW210011   6.461   4.839   5.030
 3038SOL     OW10012   5.169   4.150   5.854
 3038SOL    HW110013   5.137   4.057   5.873
 3038SOL    HW210014   5.113   4.215   5.905
 3039SOL     OW10015   0.057   3.296   0.494
 3039SOL    HW110016   0.076   3.199   0.509
 3039SOL    HW210017   6.988   3.310   0.488
 3040SOL     OW10018   3.087   4.707   5.907
 3040SOL    HW110019   2.998   4.751   5.922
 3040SOL    HW210020   3.096   4.684   5.810
 3041SOL     OW10021   1.121   5.062   6.149
 3041SOL    HW110022   1.193   5.077   6.080
 3041SOL    HW210023   1.149   5.104   6.235
 3042SOL     OW10024   5.605   6.205   2.537
 3042SOL    HW110025   5.572   6.240   2.625
 3042SOL    HW210026   5.605   6.105   2.539
 3043SOL     OW10027   3.237   4.007   1.425
 3043SOL    HW110028   3.331   3.973   1.415
 3043SOL    HW210029   3.204   3.987   1.517
 3044SOL     OW10030   2.997   5.297   5.378
 3044SOL    HW110031   2.901   5.307   5.407
 3044SOL    HW210032   3.045   5.238   5.442
 3045SOL     OW10033   4.711   6.603   3.074
 3045SOL    HW110034   4.689   6.516   3.029
 3045SOL    HW210035   4.635   6.628   3.135
 3046SOL     OW10036   3.324   6.898   0.288
 3046SOL    HW110037   3.229   6.892   0.319
 3046SOL    HW210038   3.364   6.807   0.283
 3047SOL     OW10039   6.310   6.852   0.855
 3047SOL    HW110040   6.330   6.950   0.858
 3047SOL    HW210041   6.287   6.819   0.946
 3048SOL     OW10042   5.121   2.399   0.748
 3048SOL    HW110043   5.092   2.314   0.792
 3048SOL    HW210044   5.062   2.474   0.777
 3049SOL     OW10045   1.291   0.426   3.894
 3049SOL    HW110046   1.274   0.453   3.988
 3049SOL    HW210047   1.227   0.473   3.833
 3050SOL     OW10048   2.493   2.270   1.519
 3050SOL    HW110049   2.591   2.279   1.503
 3050SOL    HW210050   2.475   2.268   1.617
 3051SOL     OW10051   2.531   6.596   6.308
 3051SOL    HW110052   2.495   6.589   6.215
 3051SOL    HW210053   2.625   6.630   6.305
 3052SOL     OW10054   5.127   5.406   2.085
 3052SOL    HW110055   5.169   5.478   2.141
 3052SOL    HW210056   5.069   5.349   2.143
 3053SOL     OW10057   0.250   3.369   1.414
 3053SOL    HW110058   0.161   3.401   1.382
 3053SOL    HW210059   0.322   3.420   1.367
 3054SOL     OW10060   6.205   0.544   2.240
 3054SOL    HW110061   6.256   0.458   2.253
 3054SOL    HW210062   6.264   0.621   2.262
 3055SOL     OW10063   5.574   0.187   5.241
 3055SOL    HW110064   5.520   0.271   5.231
 3055SOL    HW210065   5.538   0.133   5.317
 3056SOL     OW10066   6.308   1.948   6.029
 3056SOL    HW110067   6.295   1.969   5.932
 3056SOL    HW210068   6.404   1.927   6.047
 3057SOL     OW10069   5.171   6.344   4.390
 3057SOL    HW110070   5.244   6.345   4.458
 3057SOL    HW210071   5.209   6.326   4.300
 3058SOL     OW10072   6.193   4.335   0.817
 3058SOL    HW110073   6.132   4.291   0.882
 3058SOL    HW210074   6.258   4.267   0.781
 3059SOL     OW10075   2.480   1.957   4.231
 3059SOL    HW110076   2.557   1.908   4.271
 3059SOL    HW210077   2.403   1.957   4.294
 3060SOL     OW10078   2.233   5.058   6.960
 3060SOL    HW110079   2.188   5.142   6.929
 3060SOL    HW210080   2.294   5.079   0.006
 3061SOL     OW10081   6.181   5.641   5.677
 3061SOL    HW110082   6.102   5.590   5.711
 3061SOL    HW210083   6.247   5.655   5.751
 3062SOL     OW10084   2.512   6.143   1.288
 3062SOL    HW110085   2.557   6.126   1.200
 3062SOL    HW210086   2.527   6.064   1.349
 3063SOL     OW10087   0.593   4.558   1.303
 3063SOL    HW110088   0.692   4.544   1.301
 3063SOL    HW210089   0.574   4.656   1.305
 3064SOL     OW10090   4.210   3.447   0.300
 3064SOL    HW110091   4.255   3.535   0.282
 3064SOL    HW210092   4.173   3.411   0.215
 3065SOL     OW10093   1.202   1.778   6.251
 3065SOL    HW110094   1.264   1.787   6.173
 3065SOL    HW210095   1.225   1.846   6.320
 3066SOL     OW10096   5.341   5.412   6.120
 3066SOL    HW110097   5.391   5.495   6.097
 3066SOL    HW210098   5.406   5.341   6.148
 3067SOL     OW10099   2.942   1.163   0.993
 3067SOL    HW110100   2.910   1.074   1.027
 3067SOL    HW210101   2.892   1.187   0.910
 3068SOL     OW10102   0.153   0.281   1.737
 3068SOL    HW110103   0.146   0.377   1.708
 3068SOL    HW210104   0.108   0.270   1.826
 3069SOL     OW10105   6.356   6.722   3.351
 3069SOL    HW110106   6.354   6.708   3.252
 3069SOL    HW210107   6.313   6.644   3.397
 3070SOL     OW10108   2.473   0.862   6.498
 3070SOL    HW110109   2.474   0.763   6.513
 3070SOL    HW210110   2.437   0.908   6.580
 3071SOL     OW10111   6.455   5.405   3.963
 3071SOL    HW110112   6.548   5.388   3.996
 3071SOL    HW210113   6.439   5.503   3.956
 3072SOL     OW10114   2.079   5.913   6.718
 3072SOL    HW110115   2.068   5.994   6.660
 3072SOL    HW210116   2.103   5.942   6.811
 3073SOL     OW10117   6.741   3.907   1.934
 3073SOL    HW110118   6.729   3.942   1.841
 3073SOL    HW210119   6.746   3.984   1.998
 3074SOL     OW10120   0.845   4.180   0.936
 3074SOL    HW110121   0.807   4.101   0.886
 3074SOL    HW210122   0.942   4.188   0.917
 3075SOL     OW10123   2.641   5.412   3.388
 3075SOL    HW110124   2.628   5.488   3.451
 3075SOL    HW210125   2.706   5.347   3.426
 3076SOL     OW10126   6.748   1.688   4.492
 3076SOL    HW110127   6.815   1.627   4.535
 3076SOL    HW210128   6.656   1.660   4.519
 3077SOL     OW10129   6.110   3.513   2.151
 3077SOL    HW110130   6.064   3.597   2.121
 3077SOL    HW210131   6.042   3.442   2.169
 3078SOL     OW10132   6.818   3.159   2.075
 3078SOL    HW110133   6.778   3.248   2.053
 3078SOL    HW210134   6.892   3.171   2.141
 3079SOL     OW10135   3.168   2.151   3.481
 3079SOL    HW110136   3.249   2.096   3.463
 3079SOL    HW210137   3.138   2.196   3.397
 3080SOL     OW10138   5.071   3.935   2.388
 3080SOL    HW110139   5.142   4.005   2.381
 3080SOL    HW210140   4.997   3.956   2.323
 3081SOL     OW10141   0.964   4.574   5.873
 3081SOL    HW110142   0.938   4.517   5.951
 3081SOL    HW210143   0.914   4.660   5.875
 3082SOL     OW10144   2.461   5.937   3.995
 3082SOL    HW110145   2.559   5.947   3.975
 3082SOL    HW210146   2.408   5.956   3.912
 3083SOL     OW10147   3.155   6.348   2.902
 3083SOL    HW110148   3.128   6.285   2.829
 3083SOL    HW210149   3.168   6.297   2.987
 3084SOL     OW10150   6.461   4.301   2.675
 3084SOL    HW110151   6.486   4.213   2.634
 3084SOL    HW210152   6.465   4.372   2.606
 3085SOL     OW10153   5.682   4.379   0.845
 3085SOL    HW110154   5.764   4.358   0.793
 3085SOL    HW210155   5.667   4.309   0.915
 3086SOL     OW10156   4.619   1.070   0.173
 3086SOL    HW110157   4.604   1.149   0.115
 3086SOL    HW210158   4.676   1.095   0.251
 3087SOL     OW10159   2.928   6.091   3.401
 3087SOL    HW110160   2.834   6.063   3.424
 3087SOL    HW210161   2.960   6.159   3.468
 3088SOL     OW10162   1.753   3.415   5.079
 3088SOL    HW110163   1.721   3.441   5.170
 3088SOL    HW210164   1.778   3.498   5.028
 3089SOL     OW10165   4.391   2.232   4.420
 3089SOL    HW110166   4.334   2.219   4.501
 3089SOL    HW210167   4.369   2.320   4.377
 3090SOL     OW10168   2.468   1.186   2.456
 3090SOL    HW110169   2.433   1.143   2.540
 3090SOL    HW210170   2.496   1.115   2.392
 3091SOL     OW10171   1.391   1.170   0.397
 3091SOL    HW110172   1.459   1.235   0.365
 3091SOL    HW210173   1.348   1.125   0.318
 3092SOL     OW10174   5.106   6.691   1.008
 3092SOL    HW110175   5.069   6.760   1.070
 3092SOL    HW210176   5.120   6.606   1.057
 3093SOL     OW10177   5.681   6.419   5.859
 3093SOL    HW110178   5.593   6.433   5.903
 3093SOL    HW210179   5.723   6.508   5.840
 3094SOL     OW10180   2.822   0.412   3.958
 3094SOL    HW110181   2.723   0.413   3.974
 3094SOL    HW210182   2.841   0.380   3.865
 3095SOL     OW10183   2.362   4.011   6.023
 3095SOL    HW110184   2.434   4.006   5.954
 3095SOL    HW210185   2.387   4.079   6.092
 3096SOL     OW10186   1.075   4.708   5.253
 3096SOL    HW110187   1.091   4.671   5.162
 3096SOL    HW210188   1.129   4.791   5.266
 3097SOL     OW10189   5.485   3.198   0.018
 3097SOL    HW110190   5.415   3.134   7.015
 3097SOL    HW210191   5.443   3.263   0.082
 3098SOL     OW10192   1.848   3.639   2.070
 3098SOL    HW110193   1.910   3.709   2.105
 3098SOL    HW210194   1.899   3.573   2.016
 3099SOL     OW10195   1.024   6.241   3.930
 3099SOL    HW110196   0.995   6.318   3.987
 3099SOL    HW210197   1.114   6.261   3.891
 3100SOL     OW10198   6.706   6.335   2.642
 3100SOL    HW110199   6.711   6.435   2.635
 3100SOL    HW210200   6.797   6.296   2.624
 3101SOL     OW10201   4.575   6.071   5.558
 3101SOL    HW110202   4.493   6.016   5.571
 3101SOL    HW210203   4.567   6.125   5.475
 3102SOL     OW10204   6.968   6.525   1.187
 3102SOL    HW110205   6.886   6.485   1.229
 3102SOL    HW210206   0.019   6.497   1.239
 3103SOL     OW10207   5.000   0.763   1.640
 3103SOL    HW110208   5.003   0.663   1.633
 3103SOL    HW210209   5.026   0.803   1.552
 3104SOL     OW10210   3.657   0.801   6.389
 3104SOL    HW110211   3.600   0.843   6.318
 3104SOL    HW210212   3.612   0.812   6.478
 3105SOL     OW10213   4.690   3.991   1.627
 3105SOL    HW110214   4.757   4.015   1.697
 3105SOL    HW210215   4.603   3.968   1.671
 3106SOL     OW10216   5.333   6.961   4.795
 3106SOL    HW110217   5.407   7.019   4.830
 3106SOL    HW210218   5.264   7.019   4.751
 3107SOL     OW10219   4.166   1.424   4.714
 3107SOL    HW110220   4.146   1.336   4.670
 3107SOL    HW210221   4.258   1.423   4.752
 3108SOL     OW10222   1.937   5.300   5.074
 3108SOL    HW110223   1.913   5.316   4.978
 3108SOL    HW210224   1.924   5.385   5.125
 3109SOL     OW10225   6.182   0.385   4.151
 3109SOL    HW110226   6.267   0.333   4.141
 3109SOL    HW210227   6.164   0.403   4.247
 3110SOL     OW10228   2.209   4.513   3.365
 3110SOL    HW110229   2.132   4.456   3.396
 3110SOL    HW210230   2.268   4.459   3.305
 3111SOL     OW10231   0.354   4.763   3.227
 3111SOL    HW110232   0.283   4.692   3.229
 3111SOL    HW210233   0.336   4.830   3.299
 3112SOL     OW10234   2.834   3.070   6.925
 3112SOL    HW110235   2.877   3.154   6.891
 3112SOL    HW210236   2.759   3.093   6.986
 3113SOL     OW10237   3.223   6.467   2.497
 3113SOL    HW110238   3.291   6.424   2.557
 3113SOL    HW210239   3.155   6.399   2.469
 3114SOL     OW10240   4.281   1.562   0.316
 3114SOL    HW110241   4.301   1.541   0.412
 3114SOL    HW210242   4.194   1.519   0.290
 3115SOL     OW10243   3.874   4.723   5.296
 3115SOL    HW110244   3.867   4.789   5.370
 3115SOL    HW210245   3.925   4.643   5.327
 3116SOL     OW10246   0.077   1.574   0.346
 3116SOL    HW110247   0.001   1.619   0.392
 3116SOL    HW210248   0.041   1.506   0.282
 3117SOL     OW10249   4.409   2.994   5.386
 3117SOL    HW110250   4.356   3.075   5.414
 3117SOL    HW210251   4.346   2.918   5.369
 3118SOL     OW10252   0.942   6.587   1.987
 3118SOL    HW110253   0.895   6.674   1.996
 3118SOL    HW210254   0.902   6.534   1.912
 3119SOL     OW10255   2.434   2.198   5.720
 3119SOL    HW110256   2.438   2.184   5.819
 3119SOL    HW210257   2.523   2.228   5.686
 3120SOL     OW10258   3.067   0.813   5.795
 3120SOL    HW110259   2.984   0.846   5.749
 3120SOL    HW210260   3.148   0.852   5.749
 3121SOL     OW10261   6.028   1.925   4.534
 3121SOL    HW110262   6.015   1.959   4.441
 3121SOL    HW210263   5.970   1.844   4.548
 3122SOL     OW10264   4.561   4.643   5.128
 3122SOL    HW110265   4.568   4.739   5.100
 3122SOL    HW210266   4.477   4.604   5.092
 3123SOL     OW10267   1.538   1.224   3.313
 3123SOL    HW110268   1.542   1.269   3.402
 3123SOL    HW210269   1.626   1.179   3.295
 3124SOL     OW10270   4.994   6.974   3.694
 3124SOL    HW110271   4.925   6.960   3.623
 3124SOL    HW210272   5.081   6.999   3.651
 3125SOL     OW10273   1.624   2.944   5.416
 3125SOL    HW110274   1.609   2.989   5.328
 3125SOL    HW210275   1.543   2.954   5.473
 3126SOL     OW10276   5.598   4.286   5.697
 3126SOL    HW110277   5.509   4.248   5.674
 3126SOL    HW210278   5.587   4.357   5.767
 3127SOL     OW10279   1.895   2.242   5.497
 3127SOL    HW110280   1.995   2.250   5.498
 3127SOL    HW210281   1.862   2.253   5.404
 3128SOL     OW10282   3.599   0.706   0.296
 3128SOL    HW110283   3.589   0.668   0.204
 3128SOL    HW210284   3.580   0.634   0.363
 3129SOL     OW10285   4.901   3.709   1.098
 3129SOL    HW110286   4.950   3.624   1.116
 3129SOL    HW210287   4.909   3.770   1.177
 3130SOL     OW10288   1.648   4.675   1.416
 3130SOL    HW110289   1.690   4.705   1.330
 3130SOL    HW210290   1.623   4.756   1.470
 3131SOL     OW10291   0.423   3.298   2.244
 3131SOL    HW110292   0.387   3.305   2.151
 3131SOL    HW210293   0.432   3.201   2.269
 3132SOL     OW10294   4.834   5.109   6.547
 3132SOL    HW110295   4.895   5.030   6.552
 3132SOL    HW210296   4.804   5.134   6.639
 3133SOL     OW10297   3.551   1.178   2.959
 3133SOL    HW110298   3.513   1.095   2.999
 3133SOL    HW210299   3.616   1.219   3.023
 3134SOL     OW10300   4.142   4.882   1.349
 3134SOL    HW110301   4.196   4.945   1.404
 3134SOL    HW210302   4.119   4.925   1.261
 3135SOL     OW10303   5.035   6.946   5.994
 3135SOL    HW110304   5.092   7.014   6.040
 3135SOL    HW210305   5.026   6.865   6.053
 3136SOL     OW10306   5.504   6.999   2.172
 3136SOL    HW110307   5.560   6.916   2.167
 3136SOL    HW210308   5.447   6.996   2.253
 3137SOL     OW10309   6.658   6.646   3.195
 3137SOL    HW110310   6.610   6.559   3.184
 3137SOL    HW210311   6.651   6.699   3.111
 3138SOL     OW10312   6.090   5.646   3.441
 3138SOL    HW110313   6.026   5.688   3.377
 3138SOL    HW210314   6.121   5.715   3.507
 3139SOL     OW10315   3.591   4.826   1.448
 3139SOL    HW110316   3.609   4.923   1.432
 3139SOL    HW210317   3.494   4.807   1.432
 3140SOL     OW10318   6.322   6.296   5.255
 3140SOL    HW110319   6.336   6.364   5.183
 3140SOL    HW210320   6.408   6.280   5.303
 3141SOL     OW10321   0.686   0.011   0.067
 3141SOL    HW110322   0.614   6.973   0.080
 3141SOL    HW210323   0.755   7.030   0.138
 3142SOL     OW10324   2.997   0.429   3.002
 3142SOL    HW110325   3.025   0.517   3.042
 3142SOL    HW210326   2.975   0.442   2.905
 3143SOL     OW10327   6.279   1.436   6.941
 3143SOL    HW110328   6.182   1.457   6.946
 3143SOL    HW210329   6.332   1.522   6.941
 3144SOL     OW10330   4.601   3.462   0.645
 3144SOL    HW110331   4.627   3.365   0.638
 3144SOL    HW210332   4.510   3.474   0.604
 3145SOL     OW10333   1.679   6.569   2.446
 3145SOL    HW110334   1.686   6.495   2.514
 3145SOL    HW210335   1.755   6.561   2.381
 3146SOL     OW10336   0.739   0.979   4.862
 3146SOL    HW110337   0.782   1.005   4.776
 3146SOL    HW210338   0.710   0.883   4.858
 3147SOL     OW10339   2.992   5.112   0.038
 3147SOL    HW110340   3.020   5.205   0.060
 3147SOL    HW210341   2.987   5.058   0.122
 3148SOL     OW10342   6.833   0.242   3.916
 3148SOL    HW110343   6.830   0.342   3.917
 3148SOL    HW210344   6.861   0.209   4.006
 3149SOL     OW10345   3.404   1.209   6.709
 3149SOL    HW110346   3.307   1.232   6.720
 3149SOL    HW210347   3.434   1.237   6.618
 3150SOL     OW10348   6.998   5.956   5.067
 3150SOL    HW110349   6.906   5.918   5.073
 3150SOL    HW210350   0.034   5.882   5.053
 3151SOL     OW10351   6.972   1.401   5.692
 3151SOL    HW110352   6.934   1.379   5.782
 3151SOL    HW210353   6.919   1.356   5.621
 3152SOL     OW10354   0.506   3.668   0.369
 3152SOL    HW110355   0.583   3.730   0.383
 3152SOL    HW210356   0.437   3.684   0.440
 3153SOL     OW10357   6.237   5.732   0.061
 3153SOL    HW110358   6.285   5.675   0.128
 3153SOL    HW210359   6.288   5.817   0.047
 3154SOL     OW10360   6.296   0.945   0.875
 3154SOL    HW110361   6.330   0.853   0.892
 3154SOL    HW210362   6.205   0.955   0.913
 3155SOL     OW10363   5.857   4.834   0.357
 3155SOL    HW110364   5.907   4.921   0.357
 3155SOL    HW210365   5.769   4.845   0.311
 3156SOL     OW10366   3.364   3.747   2.065
 3156SOL    HW110367   3.377   3.735   2.163
 3156SOL    HW210368   3.274   3.787   2.048
 3157SOL     OW10369   2.066   1.204   5.172
 3157SOL    HW110370   2.006   1.218   5.093
 3157SOL    HW210371   2.071   1.288   5.226
 3158SOL     OW10372   2.197   0.806   4.549
 3158SOL    HW110373   2.174   0.835   4.642
 3158SOL    HW210374   2.113   0.793   4.496
 3159SOL     OW10375   5.685   0.158   6.418
 3159SOL    HW110376   5.591   0.139   6.388
 3159SOL    HW210377   5.743   0.174   6.338
 3160SOL     OW10378   1.252   6.217   5.905
 3160SOL    HW110379   1.223   6.238   5.998
 3160SOL    HW210380   1.314   6.288   5.873
 3161SOL     OW10381   2.456   2.213   2.737
 3161SOL    HW110382   2.429   2.309   2.726
 3161SOL    HW210383   2.548   2.200   2.702
 3162SOL     OW10384   0.871   5.571   1.253
 3162SOL    HW110385   0.963   5.555   1.291
 3162SOL    HW210386   0.876   5.641   1.182
 3163SOL     OW10387   4.063   4.220   6.818
 3163SOL    HW110388   4.008   4.138   6.831
 3163SOL    HW210389   4.113   4.214   6.732
 3164SOL     OW10390   4.003   5.680   1.821
 3164SOL    HW110391   3.976   5.596   1.775
 3164SOL    HW210392   4.041   5.744   1.754
 3165SOL     OW10393   0.787   5.805   1.776
 3165SOL    HW110394   0.836   5.733   1.727
 3165SOL    HW210395   0.847   5.883   1.792
 3166SOL     OW10396   4.715   2.391   4.026
 3166SOL    HW110397   4.635   2.446   4.047
 3166SOL    HW210398   4.695   2.294   4.043
 3167SOL     OW10399   5.343   4.307   0.918
 3167SOL    HW110400   5.311   4.247   0.844
 3167SOL    HW210401   5.420   4.263   0.965
 3168SOL     OW10402   5.761   3.262   0.137
 3168SOL    HW110403   5.679   3.206   0.133
 3168SOL    HW210404   5.739   3.350   0.180
 3169SOL     OW10405   2.387   4.374   3.776
 3169SOL    HW110406   2.378   4.302   3.707
 3169SOL    HW210407   2.362   4.339   3.866
 3170SOL     OW10408   4.329   5.776   2.343
 3170SOL    HW110409   4.268   5.837   2.393
 3170SOL    HW210410   4.387   5.830   2.282
 3171SOL     OW10411   6.463   1.960   1.806
 3171SOL    HW110412   6.485   2.030   1.873
 3171SOL    HW210413   6.540   1.897   1.796
 3172SOL     OW10414   6.804   5.080   6.784
 3172SOL    HW110415   6.763   5.147   6.722
 3172SOL    HW210416   6.732   5.036   6.838
 3173SOL     OW10417   3.045   2.130   6.705
 3173SOL    HW110418   3.104   2.051   6.714
 3173SOL    HW210419   2.979   2.114   6.632
 3174SOL     OW10420   2.970   2.806   6.609
 3174SOL    HW110421   3.033   2.768   6.677
 3174SOL    HW210422   2.976   2.906   6.609
 3175SOL     OW10423   5.996   1.545   1.785
 3175SOL    HW110424   5.981   1.447   1.774
 3175SOL    HW210425   6.084   1.561   1.830
 3176SOL     OW10426   1.020   3.423   5.347
 3176SOL    HW110427   1.111   3.412   5.387
 3176SOL    HW210428   1.015   3.372   5.261
 3177SOL     OW10429   5.516   4.272   3.810
 3177SOL    HW110430   5.532   4.346   3.745
 3177SOL    HW210431   5.568   4.289   3.893
 3178SOL     OW10432   6.531   2.438   6.859
 3178SOL    HW110433   6.433   2.443   6.879
 3178SOL    HW210434   6.563   2.527   6.825
 3179SOL     OW10435   1.396   1.967   1.914
 3179SOL    HW110436   1.418   2.036   1.845
 3179SOL    HW210437   1.306   1.987   1.953
 3180SOL     OW10438   6.383   6.724   0.626
 3180SOL    HW110439   6.468   6.671   0.634
 3180SOL    HW210440   6.364   6.768   0.714
 3181SOL     OW10441   6.598   2.459   3.849
 3181SOL    HW110442   6.581   2.539   3.791
 3181SOL    HW210443   6.512   2.413   3.868
 3182SOL     OW10444   2.516   0.519   0.131
 3182SOL    HW110445   2.555   0.499   0.041
 3182SOL    HW210446   2.590   0.542   0.195
 3183SOL     OW10447   4.696   4.328   2.395
 3183SOL    HW110448   4.723   4.249   2.451
 3183SOL    HW210449   4.635   4.387   2.447
 3184SOL     OW10450   0.315   2.243   3.303
 3184SOL    HW110451   0.402   2.196   3.290
 3184SOL    HW210452   0.274   2.262   3.214
 3185SOL     OW10453   4.422   6.261   6.502
 3185SOL    HW110454   4.383   6.216   6.421
 3185SOL    HW210455   4.364   6.241   6.582
 3186SOL     OW10456   2.879   2.333   0.246
 3186SOL    HW110457   2.825   2.330   0.163
 3186SOL    HW210458   2.831   2.284   0.319
 3187SOL     OW10459   4.008   5.313   1.402
 3187SOL    HW110460   4.069   5.239   1.429
 3187SOL    HW210461   4.017   5.330   1.304
 3188SOL     OW10462   1.361   0.063   4.071
 3188SOL    HW110463   1.312   0.149   4.087
 3188SOL    HW210464   1.305   7.017   4.103
 3189SOL     OW10465   0.888   1.949   1.024
 3189SOL    HW110466   0.951   1.947   0.947
 3189SOL    HW210467   0.819   1.878   1.013
 3190SOL     OW10468   0.147   5.606   0.182
 3190SOL    HW110469   0.125   5.589   0.278
 3190SOL    HW210470   0.101   5.689   0.152
 3191SOL     OW10471   4.956   5.069   1.520
 3191SOL    HW110472   4.885   5.041   1.457
 3191SOL    HW210473   5.039   5.091   1.469
 3192SOL     OW10474   0.685   3.254   0.844
 3192SOL    HW110475   0.644   3.218   0.928
 3192SOL    HW210476   0.672   3.353   0.840
 3193SOL     OW10477   3.993   1.667   5.477
 3193SOL    HW110478   3.920   1.675   5.545
 3193SOL    HW210479   4.041   1.581   5.490
 3194SOL     OW10480   1.515   2.109   5.805
 3194SOL    HW110481   1.565   2.178   5.754
 3194SOL    HW210482   1.573   2.071   5.877
 3195SOL     OW10483   1.376   1.288   2.098
 3195SOL    HW110484   1.300   1.242   2.053
 3195SOL    HW210485   1.426   1.223   2.154
 3196SOL     OW10486   0.103   0.537   6.937
 3196SOL    HW110487   0.046   0.468   6.893
 3196SOL    HW210488   0.081   0.542   0.005
 3197SOL     OW10489   2.703   6.637   4.742
 3197SOL    HW110490   2.632   6.613   4.809
 3197SOL    HW210491   2.660   6.671   4.659
 3198SOL     OW10492   6.635   3.171   2.899
 3198SOL    HW110493   6.587   3.083   2.908
 3198SOL    HW210494   6.733   3.154   2.893
 3199SOL     OW10495   5.194   3.972   2.886
 3199SOL    HW110496   5.244   3.885   2.884
 3199SOL    HW210497   5.178   4.003   2.792
 3200SOL     OW10498   5.662   3.181   2.584
 3200SOL    HW110499   5.593   3.192   2.655
 3200SOL    HW210500   5.752   3.202   2.621
 3201SOL     OW10501   6.611   4.349   3.021
 3201SOL    HW110502   6.525   4.365   3.069
 3201SOL    HW210503   6.599   4.275   2.954
 3202SOL     OW10504   1.070   4.837   0.728
 3202SOL    HW110505   0.971   4.827   0.737
 3202SOL    HW210506   1.096   4.825   0.632
 3203SOL     OW10507   5.952   1.403   0.705
 3203SOL    HW110508   5.964   1.330   0.638
 3203SOL    HW210509   6.019   1.392   0.779
 3204SOL     OW10510   4.062   0.088   3.405
 3204SOL    HW110511   3.966   0.067   3.423
 3204SOL    HW210512   4.076   0.105   3.308
 3205SOL     OW10513   5.175   3.271   6.190
 3205SOL    HW110514   5.257   3.225   6.225
 3205SOL    HW210515   5.197   3.366   6.169
 3206SOL     OW10516   1.620   4.391   1.090
 3206SOL    HW110517   1.570   4.335   1.024
 3206SOL    HW210518   1.649   4.476   1.047
 3207SOL     OW10519   1.508   1.099   6.726
 3207SOL    HW110520   1.456   1.066   6.647
 3207SOL    HW210521   1.490   1.040   6.805
 3208SOL     OW10522   5.283   6.204   6.677
 3208SOL    HW110523   5.205   6.172   6.623
 3208SOL    HW210524   5.368   6.184   6.628
 3209SOL     OW10525   2.949   5.322   4.052
 3209SOL    HW110526   2.949   5.250   4.121
 3209SOL    HW210527   2.856   5.335   4.017
 3210SOL     OW10528   1.104   4.368   1.115
 3210SOL    HW110529   1.165   4.305   1.068
 3210SOL    HW210530   1.122   4.462   1.083
 3211SOL     OW10531   1.398   3.844   0.899
 3211SOL    HW110532   1.397   3.835   0.998
 3211SOL    HW210533   1.477   3.796   0.862
 3212SOL     OW10534   3.049   6.880   2.166
 3212SOL    HW110535   3.020   6.845   2.255
 3212SOL    HW210536   3.013   6.972   2.152
 3213SOL     OW10537   1.016   7.030   7.002
 3213SOL    HW110538   0.981   0.059   6.930
 3213SOL    HW210539   1.098   0.041   0.012
 3214SOL     OW10540   4.441   5.435   1.938
 3214SOL    HW110541   4.438   5.413   2.036
 3214SOL    HW210542   4.397   5.524   1.923
 3215SOL     OW10543   0.394   4.216   0.565
 3215SOL    HW110544   0.485   4.256   0.559
 3215SOL    HW210545   0.393   4.127   0.519
 3216SOL     OW10546   5.814   5.465   0.598
 3216SOL    HW110547   5.734   5.406   0.584
 3216SOL    HW210548   5.785   5.560   0.608
 3217SOL     OW10549   0.360   5.485   2.469
 3217SOL    HW110550   0.437   5.422   2.463
 3217SOL    HW210551   0.279   5.435   2.500
 3218SOL     OW10552   5.657   2.384   3.022
 3218SOL    HW110553   5.729   2.444   3.054
 3218SOL    HW210554   5.614   2.338   3.100
 3219SOL     OW10555   0.552   1.474   3.759
 3219SOL    HW110556   0.473   1.439   3.810
 3219SOL    HW210557   0.621   1.506   3.824
 3220SOL     OW10558   0.045   5.177   5.679
 3220SOL    HW110559   0.063   5.185   5.581
 3220SOL    HW210560   0.096   5.100   5.716
 3221SOL     OW10561   3.506   0.158   2.374
 3221SOL    HW110562   3.582   0.187   2.433
 3221SOL    HW210563   3.539   0.150   2.280
 3222SOL     OW10564   2.855   1.408   2.681
 3222SOL    HW110565   2.840   1.482   2.616
 3222SOL    HW210566   2.883   1.325   2.632
 3223SOL     OW10567   2.774   6.362   6.968
 3223SOL    HW110568   2.782   6.341   6.871
 3223SOL    HW210569   2.682   6.339   7.000
 3224SOL     OW10570   4.750   2.655   4.701
 3224SOL    HW110571   4.731   2.723   4.772
 3224SOL    HW210572   4.710   2.567   4.728
 3225SOL     OW10573   4.863   2.079   6.046
 3225SOL    HW110574   4.861   2.160   5.986
 3225SOL    HW210575   4.927   2.012   6.009
 3226SOL     OW10576   2.334   1.177   2.020
 3226SOL    HW110577   2.311   1.258   1.966
 3226SOL    HW210578   2.320   1.095   1.966
 3227SOL     OW10579   3.644   3.592   6.713
 3227SOL    HW110580   3.715   3.584   6.783
 3227SOL    HW210581   3.578   3.662   6.741
 3228SOL     OW10582   6.518   4.120   1.083
 3228SOL    HW110583   6.454   4.180   1.131
 3228SOL    HW210584   6.537   4.039   1.139
 3229SOL     OW10585   4.027   1.105   5.828
 3229SOL    HW110586   3.963   1.030   5.816
 3229SOL    HW210587   4.106   1.074   5.880
 3230SOL     OW10588   2.204   5.336   6.209
 3230SOL    HW110589   2.263   5.265   6.248
 3230SOL    HW210590   2.222   5.343   6.111
 3231SOL     OW10591   2.529   0.495   2.016
 3231SOL    HW110592   2.550   0.557   1.940
 3231SOL    HW210593   2.595   0.510   2.090
 3232SOL     OW10594   4.210   6.547   4.680
 3232SOL    HW110595   4.267   6.629   4.684
 3232SOL    HW210596   4.263   6.471   4.643
 3233SOL     OW10597   6.691   2.361   0.740
 3233SOL    HW110598   6.677   2.402   0.830
 3233SOL    HW210599   6.610   2.379   0.683
 3234SOL     OW10600   0.671   2.416   0.190
 3234SOL    HW110601   0.700   2.481   0.119
 3234SOL    HW210602   0.747   2.400   0.253
 3235SOL     OW10603   7.000   6.923   1.459
 3235SOL    HW110604   6.916   6.936   1.513
 3235SOL    HW210605   6.975   6.899   1.365
 3236SOL     OW10606   0.693   3.889   0.404
 3236SOL    HW110607   0.718   3.961   0.340
 3236SOL    HW210608   0.773   3.831   0.422
 3237SOL     OW10609   5.992   1.113   2.273
 3237SOL    HW110610   6.059   1.110   2.347
 3237SOL    HW210611   5.992   1.205   2.232
 3238SOL     OW10612   6.496   5.231   6.934
 3238SOL    HW110613   6.441   5.168   6.988
 3238SOL    HW210614   6.499   5.320   6.978
 3239SOL     OW10615   0.464   1.170   2.497
 3239SOL    HW110616   0.518   1.232   2.553
 3239SOL    HW210617   0.375   1.154   2.541
 3240SOL     OW10618   0.047   6.338   6.259
 3240SOL    HW110619   0.020   6.399   6.333
 3240SOL    HW210620   6.996   6.303   6.213
 3241SOL     OW10621   4.687   1.074   5.767
 3241SOL    HW110622   4.630   0.998   5.735
 3241SOL    HW210623   4.636   1.159   5.760
 3242SOL     OW10624   4.428   4.451   6.572
 3242SOL    HW110625   4.383   4.532   6.536
 3242SOL    HW210626   4.525   4.471   6.590
 3243SOL     OW10627   4.432   4.579   0.739
 3243SOL    HW110628   4.452   4.577   0.837
 3243SOL    HW210629   4.513   4.552   0.687
 3244SOL     OW10630   5.196   6.313   0.045
 3244SOL    HW110631   5.199   6.342   6.980
 3244SOL    HW210632   5.139   6.232   0.053
 3245SOL     OW10633   5.219   2.710   3.948
 3245SOL    HW110634   5.312   2.703   3.912
 3245SOL    HW210635   5.197   2.626   3.999
 3246SOL     OW10636   6.875   6.971   2.792
 3246SOL    HW110637   6.801   7.010   2.738
 3246SOL    HW210638   6.844   6.958   2.886
 3247SOL     OW10639   5.909   4.420   2.004
 3247SOL    HW110640   5.994   4.381   2.041
 3247SOL    HW210641   5.919   4.432   1.905
 3248SOL     OW10642   5.774   2.660   2.188
 3248SOL    HW110643   5.816   2.749   2.205
 3248SOL    HW210644   5.709   2.639   2.261
 3249SOL     OW10645   3.586   4.098   3.389
 3249SOL    HW110646   3.677   4.108   3.350
 3249SOL    HW210647   3.590   4.111   3.488
 3250SOL     OW10648   5.899   0.197   2.558
 3250SOL    HW110649   5.963   0.245   2.498
 3250SOL    HW210650   5.809   0.239   2.550
 3251SOL     OW10651   3.769   0.616   3.611
 3251SOL    HW110652   3.716   0.700   3.608
 3251SOL    HW210653   3.814   0.601   3.523
 3252SOL     OW10654   2.842   1.016   2.571
 3252SOL    HW110655   2.820   1.024   2.668
 3252SOL    HW210656   2.774   0.959   2.526
 3253SOL     OW10657   4.527   3.308   1.201
 3253SOL    HW110658   4.588   3.349   1.133
 3253SOL    HW210659   4.464   3.246   1.155
 3254SOL     OW10660   4.711   5.995   6.931
 3254SOL    HW110661   4.682   5.957   7.019
 3254SOL    HW210662   4.653   6.073   6.909
 3255SOL     OW10663   4.124   6.764   1.429
 3255SOL    HW110664   4.204   6.704   1.432
 3255SOL    HW210665   4.127   6.828   1.506
 3256SOL     OW10666   3.916   1.300   1.062
 3256SOL    HW110667   3.850   1.300   1.137
 3256SOL    HW210668   3.969   1.385   1.065
 3257SOL     OW10669   1.400   1.742   1.686
 3257SOL    HW110670   1.397   1.763   1.588
 3257SOL    HW210671   1.421   1.825   1.737
 3258SOL     OW10672   4.358   5.834   2.637
 3258SOL    HW110673   4.347   5.743   2.596
 3258SOL    HW210674   4.322   5.832   2.730
 3259SOL     OW10675   4.965   4.850   5.224
 3259SOL    HW110676   5.041   4.840   5.287
 3259SOL    HW210677   5.000   4.858   5.130
 3260SOL     OW10678   1.891   2.488   1.143
 3260SOL    HW110679   1.794   2.474   1.165
 3260SOL    HW210680   1.947   2.467   1.223
 3261SOL     OW10681   5.664   0.768   1.503
 3261SOL    HW110682   5.671   0.864   1.530
 3261SOL    HW210683   5.636   0.713   1.581
 3262SOL     OW10684   3.745   2.116   2.475
 3262SOL    HW110685   3.651   2.142   2.499
 3262SOL    HW210686   3.805   2.134   2.552
 3263SOL     OW10687   2.964   1.512   2.906
 3263SOL    HW110688   2.924   1.487   2.994
 3263SOL    HW210689   2.908   1.475   2.832
 3264SOL     OW10690   1.708   5.829   1.129
 3264SOL    HW110691   1.667   5.767   1.196
 3264SOL    HW210692   1.635   5.881   1.084
 3265SOL     OW10693   4.829   0.109   6.251
 3265SOL    HW110694   4.811   0.199   6.292
 3265SOL    HW210695   4.759   0.044   6.281
 3266SOL     OW10696   2.419   4.191   0.162
 3266SOL    HW110697   2.430   4.158   0.256
 3266SOL    HW210698   2.321   4.197   0.141
 3267SOL     OW10699   3.145   6.162   1.742
 3267SOL    HW110700   3.179   6.245   1.786
 3267SOL    HW210701   3.046   6.159   1.749
 3268SOL     OW10702   2.693   4.043   1.641
 3268SOL    HW110703   2.742   4.080   1.562
 3268SOL    HW210704   2.652   4.117   1.693
 3269SOL     OW10705   5.317   5.952   2.455
 3269SOL    HW110706   5.395   5.908   2.410
 3269SOL    HW210707   5.334   5.956   2.554
 3270SOL     OW10708   1.459   4.534   6.733
 3270SOL    HW110709   1.534   4.546   6.798
 3270SOL    HW210710   1.489   4.474   6.658
 3271SOL     OW10711   6.125   3.242   1.361
 3271SOL    HW110712   6.185   3.218   1.285
 3271SOL    HW210713   6.129   3.171   1.431
 3272SOL     OW10714   2.760   4.377   6.032
 3272SOL    HW110715   2.794   4.327   5.953
 3272SOL    HW210716   2.721   4.464   6.002
 3273SOL     OW10717   6.344   5.073   0.066
 3273SOL    HW110718   6.332   5.016   0.147
 3273SOL    HW210719   6.274   5.050   7.029
 3274SOL     OW10720   5.520   0.404   0.958
 3274SOL    HW110721   5.524   0.489   0.904
 3274SOL    HW210722   5.609   0.359   0.956
 3275SOL     OW10723   5.043   0.938   0.113
 3275SOL    HW110724   5.140   0.919   0.128
 3275SOL    HW210725   5.033   1.025   0.065
 3276SOL     OW10726   3.959   5.975   6.685
 3276SOL    HW110727   3.915   5.885   6.684
 3276SOL    HW210728   4.054   5.964   6.713
 3277SOL     OW10729   3.263   0.844   0.864
 3277SOL    HW110730   3.218   0.762   0.902
 3277SOL    HW210731   3.362   0.838   0.882
 3278SOL     OW10732   1.230   1.044   5.625
 3278SOL    HW110733   1.171   1.104   5.680
 3278SOL    HW210734   1.190   1.033   5.534
 3279SOL     OW10735   4.930   6.747   0.285
 3279SOL    HW110736   4.973   6.782   0.369
 3279SOL    HW210737   4.991   6.681   0.241
 3280SOL     OW10738   4.960   4.486   4.774
 3280SOL    HW110739   5.008   4.401   4.754
 3280SOL    HW210740   4.874   4.488   4.722
 3281SOL     OW10741   0.867   4.551   1.330
 3281SOL    HW110742   0.902   4.645   1.333
 3281SOL    HW210743   0.879   4.508   1.419
 3282SOL     OW10744   0.056   4.354   4.724
 3282SOL    HW110745   0.155   4.336   4.720
 3282SOL    HW210746   0.034   4.432   4.665
 3283SOL     OW10747   3.203   1.097   0.937
 3283SOL    HW110748   3.197   1.005   0.899
 3283SOL    HW210749   3.112   1.136   0.944
 3284SOL     OW10750   1.124   5.898   6.612
 3284SOL    HW110751   1.197   5.957   6.645
 3284SOL    HW210752   1.038   5.949   6.608
 3285SOL     OW10753   4.207   2.303   4.082
 3285SOL    HW110754   4.269   2.228   4.103
 3285SOL    HW210755   4.242   2.388   4.123
 3286SOL     OW10756   4.097   3.264   2.228
 3286SOL    HW110757   4.017   3.213   2.259
 3286SOL    HW210758   4.117   3.337   2.293
 3287SOL     OW10759   0.590   0.166   0.455
 3287SOL    HW110760   0.644   0.250   0.467
 3287SOL    HW210761   0.518   0.164   0.524
 3288SOL     OW10762   1.995   6.209   0.358
 3288SOL    HW110763   1.964   6.242   0.269
 3288SOL    HW210764   1.921   6.159   0.403
 3289SOL     OW10765   3.355   1.219   5.764
 3289SOL    HW110766   3.451   1.192   5.751
 3289SOL    HW210767   3.296   1.161   5.707
 3290SOL     OW10768   6.881   5.004   1.041
 3290SOL    HW110769   6.950   5.075   1.058
 3290SOL    HW210770   6.912   4.945   0.967
 3291SOL     OW10771   1.908   0.600   6.420
 3291SOL    HW110772   1.968   0.657   6.364
 3291SOL    HW210773   1.928   0.616   6.517
 3292SOL     OW10774   7.006   0.942   0.655
 3292SOL    HW110775   0.010   0.907   0.742
 3292SOL    HW210776   0.007   0.883   0.580
 3293SOL     OW10777   6.438   4.772   1.530
 3293SOL    HW110778   6.433   4.715   1.612
 3293SOL    HW210779   6.533   4.799   1.514
 3294SOL     OW10780   5.589   3.270   6.093
 3294SOL    HW110781   5.534   3.224   6.163
 3294SOL    HW210782   5.686   3.261   6.115
 3295SOL     OW10783   1.194   2.853   1.905
 3295SOL    HW110784   1.164   2.945   1.877
 3295SOL    HW210785   1.291   2.843   1.887
 3296SOL     OW10786   1.233   0.783   2.409
 3296SOL    HW110787   1.260   0.694   2.445
 3296SOL    HW210788   1.133   0.791   2.410
 3297SOL     OW10789   2.799   1.734   5.460
 3297SOL    HW110790   2.859   1.666   5.420
 3297SOL    HW210791   2.721   1.689   5.503
 3298SOL     OW10792   5.872   1.970   5.801
 3298SOL    HW110793   5.936   1.907   5.847
 3298SOL    HW210794   5.822   2.023   5.869
 3299SOL     OW10795   3.632   5.852   2.836
 3299SOL    HW110796   3.675   5.942   2.844
 3299SOL    HW210797   3.536   5.859   2.863
 3300SOL     OW10798   1.131   0.343   6.293
 3300SOL    HW110799   1.152   0.246   6.280
 3300SOL    HW210800   1.167   0.396   6.217
 3301SOL     OW10801   1.908   3.269   3.484
 3301SOL    HW110802   1.846   3.255   3.407
 3301SOL    HW210803   1.857   3.262   3.569
 3302SOL     OW10804   0.920   5.030   5.179
 3302SOL    HW110805   0.891   4.974   5.257
 3302SOL    HW210806   0.912   5.127   5.203
 3303SOL     OW10807   3.238   3.217   0.354
 3303SOL    HW110808   3.160   3.266   0.391
 3303SOL    HW210809   3.260   3.253   0.263
 3304SOL     OW10810   2.191   5.712   5.675
 3304SOL    HW110811   2.145   5.766   5.604
 3304SOL    HW210812   2.289   5.727   5.670
 3305SOL     OW10813   2.174   1.569   2.492
 3305SOL    HW110814   2.165   1.653   2.440
 3305SOL    HW210815   2.231   1.504   2.442
 3306SOL     OW10816   2.278   5.703   5.210
 3306SOL    HW110817   2.290   5.634   5.138
 3306SOL    HW210818   2.200   5.678   5.267
 3307SOL     OW10819   0.882   6.051   6.522
 3307SOL    HW110820   0.915   6.124   6.463
 3307SOL    HW210821   0.784   6.061   6.536
 3308SOL     OW10822   2.802   5.788   1.726
 3308SOL    HW110823   2.852   5.727   1.665
 3308SOL    HW210824   2.721   5.740   1.761
 3309SOL     OW10825   6.011   5.467   3.673
 3309SOL    HW110826   5.913   5.483   3.680
 3309SOL    HW210827   6.045   5.506   3.587
 3310SOL     OW10828   0.399   4.314   5.387
 3310SOL    HW110829   0.460   4.383   5.349
 3310SOL    HW210830   0.331   4.360   5.445
 3311SOL     OW10831   3.527   4.438   0.466
 3311SOL    HW110832   3.591   4.367   0.437
 3311SOL    HW210833   3.445   4.395   0.502
 3312SOL     OW10834   4.134   4.287   5.643
 3312SOL    HW110835   4.184   4.244   5.568
 3312SOL    HW210836   4.144   4.386   5.639
 3313SOL     OW10837   0.839   6.539   3.904
 3313SOL    HW110838   0.841   6.457   3.962
 3313SOL    HW210839   0.803   6.616   3.956
 3314SOL     OW10840   2.329   1.399   2.330
 3314SOL    HW110841   2.344   1.379   2.233
 3314SOL    HW210842   2.367   1.325   2.386
 3315SOL     OW10843   0.045   4.107   4.955
 3315SOL    HW110844   0.096   4.189   4.930
 3315SOL    HW210845   0.093   4.060   5.029
 3316SOL     OW10846   5.357   1.112   5.193
 3316SOL    HW110847   5.450   1.083   5.171
 3316SOL    HW210848   5.351   1.133   5.290
 3317SOL     OW10849   4.931   2.841   1.987
 3317SOL    HW110850   4.868   2.919   1.986
 3317SOL    HW210851   4.986   2.843   2.070
 3318SOL     OW10852   1.913   1.282   1.093
 3318SOL    HW110853   1.864   1.350   1.149
 3318SOL    HW210854   1.984   1.238   1.149
 3319SOL     OW10855   5.897   1.360   3.648
 3319SOL    HW110856   5.901   1.441   3.590
 3319SOL    HW210857   5.898   1.388   3.744
 3320SOL     OW10858   6.180   1.022   5.839
 3320SOL    HW110859   6.180   0.996   5.936
 3320SOL    HW210860   6.209   1.118   5.830
 3321SOL     OW10861   5.479   1.882   0.635
 3321SOL    HW110862   5.391   1.836   0.624
 3321SOL    HW210863   5.549   1.814   0.657
 3322SOL     OW10864   6.617   2.394   1.009
 3322SOL    HW110865   6.581   2.487   1.015
 3322SOL    HW210866   6.705   2.389   1.056
 3323SOL     OW10867   3.273   2.941   0.124
 3323SOL    HW110868   3.264   2.858   0.070
 3323SOL    HW210869   3.223   2.931   0.210
 3324SOL     OW10870   3.768   4.700   6.644
 3324SOL    HW110871   3.858   4.743   6.650
 3324SOL    HW210872   3.713   4.727   6.722
 3325SOL     OW10873   0.207   3.859   6.891
 3325SOL    HW110874   0.266   3.796   6.841
 3325SOL    HW210875   0.174   3.814   6.974
 3326SOL     OW10876   4.939   1.979   1.821
 3326SOL    HW110877   5.035   1.961   1.843
 3326SOL    HW210878   4.880   1.924   1.880
 3327SOL     OW10879   3.125   5.281   1.907
 3327SOL    HW110880   3.032   5.315   1.899
 3327SOL    HW210881   3.138   5.240   1.998
 3328SOL     OW10882   4.641   2.252   0.767
 3328SOL    HW110883   4.616   2.243   0.864
 3328SOL    HW210884   4.559   2.239   0.711
 3329SOL     OW10885   5.916   0.276   4.589
 3329SOL    HW110886   5.816   0.287   4.584
 3329SOL    HW210887   5.958   0.364   4.612
 3330SOL     OW10888   6.423   4.159   1.871
 3330SOL    HW110889   6.436   4.216   1.790
 3330SOL    HW210890   6.469   4.200   1.949
 3331SOL     OW10891   2.509   2.829   1.679
 3331SOL    HW110892   2.525   2.927   1.669
 3331SOL    HW210893   2.445   2.813   1.754
 3332SOL     OW10894   5.548   5.572   0.373
 3332SOL    HW110895   5.589   5.498   0.425
 3332SOL    HW210896   5.504   5.535   0.291
 3333SOL     OW10897   4.287   5.045   6.552
 3333SOL    HW110898   4.310   5.088   6.639
 3333SOL    HW210899   4.369   5.040   6.494
 3334SOL     OW10900   3.177   3.863   1.664
 3334SOL    HW110901   3.238   3.907   1.731
 3334SOL    HW210902   3.089   3.910   1.664
 3335SOL     OW10903   4.682   5.790   5.931
 3335SOL    HW110904   4.698   5.887   5.914
 3335SOL    HW210905   4.630   5.751   5.854
 3336SOL     OW10906   2.683   5.645   4.961
 3336SOL    HW110907   2.663   5.727   4.907
 3336SOL    HW210908   2.782   5.631   4.965
 3337SOL     OW10909   2.979   3.881   2.429
 3337SOL    HW110910   2.952   3.808   2.367
 3337SOL    HW210911   3.035   3.948   2.380
 3338SOL     OW10912   5.756   2.755   1.475
 3338SOL    HW110913   5.691   2.831   1.475
 3338SOL    HW210914   5.825   2.769   1.405
 3339SOL     OW10915   6.438   6.789   6.640
 3339SOL    HW110916   6.406   6.697   6.663
 3339SOL    HW210917   6.381   6.857   6.685
 3340SOL     OW10918   3.622   0.504   2.131
 3340SOL    HW110919   3.659   0.477   2.041
 3340SOL    HW210920   3.661   0.592   2.157
 3341SOL     OW10921   0.937   6.204   3.571
 3341SOL    HW110922   0.981   6.126   3.615
 3341SOL    HW210923   0.861   6.236   3.627
 3342SOL     OW10924   2.778   6.633   3.982
 3342SOL    HW110925   2.736   6.630   3.891
 3342SOL    HW210926   2.730   6.570   4.043
 3343SOL     OW10927   4.678   2.874   0.409
 3343SOL    HW110928   4.709   2.862   0.503
 3343SOL    HW210929   4.725   2.952   0.368
 3344SOL     OW10930   5.825   3.297   4.279
 3344SOL    HW110931   5.901   3.302   4.213
 3344SOL    HW210932   5.834   3.370   4.346
 3345SOL     OW10933   1.553   3.766   5.651
 3345SOL    HW110934   1.575   3.814   5.736
 3345SOL    HW210935   1.556   3.667   5.666
 3346SOL     OW10936   1.860   0.968   0.804
 3346SOL    HW110937   1.897   1.054   0.771
 3346SOL    HW210938   1.934   0.912   0.842
 3347SOL     OW10939   0.533   4.476   4.004
 3347SOL    HW110940   0.538   4.376   3.996
 3347SOL    HW210941   0.571   4.503   4.093
 3348SOL     OW10942   3.078   3.232   3.618
 3348SOL    HW110943   3.056   3.306   3.556
 3348SOL    HW210944   3.032   3.148   3.588
 3349SOL     OW10945   0.858   5.395   3.832
 3349SOL    HW110946   0.772   5.347   3.814
 3349SOL    HW210947   0.871   5.403   3.931
 3350SOL     OW10948   1.511   2.505   5.651
 3350SOL    HW110949   1.425   2.507   5.700
 3350SOL    HW210950   1.553   2.415   5.660
 3351SOL     OW10951   5.456   0.729   2.762
 3351SOL    HW110952   5.511   0.796   2.813
 3351SOL    HW210953   5.377   0.775   2.721
 3352SOL     OW10954   0.285   2.219   0.471
 3352SOL    HW110955   0.323   2.280   0.400
 3352SOL    HW210956   0.244   2.139   0.428
 3353SOL     OW10957   1.354   6.176   1.988
 3353SOL    HW110958   1.377   6.198   1.893
 3353SOL    HW210959   1.323   6.082   1.994
 3354SOL     OW10960   5.343   2.427   4.829
 3354SOL    HW110961   5.355   2.403   4.733
 3354SOL    HW210962   5.271   2.370   4.869
 3355SOL     OW10963   1.670   1.786   0.206
 3355SOL    HW110964   1.593   1.721   0.206
 3355SOL    HW210965   1.750   1.742   0.245
 3356SOL     OW10966   2.079   3.741   6.387
 3356SOL    HW110967   2.105   3.648   6.413
 3356SOL    HW210968   2.026   3.782   6.461
 3357SOL     OW10969   2.682   4.817   1.874
 3357SOL    HW110970   2.742   4.751   1.920
 3357SOL    HW210971   2.657   4.782   1.784
 3358SOL     OW10972   5.103   0.509   0.865
 3358SOL    HW110973   5.006   0.492   0.878
 3358SOL    HW210974   5.132   0.473   0.777
 3359SOL     OW10975   6.743   0.397   3.500
 3359SOL    HW110976   6.714   0.311   3.542
 3359SOL    HW210977   6.750   0.468   3.570
 3360SOL     OW10978   0.846   1.018   6.835
 3360SOL    HW110979   0.867   1.040   6.931
 3360SOL    HW210980   0.760   1.063   6.810
 3361SOL     OW10981   0.580   3.970   2.565
 3361SOL    HW110982   0.580   4.002   2.471
 3361SOL    HW210983   0.543   4.042   2.625
 3362SOL     OW10984   3.842   1.155   3.795
 3362SOL    HW110985   3.815   1.252   3.800
 3362SOL    HW210986   3.760   1.098   3.788
 3363SOL     OW10987   7.019   0.104   0.096
 3363SOL    HW110988   6.944   0.073   0.154
 3363SOL    HW210989   0.073   0.059   0.124
 3364SOL     OW10990   1.299   4.869   3.951
 3364SOL    HW110991   1.265   4.782   3.916
 3364SOL    HW210992   1.231   4.941   3.936
 3365SOL     OW10993   0.724   2.190   5.368
 3365SOL    HW110994   0.699   2.094   5.360
 3365SOL    HW210995   0.642   2.247   5.365
 3366SOL     OW10996   5.775   0.500   6.153
 3366SOL    HW110997   5.763   0.532   6.059
 3366SOL    HW210998   5.686   0.486   6.195
 3367SOL     OW10999   3.115   2.789   1.479
 3367SOL    HW111000   3.166   2.841   1.547
 3367SOL    HW211001   3.108   2.842   1.394
 3368SOL     OW11002   0.797   5.249   6.241
 3368SOL    HW111003   0.859   5.324   6.266
 3368SOL    HW211004   0.790   5.244   6.141
 3369SOL     OW11005   3.700   2.508   5.648
 3369SOL    HW111006   3.773   2.442   5.630
 3369SOL    HW211007   3.673   2.552   5.563
 3370SOL     OW11008   6.726   6.138   5.817
 3370SOL    HW111009   6.667   6.208   5.857
 3370SOL    HW211010   6.734   6.061   5.880
 3371SOL     OW11011   1.543   3.795   2.266
 3371SOL    HW111012   1.631   3.819   2.227
 3371SOL    HW211013   1.507   3.715   2.219
 3372SOL     OW11014   0.601   1.179   1.322
 3372SOL    HW111015   0.699   1.200   1.314
 3372SOL    HW211016   0.552   1.221   1.245
 3373SOL     OW11017   0.106   1.903   3.049
 3373SOL    HW111018   0.178   1.922   3.116
 3373SOL    HW211019   0.120   1.812   3.010
 3374SOL     OW11020   2.213   6.111   4.454
 3374SOL    HW111021   2.198   6.055   4.372
 3374SOL    HW211022   2.307   6.145   4.454
 3375SOL     OW11023   5.566   5.006   5.915
 3375SOL    HW111024   5.628   5.064   5.968
 3375SOL    HW211025   5.476   5.007   5.957
 3376SOL     OW11026   3.314   3.139   3.659
 3376SOL    HW111027   3.369   3.213   3.620
 3376SOL    HW211028   3.220   3.170   3.671
 3377SOL     OW11029   0.228   6.671   4.599
 3377SOL    HW111030   0.289   6.630   4.531
 3377SOL    HW211031   0.228   6.770   4.587
 3378SOL     OW11032   6.399   0.586   0.583
 3378SOL    HW111033   6.361   0.625   0.499
 3378SOL    HW211034   6.497   0.568   0.570
 3379SOL     OW11035   7.007   5.711   6.427
 3379SOL    HW111036   0.040   5.650   6.475
 3379SOL    HW211037   6.918   5.709   6.471
 3380SOL     OW11038   5.581   6.718   5.846
 3380SOL    HW111039   5.680   6.709   5.858
 3380SOL    HW211040   5.562   6.769   5.762
 3381SOL     OW11041   1.231   3.033   1.310
 3381SOL    HW111042   1.137   3.009   1.333
 3381SOL    HW211043   1.233   3.122   1.265
 3382SOL     OW11044   1.017   0.419   0.621
 3382SOL    HW111045   1.114   0.437   0.606
 3382SOL    HW211046   0.994   0.437   0.716
 3383SOL     OW11047   4.419   5.550   2.482
 3383SOL    HW111048   4.356   5.473   2.484
 3383SOL    HW211049   4.388   5.616   2.414
 3384SOL     OW11050   2.611   3.762   5.460
 3384SOL    HW111051   2.701   3.718   5.460
 3384SOL    HW211052   2.579   3.771   5.555
 3385SOL     OW11053   0.241   3.338   3.741
 3385SOL    HW111054   0.188   3.269   3.791
 3385SOL    HW211055   0.289   3.397   3.806
 3386SOL     OW11056   6.836   3.454   6.492
 3386SOL    HW111057   6.783   3.418   6.569
 3386SOL    HW211058   6.905   3.517   6.527
 3387SOL     OW11059   3.086   1.419   3.985
 3387SOL    HW111060   3.109   1.337   4.038
 3387SOL    HW211061   2.992   1.410   3.951
 3388SOL     OW11062   5.312   3.492   1.945
 3388SOL    HW111063   5.266   3.575   1.912
 3388SOL    HW211064   5.348   3.441   1.867
 3389SOL     OW11065   5.210   5.370   4.842
 3389SOL    HW111066   5.264   5.411   4.768
 3389SOL    HW211067   5.262   5.374   4.927
 3390SOL     OW11068   5.336   4.363   5.849
 3390SOL    HW111069   5.280   4.438   5.813
 3390SOL    HW211070   5.287   4.277   5.840
 3391SOL     OW11071   5.360   2.763   4.811
 3391SOL    HW111072   5.383   2.667   4.796
 3391SOL    HW211073   5.340   2.779   4.908
 3392SOL     OW11074   2.812   7.003   3.592
 3392SOL    HW111075   2.760   6.962   3.667
 3392SOL    HW211076   2.789   6.959   3.506
 3393SOL     OW11077   0.277   6.304   7.007
 3393SOL    HW111078   0.302   6.293   0.073
 3393SOL    HW211079   0.245   6.216   6.971
 3394SOL     OW11080   6.321   2.865   0.861
 3394SOL    HW111081   6.316   2.953   0.814
 3394SOL    HW211082   6.371   2.800   0.804
 3395SOL     OW11083   6.005   3.387   3.706
 3395SOL    HW111084   5.913   3.363   3.739
 3395SOL    HW211085   6.052   3.304   3.677
 3396SOL     OW11086   5.841   2.166   3.636
 3396SOL    HW111087   5.873   2.071   3.633
 3396SOL    HW211088   5.891   2.221   3.569
 3397SOL     OW11089   2.776   0.952   5.626
 3397SOL    HW111090   2.810   0.919   5.538
 3397SOL    HW211091   2.774   1.052   5.625
 3398SOL     OW11092   1.118   6.766   3.793
 3398SOL    HW111093   1.042   6.828   3.777
 3398SOL    HW211094   1.200   6.819   3.816
 3399SOL     OW11095   5.647   4.456   4.633
 3399SOL    HW111096   5.562   4.507   4.646
 3399SOL    HW211097   5.660   4.436   4.536
 3400SOL     OW11098   4.916   2.285   5.871
 3400SOL    HW111099   4.988   2.336   5.824
 3400SOL    HW211100   4.827   2.315   5.837
 3401SOL     OW11101   6.840   3.415   0.535
 3401SOL    HW111102   6.845   3.511   0.508
 3401SOL    HW211103   6.841   3.408   0.635
 3402SOL     OW11104   3.728   6.589   7.019
 3402SOL    HW111105   3.718   6.667   0.051
 3402SOL    HW211106   3.798   6.527   0.023
 3403SOL     OW11107   4.468   6.999   4.853
 3403SOL    HW111108   4.397   0.036   4.833
 3403SOL    HW211109   4.425   6.914   4.883
 3404SOL     OW11110   5.489   1.588   0.118
 3404SOL    HW111111   5.399   1.556   0.089
 3404SOL    HW211112   5.500   1.684   0.093
 3405SOL     OW11113   6.512   3.815   4.403
 3405SOL    HW111114   6.600   3.817   4.452
 3405SOL    HW211115   6.529   3.796   4.306
 3406SOL     OW11116   0.748   3.565   2.534
 3406SOL    HW111117   0.671   3.596   2.479
 3406SOL    HW211118   0.772   3.636   2.601
 3407SOL     OW11119   1.484   5.547   0.324
 3407SOL    HW111120   1.405   5.563   0.384
 3407SOL    HW211121   1.455   5.496   0.243
 3408SOL     OW11122   4.944   4.017   5.222
 3408SOL    HW111123   4.981   3.956   5.152
 3408SOL    HW211124   4.901   3.963   5.294
 3409SOL     OW11125   3.457   6.188   6.521
 3409SOL    HW111126   3.401   6.240   6.585
 3409SOL    HW211127   3.429   6.209   6.427
 3410SOL     OW11128   0.003   5.828   0.145
 3410SOL    HW111129   6.951   5.868   0.187
 3410SOL    HW211130   7.028   5.838   0.046
 3411SOL     OW11131   0.527   2.282   1.830
 3411SOL    HW111132   0.486   2.340   1.900
 3411SOL    HW211133   0.484   2.301   1.742
 3412SOL     OW11134   4.480   2.597   6.591
 3412SOL    HW111135   4.441   2.620   6.501
 3412SOL    HW211136   4.534   2.674   6.624
 3413SOL     OW11137   5.388   1.035   1.553
 3413SOL    HW111138   5.355   0.961   1.611
 3413SOL    HW211139   5.487   1.028   1.544
 3414SOL     OW11140   1.964   1.174   5.968
 3414SOL    HW111141   2.010   1.222   6.042
 3414SOL    HW211142   1.970   1.075   5.983
 3415SOL     OW11143   1.587   3.970   4.552
 3415SOL    HW111144   1.587   4.054   4.607
 3415SOL    HW211145   1.523   3.904   4.593
 3416SOL     OW11146   6.948   5.967   0.611
 3416SOL    HW111147   6.887   5.890   0.627
 3416SOL    HW211148   7.017   5.941   0.543
 3417SOL     OW11149   0.506   5.921   3.155
 3417SOL    HW111150   0.424   5.972   3.130
 3417SOL    HW211151   0.521   5.929   3.254
 3418SOL     OW11152   3.662   0.430   4.987
 3418SOL    HW111153   3.632   0.361   5.052
 3418SOL    HW211154   3.605   0.426   4.905
 3419SOL     OW11155   4.542   6.013   5.081
 3419SOL    HW111156   4.589   5.926   5.094
 3419SOL    HW211157   4.609   6.085   5.062
 3420SOL     OW11158   5.826   3.107   3.940
 3420SOL    HW111159   5.748   3.048   3.959
 3420SOL    HW211160   5.814   3.151   3.851
 3421SOL     OW11161   5.631   0.829   6.321
 3421SOL    HW111162   5.647   0.794   6.228
 3421SOL    HW211163   5.718   0.860   6.360
 3422SOL     OW11164   1.908   0.084   1.320
 3422SOL    HW111165   1.954   7.026   1.306
 3422SOL    HW211166   1.920   0.114   1.414
 3423SOL     OW11167   2.208   6.275   0.727
 3423SOL    HW111168   2.288   6.219   0.749
 3423SOL    HW211169   2.218   6.313   0.635
 3424SOL     OW11170   2.949   0.100   2.081
 3424SOL    HW111171   2.851   0.102   2.060
 3424SOL    HW211172   2.973   0.181   2.134
 3425SOL     OW11173   5.615   4.197   2.296
 3425SOL    HW111174   5.537   4.256   2.276
 3425SOL    HW211175   5.583   4.117   2.347
 3426SOL     OW11176   3.119   2.951   0.634
 3426SOL    HW111177   3.215   2.964   0.658
 3426SOL    HW211178   3.087   2.863   0.670
 3427SOL     OW11179   6.531   6.695   0.176
 3427SOL    HW111180   6.522   6.795   0.172
 3427SOL    HW211181   6.440   6.653   0.171
 3428SOL     OW11182   3.124   4.999   1.354
 3428SOL    HW111183   3.164   5.035   1.270
 3428SOL    HW211184   3.118   5.073   1.422
 3429SOL     OW11185   0.725   1.973   6.975
 3429SOL    HW111186   0.637   1.938   6.945
 3429SOL    HW211187   0.715   2.015   0.035
 3430SOL     OW11188   0.059   6.202   5.114
 3430SOL    HW111189   0.007   6.119   5.093
 3430SOL    HW211190   0.079   6.251   5.029
 3431SOL     OW11191   1.964   6.661   1.016
 3431SOL    HW111192   2.037   6.610   1.061
 3431SOL    HW211193   2.003   6.723   0.947
 3432SOL     OW11194   2.271   2.705   7.023
 3432SOL    HW111195   2.228   2.739   0.077
 3432SOL    HW211196   2.251   2.608   7.012
 3433SOL     OW11197   1.274   6.930   6.454
 3433SOL    HW111198   1.297   6.989   6.532
 3433SOL    HW211199   1.196   6.872   6.478
 3434SOL     OW11200   4.794   2.425   0.625
 3434SOL    HW111201   4.752   2.352   0.679
 3434SOL    HW211202   4.847   2.485   0.685
 3435SOL     OW11203   1.058   1.155   1.202
 3435SOL    HW111204   1.124   1.202   1.260
 3435SOL    HW211205   1.085   1.060   1.191
 3436SOL     OW11206   3.377   6.568   6.153
 3436SOL    HW111207   3.439   6.587   6.230
 3436SOL    HW211208   3.357   6.653   6.106
 3437SOL     OW11209   3.010   1.149   5.756
 3437SOL    HW111210   2.966   1.208   5.689
 3437SOL    HW211211   2.944   1.124   5.827
 3438SOL     OW11212   1.277   2.541   0.589
 3438SOL    HW111213   1.345   2.480   0.548
 3438SOL    HW211214   1.191   2.493   0.602
 3439SOL     OW11215   2.100   6.290   5.275
 3439SOL    HW111216   2.174   6.241   5.229
 3439SOL    HW211217   2.138   6.354   5.342
 3440SOL     OW11218   3.866   3.468   1.761
 3440SOL    HW111219   3.871   3.392   1.826
 3440SOL    HW211220   3.891   3.436   1.670
 3441SOL     OW11221   5.073   6.927   4.249
 3441SOL    HW111222   5.031   6.938   4.159
 3441SOL    HW211223   5.162   6.882   4.238
 3442SOL     OW11224   3.693   4.947   2.820
 3442SOL    HW111225   3.621   4.909   2.877
 3442SOL    HW211226   3.746   5.015   2.872
 3443SOL     OW11227   5.359   6.683   1.590
 3443SOL    HW111228   5.306   6.601   1.569
 3443SOL    HW211229   5.297   6.757   1.616
 3444SOL     OW11230   5.054   5.839   0.608
 3444SOL    HW111231   5.008   5.913   0.559
 3444SOL    HW211232   4.992   5.762   0.619
 3445SOL     OW11233   6.233   5.871   4.586
 3445SOL    HW111234   6.314   5.908   4.541
 3445SOL    HW211235   6.161   5.940   4.587
 3446SOL     OW11236   5.837   0.370   2.188
 3446SOL    HW111237   5.885   0.414   2.112
 3446SOL    HW211238   5.783   0.293   2.154
 3447SOL     OW11239   5.283   5.501   1.323
 3447SOL    HW111240   5.288   5.543   1.232
 3447SOL    HW211241   5.193   5.461   1.336
 3448SOL     OW11242   3.146   0.603   0.960
 3448SOL    HW111243   3.149   0.514   0.914
 3448SOL    HW211244   3.218   0.607   1.029
 3449SOL     OW11245   6.399   7.004   3.771
 3449SOL    HW111246   6.361   6.980   3.860
 3449SOL    HW211247   6.497   6.985   3.770
 3450SOL     OW11248   0.187   2.090   6.548
 3450SOL    HW111249   0.166   2.091   6.450
 3450SOL    HW211250   0.207   2.184   6.579
 3451SOL     OW11251   1.682   6.292   2.539
 3451SOL    HW111252   1.736   6.240   2.473
 3451SOL    HW211253   1.594   6.247   2.554
 3452SOL     OW11254   6.060   1.607   6.531
 3452SOL    HW111255   6.128   1.540   6.562
 3452SOL    HW211256   6.005   1.569   6.457
 3453SOL     OW11257   6.967   5.680   6.111
 3453SOL    HW111258   0.015   5.670   6.173
 3453SOL    HW211259   6.912   5.596   6.114
 3454SOL     OW11260   1.132   1.724   6.800
 3454SOL    HW111261   1.227   1.700   6.819
 3454SOL    HW211262   1.102   1.794   6.865
 3455SOL     OW11263   2.241   2.522   4.394
 3455SOL    HW111264   2.281   2.442   4.349
 3455SOL    HW211265   2.146   2.502   4.420
 3456SOL     OW11266   5.609   5.620   2.403
 3456SOL    HW111267   5.683   5.686   2.418
 3456SOL    HW211268   5.539   5.633   2.473
 3457SOL     OW11269   2.597   5.651   3.521
 3457SOL    HW111270   2.638   5.655   3.613
 3457SOL    HW211271   2.499   5.666   3.528
 3458SOL     OW11272   4.541   0.447   0.762
 3458SOL    HW111273   4.460   0.388   0.762
 3458SOL    HW211274   4.519   0.535   0.721
 3459SOL     OW11275   5.790   4.364   2.685
 3459SOL    HW111276   5.696   4.342   2.714
 3459SOL    HW211277   5.817   4.302   2.611
 3460SOL     OW11278   2.278   3.188   0.127
 3460SOL    HW111279   2.324   3.199   0.040
 3460SOL    HW211280   2.320   3.112   0.178
 3461SOL     OW11281   4.848   6.402   4.830
 3461SOL    HW111282   4.757   6.425   4.797
 3461SOL    HW211283   4.866   6.305   4.813
 3462SOL     OW11284   0.345   3.575   2.304
 3462SOL    HW111285   0.411   3.509   2.267
 3462SOL    HW211286   0.384   3.618   2.386
 3463SOL     OW11287   1.340   3.745   3.752
 3463SOL    HW111288   1.284   3.775   3.674
 3463SOL    HW211289   1.437   3.757   3.730
 3464SOL     OW11290   6.774   3.172   0.020
 3464SOL    HW111291   6.756   3.097   0.083
 3464SOL    HW211292   6.841   3.235   0.061
 3465SOL     OW11293   1.710   2.475   1.919
 3465SOL    HW111294   1.682   2.548   1.981
 3465SOL    HW211295   1.680   2.387   1.957
 3466SOL     OW11296   6.592   4.967   6.881
 3466SOL    HW111297   6.566   5.063   6.889
 3466SOL    HW211298   6.511   4.911   6.866
 3467SOL     OW11299   2.318   2.572   0.892
 3467SOL    HW111300   2.281   2.484   0.920
 3467SOL    HW211301   2.244   2.640   0.891
 3468SOL     OW11302   5.920   0.583   2.570
 3468SOL    HW111303   5.823   0.605   2.571
 3468SOL    HW211304   5.934   0.497   2.520
 3469SOL     OW11305   4.682   0.261   4.274
 3469SOL    HW111306   4.627   0.285   4.194
 3469SOL    HW211307   4.779   0.273   4.252
 3470SOL     OW11308   6.852   2.014   1.670
 3470SOL    HW111309   6.774   2.076   1.655
 3470SOL    HW211310   6.937   2.066   1.660
 3471SOL     OW11311   4.819   4.865   4.601
 3471SOL    HW111312   4.741   4.808   4.627
 3471SOL    HW211313   4.889   4.807   4.557
 3472SOL     OW11314   2.735   1.319   3.122
 3472SOL    HW111315   2.755   1.305   3.025
 3472SOL    HW211316   2.728   1.417   3.140
 3473SOL     OW11317   0.087   2.694   1.765
 3473SOL    HW111318   0.095   2.696   1.865
 3473SOL    HW211319   0.169   2.735   1.724
 3474SOL     OW11320   1.092   4.262   3.099
 3474SOL    HW111321   1.190   4.263   3.079
 3474SOL    HW211322   1.059   4.356   3.109
 3475SOL     OW11323   1.507   3.882   4.113
 3475SOL    HW111324   1.493   3.923   4.023
 3475SOL    HW211325   1.578   3.812   4.107
 3476SOL     OW11326   2.452   1.838   2.632
 3476SOL    HW111327   2.384   1.911   2.623
 3476SOL    HW211328   2.440   1.772   2.558
 3477SOL     OW11329   1.930   4.763   0.786
 3477SOL    HW111330   1.984   4.711   0.719
 3477SOL    HW211331   1.992   4.806   0.852
 3478SOL     OW11332   2.245   5.636   6.013
 3478SOL    HW111333   2.185   5.590   5.947
 3478SOL    HW211334   2.324   5.578   6.033
 3479SOL     OW11335   1.396   0.877   2.834
 3479SOL    HW111336   1.446   0.810   2.779
 3479SOL    HW211337   1.460   0.941   2.874
 3480SOL     OW11338   6.654   5.857   4.681
 3480SOL    HW111339   6.595   5.879   4.759
 3480SOL    HW211340   6.722   5.930   4.670
 3481SOL     OW11341   4.761   0.563   0.491
 3481SOL    HW111342   4.679   0.598   0.535
 3481SOL    HW211343   4.764   0.463   0.501
 3482SOL     OW11344   6.151   0.985   2.066
 3482SOL    HW111345   6.162   1.051   1.992
 3482SOL    HW211346   6.116   1.031   2.148
 3483SOL     OW11347   4.936   2.357   1.646
 3483SOL    HW111348   4.935   2.258   1.629
 3483SOL    HW211349   4.971   2.375   1.738
 3484SOL     OW11350   1.048   2.995   0.386
 3484SOL    HW111351   0.997   2.909   0.389
 3484SOL    HW211352   1.144   2.978   0.409
 3485SOL     OW11353   1.661   2.029   4.197
 3485SOL    HW111354   1.702   2.103   4.143
 3485SOL    HW211355   1.733   1.975   4.239
 3486SOL     OW11356   2.562   0.254   3.713
 3486SOL    HW111357   2.540   0.202   3.795
 3486SOL    HW211358   2.647   0.306   3.728
 3487SOL     OW11359   6.263   1.751   0.120
 3487SOL    HW111360   6.327   1.771   0.045
 3487SOL    HW211361   6.183   1.704   0.083
 3488SOL     OW11362   6.395   0.250   4.774
 3488SOL    HW111363   6.442   0.221   4.857
 3488SOL    HW211364   6.376   0.348   4.780
 3489SOL     OW11365   3.784   0.392   1.938
 3489SOL    HW111366   3.829   0.336   1.868
 3489SOL    HW211367   3.852   0.423   2.004
 3490SOL     OW11368   3.863   4.119   1.075
 3490SOL    HW111369   3.870   4.203   1.021
 3490SOL    HW211370   3.767   4.103   1.098
 3491SOL     OW11371   4.430   2.650   6.040
 3491SOL    HW111372   4.393   2.743   6.036
 3491SOL    HW211373   4.512   2.649   6.096
 3492SOL     OW11374   6.723   4.644   0.962
 3492SOL    HW111375   6.642   4.588   0.946
 3492SOL    HW211376   6.788   4.593   1.018
 3493SOL     OW11377   4.839   3.969   4.795
 3493SOL    HW111378   4.769   4.018   4.846
 3493SOL    HW211379   4.909   3.934   4.858
 3494SOL     OW11380   3.463   0.822   2.279
 3494SOL    HW111381   3.421   0.736   2.248
 3494SOL    HW211382   3.547   0.801   2.330
 3495SOL     OW11383   5.726   4.888   1.679
 3495SOL    HW111384   5.732   4.986   1.660
 3495SOL    HW211385   5.636   4.867   1.717
 3496SOL     OW11386   5.959   4.950   1.019
 3496SOL    HW111387   5.966   4.945   1.119
 3496SOL    HW211388   5.944   4.858   0.982
 3497SOL     OW11389   2.218   0.961   3.899
 3497SOL    HW111390   2.224   0.876   3.950
 3497SOL    HW211391   2.291   0.965   3.831
 3498SOL     OW11392   3.235   2.322   1.132
 3498SOL    HW111393   3.282   2.391   1.186
 3498SOL    HW211394   3.296   2.289   1.060
 3499SOL     OW11395   5.795   3.858   3.863
 3499SOL    HW111396   5.888   3.853   3.828
 3499SOL    HW211397   5.730   3.848   3.788
 3500SOL     OW11398   1.998   3.583   4.977
 3500SOL    HW111399   2.055   3.502   4.963
 3500SOL    HW211400   1.944   3.601   4.895
 3501SOL     OW11401   1.818   5.955   4.905
 3501SOL    HW111402   1.860   6.045   4.889
 3501SOL    HW211403   1.799   5.944   5.003
 3502SOL     OW11404   6.649   2.625   1.855
 3502SOL    HW111405   6.684   2.717   1.873
 3502SOL    HW211406   6.637   2.576   1.941
 3503SOL     OW11407   6.145   6.437   5.044
 3503SOL    HW111408   6.097   6.368   4.989
 3503SOL    HW211409   6.243   6.434   5.023
 3504SOL     OW11410   2.619   1.071   1.531
 3504SOL    HW111411   2.660   1.016   1.459
 3504SOL    HW211412   2.647   1.167   1.521
 3505SOL     OW11413   5.812   4.516   5.385
 3505SOL    HW111414   5.760   4.431   5.384
 3505SOL    HW211415   5.787   4.571   5.305
 3506SOL     OW11416   4.904   5.689   5.507
 3506SOL    HW111417   4.924   5.655   5.598
 3506SOL    HW211418   4.989   5.715   5.461
 3507SOL     OW11419   2.283   0.652   1.088
 3507SOL    HW111420   2.318   0.562   1.060
 3507SOL    HW211421   2.360   0.710   1.114
 3508SOL     OW11422   2.112   1.680   5.667
 3508SOL    HW111423   2.200   1.654   5.707
 3508SOL    HW211424   2.059   1.733   5.734
 3509SOL     OW11425   4.965   0.926   6.513
 3509SOL    HW111426   4.930   0.832   6.509
 3509SOL    HW211427   5.059   0.926   6.547
 3510SOL     OW11428   1.198   1.570   1.589
 3510SOL    HW111429   1.241   1.486   1.556
 3510SOL    HW211430   1.269   1.635   1.618
 3511SOL     OW11431   2.604   5.005   1.161
 3511SOL    HW111432   2.533   5.036   1.225
 3511SOL    HW211433   2.605   4.905   1.158
 3512SOL     OW11434   6.723   4.297   0.698
 3512SOL    HW111435   6.819   4.321   0.707
 3512SOL    HW211436   6.669   4.380   0.685
 3513SOL     OW11437   5.594   2.508   6.908
 3513SOL    HW111438   5.641   2.445   6.846
 3513SOL    HW211439   5.605   2.477   7.002
 3514SOL     OW11440   0.323   1.648   1.933
 3514SOL    HW111441   0.299   1.736   1.890
 3514SOL    HW211442   0.241   1.592   1.942
 3515SOL     OW11443   4.772   6.035   3.168
 3515SOL    HW111444   4.731   5.993   3.248
 3515SOL    HW211445   4.703   6.041   3.095
 3516SOL     OW11446   4.547   0.047   0.999
 3516SOL    HW111447   4.493   0.128   1.020
 3516SOL    HW211448   4.636   0.054   1.045
 3517SOL     OW11449   1.435   2.246   0.838
 3517SOL    HW111450   1.418   2.332   0.886
 3517SOL    HW211451   1.360   2.183   0.854
 3518SOL     OW11452   5.990   2.333   4.179
 3518SOL    HW111453   6.027   2.424   4.161
 3518SOL    HW211454   6.017   2.271   4.105
 3519SOL     OW11455   1.540   0.559   6.333
 3519SOL    HW111456   1.604   0.577   6.259
 3519SOL    HW211457   1.486   0.477   6.311
 3520SOL     OW11458   2.915   5.120   6.621
 3520SOL    HW111459   2.935   5.215   6.645
 3520SOL    HW211460   2.997   5.064   6.630
 3521SOL     OW11461   5.286   2.289   6.851
 3521SOL    HW111462   5.190   2.275   6.874
 3521SOL    HW211463   5.329   2.347   6.920
 3522SOL     OW11464   7.008   4.953   1.294
 3522SOL    HW111465   6.943   4.979   1.223
 3522SOL    HW211466   6.979   4.991   1.382
 3523SOL     OW11467   1.684   4.832   6.121
 3523SOL    HW111468   1.627   4.848   6.202
 3523SOL    HW211469   1.646   4.882   6.043
 3524SOL     OW11470   4.621   1.607   1.876
 3524SOL    HW111471   4.555   1.661   1.927
 3524SOL    HW211472   4.575   1.560   1.801
 3525SOL     OW11473   0.770   4.591   3.149
 3525SOL    HW111474   0.725   4.513   3.193
 3525SOL    HW211475   0.787   4.662   3.217
 3526SOL     OW11476   2.373   6.415   4.204
 3526SOL    HW111477   2.302   6.485   4.193
 3526SOL    HW211478   2.345   6.331   4.157
 3527SOL     OW11479   5.848   3.548   6.614
 3527SOL    HW111480   5.867   3.473   6.550
 3527SOL    HW211481   5.761   3.532   6.659
 3528SOL     OW11482   1.464   6.113   4.988
 3528SOL    HW111483   1.414   6.198   4.970
 3528SOL    HW211484   1.549   6.135   5.037
 3529SOL     OW11485   3.923   0.207   6.592
 3529SOL    HW111486   3.828   0.210   6.562
 3529SOL    HW211487   3.963   0.299   6.587
 3530SOL     OW11488   0.198   4.753   2.473
 3530SOL    HW111489   0.219   4.683   2.540
 3530SOL    HW211490   0.198   4.843   2.517
 3531SOL     OW11491   4.866   2.820   0.163
 3531SOL    HW111492   4.822   2.781   0.244
 3531SOL    HW211493   4.924   2.751   0.120
 3532SOL     OW11494   3.055   0.335   1.736
 3532SOL    HW111495   3.133   0.395   1.752
 3532SOL    HW211496   3.044   0.273   1.813
 3533SOL     OW11497   1.992   2.130   2.622
 3533SOL    HW111498   2.037   2.184   2.693
 3533SOL    HW211499   1.902   2.170   2.603
 3534SOL     OW11500   6.687   1.479   0.056
 3534SOL    HW111501   6.675   1.453   6.990
 3534SOL    HW211502   6.650   1.572   0.069
 3535SOL     OW11503   1.791   6.072   0.986
 3535SOL    HW111504   1.818   5.987   1.031
 3535SOL    HW211505   1.697   6.063   0.952
 3536SOL     OW11506   2.960   1.822   3.216
 3536SOL    HW111507   3.047   1.796   3.256
 3536SOL    HW211508   2.893   1.839   3.289
 3537SOL     OW11509   3.267   5.961   1.993
 3537SOL    HW111510   3.277   5.919   1.903
 3537SOL    HW211511   3.294   6.057   1.989
 3538SOL     OW11512   1.549   0.174   6.628
 3538SOL    HW111513   1.606   0.148   6.550
 3538SOL    HW211514   1.455   0.187   6.598
 3539SOL     OW11515   5.299   3.572   5.801
 3539SOL    HW111516   5.267   3.636   5.731
 3539SOL    HW211517   5.398   3.566   5.798
 3540SOL     OW11518   2.059   1.788   5.411
 3540SOL    HW111519   2.128   1.829   5.350
 3540SOL    HW211520   2.099   1.773   5.501
 3541SOL     OW11521   1.966   2.375   6.257
 3541SOL    HW111522   1.998   2.466   6.284
 3541SOL    HW211523   2.038   2.308   6.274
 3542SOL     OW11524   1.750   5.466   2.780
 3542SOL    HW111525   1.837   5.436   2.743
 3542SOL    HW211526   1.719   5.400   2.849
 3543SOL     OW11527   0.989   2.026   4.545
 3543SOL    HW111528   0.969   1.998   4.451
 3543SOL    HW211529   0.931   2.104   4.570
 3544SOL     OW11530   2.718   4.173   6.524
 3544SOL    HW111531   2.632   4.151   6.571
 3544SOL    HW211532   2.710   4.147   6.428
 3545SOL     OW11533   4.144   4.947   0.452
 3545SOL    HW111534   4.174   5.026   0.505
 3545SOL    HW211535   4.220   4.882   0.443
 3546SOL     OW11536   1.173   4.333   4.262
 3546SOL    HW111537   1.081   4.370   4.276
 3546SOL    HW211538   1.187   4.256   4.324
 3547SOL     OW11539   6.640   4.935   4.452
 3547SOL    HW111540   6.679   4.880   4.527
 3547SOL    HW211541   6.714   4.979   4.401
 3548SOL     OW11542   5.907   1.082   6.035
 3548SOL    HW111543   5.975   1.153   6.051
 3548SOL    HW211544   5.931   1.000   6.087
 3549SOL     OW11545   6.840   5.037   5.618
 3549SOL    HW111546   6.840   5.039   5.518
 3549SOL    HW211547   6.933   5.055   5.652
 3550SOL     OW11548   6.288   3.085   2.948
 3550SOL    HW111549   6.262   3.179   2.927
 3550SOL    HW211550   6.326   3.042   2.866
 3551SOL     OW11551   3.911   1.325   2.619
 3551SOL    HW111552   3.837   1.390   2.631
 3551SOL    HW211553   3.971   1.356   2.546
 3552SOL     OW11554   5.573   6.625   2.712
 3552SOL    HW111555   5.634   6.554   2.676
 3552SOL    HW211556   5.502   6.582   2.767
 3553SOL     OW11557   4.805   4.976   1.237
 3553SOL    HW111558   4.749   4.977   1.154
 3553SOL    HW211559   4.896   4.941   1.215
 3554SOL     OW11560   4.753   1.954   1.474
 3554SOL    HW111561   4.707   1.904   1.547
 3554SOL    HW211562   4.837   1.997   1.509
 3555SOL     OW11563   1.259   4.410   4.023
 3555SOL    HW111564   1.236   4.384   4.117
 3555SOL    HW211565   1.248   4.331   3.963
 3556SOL     OW11566   4.038   1.636   4.173
 3556SOL    HW111567   4.013   1.696   4.249
 3556SOL    HW211568   3.956   1.602   4.128
 3557SOL     OW11569   1.052   1.183   4.511
 3557SOL    HW111570   0.997   1.107   4.544
 3557SOL    HW211571   1.149   1.164   4.528
 3558SOL     OW11572   1.430   6.468   2.064
 3558SOL    HW111573   1.481   6.521   1.996
 3558SOL    HW211574   1.356   6.418   2.018
 3559SOL     OW11575   0.471   6.015   5.490
 3559SOL    HW111576   0.484   6.114   5.491
 3559SOL    HW211577   0.487   5.978   5.582
 3560SOL     OW11578   0.596   5.829   1.595
 3560SOL    HW111579   0.652   5.822   1.677
 3560SOL    HW211580   0.524   5.760   1.599
 3561SOL     OW11581   4.416   4.679   4.851
 3561SOL    HW111582   4.410   4.761   4.908
 3561SOL    HW211583   4.397   4.598   4.906
 3562SOL     OW11584   4.534   1.254   3.426
 3562SOL    HW111585   4.609   1.207   3.473
 3562SOL    HW211586   4.448   1.209   3.448
 3563SOL     OW11587   5.766   1.096   0.400
 3563SOL    HW111588   5.692   1.106   0.466
 3563SOL    HW211589   5.794   1.000   0.395
 3564SOL     OW11590   2.015   4.536   3.613
 3564SOL    HW111591   1.926   4.582   3.614
 3564SOL    HW211592   2.082   4.593   3.661
 3565SOL     OW11593   2.723   5.909   5.138
 3565SOL    HW111594   2.686   5.841   5.202
 3565SOL    HW211595   2.823   5.898   5.134
 3566SOL     OW11596   6.788   3.752   6.090
 3566SOL    HW111597   6.701   3.735   6.136
 3566SOL    HW211598   6.863   3.745   6.155
 3567SOL     OW11599   0.619   3.065   0.160
 3567SOL    HW111600   0.546   3.091   0.097
 3567SOL    HW211601   0.648   3.146   0.212
 3568SOL     OW11602   4.708   5.023   4.122
 3568SOL    HW111603   4.683   4.959   4.193
 3568SOL    HW211604   4.798   5.063   4.142
 3569SOL     OW11605   2.040   1.780   5.913
 3569SOL    HW111606   2.076   1.870   5.890
 3569SOL    HW211607   2.080   1.749   5.999
 3570SOL     OW11608   5.494   0.742   5.233
 3570SOL    HW111609   5.568   0.676   5.238
 3570SOL    HW211610   5.528   0.827   5.193
 3571SOL     OW11611   1.032   5.965   5.142
 3571SOL    HW111612   0.963   5.893   5.148
 3571SOL    HW211613   1.058   5.994   5.234
 3572SOL     OW11614   5.907   3.003   2.808
 3572SOL    HW111615   5.815   2.969   2.792
 3572SOL    HW211616   5.907   3.064   2.886
 3573SOL     OW11617   6.388   4.457   3.151
 3573SOL    HW111618   6.423   4.548   3.174
 3573SOL    HW211619   6.314   4.432   3.213
 3574SOL     OW11620   0.472   2.767   0.734
 3574SOL    HW111621   0.426   2.680   0.754
 3574SOL    HW211622   0.530   2.792   0.812
 3575SOL     OW11623   5.431   5.601   2.602
 3575SOL    HW111624   5.339   5.614   2.566
 3575SOL    HW211625   5.426   5.571   2.697
 3576SOL     OW11626   0.641   2.106   6.547
 3576SOL    HW111627   0.615   2.171   6.619
 3576SOL    HW211628   0.724   2.057   6.575
 3577SOL     OW11629   1.677   2.747   7.008
 3577SOL    HW111630   1.613   2.749   6.931
 3577SOL    HW211631   1.630   2.712   0.059
 3578SOL     OW11632   4.034   1.358   0.528
 3578SOL    HW111633   4.024   1.332   0.624
 3578SOL    HW211634   4.109   1.305   0.487
 3579SOL     OW11635   6.705   2.441   2.941
 3579SOL    HW111636   6.665   2.507   3.004
 3579SOL    HW211637   6.802   2.431   2.960
 3580SOL     OW11638   6.264   3.191   1.129
 3580SOL    HW111639   6.271   3.268   1.065
 3580SOL    HW211640   6.343   3.131   1.117
 3581SOL     OW11641   0.929   5.218   3.377
 3581SOL    HW111642   0.921   5.228   3.278
 3581SOL    HW211643   0.925   5.309   3.420
 3582SOL     OW11644   1.232   3.468   6.576
 3582SOL    HW111645   1.167   3.392   6.584
 3582SOL    HW211646   1.219   3.530   6.653
 3583SOL     OW11647   1.352   4.746   6.920
 3583SOL    HW111648   1.337   4.757   6.822
 3583SOL    HW211649   1.419   4.673   6.936
 3584SOL     OW11650   5.946   4.624   5.832
 3584SOL    HW111651   5.864   4.615   5.776
 3584SOL    HW211652   6.027   4.614   5.775
 3585SOL     OW11653   2.748   2.105   4.469
 3585SOL    HW111654   2.781   2.196   4.494
 3585SOL    HW211655   2.700   2.065   4.547
 3586SOL     OW11656   6.137   1.625   4.763
 3586SOL    HW111657   6.108   1.692   4.831
 3586SOL    HW211658   6.076   1.629   4.684
 3587SOL     OW11659   1.877   4.635   5.995
 3587SOL    HW111660   1.824   4.716   6.018
 3587SOL    HW211661   1.911   4.643   5.901
 3588SOL     OW11662   0.617   3.400   5.180
 3588SOL    HW111663   0.692   3.464   5.196
 3588SOL    HW211664   0.532   3.440   5.214
 3589SOL     OW11665   5.654   0.719   5.654
 3589SOL    HW111666   5.673   0.813   5.683
 3589SOL    HW211667   5.738   0.676   5.622
 3590SOL     OW11668   0.265   3.495   0.508
 3590SOL    HW111669   0.361   3.470   0.504
 3590SOL    HW211670   0.209   3.412   0.512
 3591SOL     OW11671   5.559   3.781   0.097
 3591SOL    HW111672   5.569   3.766   0.195
 3591SOL    HW211673   5.505   3.707   0.057
 3592SOL     OW11674   0.804   6.120   2.479
 3592SOL    HW111675   0.807   6.048   2.410
 3592SOL    HW211676   0.769   6.204   2.438
 3593SOL     OW11677   1.031   5.114   5.466
 3593SOL    HW111678   0.985   5.191   5.510
 3593SOL    HW211679   1.094   5.149   5.396
 3594SOL     OW11680   4.756   6.850   3.649
 3594SOL    HW111681   4.699   6.857   3.568
 3594SOL    HW211682   4.720   6.909   3.721
 3595SOL     OW11683   4.798   6.395   6.191
 3595SOL    HW111684   4.814   6.478   6.139
 3595SOL    HW211685   4.701   6.388   6.214
 3596SOL     OW11686   5.262   3.356   2.397
 3596SOL    HW111687   5.205   3.367   2.316
 3596SOL    HW211688   5.287   3.260   2.408
 3597SOL     OW11689   1.838   1.892   5.516
 3597SOL    HW111690   1.777   1.936   5.451
 3597SOL    HW211691   1.927   1.876   5.473
 3598SOL     OW11692   1.221   6.644   5.813
 3598SOL    HW111693   1.196   6.593   5.895
 3598SOL    HW211694   1.252   6.581   5.743
 3599SOL     OW11695   4.985   2.037   0.075
 3599SOL    HW111696   4.907   2.089   0.110
 3599SOL    HW211697   4.960   1.992   7.020
 3600SOL     OW11698   1.078   2.852   2.181
 3600SOL    HW111699   1.094   2.864   2.082
 3600SOL    HW211700   1.166   2.850   2.228
 3601SOL     OW11701   4.962   3.101   5.848
 3601SOL    HW111702   4.908   3.166   5.796
 3601SOL    HW211703   5.054   3.137   5.861
 3602SOL     OW11704   0.972   4.143   0.483
 3602SOL    HW111705   0.934   4.116   0.394
 3602SOL    HW211706   1.057   4.194   0.469
 3603SOL     OW11707   3.772   1.132   4.352
 3603SOL    HW111708   3.828   1.214   4.345
 3603SOL    HW211709   3.675   1.156   4.343
 3604SOL     OW11710   6.807   6.138   3.219
 3604SOL    HW111711   6.780   6.192   3.299
 3604SOL    HW211712   6.835   6.200   3.145
 3605SOL     OW11713   0.246   4.607   3.964
 3605SOL    HW111714   0.311   4.531   3.967
 3605SOL    HW211715   0.165   4.581   3.911
 3606SOL     OW11716   0.566   0.222   4.389
 3606SOL    HW111717   0.470   0.196   4.395
 3606SOL    HW211718   0.583   0.262   4.299
 3607SOL     OW11719   5.271   5.200   1.962
 3607SOL    HW111720   5.226   5.289   1.964
 3607SOL    HW211721   5.369   5.212   1.974
 3608SOL     OW11722   4.648   2.310   4.493
 3608SOL    HW111723   4.562   2.259   4.501
 3608SOL    HW211724   4.719   2.250   4.456
 3609SOL     OW11725   1.702   0.373   4.086
 3609SOL    HW111726   1.705   0.289   4.031
 3609SOL    HW211727   1.721   0.350   4.181
 3610SOL     OW11728   1.686   0.219   6.205
 3610SOL    HW111729   1.781   0.248   6.198
 3610SOL    HW211730   1.664   0.157   6.129
 3611SOL     OW11731   4.649   4.814   4.315
 3611SOL    HW111732   4.619   4.869   4.393
 3611SOL    HW211733   4.726   4.756   4.343
 3612SOL     OW11734   0.565   0.434   6.841
 3612SOL    HW111735   0.645   0.404   6.789
 3612SOL    HW211736   0.595   0.492   6.917
 3613SOL     OW11737   4.840   4.585   2.240
 3613SOL    HW111738   4.790   4.503   2.210
 3613SOL    HW211739   4.815   4.607   2.334
 3614SOL     OW11740   3.417   3.815   0.652
 3614SOL    HW111741   3.468   3.875   0.592
 3614SOL    HW211742   3.406   3.858   0.742
 3615SOL     OW11743   5.185   3.234   5.834
 3615SOL    HW111744   5.158   3.317   5.882
 3615SOL    HW211745   5.285   3.228   5.831
 3616SOL     OW11746   0.694   1.192   6.592
 3616SOL    HW111747   0.672   1.109   6.541
 3616SOL    HW211748   0.793   1.209   6.588
 3617SOL     OW11749   4.563   0.601   6.887
 3617SOL    HW111750   4.649   0.561   6.857
 3617SOL    HW211751   4.581   0.677   6.948
 3618SOL     OW11752   2.398   3.247   5.311
 3618SOL    HW111753   2.445   3.168   5.272
 3618SOL    HW211754   2.333   3.216   5.381
 3619SOL     OW11755   6.056   2.584   5.315
 3619SOL    HW111756   6.006   2.666   5.286
 3619SOL    HW211757   5.991   2.510   5.334
 3620SOL     OW11758   6.208   5.416   5.498
 3620SOL    HW111759   6.254   5.347   5.555
 3620SOL    HW211760   6.190   5.498   5.553
 3621SOL     OW11761   3.381   2.864   4.949
 3621SOL    HW111762   3.354   2.773   4.916
 3621SOL    HW211763   3.432   2.911   4.877
 3622SOL     OW11764   1.335   1.674   7.013
 3622SOL    HW111765   1.369   1.768   7.012
 3622SOL    HW211766   1.287   1.657   0.068
 3623SOL     OW11767   6.551   6.234   4.222
 3623SOL    HW111768   6.626   6.179   4.187
 3623SOL    HW211769   6.561   6.246   4.321
 3624SOL     OW11770   1.838   0.121   2.529
 3624SOL    HW111771   1.790   0.140   2.615
 3624SOL    HW211772   1.773   0.126   2.453
 3625SOL     OW11773   0.446   3.471   6.376
 3625SOL    HW111774   0.379   3.482   6.302
 3625SOL    HW211775   0.447   3.375   6.405
 3626SOL     OW11776   1.031   2.949   5.695
 3626SOL    HW111777   1.090   2.875   5.662
 3626SOL    HW211778   1.014   3.014   5.621
 3627SOL     OW11779   3.974   3.260   1.537
 3627SOL    HW111780   3.964   3.338   1.476
 3627SOL    HW211781   4.068   3.256   1.572
 3628SOL     OW11782   1.068   1.505   2.073
 3628SOL    HW111783   1.136   1.568   2.111
 3628SOL    HW211784   1.091   1.485   1.978
 3629SOL     OW11785   0.697   1.178   5.604
 3629SOL    HW111786   0.726   1.206   5.696
 3629SOL    HW211787   0.620   1.234   5.575
 3630SOL     OW11788   5.532   2.445   3.871
 3630SOL    HW111789   5.620   2.407   3.843
 3630SOL    HW211790   5.461   2.413   3.808
 3631SOL     OW11791   2.027   0.710   2.845
 3631SOL    HW111792   1.955   0.726   2.778
 3631SOL    HW211793   2.105   0.667   2.800
 3632SOL     OW11794   5.568   5.169   1.194
 3632SOL    HW111795   5.470   5.155   1.206
 3632SOL    HW211796   5.591   5.158   1.097
 3633SOL     OW11797   3.968   2.138   6.006
 3633SOL    HW111798   3.990   2.221   5.954
 3633SOL    HW211799   3.925   2.164   6.092
 3634SOL     OW11800   1.876   5.697   6.133
 3634SOL    HW111801   1.935   5.776   6.115
 3634SOL    HW211802   1.792   5.706   6.079
 3635SOL     OW11803   2.940   0.205   1.199
 3635SOL    HW111804   3.027   0.185   1.245
 3635SOL    HW211805   2.913   0.299   1.217
 3636SOL     OW11806   6.431   5.763   0.390
 3636SOL    HW111807   6.402   5.857   0.376
 3636SOL    HW211808   6.531   5.757   0.383
 3637SOL     OW11809   0.220   2.260   2.120
 3637SOL    HW111810   0.154   2.320   2.075
 3637SOL    HW211811   0.311   2.300   2.115
 3638SOL     OW11812   6.888   4.218   2.926
 3638SOL    HW111813   6.803   4.176   2.958
 3638SOL    HW211814   6.957   4.212   2.998
 3639SOL     OW11815   4.443   4.767   0.526
 3639SOL    HW111816   4.433   4.715   0.441
 3639SOL    HW211817   4.440   4.704   0.604
 3640SOL     OW11818   4.733   1.340   0.579
 3640SOL    HW111819   4.689   1.422   0.542
 3640SOL    HW211820   4.829   1.359   0.596
 3641SOL     OW11821   6.303   3.450   1.940
 3641SOL    HW111822   6.211   3.477   1.967
 3641SOL    HW211823   6.358   3.431   2.021
 3642SOL     OW11824   4.613   2.131   6.913
 3642SOL    HW111825   4.684   2.165   6.974
 3642SOL    HW211826   4.523   2.154   6.950
 3643SOL     OW11827   3.224   5.887   4.558
 3643SOL    HW111828   3.282   5.875   4.639
 3643SOL    HW211829   3.255   5.966   4.506
 3644SOL     OW11830   2.281   1.462   1.869
 3644SOL    HW111831   2.200   1.515   1.845
 3644SOL    HW211832   2.343   1.458   1.790
 3645SOL     OW11833   1.737   2.616   4.040
 3645SOL    HW111834   1.806   2.656   3.980
 3645SOL    HW211835   1.768   2.527   4.073
 3646SOL     OW11836   1.296   3.887   5.700
 3646SOL    HW111837   1.378   3.849   5.657
 3646SOL    HW211838   1.279   3.979   5.665
 3647SOL     OW11839   2.575   5.645   6.948
 3647SOL    HW111840   2.514   5.701   7.004
 3647SOL    HW211841   2.528   5.561   6.920
 3648SOL     OW11842   4.695   6.092   3.719
 3648SOL    HW111843   4.714   6.162   3.651
 3648SOL    HW211844   4.718   6.002   3.682
 3649SOL     OW11845   6.348   3.062   0.668
 3649SOL    HW111846   6.401   2.994   0.618
 3649SOL    HW211847   6.366   3.153   0.630
 3650SOL     OW11848   6.256   5.268   1.875
 3650SOL    HW111849   6.353   5.275   1.850
 3650SOL    HW211850   6.210   5.355   1.856
 3651SOL     OW11851   1.655   0.307   4.619
 3651SOL    HW111852   1.644   0.236   4.688
 3651SOL    HW211853   1.630   0.395   4.658
 3652SOL     OW11854   6.278   6.988   3.526
 3652SOL    HW111855   6.311   6.982   3.620
 3652SOL    HW211856   6.293   6.901   3.480
 3653SOL     OW11857   1.565   1.355   3.068
 3653SOL    HW111858   1.634   1.426   3.052
 3653SOL    HW211859   1.593   1.297   3.144
 3654SOL     OW11860   3.983   4.661   0.538
 3654SOL    HW111861   3.967   4.756   0.564
 3654SOL    HW211862   3.896   4.612   0.534
 3655SOL     OW11863   3.325   1.072   4.259
 3655SOL    HW111864   3.378   0.988   4.243
 3655SOL    HW211865   3.280   1.100   4.175
 3656SOL     OW11866   0.283   5.380   1.378
 3656SOL    HW111867   0.383   5.376   1.377
 3656SOL    HW211868   0.248   5.374   1.285
 3657SOL     OW11869   5.083   5.765   4.850
 3657SOL    HW111870   5.166   5.730   4.807
 3657SOL    HW211871   5.003   5.723   4.807
 3658SOL     OW11872   2.695   4.818   6.563
 3658SOL    HW111873   2.609   4.769   6.576
 3658SOL    HW211874   2.771   4.752   6.569
 3659SOL     OW11875   1.751   2.616   5.752
 3659SOL    HW111876   1.799   2.679   5.691
 3659SOL    HW211877   1.670   2.581   5.706
 3660SOL     OW11878   6.119   6.352   4.404
 3660SOL    HW111879   6.178   6.426   4.374
 3660SOL    HW211880   6.162   6.264   4.383
 3661SOL     OW11881   6.989   0.891   5.133
 3661SOL    HW111882   0.023   0.846   5.195
 3661SOL    HW211883   6.896   0.862   5.156
 3662SOL     OW11884   4.047   0.639   4.868
 3662SOL    HW111885   4.042   0.551   4.822
 3662SOL    HW211886   4.143   0.663   4.884
 3663SOL     OW11887   1.679   2.917   0.223
 3663SOL    HW111888   1.588   2.937   0.260
 3663SOL    HW211889   1.671   2.882   0.130
 3664SOL     OW11890   4.538   2.288   1.972
 3664SOL    HW111891   4.605   2.355   1.940
 3664SOL    HW211892   4.478   2.332   2.039
 3665SOL     OW11893   0.830   6.355   5.005
 3665SOL    HW111894   0.805   6.269   4.960
 3665SOL    HW211895   0.751   6.417   5.005
 3666SOL     OW11896   0.984   4.012   2.971
 3666SOL    HW111897   0.978   4.103   3.011
 3666SOL    HW211898   0.927   3.949   3.023
 3667SOL     OW11899   0.095   1.418   3.668
 3667SOL    HW111900   0.032   1.467   3.728
 3667SOL    HW211901   0.060   1.420   3.574
 3668SOL     OW11902   1.074   0.667   1.348
 3668SOL    HW111903   1.157   0.723   1.356
 3668SOL    HW211904   1.084   0.585   1.405
 3669SOL     OW11905   5.947   1.617   3.546
 3669SOL    HW111906   6.021   1.631   3.479
 3669SOL    HW211907   5.942   1.697   3.606
 3670SOL     OW11908   2.684   5.235   0.047
 3670SOL    HW111909   2.732   5.153   0.081
 3670SOL    HW211910   2.689   5.236   6.978
 3671SOL     OW11911   0.178   2.214   4.059
 3671SOL    HW111912   0.087   2.197   4.097
 3671SOL    HW211913   0.246   2.208   4.132
 3672SOL     OW11914   4.573   2.288   2.843
 3672SOL    HW111915   4.554   2.215   2.777
 3672SOL    HW211916   4.494   2.301   2.903
 3673SOL     OW11917   3.839   5.745   6.733
 3673SOL    HW111918   3.800   5.756   6.825
 3673SOL    HW211919   3.817   5.654   6.699
 3674SOL     OW11920   1.680   6.121   6.094
 3674SOL    HW111921   1.675   6.220   6.082
 3674SOL    HW211922   1.720   6.080   6.013
 3675SOL     OW11923   1.553   2.565   3.846
 3675SOL    HW111924   1.479   2.509   3.883
 3675SOL    HW211925   1.614   2.593   3.920
 3676SOL     OW11926   5.859   3.848   2.271
 3676SOL    HW111927   5.844   3.867   2.368
 3676SOL    HW211928   5.957   3.841   2.254
 3677SOL     OW11929   3.182   0.133   4.144
 3677SOL    HW111930   3.121   0.063   4.181
 3677SOL    HW211931   3.140   0.223   4.156
 3678SOL     OW11932   1.547   0.814   4.361
 3678SOL    HW111933   1.518   0.817   4.265
 3678SOL    HW211934   1.476   0.857   4.418
 3679SOL     OW11935   7.024   0.504   3.428
 3679SOL    HW111936   6.929   0.495   3.461
 3679SOL    HW211937   0.034   0.586   3.468
 3680SOL     OW11938   5.001   2.696   4.499
 3680SOL    HW111939   4.926   2.681   4.563
 3680SOL    HW211940   5.006   2.793   4.475
 3681SOL     OW11941   0.945   1.280   6.576
 3681SOL    HW111942   1.027   1.268   6.520
 3681SOL    HW211943   0.957   1.357   6.638
 3682SOL     OW11944   5.562   2.352   0.112
 3682SOL    HW111945   5.537   2.328   0.206
 3682SOL    HW211946   5.608   2.275   0.069
 3683SOL     OW11947   6.878   0.777   3.882
 3683SOL    HW111948   6.965   0.826   3.874
 3683SOL    HW211949   6.818   0.804   3.807
 3684SOL     OW11950   1.014   5.705   6.967
 3684SOL    HW111951   1.035   5.639   0.009
 3684SOL    HW211952   1.038   5.665   6.878
 3685SOL     OW11953   2.058   5.842   5.984
 3685SOL    HW111954   2.103   5.926   5.952
 3685SOL    HW211955   2.121   5.765   5.974
 3686SOL     OW11956   6.043   5.456   4.289
 3686SOL    HW111957   6.101   5.515   4.346
 3686SOL    HW211958   6.096   5.425   4.210
 3687SOL     OW11959   4.720   6.526   4.281
 3687SOL    HW111960   4.682   6.593   4.218
 3687SOL    HW211961   4.819   6.541   4.290
 3688SOL     OW11962   6.658   3.571   6.932
 3688SOL    HW111963   6.645   3.669   6.944
 3688SOL    HW211964   6.571   3.529   6.906
 3689SOL     OW11965   1.979   0.800   5.615
 3689SOL    HW111966   1.958   0.895   5.637
 3689SOL    HW211967   1.963   0.783   5.518
 3690SOL     OW11968   4.288   5.726   0.534
 3690SOL    HW111969   4.235   5.710   0.618
 3690SOL    HW211970   4.236   5.785   0.472
 3691SOL     OW11971   2.760   1.701   0.052
 3691SOL    HW111972   2.716   1.745   0.130
 3691SOL    HW211973   2.787   1.770   7.015
 3692SOL     OW11974   6.659   5.064   5.831
 3692SOL    HW111975   6.643   5.163   5.836
 3692SOL    HW211976   6.719   5.044   5.754
 3693SOL     OW11977   2.067   1.942   3.107
 3693SOL    HW111978   2.097   1.851   3.137
 3693SOL    HW211979   2.083   1.951   3.008
 3694SOL     OW11980   1.819   6.832   2.429
 3694SOL    HW111981   1.816   6.917   2.376
 3694SOL    HW211982   1.789   6.756   2.372
 3695SOL     OW11983   5.492   2.128   1.372
 3695SOL    HW111984   5.479   2.225   1.390
 3695SOL    HW211985   5.588   2.104   1.387
 3696SOL     OW11986   4.340   0.133   4.660
 3696SOL    HW111987   4.261   0.145   4.599
 3696SOL    HW211988   4.393   0.054   4.630
 3697SOL     OW11989   6.856   5.972   2.784
 3697SOL    HW111990   6.870   6.061   2.828
 3697SOL    HW211991   6.808   5.984   2.697
 3698SOL     OW11992   2.143   0.604   3.643
 3698SOL    HW111993   2.066   0.626   3.582
 3698SOL    HW211994   2.224   0.654   3.614
 3699SOL     OW11995   1.988   1.109   3.592
 3699SOL    HW111996   1.959   1.184   3.533
 3699SOL    HW211997   1.961   1.022   3.552
 3700SOL     OW11998   1.728   4.638   4.976
 3700SOL    HW111999   1.752   4.680   4.888
 3700SOL    HW212000   1.782   4.680   5.048
 3701SOL     OW12001   0.959   6.751   3.511
 3701SOL    HW112002   1.035   6.804   3.549
 3701SOL    HW212003   0.939   6.783   3.418
 3702SOL     OW12004   5.164   6.343   3.257
 3702SOL    HW112005   5.263   6.349   3.269
 3702SOL    HW212006   5.119   6.410   3.317
 3703SOL     OW12007   0.388   0.534   6.617
 3703SOL    HW112008   0.470   0.490   6.578
 3703SOL    HW212009   0.409   0.571   6.707
 3704SOL     OW12010   4.327   2.197   1.645
 3704SOL    HW112011   4.337   2.097   1.646
 3704SOL    HW212012   4.405   2.238   1.693
 3705SOL     OW12013   5.707   4.347   4.386
 3705SOL    HW112014   5.664   4.302   4.308
 3705SOL    HW212015   5.801   4.371   4.364
 3706SOL     OW12016   0.523   4.093   6.782
 3706SOL    HW112017   0.425   4.106   6.795
 3706SOL    HW212018   0.543   3.996   6.771
 3707SOL     OW12019   4.559   5.607   4.407
 3707SOL    HW112020   4.614   5.686   4.378
 3707SOL    HW212021   4.535   5.617   4.503
 3708SOL     OW12022   4.454   6.620   1.251
 3708SOL    HW112023   4.397   6.628   1.169
 3708SOL    HW212024   4.396   6.604   1.330
 3709SOL     OW12025   2.837   0.317   1.545
 3709SOL    HW112026   2.835   0.230   1.497
 3709SOL    HW212027   2.924   0.326   1.594
 3710SOL     OW12028   0.304   5.168   4.645
 3710SOL    HW112029   0.349   5.186   4.732
 3710SOL    HW212030   0.236   5.096   4.657
 3711SOL     OW12031   1.614   5.819   5.285
 3711SOL    HW112032   1.567   5.902   5.317
 3711SOL    HW212033   1.653   5.771   5.364
 3712SOL     OW12034   1.307   5.901   0.018
 3712SOL    HW112035   1.353   5.978   0.062
 3712SOL    HW212036   1.226   5.933   7.000
 3713SOL     OW12037   0.504   6.887   5.264
 3713SOL    HW112038   0.514   6.976   5.218
 3713SOL    HW212039   0.520   6.898   5.362
 3714SOL     OW12040   5.454   5.705   6.831
 3714SOL    HW112041   5.465   5.619   6.882
 3714SOL    HW212042   5.543   5.748   6.818
 3715SOL     OW12043   1.076   4.637   2.238
 3715SOL    HW112044   1.076   4.652   2.139
 3715SOL    HW212045   1.141   4.700   2.280
 3716SOL     OW12046   6.000   6.285   4.874
 3716SOL    HW112047   5.972   6.286   4.778
 3716SOL    HW212048   5.923   6.259   4.931
 3717SOL     OW12049   5.207   0.778   0.509
 3717SOL    HW112050   5.119   0.756   0.550
 3717SOL    HW212051   5.270   0.702   0.520
 3718SOL     OW12052   6.878   0.126   6.909
 3718SOL    HW112053   6.854   0.040   6.864
 3718SOL    HW212054   6.941   0.108   6.985
 3719SOL     OW12055   4.284   2.608   6.836
 3719SOL    HW112056   4.288   2.624   6.934
 3719SOL    HW212057   4.377   2.602   6.799
 3720SOL     OW12058   5.607   3.375   0.728
 3720SOL    HW112059   5.651   3.332   0.649
 3720SOL    HW212060   5.662   3.452   0.759
 3721SOL     OW12061   0.123   4.568   1.023
 3721SOL    HW112062   0.166   4.482   0.996
 3721SOL    HW212063   0.194   4.638   1.036
 3722SOL     OW12064   5.693   6.401   1.569
 3722SOL    HW112065   5.787   6.376   1.547
 3722SOL    HW212066   5.635   6.387   1.488
 3723SOL     OW12067   4.452   5.058   0.640
 3723SOL    HW112068   4.405   4.986   0.691
 3723SOL    HW212069   4.384   5.122   0.604
 3724SOL     OW12070   1.585   4.177   5.571
 3724SOL    HW112071   1.529   4.110   5.522
 3724SOL    HW212072   1.569   4.268   5.532
 3725SOL     OW12073   0.489   5.948   6.763
 3725SOL    HW112074   0.537   6.012   6.703
 3725SOL    HW212075   0.548   5.869   6.781
 3726SOL     OW12076   5.606   3.598   5.810
 3726SOL    HW112077   5.680   3.541   5.845
 3726SOL    HW212078   5.605   3.686   5.857
 3727SOL     OW12079   6.732   2.833   5.472
 3727SOL    HW112080   6.786   2.787   5.402
 3727SOL    HW212081   6.724   2.774   5.552
 3728SOL     OW12082   1.655   3.407   6.664
 3728SOL    HW112083   1.577   3.379   6.720
 3728SOL    HW212084   1.683   3.332   6.605
 3729SOL     OW12085   1.425   1.767   3.999
 3729SOL    HW112086   1.446   1.709   4.078
 3729SOL    HW212087   1.375   1.848   4.029
 3730SOL     OW12088   3.529   6.068   5.658
 3730SOL    HW112089   3.502   6.069   5.562
 3730SOL    HW212090   3.476   6.137   5.708
 3731SOL     OW12091   0.475   1.234   0.404
 3731SOL    HW112092   0.468   1.246   0.305
 3731SOL    HW212093   0.421   1.154   0.432
 3732SOL     OW12094   2.642   1.893   0.256
 3732SOL    HW112095   2.567   1.957   0.273
 3732SOL    HW212096   2.708   1.898   0.330
 3733SOL     OW12097   2.367   2.093   3.475
 3733SOL    HW112098   2.412   2.009   3.445
 3733SOL    HW212099   2.269   2.088   3.457
 3734SOL     OW12100   4.375   0.267   0.974
 3734SOL    HW112101   4.278   0.287   0.961
 3734SOL    HW212102   4.404   0.301   1.064
 3735SOL     OW12103   3.191   0.706   2.988
 3735SOL    HW112104   3.198   0.761   2.904
 3735SOL    HW212105   3.199   0.766   3.068
 3736SOL     OW12106   6.844   1.636   1.069
 3736SOL    HW112107   6.905   1.640   1.148
 3736SOL    HW212108   6.888   1.584   0.995
 3737SOL     OW12109   6.147   1.321   3.521
 3737SOL    HW112110   6.059   1.314   3.566
 3737SOL    HW212111   6.213   1.260   3.566
 3738SOL     OW12112   6.161   0.338   1.451
 3738SOL    HW112113   6.190   0.399   1.524
 3738SOL    HW212114   6.206   0.249   1.461
 3739SOL     OW12115   2.183   4.621   1.503
 3739SOL    HW112116   2.273   4.580   1.523
 3739SOL    HW212117   2.167   4.619   1.405
 3740SOL     OW12118   6.332   6.005   0.323
 3740SOL    HW112119   6.391   6.046   0.392
 3740SOL    HW212120   6.237   6.031   0.341
 3741SOL     OW12121   5.100   2.667   6.595
 3741SOL    HW112122   5.125   2.734   6.525
 3741SOL    HW212123   5.163   2.590   6.591
 3742SOL     OW12124   4.106   0.005   0.587
 3742SOL    HW112125   4.024   6.979   0.584
 3742SOL    HW212126   4.187   6.977   0.585
 3743SOL     OW12127   5.352   3.366   1.462
 3743SOL    HW112128   5.387   3.350   1.370
 3743SOL    HW212129   5.252   3.378   1.459
 3744SOL     OW12130   1.084   5.769   1.861
 3744SOL    HW112131   1.121   5.691   1.909
 3744SOL    HW212132   1.099   5.852   1.914
 3745SOL     OW12133   5.321   4.142   3.162
 3745SOL    HW112134   5.222   4.136   3.175
 3745SOL    HW212135   5.364   4.176   3.246
 3746SOL     OW12136   6.564   0.513   3.909
 3746SOL    HW112137   6.513   0.473   3.833
 3746SOL    HW212138   6.563   0.451   3.987
 3747SOL     OW12139   4.171   5.911   5.281
 3747SOL    HW112140   4.126   6.000   5.281
 3747SOL    HW212141   4.195   5.885   5.188
 3748SOL     OW12142   5.066   1.124   1.619
 3748SOL    HW112143   5.048   1.220   1.638
 3748SOL    HW212144   5.132   1.117   1.544
 3749SOL     OW12145   2.553   4.889   2.983
 3749SOL    HW112146   2.555   4.989   2.978
 3749SOL    HW212147   2.464   4.857   2.950
 3750SOL     OW12148   6.234   4.610   0.761
 3750SOL    HW112149   6.280   4.646   0.842
 3750SOL    HW212150   6.206   4.516   0.777
 3751SOL     OW12151   6.423   3.293   0.579
 3751SOL    HW112152   6.425   3.330   0.672
 3751SOL    HW212153   6.432   3.368   0.513
 3752SOL     OW12154   0.459   6.838   0.425
 3752SOL    HW112155   0.542   6.875   0.466
 3752SOL    HW212156   0.379   6.880   0.468
 3753SOL     OW12157   6.831   1.116   4.193
 3753SOL    HW112158   6.810   1.031   4.242
 3753SOL    HW212159   6.899   1.168   4.245
 3754SOL     OW12160   4.020   6.357   1.237
 3754SOL    HW112161   3.948   6.292   1.211
 3754SOL    HW212162   4.045   6.342   1.332
 3755SOL     OW12163   5.947   5.952   4.302
 3755SOL    HW112164   5.897   6.024   4.254
 3755SOL    HW212165   5.971   5.879   4.238
 3756SOL     OW12166   1.949   6.527   5.782
 3756SOL    HW112167   2.033   6.484   5.814
 3756SOL    HW212168   1.945   6.621   5.814
 3757SOL     OW12169   3.595   6.729   6.810
 3757SOL    HW112170   3.653   6.722   6.891
 3757SOL    HW212171   3.557   6.639   6.788
 3758SOL     OW12172   1.940   1.226   4.480
 3758SOL    HW112173   2.021   1.169   4.488
 3758SOL    HW212174   1.893   1.206   4.394
 3759SOL     OW12175   4.915   5.584   6.278
 3759SOL    HW112176   4.914   5.663   6.340
 3759SOL    HW212177   4.911   5.500   6.332
 3760SOL     OW12178   1.719   2.777   4.274
 3760SOL    HW112179   1.816   2.801   4.282
 3760SOL    HW212180   1.703   2.736   4.185
 3761SOL     OW12181   0.671   0.294   5.443
 3761SOL    HW112182   0.738   0.224   5.418
 3761SOL    HW212183   0.710   0.384   5.430
 3762SOL     OW12184   0.461   5.180   6.963
 3762SOL    HW112185   0.427   5.205   6.872
 3762SOL    HW212186   0.385   5.178   7.028
 3763SOL     OW12187   6.728   4.711   6.891
 3763SOL    HW112188   6.790   4.731   6.815
 3763SOL    HW212189   6.675   4.794   6.913
 3764SOL     OW12190   1.567   0.117   3.431
 3764SOL    HW112191   1.546   0.206   3.393
 3764SOL    HW212192   1.614   0.129   3.519
 3765SOL     OW12193   4.944   1.586   0.953
 3765SOL    HW112194   5.005   1.628   1.021
 3765SOL    HW212195   4.883   1.656   0.916
 3766SOL     OW12196   0.842   1.117   3.944
 3766SOL    HW112197   0.916   1.184   3.954
 3766SOL    HW212198   0.756   1.159   3.971
 3767SOL     OW12199   2.406   5.240   0.049
 3767SOL    HW112200   2.371   5.333   0.056
 3767SOL    HW212201   2.504   5.239   0.071
 3768SOL     OW12202   2.287   5.982   5.311
 3768SOL    HW112203   2.293   5.891   5.270
 3768SOL    HW212204   2.317   6.051   5.245
 3769SOL     OW12205   5.533   5.871   5.350
 3769SOL    HW112206   5.575   5.862   5.440
 3769SOL    HW212207   5.492   5.962   5.341
 3770SOL     OW12208   1.838   6.677   7.023
 3770SOL    HW112209   1.828   6.647   0.088
 3770SOL    HW212210   1.929   6.716   7.010
 3771SOL     OW12211   6.520   3.109   6.706
 3771SOL    HW112212   6.422   3.093   6.714
 3771SOL    HW212213   6.547   3.101   6.610
 3772SOL     OW12214   0.203   0.768   0.297
 3772SOL    HW112215   0.232   0.726   0.383
 3772SOL    HW212216   0.139   0.707   0.250
 3773SOL     OW12217   6.525   3.054   6.443
 3773SOL    HW112218   6.451   3.119   6.427
 3773SOL    HW212219   6.568   3.030   6.356
 3774SOL     OW12220   0.553   5.935   0.278
 3774SOL    HW112221   0.519   5.845   0.253
 3774SOL    HW212222   0.539   5.998   0.201
 3775SOL     OW12223   5.011   4.879   2.283
 3775SOL    HW112224   4.963   4.932   2.354
 3775SOL    HW212225   5.088   4.932   2.248
 3776SOL     OW12226   4.161   1.016   0.693
 3776SOL    HW112227   4.234   1.024   0.761
 3776SOL    HW212228   4.151   0.920   0.667
 3777SOL     OW12229   3.274   4.937   4.864
 3777SOL    HW112230   3.213   4.892   4.930
 3777SOL    HW212231   3.368   4.911   4.883
 3778SOL     OW12232   3.040   4.939   3.018
 3778SOL    HW112233   3.117   4.918   2.957
 3778SOL    HW212234   2.993   5.021   2.985
 3779SOL     OW12235   2.140   4.840   0.918
 3779SOL    HW112236   2.212   4.774   0.939
 3779SOL    HW212237   2.145   4.916   0.982
 3780SOL     OW12238   4.753   5.530   6.003
 3780SOL    HW112239   4.747   5.627   5.982
 3780SOL    HW212240   4.822   5.515   6.073
 3781SOL     OW12241   1.675   0.267   4.356
 3781SOL    HW112242   1.775   0.263   4.348
 3781SOL    HW212243   1.649   0.278   4.452
 3782SOL     OW12244   2.709   1.182   4.457
 3782SOL    HW112245   2.716   1.242   4.378
 3782SOL    HW212246   2.760   1.098   4.440
 3783SOL     OW12247   5.677   6.226   4.407
 3783SOL    HW112248   5.690   6.138   4.454
 3783SOL    HW212249   5.743   6.234   4.333
 3784SOL     OW12250   5.376   2.760   3.081
 3784SOL    HW112251   5.382   2.675   3.030
 3784SOL    HW212252   5.281   2.787   3.090
 3785SOL     OW12253   1.234   1.257   6.969
 3785SOL    HW112254   1.301   1.327   6.992
 3785SOL    HW212255   1.142   1.293   6.984
 3786SOL     OW12256   2.373   6.879   2.877
 3786SOL    HW112257   2.347   6.955   2.936
 3786SOL    HW212258   2.458   6.901   2.830
 3787SOL     OW12259   5.830   6.792   3.073
 3787SOL    HW112260   5.845   6.800   2.974
 3787SOL    HW212261   5.918   6.799   3.121
 3788SOL     OW12262   0.855   3.931   4.346
 3788SOL    HW112263   0.905   3.982   4.276
 3788SOL    HW212264   0.845   3.836   4.317
 3789SOL     OW12265   0.340   3.403   4.609
 3789SOL    HW112266   0.258   3.394   4.552
 3789SOL    HW212267   0.373   3.497   4.605
 3790SOL     OW12268   1.863   4.204   5.510
 3790SOL    HW112269   1.768   4.185   5.532
 3790SOL    HW212270   1.871   4.296   5.471
 3791SOL     OW12271   6.219   0.076   0.225
 3791SOL    HW112272   6.202   7.015   0.186
 3791SOL    HW212273   6.185   0.077   0.319
 3792SOL     OW12274   0.186   0.960   4.123
 3792SOL    HW112275   0.117   0.964   4.050
 3792SOL    HW212276   0.239   0.875   4.114
 3793SOL     OW12277   3.939   0.435   2.659
 3793SOL    HW112278   3.989   0.348   2.662
 3793SOL    HW212279   3.861   0.431   2.722
 3794SOL     OW12280   2.092   4.188   1.340
 3794SOL    HW112281   2.029   4.264   1.355
 3794SOL    HW212282   2.058   4.131   1.265
 3795SOL     OW12283   3.817   6.481   6.576
 3795SOL    HW112284   3.770   6.428   6.646
 3795SOL    HW212285   3.884   6.542   6.619
 3796SOL     OW12286   3.003   1.885   1.172
 3796SOL    HW112287   2.986   1.790   1.199
 3796SOL    HW212288   3.040   1.887   1.079
 3797SOL     OW12289   6.217   4.303   2.910
 3797SOL    HW112290   6.164   4.224   2.879
 3797SOL    HW212291   6.256   4.350   2.830
 3798SOL     OW12292   3.826   6.043   2.844
 3798SOL    HW112293   3.842   6.095   2.928
 3798SOL    HW212294   3.815   6.107   2.768
 3799SOL     OW12295   0.330   2.557   4.008
 3799SOL    HW112296   0.310   2.641   3.958
 3799SOL    HW212297   0.301   2.478   3.953
 3800SOL     OW12298   5.292   3.399   4.330
 3800SOL    HW112299   5.250   3.482   4.292
 3800SOL    HW212300   5.317   3.415   4.425
 3801SOL     OW12301   6.289   6.080   3.159
 3801SOL    HW112302   6.357   6.098   3.088
 3801SOL    HW212303   6.319   6.123   3.245
 3802SOL     OW12304   1.085   2.611   3.261
 3802SOL    HW112305   1.099   2.610   3.360
 3802SOL    HW212306   1.173   2.625   3.215
 3803SOL     OW12307   3.852   2.212   1.162
 3803SOL    HW112308   3.772   2.272   1.166
 3803SOL    HW212309   3.832   2.128   1.213
 3804SOL     OW12310   5.075   2.231   3.411
 3804SOL    HW112311   5.095   2.134   3.419
 3804SOL    HW212312   5.090   2.275   3.500
 3805SOL     OW12313   3.057   3.499   2.000
 3805SOL    HW112314   3.041   3.598   1.993
 3805SOL    HW212315   2.978   3.449   1.966
 3806SOL     OW12316   3.479   3.756   0.070
 3806SOL    HW112317   3.448   3.834   0.015
 3806SOL    HW212318   3.579   3.755   0.072
 3807SOL     OW12319   2.622   6.560   3.712
 3807SOL    HW112320   2.526   6.579   3.694
 3807SOL    HW212321   2.649   6.476   3.665
 3808SOL     OW12322   4.107   0.384   0.986
 3808SOL    HW112323   4.034   0.367   0.920
 3808SOL    HW212324   4.098   0.477   1.022
 3809SOL     OW12325   5.976   2.826   0.645
 3809SOL    HW112326   6.035   2.890   0.596
 3809SOL    HW212327   5.971   2.851   0.741
 3810SOL     OW12328   4.609   2.343   5.085
 3810SOL    HW112329   4.691   2.388   5.121
 3810SOL    HW212330   4.636   2.270   5.023
 3811SOL     OW12331   1.124   4.152   3.939
 3811SOL    HW112332   1.141   4.141   3.841
 3811SOL    HW212333   1.067   4.233   3.953
 3812SOL     OW12334   4.927   0.703   5.289
 3812SOL    HW112335   4.893   0.794   5.315
 3812SOL    HW212336   5.025   0.699   5.307
 3813SOL     OW12337   4.251   3.923   0.092
 3813SOL    HW112338   4.269   3.979   0.011
 3813SOL    HW212339   4.157   3.936   0.122
 3814SOL     OW12340   0.306   0.072   1.002
 3814SOL    HW112341   0.253   0.143   1.048
 3814SOL    HW212342   0.384   0.047   1.059
 3815SOL     OW12343   4.466   2.825   0.218
 3815SOL    HW112344   4.541   2.838   0.283
 3815SOL    HW212345   4.503   2.800   0.129
 3816SOL     OW12346   0.374   6.261   0.229
 3816SOL    HW112347   0.311   6.240   0.304
 3816SOL    HW212348   0.452   6.312   0.266
 3817SOL     OW12349   5.358   3.525   3.458
 3817SOL    HW112350   5.354   3.430   3.488
 3817SOL    HW212351   5.341   3.530   3.359
 3818SOL     OW12352   4.967   0.198   0.291
 3818SOL    HW112353   4.943   0.253   0.370
 3818SOL    HW212354   5.058   0.158   0.304
 3819SOL     OW12355   5.292   5.118   1.486
 3819SOL    HW112356   5.265   5.132   1.391
 3819SOL    HW212357   5.339   5.199   1.521
 3820SOL     OW12358   6.799   6.877   3.040
 3820SOL    HW112359   6.873   6.910   3.097
 3820SOL    HW212360   6.820   6.786   3.005
 3821SOL     OW12361   2.344   2.645   0.529
 3821SOL    HW112362   2.312   2.733   0.495
 3821SOL    HW212363   2.292   2.620   0.610
 3822SOL     OW12364   1.312   6.201   3.146
 3822SOL    HW112365   1.369   6.281   3.164
 3822SOL    HW212366   1.263   6.213   3.060
 3823SOL     OW12367   3.727   2.354   5.870
 3823SOL    HW112368   3.672   2.272   5.857
 3823SOL    HW212369   3.700   2.424   5.804
 3824SOL     OW12370   5.618   1.846   6.784
 3824SOL    HW112371   5.671   1.887   6.858
 3824SOL    HW212372   5.649   1.883   6.697
 3825SOL     OW12373   0.379   6.895   0.714
 3825SOL    HW112374   0.387   6.796   0.709
 3825SOL    HW212375   0.462   6.934   0.754
 3826SOL     OW12376   0.228   3.290   0.214
 3826SOL    HW112377   0.317   3.336   0.214
 3826SOL    HW212378   0.207   3.259   0.307
 3827SOL     OW12379   3.141   2.682   1.103
 3827SOL    HW112380   3.104   2.600   1.059
 3827SOL    HW212381   3.231   2.703   1.065
 3828SOL     OW12382   4.489   2.487   1.625
 3828SOL    HW112383   4.557   2.413   1.619
 3828SOL    HW212384   4.433   2.473   1.707
 3829SOL     OW12385   2.183   4.313   4.383
 3829SOL    HW112386   2.172   4.244   4.455
 3829SOL    HW212387   2.099   4.366   4.374
 3830SOL     OW12388   0.785   0.010   5.130
 3830SOL    HW112389   0.796   6.965   5.194
 3830SOL    HW212390   0.866   0.070   5.135
 3831SOL     OW12391   4.653   1.757   2.235
 3831SOL    HW112392   4.709   1.705   2.299
 3831SOL    HW212393   4.556   1.746   2.259
 3832SOL     OW12394   5.641   0.674   2.305
 3832SOL    HW112395   5.620   0.581   2.276
 3832SOL    HW212396   5.739   0.690   2.297
 3833SOL     OW12397   0.982   5.749   6.154
 3833SOL    HW112398   1.010   5.844   6.162
 3833SOL    HW212399   0.895   5.735   6.201
 3834SOL     OW12400   3.581   2.867   1.127
 3834SOL    HW112401   3.523   2.801   1.079
 3834SOL    HW212402   3.596   2.836   1.221
 3835SOL     OW12403   2.869   4.968   5.162
 3835SOL    HW112404   2.867   4.884   5.217
 3835SOL    HW212405   2.852   5.047   5.221
 3836SOL     OW12406   1.851   3.760   5.429
 3836SOL    HW112407   1.825   3.854   5.404
 3836SOL    HW212408   1.892   3.760   5.520
 3837SOL     OW12409   4.945   3.722   6.918
 3837SOL    HW112410   4.878   3.787   6.954
 3837SOL    HW212411   5.037   3.754   6.941
 3838SOL     OW12412   6.730   3.991   4.070
 3838SOL    HW112413   6.780   3.980   3.984
 3838SOL    HW212414   6.695   4.084   4.076
 3839SOL     OW12415   3.976   0.737   4.563
 3839SOL    HW112416   3.974   0.715   4.660
 3839SOL    HW212417   3.904   0.804   4.543
 3840SOL     OW12418   1.819   0.862   5.216
 3840SOL    HW112419   1.778   0.877   5.126
 3840SOL    HW212420   1.912   0.899   5.217
 3841SOL     OW12421   0.241   3.369   4.888
 3841SOL    HW112422   0.340   3.385   4.888
 3841SOL    HW212423   0.200   3.419   4.812
 3842SOL     OW12424   0.959   4.352   6.534
 3842SOL    HW112425   1.038   4.325   6.588
 3842SOL    HW212426   0.924   4.272   6.484
 3843SOL     OW12427   0.064   4.887   1.720
 3843SOL    HW112428   0.091   4.963   1.661
 3843SOL    HW212429   6.997   4.895   1.743
 3844SOL     OW12430   0.127   4.015   6.106
 3844SOL    HW112431   0.215   3.982   6.072
 3844SOL    HW212432   0.122   4.114   6.096
 3845SOL     OW12433   3.852   2.941   2.883
 3845SOL    HW112434   3.780   2.937   2.952
 3845SOL    HW212435   3.931   2.889   2.915
 3846SOL     OW12436   0.670   4.847   4.074
 3846SOL    HW112437   0.635   4.818   4.163
 3846SOL    HW212438   0.595   4.847   4.007
 3847SOL     OW12439   6.210   1.047   5.321
 3847SOL    HW112440   6.153   1.000   5.388
 3847SOL    HW212441   6.153   1.109   5.267
 3848SOL     OW12442   3.115   5.643   2.998
 3848SOL    HW112443   3.180   5.640   3.073
 3848SOL    HW212444   3.025   5.616   3.031
 3849SOL     OW12445   0.703   1.630   5.168
 3849SOL    HW112446   0.679   1.725   5.148
 3849SOL    HW212447   0.625   1.571   5.150
 3850SOL     OW12448   2.604   3.563   1.519
 3850SOL    HW112449   2.613   3.505   1.438
 3850SOL    HW212450   2.587   3.506   1.599
 3851SOL     OW12451   1.277   4.344   3.342
 3851SOL    HW112452   1.194   4.370   3.293
 3851SOL    HW212453   1.309   4.256   3.308
 3852SOL     OW12454   4.432   6.685   4.391
 3852SOL    HW112455   4.494   6.763   4.389
 3852SOL    HW212456   4.479   6.604   4.357
 3853SOL     OW12457   1.699   3.218   2.433
 3853SOL    HW112458   1.776   3.208   2.496
 3853SOL    HW212459   1.715   3.296   2.372
 3854SOL     OW12460   1.129   3.818   2.569
 3854SOL    HW112461   1.105   3.723   2.584
 3854SOL    HW212462   1.220   3.824   2.528
 3855SOL     OW12463   4.786   5.976   6.675
 3855SOL    HW112464   4.746   6.063   6.649
 3855SOL    HW212465   4.768   5.958   6.772
 3856SOL     OW12466   6.779   6.181   5.153
 3856SOL    HW112467   6.853   6.178   5.220
 3856SOL    HW212468   6.698   6.135   5.190
 3857SOL     OW12469   1.008   6.107   5.811
 3857SOL    HW112470   1.076   6.177   5.832
 3857SOL    HW212471   0.941   6.144   5.746
 3858SOL     OW12472   1.565   6.492   5.842
 3858SOL    HW112473   1.587   6.520   5.936
 3858SOL    HW212474   1.617   6.549   5.778
 3859SOL     OW12475   6.740   2.200   2.778
 3859SOL    HW112476   6.742   2.245   2.867
 3859SOL    HW212477   6.820   2.141   2.769
 3860SOL     OW12478   1.095   6.806   5.306
 3860SOL    HW112479   1.060   6.735   5.246
 3860SOL    HW212480   1.195   6.811   5.297
 3861SOL     OW12481   4.960   4.406   1.888
 3861SOL    HW112482   5.001   4.399   1.797
 3861SOL    HW212483   5.024   4.372   1.956
 3862SOL     OW12484   6.847   6.837   5.366
 3862SOL    HW112485   6.910   6.816   5.291
 3862SOL    HW212486   6.897   6.834   5.453
 3863SOL     OW12487   3.760   3.985   6.435
 3863SOL    HW112488   3.744   4.079   6.464
 3863SOL    HW212489   3.673   3.936   6.433
 3864SOL     OW12490   4.129   2.064   5.734
 3864SOL    HW112491   4.131   2.003   5.813
 3864SOL    HW212492   4.108   2.157   5.765
 3865SOL     OW12493   3.682   0.315   1.562
 3865SOL    HW112494   3.751   0.348   1.626
 3865SOL    HW212495   3.650   0.390   1.504
 3866SOL     OW12496   3.868   0.848   0.702
 3866SOL    HW112497   3.892   0.945   0.701
 3866SOL    HW212498   3.951   0.792   0.697
 3867SOL     OW12499   1.536   3.598   4.243
 3867SOL    HW112500   1.451   3.627   4.198
 3867SOL    HW212501   1.578   3.525   4.190
 3868SOL     OW12502   1.872   6.657   2.113
 3868SOL    HW112503   1.968   6.648   2.086
 3868SOL    HW212504   1.826   6.568   2.105
 3869SOL     OW12505   6.916   3.023   4.347
 3869SOL    HW112506   6.911   2.984   4.254
 3869SOL    HW212507   7.012   3.040   4.370
 3870SOL     OW12508   4.639   4.539   0.542
 3870SOL    HW112509   4.704   4.497   0.478
 3870SOL    HW212510   4.647   4.639   0.537
 3871SOL     OW12511   3.058   0.841   2.499
 3871SOL    HW112512   2.982   0.892   2.540
 3871SOL    HW212513   3.106   0.900   2.433
 3872SOL     OW12514   2.982   2.999   1.842
 3872SOL    HW112515   3.016   2.999   1.936
 3872SOL    HW212516   2.941   2.909   1.822
 3873SOL     OW12517   5.747   5.431   1.106
 3873SOL    HW112518   5.810   5.508   1.109
 3873SOL    HW212519   5.675   5.444   1.175
 3874SOL     OW12520   3.910   6.242   0.420
 3874SOL    HW112521   3.849   6.321   0.424
 3874SOL    HW212522   3.859   6.163   0.386
 3875SOL     OW12523   1.204   3.022   2.701
 3875SOL    HW112524   1.262   2.975   2.634
 3875SOL    HW212525   1.122   3.056   2.656
 3876SOL     OW12526   5.540   5.246   6.227
 3876SOL    HW112527   5.542   5.160   6.277
 3876SOL    HW212528   5.590   5.236   6.141
 3877SOL     OW12529   6.489   1.240   0.528
 3877SOL    HW112530   6.472   1.332   0.492
 3877SOL    HW212531   6.410   1.209   0.581
 3878SOL     OW12532   2.537   6.005   5.953
 3878SOL    HW112533   2.445   6.007   5.992
 3878SOL    HW212534   2.600   6.054   6.013
 3879SOL     OW12535   4.513   6.085   1.216
 3879SOL    HW112536   4.564   6.161   1.177
 3879SOL    HW212537   4.444   6.119   1.279
 3880SOL     OW12538   5.974   3.885   2.950
 3880SOL    HW112539   6.017   3.862   3.037
 3880SOL    HW212540   6.037   3.940   2.894
 3881SOL     OW12541   1.556   5.322   0.943
 3881SOL    HW112542   1.471   5.366   0.970
 3881SOL    HW212543   1.551   5.295   0.847
 3882SOL     OW12544   6.402   1.105   4.942
 3882SOL    HW112545   6.382   1.090   4.846
 3882SOL    HW212546   6.421   1.018   4.987
 3883SOL     OW12547   4.510   1.643   3.759
 3883SOL    HW112548   4.453   1.644   3.841
 3883SOL    HW212549   4.468   1.700   3.688
 3884SOL     OW12550   1.232   6.328   4.571
 3884SOL    HW112551   1.145   6.290   4.543
 3884SOL    HW212552   1.226   6.428   4.573
 3885SOL     OW12553   6.405   1.061   4.675
 3885SOL    HW112554   6.322   1.115   4.664
 3885SOL    HW212555   6.459   1.065   4.591
 3886SOL     OW12556   6.078   0.440   5.609
 3886SOL    HW112557   6.102   0.419   5.515
 3886SOL    HW212558   6.161   0.449   5.665
 3887SOL     OW12559   5.450   2.221   5.332
 3887SOL    HW112560   5.509   2.301   5.322
 3887SOL    HW212561   5.360   2.250   5.365
 3888SOL     OW12562   0.135   0.377   6.620
 3888SOL    HW112563   0.050   0.413   6.658
 3888SOL    HW212564   0.198   0.453   6.601
 3889SOL     OW12565   0.120   4.678   6.126
 3889SOL    HW112566   0.198   4.615   6.122
 3889SOL    HW212567   0.042   4.631   6.168
 3890SOL     OW12568   6.561   6.564   2.898
 3890SOL    HW112569   6.562   6.466   2.880
 3890SOL    HW212570   6.537   6.613   2.813
 3891SOL     OW12571   5.279   4.749   5.096
 3891SOL    HW112572   5.308   4.669   5.147
 3891SOL    HW212573   5.358   4.793   5.054
 3892SOL     OW12574   1.171   0.329   2.294
 3892SOL    HW112575   1.198   0.372   2.380
 3892SOL    HW212576   1.246   0.271   2.261
 3893SOL     OW12577   3.355   5.874   2.923
 3893SOL    HW112578   3.343   5.893   3.020
 3893SOL    HW212579   3.267   5.851   2.882
 3894SOL     OW12580   3.933   2.392   0.693
 3894SOL    HW112581   3.866   2.440   0.636
 3894SOL    HW212582   3.890   2.314   0.737
 3895SOL     OW12583   1.081   1.034   5.369
 3895SOL    HW112584   1.089   1.134   5.364
 3895SOL    HW212585   1.095   0.996   5.277
 3896SOL     OW12586   0.809   2.354   6.426
 3896SOL    HW112587   0.838   2.409   6.347
 3896SOL    HW212588   0.754   2.410   6.487
 3897SOL     OW12589   2.896   6.255   2.505
 3897SOL    HW112590   2.971   6.209   2.457
 3897SOL    HW212591   2.813   6.199   2.498
 3898SOL     OW12592   3.381   3.062   3.258
 3898SOL    HW112593   3.285   3.083   3.243
 3898SOL    HW212594   3.392   3.022   3.349
 3899SOL     OW12595   4.937   1.203   4.882
 3899SOL    HW112596   4.982   1.242   4.801
 3899SOL    HW212597   4.962   1.256   4.963
 3900SOL     OW12598   5.907   2.506   3.161
 3900SOL    HW112599   5.980   2.565   3.128
 3900SOL    HW212600   5.942   2.413   3.174
 3901SOL     OW12601   1.604   6.688   5.612
 3901SOL    HW112602   1.657   6.683   5.527
 3901SOL    HW212603   1.659   6.733   5.683
 3902SOL     OW12604   5.040   4.195   3.155
 3902SOL    HW112605   4.951   4.151   3.165
 3902SOL    HW212606   5.026   4.289   3.122
 3903SOL     OW12607   4.681   3.846   6.983
 3903SOL    HW112608   4.716   3.892   0.035
 3903SOL    HW212609   4.608   3.783   7.008
 3904SOL     OW12610   0.888   6.860   0.184
 3904SOL    HW112611   0.883   6.941   0.242
 3904SOL    HW212612   0.955   6.876   0.111
 3905SOL     OW12613   6.420   6.136   6.461
 3905SOL    HW112614   6.428   6.091   6.372
 3905SOL    HW212615   6.359   6.083   6.520
 3906SOL     OW12616   1.675   4.528   3.896
 3906SOL    HW112617   1.768   4.525   3.933
 3906SOL    HW212618   1.612   4.562   3.967
 3907SOL     OW12619   0.054   1.322   4.756
 3907SOL    HW112620   0.117   1.362   4.822
 3907SOL    HW212621   0.101   1.250   4.704
 3908SOL     OW12622   0.873   0.566   5.956
 3908SOL    HW112623   0.917   0.601   6.039
 3908SOL    HW212624   0.919   0.482   5.927
 3909SOL     OW12625   5.199   3.506   6.062
 3909SOL    HW112626   5.212   3.526   5.965
 3909SOL    HW212627   5.239   3.580   6.117
 3910SOL     OW12628   3.861   4.026   2.096
 3910SOL    HW112629   3.908   3.955   2.148
 3910SOL    HW212630   3.902   4.034   2.005
 3911SOL     OW12631   5.561   0.395   1.350
 3911SOL    HW112632   5.521   0.367   1.437
 3911SOL    HW212633   5.489   0.406   1.282
 3912SOL     OW12634   3.318   1.331   6.038
 3912SOL    HW112635   3.314   1.430   6.029
 3912SOL    HW212636   3.316   1.289   5.947
 3913SOL     OW12637   3.723   6.451   0.456
 3913SOL    HW112638   3.648   6.386   0.443
 3913SOL    HW212639   3.686   6.539   0.486
 3914SOL     OW12640   5.456   1.560   1.572
 3914SOL    HW112641   5.415   1.647   1.599
 3914SOL    HW212642   5.522   1.531   1.641
 3915SOL     OW12643   3.087   6.297   0.522
 3915SOL    HW112644   3.009   6.358   0.513
 3915SOL    HW212645   3.092   6.261   0.615
 3916SOL     OW12646   3.515   0.357   3.021
 3916SOL    HW112647   3.432   0.412   3.009
 3916SOL    HW212648   3.490   0.268   3.060
 3917SOL     OW12649   2.500   4.990   0.722
 3917SOL    HW112650   2.569   5.002   0.794
 3917SOL    HW212651   2.414   5.032   0.751
 3918SOL     OW12652   5.151   1.464   0.568
 3918SOL    HW112653   5.162   1.367   0.546
 3918SOL    HW212654   5.104   1.510   0.493
 3919SOL     OW12655   4.324   1.041   0.927
 3919SOL    HW112656   4.422   1.044   0.948
 3919SOL    HW212657   4.276   1.106   0.986
 3920SOL     OW12658   2.980   1.520   7.028
 3920SOL    HW112659   3.020   1.475   0.078
 3920SOL    HW212660   2.898   1.569   0.025
 3921SOL     OW12661   6.801   3.020   6.805
 3921SOL    HW112662   6.786   3.055   6.897
 3921SOL    HW212663   6.713   2.990   6.767
 3922SOL     OW12664   4.678   4.843   2.213
 3922SOL    HW112665   4.626   4.764   2.246
 3922SOL    HW212666   4.618   4.902   2.158
 3923SOL     OW12667   5.971   0.791   1.639
 3923SOL    HW112668   5.932   0.778   1.548
 3923SOL    HW212669   6.047   0.727   1.652
 3924SOL     OW12670   6.868   4.623   3.460
 3924SOL    HW112671   6.926   4.614   3.379
 3924SOL    HW212672   6.920   4.666   3.534
 3925SOL     OW12673   4.518   3.970   0.639
 3925SOL    HW112674   4.494   3.927   0.552
 3925SOL    HW212675   4.447   4.034   0.665
 3926SOL     OW12676   0.997   0.334   5.847
 3926SOL    HW112677   1.081   0.317   5.898
 3926SOL    HW212678   0.976   0.254   5.791
 3927SOL     OW12679   0.590   2.995   4.439
 3927SOL    HW112680   0.622   2.908   4.477
 3927SOL    HW212681   0.557   3.053   4.513
 3928SOL     OW12682   2.524   6.653   3.185
 3928SOL    HW112683   2.497   6.615   3.097
 3928SOL    HW212684   2.617   6.623   3.207
 3929SOL     OW12685   6.683   1.882   6.517
 3929SOL    HW112686   6.661   1.951   6.447
 3929SOL    HW212687   6.716   1.927   6.599
 3930SOL     OW12688   1.464   2.087   3.742
 3930SOL    HW112689   1.399   2.137   3.798
 3930SOL    HW212690   1.534   2.149   3.707
 3931SOL     OW12691   1.602   1.577   1.829
 3931SOL    HW112692   1.602   1.642   1.905
 3931SOL    HW212693   1.558   1.619   1.749
 3932SOL     OW12694   1.856   5.591   3.444
 3932SOL    HW112695   1.770   5.621   3.483
 3932SOL    HW212696   1.930   5.653   3.473
 3933SOL     OW12697   1.272   5.293   0.368
 3933SOL    HW112698   1.249   5.385   0.399
 3933SOL    HW212699   1.371   5.279   0.376
 3934SOL     OW12700   0.645   1.533   2.905
 3934SOL    HW112701   0.739   1.501   2.895
 3934SOL    HW212702   0.586   1.483   2.841
 3935SOL     OW12703   6.241   3.340   6.487
 3935SOL    HW112704   6.305   3.324   6.412
 3935SOL    HW212705   6.245   3.436   6.513
 3936SOL     OW12706   6.509   5.679   5.084
 3936SOL    HW112707   6.452   5.629   5.019
 3936SOL    HW212708   6.452   5.713   5.159
 3937SOL     OW12709   0.392   5.040   2.667
 3937SOL    HW112710   0.387   5.103   2.744
 3937SOL    HW212711   0.488   5.017   2.649
 3938SOL     OW12712   0.051   3.602   4.630
 3938SOL    HW112713   0.078   3.659   4.708
 3938SOL    HW212714   0.045   3.658   4.548
 3939SOL     OW12715   1.023   1.419   2.328
 3939SOL    HW112716   1.109   1.379   2.358
 3939SOL    HW212717   1.029   1.442   2.231
 3940SOL     OW12718   3.021   4.737   1.753
 3940SOL    HW112719   3.117   4.731   1.781
 3940SOL    HW212720   2.970   4.661   1.793
 3941SOL     OW12721   6.073   0.038   4.008
 3941SOL    HW112722   6.161   0.017   4.051
 3941SOL    HW212723   6.082   0.030   3.909
 3942SOL     OW12724   1.216   6.534   6.055
 3942SOL    HW112725   1.140   6.510   6.116
 3942SOL    HW212726   1.295   6.476   6.076
 3943SOL     OW12727   0.798   3.861   2.013
 3943SOL    HW112728   0.874   3.881   2.075
 3943SOL    HW212729   0.786   3.762   2.006
 3944SOL     OW12730   5.836   2.932   6.952
 3944SOL    HW112731   5.851   2.866   7.026
 3944SOL    HW212732   5.773   2.892   6.884
 3945SOL     OW12733   1.000   2.112   3.312
 3945SOL    HW112734   1.043   2.193   3.272
 3945SOL    HW212735   0.923   2.140   3.369
 3946SOL     OW12736   6.712   3.872   0.382
 3946SOL    HW112737   6.785   3.934   0.353
 3946SOL    HW212738   6.746   3.778   0.378
 3947SOL     OW12739   5.805   5.955   0.470
 3947SOL    HW112740   5.768   5.880   0.415
 3947SOL    HW212741   5.848   6.023   0.410
 3948SOL     OW12742   2.070   2.557   6.546
 3948SOL    HW112743   2.071   2.604   6.458
 3948SOL    HW212744   2.027   2.615   6.615
 3949SOL     OW12745   6.413   6.666   2.695
 3949SOL    HW112746   6.415   6.639   2.599
 3949SOL    HW212747   6.320   6.662   2.730
 3950SOL     OW12748   4.182   4.134   1.696
 3950SOL    HW112749   4.214   4.084   1.616
 3950SOL    HW212750   4.260   4.163   1.751
 3951SOL     OW12751   0.417   2.355   5.696
 3951SOL    HW112752   0.492   2.300   5.733
 3951SOL    HW212753   0.401   2.329   5.601
 3952SOL     OW12754   5.717   2.194   4.935
 3952SOL    HW112755   5.726   2.146   5.023
 3952SOL    HW212756   5.752   2.136   4.862
 3953SOL     OW12757   3.080   3.791   6.212
 3953SOL    HW112758   3.023   3.853   6.158
 3953SOL    HW212759   3.118   3.841   6.290
 3954SOL     OW12760   6.796   4.006   5.437
 3954SOL    HW112761   6.848   3.980   5.356
 3954SOL    HW212762   6.760   3.924   5.482
 3955SOL     OW12763   5.311   6.176   0.256
 3955SOL    HW112764   5.276   6.243   0.191
 3955SOL    HW212765   5.256   6.179   0.340
 3956SOL     OW12766   0.878   2.844   5.891
 3956SOL    HW112767   0.955   2.847   5.954
 3956SOL    HW212768   0.905   2.880   5.802
 3957SOL     OW12769   2.872   0.215   3.744
 3957SOL    HW112770   2.836   0.149   3.677
 3957SOL    HW212771   2.947   0.172   3.796
 3958SOL     OW12772   6.629   6.141   0.109
 3958SOL    HW112773   6.573   6.223   0.120
 3958SOL    HW212774   6.575   6.069   0.066
 3959SOL     OW12775   2.427   5.678   0.976
 3959SOL    HW112776   2.404   5.705   0.882
 3959SOL    HW212777   2.354   5.705   1.038
 3960SOL     OW12778   4.316   2.455   0.059
 3960SOL    HW112779   4.409   2.479   0.031
 3960SOL    HW212780   4.290   2.366   0.021
 3961SOL     OW12781   5.146   1.986   2.036
 3961SOL    HW112782   5.083   1.930   2.091
 3961SOL    HW212783   5.240   1.956   2.053
 3962SOL     OW12784   1.283   6.229   0.287
 3962SOL    HW112785   1.280   6.153   0.352
 3962SOL    HW212786   1.225   6.207   0.208
 3963SOL     OW12787   5.060   5.807   3.560
 3963SOL    HW112788   5.055   5.788   3.462
 3963SOL    HW212789   5.079   5.722   3.610
 3964SOL     OW12790   5.287   6.217   5.396
 3964SOL    HW112791   5.187   6.217   5.400
 3964SOL    HW212792   5.319   6.302   5.354
 3965SOL     OW12793   3.606   5.015   0.091
 3965SOL    HW112794   3.608   5.056   0.001
 3965SOL    HW212795   3.511   5.004   0.121
 3966SOL     OW12796   6.151   4.724   6.224
 3966SOL    HW112797   6.107   4.762   6.143
 3966SOL    HW212798   6.116   4.632   6.242
 3967SOL     OW12799   0.684   5.432   4.500
 3967SOL    HW112800   0.606   5.489   4.528
 3967SOL    HW212801   0.650   5.350   4.454
 3968SOL     OW12802   5.383   0.333   3.066
 3968SOL    HW112803   5.449   0.400   3.030
 3968SOL    HW212804   5.294   0.347   3.022
 3969SOL     OW12805   1.471   5.167   3.245
 3969SOL    HW112806   1.411   5.087   3.256
 3969SOL    HW212807   1.476   5.191   3.148
 3970SOL     OW12808   4.795   4.641   4.093
 3970SOL    HW112809   4.769   4.664   3.999
 3970SOL    HW212810   4.732   4.572   4.129
 3971SOL     OW12811   2.699   5.598   3.175
 3971SOL    HW112812   2.760   5.649   3.235
 3971SOL    HW212813   2.680   5.508   3.216
 3972SOL     OW12814   0.191   6.678   0.609
 3972SOL    HW112815   0.255   6.649   0.538
 3972SOL    HW212816   0.149   6.597   0.651
 3973SOL     OW12817   3.275   3.233   4.624
 3973SOL    HW112818   3.257   3.157   4.562
 3973SOL    HW212819   3.256   3.205   4.718
 3974SOL     OW12820   0.052   1.339   5.965
 3974SOL    HW112821   0.098   1.293   6.041
 3974SOL    HW212822   0.118   1.356   5.892
 3975SOL     OW12823   6.590   0.621   6.015
 3975SOL    HW112824   6.496   0.594   5.996
 3975SOL    HW212825   6.642   0.541   6.047
 3976SOL     OW12826   0.408   4.458   1.104
 3976SOL    HW112827   0.482   4.430   1.166
 3976SOL    HW212828   0.386   4.554   1.120
 3977SOL     OW12829   2.325   6.089   6.108
 3977SOL    HW112830   2.305   6.177   6.150
 3977SOL    HW212831   2.320   6.017   6.177
 3978SOL     OW12832   5.888   1.652   5.703
 3978SOL    HW112833   5.819   1.667   5.773
 3978SOL    HW212834   5.843   1.630   5.616
 3979SOL     OW12835   2.141   0.170   1.652
 3979SOL    HW112836   2.219   0.201   1.597
 3979SOL    HW212837   2.124   0.237   1.725
 3980SOL     OW12838   5.374   3.405   4.599
 3980SOL    HW112839   5.314   3.453   4.663
 3980SOL    HW212840   5.419   3.329   4.646
 3981SOL     OW12841   0.347   2.492   6.420
 3981SOL    HW112842   0.308   2.506   6.329
 3981SOL    HW212843   0.330   2.572   6.476
 3982SOL     OW12844   1.884   0.951   4.718
 3982SOL    HW112845   1.977   0.988   4.716
 3982SOL    HW212846   1.823   1.011   4.667
 3983SOL     OW12847   3.438   0.058   4.717
 3983SOL    HW112848   3.390   0.003   4.649
 3983SOL    HW212849   3.474   7.030   4.789
 3984SOL     OW12850   1.662   6.793   2.030
 3984SOL    HW112851   1.746   6.748   2.061
 3984SOL    HW212852   1.589   6.775   2.095
 3985SOL     OW12853   1.552   4.121   6.659
 3985SOL    HW112854   1.529   4.177   6.739
 3985SOL    HW212855   1.574   4.028   6.689
 3986SOL     OW12856   0.308   1.883   1.774
 3986SOL    HW112857   0.317   1.838   1.684
 3986SOL    HW212858   0.395   1.926   1.798
 3987SOL     OW12859   1.738   5.704   5.536
 3987SOL    HW112860   1.754   5.767   5.612
 3987SOL    HW212861   1.660   5.645   5.557
 3988SOL     OW12862   4.319   1.755   6.296
 3988SOL    HW112863   4.220   1.765   6.295
 3988SOL    HW212864   4.361   1.840   6.264
 3989SOL     OW12865   6.070   6.910   6.449
 3989SOL    HW112866   6.055   7.009   6.456
 3989SOL    HW212867   6.093   6.887   6.354
 3990SOL     OW12868   0.017   2.481   4.859
 3990SOL    HW112869   6.955   2.493   4.896
 3990SOL    HW212870   0.011   2.461   4.761
 3991SOL     OW12871   0.552   2.030   3.574
 3991SOL    HW112872   0.494   1.948   3.567
 3991SOL    HW212873   0.494   2.111   3.575
 3992SOL     OW12874   3.796   3.277   6.870
 3992SOL    HW112875   3.696   3.272   6.873
 3992SOL    HW212876   3.825   3.310   6.780
 3993SOL     OW12877   3.151   2.185   2.605
 3993SOL    HW112878   3.190   2.104   2.649
 3993SOL    HW212879   3.199   2.203   2.519
 3994SOL     OW12880   2.221   2.538   5.056
 3994SOL    HW112881   2.185   2.451   5.021
 3994SOL    HW212882   2.156   2.576   5.122
 3995SOL     OW12883   2.350   4.228   3.513
 3995SOL    HW112884   2.263   4.221   3.562
 3995SOL    HW212885   2.333   4.230   3.414
 3996SOL     OW12886   1.103   1.485   4.309
 3996SOL    HW112887   1.022   1.427   4.304
 3996SOL    HW212888   1.090   1.565   4.250
 3997SOL     OW12889   4.908   3.384   3.126
 3997SOL    HW112890   4.858   3.323   3.187
 3997SOL    HW212891   5.003   3.353   3.119
 3998SOL     OW12892   6.374   1.600   2.353
 3998SOL    HW112893   6.387   1.666   2.280
 3998SOL    HW212894   6.458   1.548   2.367
 3999SOL     OW12895   6.021   3.951   3.710
 3999SOL    HW112896   6.003   3.860   3.673
 3999SOL    HW212897   5.999   4.020   3.642
 4000SOL     OW12898   3.057   6.150   2.733
 4000SOL    HW112899   3.094   6.138   2.641
 4000SOL    HW212900   2.964   6.114   2.736
 4001SOL     OW12901   2.254   3.951   6.409
 4001SOL    HW112902   2.211   4.040   6.394
 4001SOL    HW212903   2.184   3.879   6.400
 4002SOL     OW12904   4.007   3.229   4.610
 4002SOL    HW112905   4.039   3.203   4.701
 4002SOL    HW212906   3.917   3.188   4.593
 4003SOL     OW12907   2.275   1.020   6.305
 4003SOL    HW112908   2.212   1.095   6.286
 4003SOL    HW212909   2.276   1.001   6.403
 4004SOL     OW12910   6.386   3.643   3.779
 4004SOL    HW112911   6.448   3.625   3.855
 4004SOL    HW212912   6.395   3.570   3.711
 4005SOL     OW12913   4.095   4.415   1.165
 4005SOL    HW112914   4.013   4.360   1.151
 4005SOL    HW212915   4.070   4.503   1.206
 4006SOL     OW12916   5.530   4.927   2.139
 4006SOL    HW112917   5.523   4.922   2.040
 4006SOL    HW212918   5.580   5.010   2.165
 4007SOL     OW12919   0.251   2.199   3.583
 4007SOL    HW112920   0.156   2.168   3.591
 4007SOL    HW212921   0.269   2.227   3.489
 4008SOL     OW12922   3.171   0.312   6.778
 4008SOL    HW112923   3.197   0.216   6.776
 4008SOL    HW212924   3.105   0.328   6.851
 4009SOL     OW12925   5.145   2.096   1.214
 4009SOL    HW112926   5.167   2.099   1.116
 4009SOL    HW212927   5.164   2.005   1.250
 4010SOL     OW12928   2.937   3.286   1.331
 4010SOL    HW112929   2.928   3.349   1.408
 4010SOL    HW212930   3.031   3.287   1.297
 4011SOL     OW12931   6.299   6.096   1.554
 4011SOL    HW112932   6.385   6.065   1.595
 4011SOL    HW212933   6.225   6.036   1.582
 4012SOL     OW12934   3.946   6.677   2.619
 4012SOL    HW112935   3.847   6.672   2.606
 4012SOL    HW212936   3.966   6.729   2.702
 4013SOL     OW12937   1.888   0.167   1.569
 4013SOL    HW112938   1.970   0.155   1.625
 4013SOL    HW212939   1.809   0.182   1.629
 4014SOL     OW12940   3.626   6.296   3.939
 4014SOL    HW112941   3.567   6.275   4.017
 4014SOL    HW212942   3.720   6.307   3.971
 4015SOL     OW12943   4.656   5.150   6.167
 4015SOL    HW112944   4.575   5.102   6.199
 4015SOL    HW212945   4.667   5.134   6.068
 4016SOL     OW12946   2.719   5.018   0.227
 4016SOL    HW112947   2.655   5.023   0.303
 4016SOL    HW212948   2.801   4.968   0.255
 4017SOL     OW12949   6.938   4.687   4.914
 4017SOL    HW112950   6.860   4.665   4.971
 4017SOL    HW212951   7.005   4.613   4.918
 4018SOL     OW12952   4.091   6.944   1.625
 4018SOL    HW112953   4.031   6.977   1.553
 4018SOL    HW212954   4.128   7.021   1.677
 4019SOL     OW12955   5.172   3.855   2.640
 4019SOL    HW112956   5.085   3.816   2.672
 4019SOL    HW212957   5.154   3.913   2.561
 4020SOL     OW12958   0.114   3.001   5.583
 4020SOL    HW112959   0.198   2.989   5.531
 4020SOL    HW212960   0.124   3.080   5.644
 4021SOL     OW12961   3.918   4.108   5.627
 4021SOL    HW112962   4.001   4.158   5.652
 4021SOL    HW212963   3.892   4.132   5.533
 4022SOL     OW12964   3.938   6.446   0.179
 4022SOL    HW112965   3.917   6.382   0.253
 4022SOL    HW212966   4.037   6.455   0.169
 4023SOL     OW12967   0.211   0.967   6.020
 4023SOL    HW112968   0.126   0.947   5.972
 4023SOL    HW212969   0.216   1.065   6.040
 4024SOL     OW12970   2.681   4.661   4.334
 4024SOL    HW112971   2.656   4.757   4.345
 4024SOL    HW212972   2.669   4.613   4.421
 4025SOL     OW12973   0.408   6.258   4.444
 4025SOL    HW112974   0.353   6.207   4.378
 4025SOL    HW212975   0.372   6.243   4.536
 4026SOL     OW12976   6.347   6.672   4.107
 4026SOL    HW112977   6.347   6.652   4.205
 4026SOL    HW212978   6.272   6.622   4.063
 4027SOL     OW12979   2.865   2.547   6.982
 4027SOL    HW112980   2.837   2.500   6.898
 4027SOL    HW212981   2.935   2.493   7.029
 4028SOL     OW12982   4.559   1.508   3.480
 4028SOL    HW112983   4.569   1.537   3.575
 4028SOL    HW212984   4.549   1.408   3.477
 4029SOL     OW12985   3.321   4.016   6.012
 4029SOL    HW112986   3.264   4.069   5.950
 4029SOL    HW212987   3.282   3.925   6.023
 4030SOL     OW12988   6.713   0.766   2.267
 4030SOL    HW112989   6.629   0.776   2.214
 4030SOL    HW212990   6.790   0.751   2.204
 4031SOL     OW12991   5.107   6.071   3.190
 4031SOL    HW112992   5.177   6.141   3.199
 4031SOL    HW212993   5.094   6.047   3.094
 4032SOL     OW12994   0.322   0.006   2.365
 4032SOL    HW112995   0.404   6.994   2.328
 4032SOL    HW212996   0.243   7.011   2.308
 4033SOL     OW12997   2.075   2.813   1.806
 4033SOL    HW112998   2.020   2.750   1.862
 4033SOL    HW212999   2.171   2.801   1.828
 4034SOL     OW13000   5.877   1.956   5.040
 4034SOL    HW113001   5.862   1.901   5.122
 4034SOL    HW213002   5.930   2.037   5.063
 4035SOL     OW13003   6.062   0.999   1.017
 4035SOL    HW113004   6.035   1.062   1.090
 4035SOL    HW213005   6.010   1.021   0.934
 4036SOL     OW13006   4.194   4.619   1.991
 4036SOL    HW113007   4.219   4.659   1.903
 4036SOL    HW213008   4.158   4.528   1.977
 4037SOL     OW13009   2.182   1.536   6.621
 4037SOL    HW113010   2.255   1.521   6.686
 4037SOL    HW213011   2.221   1.548   6.529
 4038SOL     OW13012   4.523   2.830   1.122
 4038SOL    HW113013   4.501   2.798   1.030
 4038SOL    HW213014   4.517   2.755   1.187
 4039SOL     OW13015   5.051   5.399   1.717
 4039SOL    HW113016   5.142   5.366   1.741
 4039SOL    HW213017   4.984   5.327   1.731
 4040SOL     OW13018   3.832   6.701   4.850
 4040SOL    HW113019   3.823   6.656   4.939
 4040SOL    HW213020   3.779   6.785   4.849
 4041SOL     OW13021   1.350   5.110   0.877
 4041SOL    HW113022   1.417   5.088   0.806
 4041SOL    HW213023   1.264   5.139   0.834
 4042SOL     OW13024   6.270   6.157   4.196
 4042SOL    HW113025   6.278   6.057   4.202
 4042SOL    HW213026   6.360   6.199   4.209
 4043SOL     OW13027   6.876   2.243   6.373
 4043SOL    HW113028   6.948   2.195   6.423
 4043SOL    HW213029   6.897   2.244   6.275
 4044SOL     OW13030   5.014   6.259   3.715
 4044SOL    HW113031   4.925   6.276   3.673
 4044SOL    HW213032   5.007   6.272   3.814
 4045SOL     OW13033   3.769   5.912   6.030
 4045SOL    HW113034   3.694   5.877   5.973
 4045SOL    HW213035   3.738   5.920   6.125
 4046SOL     OW13036   1.129   1.914   3.500
 4046SOL    HW113037   1.136   1.999   3.448
 4046SOL    HW213038   1.214   1.863   3.492
 4047SOL     OW13039   2.956   1.919   6.946
 4047SOL    HW113040   2.962   1.905   6.847
 4047SOL    HW213041   2.914   2.008   6.964
 4048SOL     OW13042   5.179   1.436   1.558
 4048SOL    HW113043   5.259   1.477   1.602
 4048SOL    HW213044   5.208   1.369   1.489
 4049SOL     OW13045   5.149   5.092   6.327
 4049SOL    HW113046   5.164   5.035   6.409
 4049SOL    HW213047   5.052   5.093   6.305
 4050SOL     OW13048   0.963   6.605   2.492
 4050SOL    HW113049   1.045   6.630   2.441
 4050SOL    HW213050   0.887   6.664   2.465
 4051SOL     OW13051   4.307   1.462   6.658
 4051SOL    HW113052   4.229   1.412   6.621
 4051SOL    HW213053   4.297   1.559   6.636
 4052SOL     OW13054   5.854   1.232   2.765
 4052SOL    HW113055   5.916   1.300   2.804
 4052SOL    HW213056   5.848   1.153   2.826
 4053SOL     OW13057   3.016   6.977   4.308
 4053SOL    HW113058   3.026   6.894   4.253
 4053SOL    HW213059   3.023   6.954   4.405
 4054SOL     OW13060   5.436   3.896   0.897
 4054SOL    HW113061   5.458   3.976   0.842
 4054SOL    HW213062   5.365   3.920   0.963
 4055SOL     OW13063   3.062   3.535   0.676
 4055SOL    HW113064   2.973   3.496   0.699
 4055SOL    HW213065   3.052   3.633   0.657
 4056SOL     OW13066   5.175   3.893   0.703
 4056SOL    HW113067   5.161   3.797   0.728
 4056SOL    HW213068   5.163   3.904   0.604
 4057SOL     OW13069   6.688   2.515   0.465
 4057SOL    HW113070   6.763   2.506   0.531
 4057SOL    HW213071   6.606   2.470   0.501
 4058SOL     OW13072   2.512   6.579   4.918
 4058SOL    HW113073   2.542   6.543   5.006
 4058SOL    HW213074   2.452   6.512   4.874
 4059SOL     OW13075   1.190   1.705   2.635
 4059SOL    HW113076   1.268   1.666   2.587
 4059SOL    HW213077   1.147   1.635   2.692
 4060SOL     OW13078   5.699   5.532   5.394
 4060SOL    HW113079   5.747   5.557   5.310
 4060SOL    HW213080   5.741   5.450   5.433
 4061SOL     OW13081   2.143   4.750   2.253
 4061SOL    HW113082   2.069   4.729   2.316
 4061SOL    HW213083   2.225   4.775   2.304
 4062SOL     OW13084   2.661   0.638   1.768
 4062SOL    HW113085   2.659   0.738   1.769
 4062SOL    HW213086   2.721   0.606   1.695
 4063SOL     OW13087   6.109   6.490   0.341
 4063SOL    HW113088   6.152   6.403   0.367
 4063SOL    HW213089   6.010   6.482   0.352
 4064SOL     OW13090   2.435   0.528   3.830
 4064SOL    HW113091   2.404   0.433   3.830
 4064SOL    HW213092   2.525   0.534   3.786
 4065SOL     OW13093   1.074   6.632   1.538
 4065SOL    HW113094   1.023   6.680   1.610
 4065SOL    HW213095   1.162   6.676   1.525
 4066SOL     OW13096   6.410   4.118   3.036
 4066SOL    HW113097   6.364   4.036   3.071
 4066SOL    HW213098   6.343   4.175   2.987
 4067SOL     OW13099   6.310   3.825   3.093
 4067SOL    HW113100   6.349   3.810   3.002
 4067SOL    HW213101   6.376   3.796   3.162
 4068SOL     OW13102   1.588   1.157   4.885
 4068SOL    HW113103   1.620   1.065   4.863
 4068SOL    HW213104   1.559   1.160   4.981
 4069SOL     OW13105   2.980   5.359   6.699
 4069SOL    HW113106   2.935   5.448   6.703
 4069SOL    HW213107   3.077   5.370   6.722
 4070SOL     OW13108   0.499   2.751   2.453
 4070SOL    HW113109   0.529   2.681   2.518
 4070SOL    HW213110   0.579   2.796   2.413
 4071SOL     OW13111   1.075   1.648   5.612
 4071SOL    HW113112   1.054   1.681   5.520
 4071SOL    HW213113   1.123   1.560   5.606
 4072SOL     OW13114   0.918   5.758   4.614
 4072SOL    HW113115   0.884   5.773   4.521
 4072SOL    HW213116   0.973   5.675   4.616
 4073SOL     OW13117   2.789   6.676   6.295
 4073SOL    HW113118   2.847   6.617   6.239
 4073SOL    HW213119   2.829   6.768   6.299
 4074SOL     OW13120   6.906   4.266   1.392
 4074SOL    HW113121   6.862   4.338   1.446
 4074SOL    HW213122   6.992   4.300   1.355
 4075SOL     OW13123   4.569   1.864   1.644
 4075SOL    HW113124   4.618   1.932   1.699
 4075SOL    HW213125   4.480   1.901   1.617
 4076SOL     OW13126   3.123   2.935   5.885
 4076SOL    HW113127   3.175   3.004   5.836
 4076SOL    HW213128   3.025   2.953   5.876
 4077SOL     OW13129   3.801   1.556   0.138
 4077SOL    HW113130   3.721   1.499   0.117
 4077SOL    HW213131   3.876   1.497   0.169
 4078SOL     OW13132   0.288   5.411   1.099
 4078SOL    HW113133   0.276   5.421   1.000
 4078SOL    HW213134   0.332   5.324   1.118
 4079SOL     OW13135   1.929   0.854   3.537
 4079SOL    HW113136   1.924   0.766   3.489
 4079SOL    HW213137   1.927   0.838   3.635
 4080SOL     OW13138   4.205   3.995   6.176
 4080SOL    HW113139   4.242   4.073   6.226
 4080SOL    HW213140   4.130   3.954   6.229
 4081SOL     OW13141   1.932   3.189   4.407
 4081SOL    HW113142   1.888   3.268   4.364
 4081SOL    HW213143   1.966   3.215   4.497
 4082SOL     OW13144   0.820   3.717   0.108
 4082SOL    HW113145   0.780   3.797   0.063
 4082SOL    HW213146   0.917   3.733   0.125
 4083SOL     OW13147   7.004   3.240   2.246
 4083SOL    HW113148   0.059   3.291   2.259
 4083SOL    HW213149   7.004   3.159   2.304
 4084SOL     OW13150   5.888   1.847   3.674
 4084SOL    HW113151   5.789   1.843   3.668
 4084SOL    HW213152   5.916   1.844   3.770
 4085SOL     OW13153   3.286   5.784   1.762
 4085SOL    HW113154   3.309   5.692   1.791
 4085SOL    HW213155   3.320   5.799   1.669
 4086SOL     OW13156   1.378   5.745   1.647
 4086SOL    HW113157   1.340   5.664   1.691
 4086SOL    HW213158   1.310   5.818   1.648
 4087SOL     OW13159   2.132   1.705   3.492
 4087SOL    HW113160   2.137   1.606   3.504
 4087SOL    HW213161   2.217   1.747   3.524
 4088SOL     OW13162   0.147   1.403   0.035
 4088SOL    HW113163   0.170   1.500   0.027
 4088SOL    HW213164   0.047   1.393   0.041
 4089SOL     OW13165   6.108   6.264   4.027
 4089SOL    HW113166   6.182   6.219   4.078
 4089SOL    HW213167   6.118   6.363   4.034
 4090SOL     OW13168   1.537   4.918   5.907
 4090SOL    HW113169   1.544   5.017   5.903
 4090SOL    HW213170   1.441   4.891   5.908
 4091SOL     OW13171   6.852   6.318   6.995
 4091SOL    HW113172   6.837   6.370   0.049
 4091SOL    HW213173   6.824   6.223   7.009
 4092SOL     OW13174   6.880   2.303   6.078
 4092SOL    HW113175   6.790   2.286   6.037
 4092SOL    HW213176   6.928   2.372   6.026
 4093SOL     OW13177   4.714   0.133   2.859
 4093SOL    HW113178   4.714   0.159   2.955
 4093SOL    HW213179   4.771   0.196   2.807
 4094SOL     OW13180   2.521   5.836   4.375
 4094SOL    HW113181   2.451   5.849   4.446
 4094SOL    HW213182   2.519   5.742   4.343
 4095SOL     OW13183   0.419   3.958   0.488
 4095SOL    HW113184   0.419   3.937   0.586
 4095SOL    HW213185   0.504   3.925   0.447
 4096SOL     OW13186   4.342   6.017   6.008
 4096SOL    HW113187   4.353   5.939   5.947
 4096SOL    HW213188   4.298   5.988   6.093
 4097SOL     OW13189   3.581   4.769   5.257
 4097SOL    HW113190   3.539   4.714   5.329
 4097SOL    HW213191   3.680   4.770   5.269
 4098SOL     OW13192   0.359   2.709   1.651
 4098SOL    HW113193   0.385   2.789   1.597
 4098SOL    HW213194   0.371   2.626   1.596
 4099SOL     OW13195   2.674   4.724   1.595
 4099SOL    HW113196   2.680   4.624   1.600
 4099SOL    HW213197   2.756   4.761   1.552
 4100SOL     OW13198   6.686   5.821   4.330
 4100SOL    HW113199   6.729   5.783   4.411
 4100SOL    HW213200   6.621   5.755   4.292
 4101SOL     OW13201   6.191   0.709   7.016
 4101SOL    HW113202   6.244   0.793   7.012
 4101SOL    HW213203   6.101   0.724   6.975
 4102SOL     OW13204   6.362   0.301   0.619
 4102SOL    HW113205   6.344   0.362   0.542
 4102SOL    HW213206   6.419   0.348   0.686
 4103SOL     OW13207   0.439   0.708   0.526
 4103SOL    HW113208   0.433   0.677   0.432
 4103SOL    HW213209   0.535   0.712   0.554
 4104SOL     OW13210   0.768   4.593   2.877
 4104SOL    HW113211   0.696   4.525   2.858
 4104SOL    HW213212   0.773   4.609   2.975
 4105SOL     OW13213   4.502   6.786   1.606
 4105SOL    HW113214   4.588   6.736   1.620
 4105SOL    HW213215   4.523   6.879   1.574
 4106SOL     OW13216   6.769   2.592   3.529
 4106SOL    HW113217   6.834   2.640   3.588
 4106SOL    HW213218   6.738   2.653   3.457
 4107SOL     OW13219   1.085   5.475   1.364
 4107SOL    HW113220   1.050   5.458   1.456
 4107SOL    HW213221   1.185   5.485   1.367
 4108SOL     OW13222   6.219   4.387   5.314
 4108SOL    HW113223   6.194   4.484   5.323
 4108SOL    HW213224   6.305   4.380   5.263
 4109SOL     OW13225   6.058   0.198   4.959
 4109SOL    HW113226   6.049   0.152   4.871
 4109SOL    HW213227   5.995   0.156   5.025
 4110SOL     OW13228   3.986   3.605   6.378
 4110SOL    HW113229   3.889   3.593   6.359
 4110SOL    HW213230   4.014   3.542   6.450
 4111SOL     OW13231   4.174   3.335   0.060
 4111SOL    HW113232   4.158   3.425   0.018
 4111SOL    HW213233   4.169   3.265   7.019
 4112SOL     OW13234   4.791   6.839   5.157
 4112SOL    HW113235   4.763   6.789   5.239
 4112SOL    HW213236   4.880   6.882   5.174
 4113SOL     OW13237   4.919   6.242   4.405
 4113SOL    HW113238   4.850   6.291   4.458
 4113SOL    HW213239   5.003   6.296   4.402
 4114SOL     OW13240   3.253   2.155   4.348
 4114SOL    HW113241   3.179   2.165   4.283
 4114SOL    HW213242   3.218   2.167   4.441
 4115SOL     OW13243   3.917   4.962   2.364
 4115SOL    HW113244   3.970   4.892   2.316
 4115SOL    HW213245   3.880   4.924   2.449
 4116SOL     OW13246   3.702   1.639   1.938
 4116SOL    HW113247   3.663   1.584   2.012
 4116SOL    HW213248   3.704   1.735   1.966
 4117SOL     OW13249   1.034   4.383   2.309
 4117SOL    HW113250   1.076   4.356   2.396
 4117SOL    HW213251   1.054   4.479   2.291
 4118SOL     OW13252   2.712   6.548   0.729
 4118SOL    HW113253   2.620   6.552   0.691
 4118SOL    HW213254   2.772   6.608   0.678
 4119SOL     OW13255   3.720   2.126   4.256
 4119SOL    HW113256   3.704   2.056   4.325
 4119SOL    HW213257   3.632   2.165   4.227
 4120SOL     OW13258   3.769   6.964   0.536
 4120SOL    HW113259   3.726   7.004   0.456
 4120SOL    HW213260   3.710   6.978   0.616
 4121SOL     OW13261   6.380   0.630   5.100
 4121SOL    HW113262   6.332   0.562   5.045
 4121SOL    HW213263   6.327   0.649   5.183
 4122SOL     OW13264   1.307   5.729   5.083
 4122SOL    HW113265   1.340   5.746   4.990
 4122SOL    HW213266   1.333   5.805   5.142
 4123SOL     OW13267   4.313   4.997   5.785
 4123SOL    HW113268   4.321   5.096   5.778
 4123SOL    HW213269   4.254   4.974   5.862
 4124SOL     OW13270   6.311   5.500   6.663
 4124SOL    HW113271   6.257   5.417   6.652
 4124SOL    HW213272   6.253   5.574   6.696
 4125SOL     OW13273   4.605   1.480   2.452
 4125SOL    HW113274   4.634   1.574   2.472
 4125SOL    HW213275   4.677   1.432   2.402
 4126SOL     OW13276   1.080   3.841   4.487
 4126SOL    HW113277   0.986   3.845   4.454
 4126SOL    HW213278   1.126   3.928   4.469
 4127SOL     OW13279   4.514   4.997   5.033
 4127SOL    HW113280   4.522   5.022   5.130
 4127SOL    HW213281   4.598   5.024   4.985
 4128SOL     OW13282   1.682   2.902   1.845
 4128SOL    HW113283   1.763   2.864   1.801
 4128SOL    HW213284   1.697   3.000   1.863
 4129SOL     OW13285   4.456   1.499   6.228
 4129SOL    HW113286   4.382   1.558   6.258
 4129SOL    HW213287   4.465   1.423   6.292
 4130SOL     OW13288   6.584   2.648   5.918
 4130SOL    HW113289   6.604   2.683   5.826
 4130SOL    HW213290   6.663   2.665   5.977
 4131SOL     OW13291   1.955   0.336   3.163
 4131SOL    HW113292   1.939   0.298   3.072
 4131SOL    HW213293   1.957   0.261   3.230
 4132SOL     OW13294   5.090   4.433   3.796
 4132SOL    HW113295   5.139   4.384   3.724
 4132SOL    HW213296   5.026   4.371   3.842
 4133SOL     OW13297   3.213   6.445   1.124
 4133SOL    HW113298   3.154   6.415   1.198
 4133SOL    HW213299   3.296   6.389   1.122
 4134SOL     OW13300   2.587   3.161   0.287
 4134SOL    HW113301   2.613   3.251   0.250
 4134SOL    HW213302   2.649   3.137   0.362
 4135SOL     OW13303   1.184   1.846   3.067
 4135SOL    HW113304   1.217   1.765   3.114
 4135SOL    HW213305   1.107   1.885   3.117
 4136SOL     OW13306   1.393   2.141   2.828
 4136SOL    HW113307   1.345   2.054   2.830
 4136SOL    HW213308   1.444   2.149   2.743
 4137SOL     OW13309   0.264   4.311   0.924
 4137SOL    HW113310   0.319   4.355   0.996
 4137SOL    HW213311   0.279   4.358   0.838
 4138SOL     OW13312   4.177   5.138   3.378
 4138SOL    HW113313   4.231   5.058   3.403
 4138SOL    HW213314   4.213   5.219   3.425
 4139SOL     OW13315   1.894   1.952   4.919
 4139SOL    HW113316   1.886   1.971   5.017
 4139SOL    HW213317   1.967   1.886   4.903
 4140SOL     OW13318   2.942   1.165   5.346
 4140SOL    HW113319   2.934   1.077   5.300
 4140SOL    HW213320   2.990   1.229   5.286
 4141SOL     OW13321   6.291   6.226   1.320
 4141SOL    HW113322   6.282   6.213   1.418
 4141SOL    HW213323   6.213   6.184   1.273
 4142SOL     OW13324   6.037   5.803   0.920
 4142SOL    HW113325   5.986   5.877   0.965
 4142SOL    HW213326   6.031   5.815   0.821
 4143SOL     OW13327   6.943   2.713   1.050
 4143SOL    HW113328   6.994   2.795   1.077
 4143SOL    HW213329   6.945   2.702   0.951
 4144SOL     OW13330   4.839   3.925   6.005
 4144SOL    HW113331   4.915   3.885   5.955
 4144SOL    HW213332   4.769   3.855   6.021
 4145SOL     OW13333   6.835   6.030   0.968
 4145SOL    HW113334   6.924   6.013   1.010
 4145SOL    HW213335   6.794   5.943   0.939
 4146SOL     OW13336   6.890   0.522   5.240
 4146SOL    HW113337   6.812   0.539   5.180
 4146SOL    HW213338   6.961   0.473   5.190
 4147SOL     OW13339   4.919   3.623   5.830
 4147SOL    HW113340   4.950   3.586   5.917
 4147SOL    HW213341   4.907   3.548   5.764
 4148SOL     OW13342   1.099   0.341   5.300
 4148SOL    HW113343   1.189   0.381   5.316
 4148SOL    HW213344   1.094   0.251   5.343
 4149SOL     OW13345   0.218   2.586   0.387
 4149SOL    HW113346   0.290   2.527   0.349
 4149SOL    HW213347   0.129   2.552   0.359
 4150SOL     OW13348   0.830   0.861   6.005
 4150SOL    HW113349   0.906   0.822   6.057
 4150SOL    HW213350   0.849   0.854   5.907
 4151SOL     OW13351   3.691   5.574   5.542
 4151SOL    HW113352   3.729   5.545   5.630
 4151SOL    HW213353   3.672   5.493   5.486
 4152SOL     OW13354   3.408   6.351   1.391
 4152SOL    HW113355   3.505   6.367   1.412
 4152SOL    HW213356   3.362   6.439   1.377
 4153SOL     OW13357   4.332   4.686   0.055
 4153SOL    HW113358   4.270   4.763   0.068
 4153SOL    HW213359   4.379   4.666   0.142
 4154SOL     OW13360   0.769   4.645   4.582
 4154SOL    HW113361   0.865   4.659   4.557
 4154SOL    HW213362   0.743   4.551   4.563
 4155SOL     OW13363   6.938   1.178   1.915
 4155SOL    HW113364   7.001   1.186   1.992
 4155SOL    HW213365   6.862   1.118   1.940
 4156SOL     OW13366   5.684   5.734   4.967
 4156SOL    HW113367   5.754   5.797   4.934
 4156SOL    HW213368   5.611   5.785   5.011
 4157SOL     OW13369   4.702   5.913   4.543
 4157SOL    HW113370   4.625   5.945   4.598
 4157SOL    HW213371   4.709   5.969   4.460
 4158SOL     OW13372   1.806   4.792   2.903
 4158SOL    HW113373   1.884   4.764   2.847
 4158SOL    HW213374   1.724   4.742   2.873
 4159SOL     OW13375   1.837   3.459   4.444
 4159SOL    HW113376   1.753   3.511   4.462
 4159SOL    HW213377   1.884   3.498   4.365
 4160SOL     OW13378   6.114   0.283   0.726
 4160SOL    HW113379   6.052   0.221   0.678
 4160SOL    HW213380   6.201   0.286   0.678
 4161SOL     OW13381   0.722   0.620   7.006
 4161SOL    HW113382   0.678   0.700   0.017
 4161SOL    HW213383   0.811   0.647   6.968
 4162SOL     OW13384   6.074   6.818   5.675
 4162SOL    HW113385   6.125   6.767   5.606
 4162SOL    HW213386   6.128   6.897   5.705
 4163SOL     OW13387   6.048   6.703   3.690
 4163SOL    HW113388   6.101   6.620   3.704
 4163SOL    HW213389   6.014   6.707   3.596
 4164SOL     OW13390   1.434   6.585   6.966
 4164SOL    HW113391   1.416   6.543   0.025
 4164SOL    HW213392   1.365   6.554   6.900
 4165SOL     OW13393   3.670   0.297   0.246
 4165SOL    HW113394   3.729   0.346   0.182
 4165SOL    HW213395   3.691   0.325   0.339
 4166SOL     OW13396   6.308   4.035   0.839
 4166SOL    HW113397   6.364   3.956   0.815
 4166SOL    HW213398   6.361   4.119   0.823
 4167SOL     OW13399   1.012   3.795   1.074
 4167SOL    HW113400   1.084   3.727   1.059
 4167SOL    HW213401   1.051   3.878   1.113
 4168SOL     OW13402   6.431   5.306   0.997
 4168SOL    HW113403   6.423   5.208   0.975
 4168SOL    HW213404   6.466   5.355   0.918
 4169SOL     OW13405   5.796   4.166   3.892
 4169SOL    HW113406   5.895   4.183   3.886
 4169SOL    HW213407   5.780   4.082   3.945
 4170SOL     OW13408   3.420   3.915   5.425
 4170SOL    HW113409   3.445   3.902   5.521
 4170SOL    HW213410   3.321   3.908   5.415
 4171SOL     OW13411   5.435   5.347   1.513
 4171SOL    HW113412   5.400   5.425   1.461
 4171SOL    HW213413   5.505   5.300   1.460
 4172SOL     OW13414   0.599   2.145   6.081
 4172SOL    HW113415   0.608   2.045   6.074
 4172SOL    HW213416   0.553   2.180   5.999
 4173SOL     OW13417   5.218   3.736   5.257
 4173SOL    HW113418   5.243   3.656   5.311
 4173SOL    HW213419   5.118   3.743   5.251
 4174SOL     OW13420   5.245   0.998   3.591
 4174SOL    HW113421   5.210   1.082   3.550
 4174SOL    HW213422   5.339   1.013   3.623
 4175SOL     OW13423   2.082   6.366   4.404
 4175SOL    HW113424   2.145   6.441   4.423
 4175SOL    HW213425   2.129   6.279   4.415
 4176SOL     OW13426   3.310   6.531   2.205
 4176SOL    HW113427   3.358   6.607   2.249
 4176SOL    HW213428   3.365   6.448   2.215
 4177SOL     OW13429   6.720   4.070   4.668
 4177SOL    HW113430   6.738   4.149   4.726
 4177SOL    HW213431   6.623   4.070   4.642
 4178SOL     OW13432   4.386   1.006   4.225
 4178SOL    HW113433   4.467   0.991   4.168
 4178SOL    HW213434   4.329   1.076   4.184
 4179SOL     OW13435   5.613   2.206   3.272
 4179SOL    HW113436   5.712   2.222   3.280
 4179SOL    HW213437   5.564   2.274   3.327
 4180SOL     OW13438   5.216   4.112   1.632
 4180SOL    HW113439   5.310   4.143   1.616
 4180SOL    HW213440   5.200   4.102   1.730
 4181SOL     OW13441   2.439   2.023   6.907
 4181SOL    HW113442   2.419   2.112   6.865
 4181SOL    HW213443   2.526   1.989   6.870
 4182SOL     OW13444   0.180   6.335   2.995
 4182SOL    HW113445   0.113   6.379   3.055
 4182SOL    HW213446   0.267   6.383   3.003
 4183SOL     OW13447   4.328   0.741   0.410
 4183SOL    HW113448   4.352   0.681   0.334
 4183SOL    HW213449   4.361   0.834   0.391
 4184SOL     OW13450   4.568   5.321   1.250
 4184SOL    HW113451   4.522   5.282   1.170
 4184SOL    HW213452   4.504   5.382   1.299
 4185SOL     OW13453   0.889   5.879   2.328
 4185SOL    HW113454   0.984   5.898   2.355
 4185SOL    HW213455   0.889   5.826   2.243
 4186SOL     OW13456   1.909   5.096   1.211
 4186SOL    HW113457   1.812   5.120   1.219
 4186SOL    HW213458   1.926   5.011   1.260
 4187SOL     OW13459   3.618   3.756   5.921
 4187SOL    HW113460   3.701   3.740   5.867
 4187SOL    HW213461   3.591   3.852   5.914
 4188SOL     OW13462   5.459   0.224   4.258
 4188SOL    HW113463   5.451   0.151   4.327
 4188SOL    HW213464   5.467   0.184   4.167
 4189SOL     OW13465   3.592   0.783   5.064
 4189SOL    HW113466   3.597   0.698   5.115
 4189SOL    HW213467   3.576   0.764   4.967
 4190SOL     OW13468   0.785   0.333   6.727
 4190SOL    HW113469   0.869   0.387   6.733
 4190SOL    HW213470   0.798   0.246   6.775
 4191SOL     OW13471   5.338   3.098   3.110
 4191SOL    HW113472   5.367   3.003   3.104
 4191SOL    HW213473   5.418   3.158   3.107
 4192SOL     OW13474   0.561   0.870   4.129
 4192SOL    HW113475   0.502   0.890   4.050
 4192SOL    HW213476   0.656   0.866   4.099
 4193SOL     OW13477   2.271   6.771   2.361
 4193SOL    HW113478   2.257   6.856   2.310
 4193SOL    HW213479   2.367   6.744   2.354
 4194SOL     OW13480   6.037   0.928   5.505
 4194SOL    HW113481   6.051   0.870   5.585
 4194SOL    HW213482   5.959   0.989   5.522
 4195SOL     OW13483   4.199   0.536   1.834
 4195SOL    HW113484   4.203   0.456   1.894
 4195SOL    HW213485   4.106   0.547   1.800
 4196SOL     OW13486   5.955   2.368   3.509
 4196SOL    HW113487   5.911   2.457   3.502
 4196SOL    HW213488   6.048   2.378   3.544
 4197SOL     OW13489   5.159   5.774   5.415
 4197SOL    HW113490   5.198   5.857   5.375
 4197SOL    HW213491   5.232   5.709   5.435
 4198SOL     OW13492   5.448   2.854   6.592
 4198SOL    HW113493   5.454   2.940   6.642
 4198SOL    HW213494   5.450   2.777   6.657
 4199SOL     OW13495   1.793   4.105   6.510
 4199SOL    HW113496   1.783   4.021   6.458
 4199SOL    HW213497   1.707   4.126   6.557
 4200SOL     OW13498   3.165   6.229   4.818
 4200SOL    HW113499   3.217   6.213   4.901
 4200SOL    HW213500   3.122   6.144   4.787
 4201SOL     OW13501   6.319   6.200   3.409
 4201SOL    HW113502   6.386   6.275   3.412
 4201SOL    HW213503   6.345   6.129   3.474
 4202SOL     OW13504   3.788   6.002   5.631
 4202SOL    HW113505   3.813   5.908   5.653
 4202SOL    HW213506   3.693   6.018   5.657
 4203SOL     OW13507   4.827   5.384   1.192
 4203SOL    HW113508   4.847   5.482   1.193
 4203SOL    HW213509   4.729   5.370   1.175
 4204SOL     OW13510   3.526   2.876   2.331
 4204SOL    HW113511   3.623   2.875   2.307
 4204SOL    HW213512   3.516   2.868   2.430
 4205SOL     OW13513   3.680   4.907   4.286
 4205SOL    HW113514   3.593   4.884   4.329
 4205SOL    HW213515   3.755   4.888   4.350
 4206SOL     OW13516   5.943   0.825   5.773
 4206SOL    HW113517   5.999   0.776   5.840
 4206SOL    HW213518   5.956   0.924   5.785
 4207SOL     OW13519   2.291   1.733   1.461
 4207SOL    HW113520   2.193   1.709   1.464
 4207SOL    HW213521   2.302   1.822   1.417
 4208SOL     OW13522   1.615   2.861   6.628
 4208SOL    HW113523   1.709   2.893   6.617
 4208SOL    HW213524   1.552   2.928   6.589
 4209SOL     OW13525   0.835   1.798   5.387
 4209SOL    HW113526   0.807   1.770   5.479
 4209SOL    HW213527   0.759   1.844   5.342
 4210SOL     OW13528   2.977   3.652   2.292
 4210SOL    HW113529   2.907   3.585   2.266
 4210SOL    HW213530   3.067   3.608   2.286
 4211SOL     OW13531   3.558   6.008   5.012
 4211SOL    HW113532   3.640   6.046   4.968
 4211SOL    HW213533   3.577   5.916   5.044
 4212SOL     OW13534   6.109   2.633   2.277
 4212SOL    HW113535   6.092   2.702   2.206
 4212SOL    HW213536   6.182   2.666   2.337
 4213SOL     OW13537   2.796   1.034   2.848
 4213SOL    HW113538   2.752   1.124   2.852
 4213SOL    HW213539   2.727   0.963   2.865
 4214SOL     OW13540   0.882   4.256   5.997
 4214SOL    HW113541   0.910   4.342   6.039
 4214SOL    HW213542   0.802   4.271   5.939
 4215SOL     OW13543   6.463   6.012   4.492
 4215SOL    HW113544   6.524   6.085   4.525
 4215SOL    HW213545   6.516   5.929   4.475
 4216SOL     OW13546   1.881   1.768   3.405
 4216SOL    HW113547   1.894   1.860   3.444
 4216SOL    HW213548   1.966   1.716   3.414
 4217SOL     OW13549   6.701   0.064   2.383
 4217SOL    HW113550   6.654   0.123   2.449
 4217SOL    HW213551   6.771   0.011   2.431
 4218SOL     OW13552   4.843   0.417   1.148
 4218SOL    HW113553   4.796   0.388   1.231
 4218SOL    HW213554   4.912   0.486   1.171
 4219SOL     OW13555   2.873   5.446   4.367
 4219SOL    HW113556   2.913   5.533   4.338
 4219SOL    HW213557   2.907   5.373   4.307
 4220SOL     OW13558   6.402   2.539   3.083
 4220SOL    HW113559   6.303   2.550   3.090
 4220SOL    HW213560   6.429   2.451   3.121
 4221SOL     OW13561   6.252   5.645   6.235
 4221SOL    HW113562   6.313   5.615   6.308
 4221SOL    HW213563   6.173   5.692   6.274
 4222SOL     OW13564   6.088   2.217   2.549
 4222SOL    HW113565   6.020   2.199   2.478
 4222SOL    HW213566   6.178   2.186   2.518
 4223SOL     OW13567   3.063   3.549   5.094
 4223SOL    HW113568   3.020   3.470   5.138
 4223SOL    HW213569   3.066   3.535   4.995
 4224SOL     OW13570   4.906   3.239   3.720
 4224SOL    HW113571   4.988   3.207   3.765
 4224SOL    HW213572   4.847   3.161   3.697
 4225SOL     OW13573   4.633   0.256   5.400
 4225SOL    HW113574   4.725   0.232   5.432
 4225SOL    HW213575   4.614   0.352   5.423
 4226SOL     OW13576   0.471   0.706   3.342
 4226SOL    HW113577   0.438   0.701   3.248
 4226SOL    HW213578   0.393   0.706   3.405
 4227SOL     OW13579   3.331   4.847   6.853
 4227SOL    HW113580   3.250   4.797   6.881
 4227SOL    HW213581   3.317   4.945   6.869
 4228SOL     OW13582   6.956   3.120   3.067
 4228SOL    HW113583   6.967   3.210   3.026
 4228SOL    HW213584   6.994   3.051   3.005
 4229SOL     OW13585   4.699   4.926   5.684
 4229SOL    HW113586   4.790   4.939   5.645
 4229SOL    HW213587   4.646   5.010   5.675
 4230SOL     OW13588   2.143   0.549   4.707
 4230SOL    HW113589   2.191   0.636   4.702
 4230SOL    HW213590   2.069   0.555   4.774
 4231SOL     OW13591   5.403   6.312   4.535
 4231SOL    HW113592   5.482   6.251   4.521
 4231SOL    HW213593   5.355   6.285   4.619
 4232SOL     OW13594   0.193   4.731   2.140
 4232SOL    HW113595   0.120   4.672   2.175
 4232SOL    HW213596   0.232   4.784   2.216
 4233SOL     OW13597   6.955   0.408   6.780
 4233SOL    HW113598   6.870   0.458   6.765
 4233SOL    HW213599   6.935   0.312   6.801
 4234SOL     OW13600   1.294   0.334   5.941
 4234SOL    HW113601   1.337   0.422   5.921
 4234SOL    HW213602   1.345   0.261   5.894
 4235SOL     OW13603   6.107   3.591   5.533
 4235SOL    HW113604   6.040   3.662   5.512
 4235SOL    HW213605   6.106   3.522   5.461
 4236SOL     OW13606   0.297   3.312   2.981
 4236SOL    HW113607   0.214   3.348   3.023
 4236SOL    HW213608   0.354   3.270   3.052
 4237SOL     OW13609   6.472   4.770   4.325
 4237SOL    HW113610   6.500   4.771   4.229
 4237SOL    HW213611   6.527   4.835   4.377
 4238SOL     OW13612   4.659   4.706   3.855
 4238SOL    HW113613   4.715   4.641   3.802
 4238SOL    HW213614   4.562   4.688   3.836
 4239SOL     OW13615   6.180   0.725   3.570
 4239SOL    HW113616   6.232   0.662   3.513
 4239SOL    HW213617   6.085   0.729   3.538
 4240SOL     OW13618   2.087   6.774   6.985
 4240SOL    HW113619   2.124   6.821   6.905
 4240SOL    HW213620   2.162   6.739   0.011
 4241SOL     OW13621   4.874   1.019   1.243
 4241SOL    HW113622   4.963   0.989   1.277
 4241SOL    HW213623   4.831   0.945   1.191
 4242SOL     OW13624   1.732   0.869   3.106
 4242SOL    HW113625   1.789   0.906   3.033
 4242SOL    HW213626   1.766   0.779   3.133
 4243SOL     OW13627   0.851   3.826   3.132
 4243SOL    HW113628   0.905   3.743   3.123
 4243SOL    HW213629   0.754   3.805   3.115
 4244SOL     OW13630   4.513   5.238   0.960
 4244SOL    HW113631   4.462   5.235   0.874
 4244SOL    HW213632   4.587   5.305   0.952
 4245SOL     OW13633   0.056   1.367   6.759
 4245SOL    HW113634   0.025   1.322   6.843
 4245SOL    HW213635   0.156   1.376   6.761
 4246SOL     OW13636   5.836   2.598   3.453
 4246SOL    HW113637   5.741   2.629   3.465
 4246SOL    HW213638   5.853   2.579   3.357
 4247SOL     OW13639   2.175   5.477   4.120
 4247SOL    HW113640   2.172   5.384   4.157
 4247SOL    HW213641   2.104   5.532   4.163
 4248SOL     OW13642   1.159   1.112   3.689
 4248SOL    HW113643   1.113   1.194   3.656
 4248SOL    HW213644   1.252   1.135   3.717
 4249SOL     OW13645   6.397   1.064   3.367
 4249SOL    HW113646   6.311   1.025   3.397
 4249SOL    HW213647   6.381   1.155   3.329
 4250SOL     OW13648   6.959   5.999   3.896
 4250SOL    HW113649   0.026   6.015   3.882
 4250SOL    HW213650   6.921   5.953   3.816
 4251SOL     OW13651   6.763   3.081   0.279
 4251SOL    HW113652   6.812   3.082   0.366
 4251SOL    HW213653   6.676   3.033   0.291
 4252SOL     OW13654   5.554   6.164   6.590
 4252SOL    HW113655   5.578   6.170   6.493
 4252SOL    HW213656   5.601   6.085   6.631
 4253SOL     OW13657   3.875   5.816   2.019
 4253SOL    HW113658   3.917   5.772   1.939
 4253SOL    HW213659   3.776   5.808   2.013
 4254SOL     OW13660   1.946   4.487   1.671
 4254SOL    HW113661   2.020   4.519   1.611
 4254SOL    HW213662   1.951   4.536   1.758
 4255SOL     OW13663   0.311   3.910   3.765
 4255SOL    HW113664   0.228   3.886   3.814
 4255SOL    HW213665   0.383   3.843   3.787
 4256SOL     OW13666   1.123   5.916   1.634
 4256SOL    HW113667   1.080   6.005   1.652
 4256SOL    HW213668   1.120   5.861   1.718
 4257SOL     OW13669   5.298   1.273   4.203
 4257SOL    HW113670   5.294   1.321   4.291
 4257SOL    HW213671   5.210   1.283   4.156
 4258SOL     OW13672   3.408   5.924   1.153
 4258SOL    HW113673   3.448   5.919   1.061
 4258SOL    HW213674   3.322   5.872   1.154
 4259SOL     OW13675   1.663   6.314   1.147
 4259SOL    HW113676   1.726   6.277   1.078
 4259SOL    HW213677   1.586   6.252   1.157
 4260SOL     OW13678   5.358   6.981   3.527
 4260SOL    HW113679   5.413   0.029   3.556
 4260SOL    HW213680   5.375   6.903   3.588
 4261SOL     OW13681   1.740   1.162   2.785
 4261SOL    HW113682   1.743   1.260   2.802
 4261SOL    HW213683   1.651   1.125   2.813
 4262SOL     OW13684   1.525   4.324   5.851
 4262SOL    HW113685   1.432   4.289   5.855
 4262SOL    HW213686   1.549   4.346   5.756
 4263SOL     OW13687   2.651   0.945   3.301
 4263SOL    HW113688   2.583   1.006   3.341
 4263SOL    HW213689   2.726   1.000   3.262
 4264SOL     OW13690   6.211   1.768   4.301
 4264SOL    HW113691   6.219   1.838   4.372
 4264SOL    HW213692   6.131   1.711   4.319
 4265SOL     OW13693   4.048   1.210   0.811
 4265SOL    HW113694   4.102   1.138   0.768
 4265SOL    HW213695   3.958   1.174   0.836
 4266SOL     OW13696   1.322   6.491   0.178
 4266SOL    HW113697   1.230   6.530   0.172
 4266SOL    HW213698   1.317   6.396   0.207
 4267SOL     OW13699   2.113   3.481   3.952
 4267SOL    HW113700   2.178   3.407   3.935
 4267SOL    HW213701   2.038   3.476   3.887
 4268SOL     OW13702   1.942   5.740   6.901
 4268SOL    HW113703   1.859   5.705   6.857
 4268SOL    HW213704   1.997   5.790   6.834
 4269SOL     OW13705   2.890   1.140   3.848
 4269SOL    HW113706   2.899   1.204   3.771
 4269SOL    HW213707   2.808   1.162   3.900
 4270SOL     OW13708   3.080   3.062   2.131
 4270SOL    HW113709   3.149   3.002   2.172
 4270SOL    HW213710   3.018   3.095   2.203
 4271SOL     OW13711   6.936   1.092   0.279
 4271SOL    HW113712   6.881   1.082   0.362
 4271SOL    HW213713   6.896   1.036   0.206
 4272SOL     OW13714   6.669   3.098   5.117
 4272SOL    HW113715   6.646   3.113   5.213
 4272SOL    HW213716   6.684   3.187   5.072
 4273SOL     OW13717   5.009   6.289   5.363
 4273SOL    HW113718   4.946   6.212   5.369
 4273SOL    HW213719   4.988   6.343   5.282
 4274SOL     OW13720   1.036   0.278   1.705
 4274SOL    HW113721   1.111   0.216   1.729
 4274SOL    HW213722   0.949   0.238   1.733
 4275SOL     OW13723   0.462   1.970   4.295
 4275SOL    HW113724   0.553   1.970   4.338
 4275SOL    HW213725   0.466   1.918   4.210
 4276SOL     OW13726   3.122   5.186   3.897
 4276SOL    HW113727   3.155   5.244   3.822
 4276SOL    HW213728   3.044   5.230   3.941
 4277SOL     OW13729   0.127   4.189   2.372
 4277SOL    HW113730   0.031   4.218   2.372
 4277SOL    HW213731   0.148   4.143   2.286
 4278SOL     OW13732   0.636   0.100   3.492
 4278SOL    HW113733   0.555   0.135   3.539
 4278SOL    HW213734   0.658   0.009   3.527
 4279SOL     OW13735   1.278   1.329   2.471
 4279SOL    HW113736   1.369   1.291   2.459
 4279SOL    HW213737   1.250   1.318   2.567
 4280SOL     OW13738   6.221   7.005   5.830
 4280SOL    HW113739   6.275   0.021   5.760
 4280SOL    HW213740   6.197   0.041   5.902
 4281SOL     OW13741   5.174   4.843   3.225
 4281SOL    HW113742   5.139   4.766   3.279
 4281SOL    HW213743   5.186   4.815   3.130
 4282SOL     OW13744   2.976   4.957   0.907
 4282SOL    HW113745   3.040   4.969   0.983
 4282SOL    HW213746   2.925   4.872   0.920
 4283SOL     OW13747   3.986   0.953   3.543
 4283SOL    HW113748   4.021   0.992   3.628
 4283SOL    HW213749   4.020   0.859   3.533
 4284SOL     OW13750   4.306   5.447   0.434
 4284SOL    HW113751   4.298   5.544   0.456
 4284SOL    HW213752   4.401   5.426   0.411
 4285SOL     OW13753   2.444   0.973   5.800
 4285SOL    HW113754   2.409   1.020   5.719
 4285SOL    HW213755   2.491   0.889   5.773
 4286SOL     OW13756   5.871   0.236   6.200
 4286SOL    HW113757   5.835   0.185   6.121
 4286SOL    HW213758   5.833   0.328   6.201
 4287SOL     OW13759   5.101   1.005   5.537
 4287SOL    HW113760   5.021   0.989   5.479
 4287SOL    HW213761   5.072   1.046   5.624
 4288SOL     OW13762   0.478   5.666   3.096
 4288SOL    HW113763   0.456   5.652   2.999
 4288SOL    HW213764   0.501   5.762   3.111
 4289SOL     OW13765   1.245   2.461   6.407
 4289SOL    HW113766   1.297   2.436   6.325
 4289SOL    HW213767   1.304   2.453   6.487
 4290SOL     OW13768   0.173   6.720   4.896
 4290SOL    HW113769   0.194   6.721   4.798
 4290SOL    HW213770   0.182   6.627   4.931
 4291SOL     OW13771   5.211   4.001   6.133
 4291SOL    HW113772   5.141   4.020   6.203
 4291SOL    HW213773   5.296   4.046   6.159
 4292SOL     OW13774   6.011   3.067   0.168
 4292SOL    HW113775   5.936   3.127   0.142
 4292SOL    HW213776   5.994   2.975   0.133
 4293SOL     OW13777   3.509   4.074   6.691
 4293SOL    HW113778   3.487   3.992   6.639
 4293SOL    HW213779   3.561   4.137   6.633
 4294SOL     OW13780   2.184   1.702   6.168
 4294SOL    HW113781   2.173   1.747   6.256
 4294SOL    HW213782   2.279   1.711   6.138
 4295SOL     OW13783   4.415   6.321   3.307
 4295SOL    HW113784   4.402   6.371   3.221
 4295SOL    HW213785   4.401   6.383   3.384
 4296SOL     OW13786   3.416   6.917   0.593
 4296SOL    HW113787   3.460   6.946   0.508
 4296SOL    HW213788   3.452   6.828   0.619
 4297SOL     OW13789   6.716   6.711   2.314
 4297SOL    HW113790   6.659   6.746   2.389
 4297SOL    HW213791   6.658   6.669   2.244
 4298SOL     OW13792   3.309   6.152   2.311
 4298SOL    HW113793   3.324   6.110   2.222
 4298SOL    HW213794   3.358   6.101   2.382
 4299SOL     OW13795   0.842   3.035   6.699
 4299SOL    HW113796   0.786   3.117   6.681
 4299SOL    HW213797   0.890   3.010   6.615
 4300SOL     OW13798   2.685   6.894   0.583
 4300SOL    HW113799   2.701   6.966   0.651
 4300SOL    HW213800   2.758   6.826   0.588
 4301SOL     OW13801   4.285   0.522   1.419
 4301SOL    HW113802   4.289   0.497   1.516
 4301SOL    HW213803   4.305   0.619   1.409
 4302SOL     OW13804   6.241   6.992   6.647
 4302SOL    HW113805   6.163   6.952   6.600
 4302SOL    HW213806   6.292   0.021   6.585
 4303SOL     OW13807   0.018   4.724   3.654
 4303SOL    HW113808   0.107   4.722   3.610
 4303SOL    HW213809   0.011   4.648   3.719
 4304SOL     OW13810   3.654   3.625   2.223
 4304SOL    HW113811   3.656   3.566   2.142
 4304SOL    HW213812   3.564   3.620   2.266
 4305SOL     OW13813   0.452   6.580   6.084
 4305SOL    HW113814   0.395   6.650   6.126
 4305SOL    HW213815   0.510   6.538   6.153
 4306SOL     OW13816   4.689   5.302   4.505
 4306SOL    HW113817   4.611   5.283   4.564
 4306SOL    HW213818   4.763   5.237   4.525
 4307SOL     OW13819   5.628   3.504   5.053
 4307SOL    HW113820   5.717   3.484   5.012
 4307SOL    HW213821   5.642   3.541   5.145
 4308SOL     OW13822   5.670   5.256   1.423
 4308SOL    HW113823   5.653   5.227   1.329
 4308SOL    HW213824   5.740   5.197   1.464
 4309SOL     OW13825   1.263   2.416   0.195
 4309SOL    HW113826   1.268   2.324   0.156
 4309SOL    HW213827   1.315   2.419   0.280
 4310SOL     OW13828   1.462   2.772   1.895
 4310SOL    HW113829   1.532   2.840   1.873
 4310SOL    HW213830   1.455   2.706   1.820
 4311SOL     OW13831   1.123   6.187   2.332
 4311SOL    HW113832   1.046   6.229   2.283
 4311SOL    HW213833   1.138   6.236   2.418
 4312SOL     OW13834   1.675   5.728   2.814
 4312SOL    HW113835   1.703   5.632   2.815
 4312SOL    HW213836   1.584   5.737   2.854
 4313SOL     OW13837   4.129   1.862   0.194
 4313SOL    HW113838   4.116   1.845   0.097
 4313SOL    HW213839   4.053   1.822   0.246
 4314SOL     OW13840   6.080   1.749   5.016
 4314SOL    HW113841   6.168   1.790   5.040
 4314SOL    HW213842   6.008   1.818   5.023
 4315SOL     OW13843   2.021   1.086   3.111
 4315SOL    HW113844   2.106   1.048   3.147
 4315SOL    HW213845   1.978   1.019   3.051
 4316SOL     OW13846   5.392   0.159   2.534
 4316SOL    HW113847   5.373   0.061   2.545
 4316SOL    HW213848   5.314   0.212   2.567
 4317SOL     OW13849   5.048   1.736   5.636
 4317SOL    HW113850   5.011   1.828   5.647
 4317SOL    HW213851   4.976   1.668   5.649
 4318SOL     OW13852   0.734   1.342   4.635
 4318SOL    HW113853   0.648   1.368   4.679
 4318SOL    HW213854   0.772   1.422   4.588
 4319SOL     OW13855   1.784   1.776   1.084
 4319SOL    HW113856   1.733   1.770   1.169
 4319SOL    HW213857   1.724   1.806   1.010
 4320SOL     OW13858   3.658   5.780   1.133
 4320SOL    HW113859   3.694   5.782   1.040
 4320SOL    HW213860   3.565   5.744   1.132
 4321SOL     OW13861   6.809   4.913   3.655
 4321SOL    HW113862   6.887   4.853   3.672
 4321SOL    HW213863   6.769   4.889   3.566
 4322SOL     OW13864   6.590   3.019   6.189
 4322SOL    HW113865   6.536   2.943   6.152
 4322SOL    HW213866   6.669   3.035   6.129
 4323SOL     OW13867   4.638   5.008   0.362
 4323SOL    HW113868   4.580   5.070   0.309
 4323SOL    HW213869   4.589   4.977   0.443
 4324SOL     OW13870   6.531   4.370   5.516
 4324SOL    HW113871   6.532   4.274   5.544
 4324SOL    HW213872   6.518   4.377   5.417
 4325SOL     OW13873   2.977   1.613   2.215
 4325SOL    HW113874   3.057   1.623   2.274
 4325SOL    HW213875   2.973   1.690   2.151
 4326SOL     OW13876   5.548   4.026   2.048
 4326SOL    HW113877   5.591   3.942   2.016
 4326SOL    HW213878   5.607   4.071   2.115
 4327SOL     OW13879   4.212   6.082   2.971
 4327SOL    HW113880   4.193   5.983   2.974
 4327SOL    HW213881   4.127   6.131   2.952
 4328SOL     OW13882   5.623   4.446   5.023
 4328SOL    HW113883   5.581   4.529   4.987
 4328SOL    HW213884   5.723   4.454   5.019
 4329SOL     OW13885   6.017   2.740   5.777
 4329SOL    HW113886   6.060   2.680   5.710
 4329SOL    HW213887   5.972   2.816   5.730
 4330SOL     OW13888   1.995   6.838   3.951
 4330SOL    HW113889   1.939   6.756   3.964
 4330SOL    HW213890   1.981   6.901   4.028
 4331SOL     OW13891   6.581   0.444   1.474
 4331SOL    HW113892   6.664   0.387   1.482
 4331SOL    HW213893   6.604   0.530   1.428
 4332SOL     OW13894   6.720   3.088   3.208
 4332SOL    HW113895   6.798   3.134   3.166
 4332SOL    HW213896   6.691   3.011   3.150
 4333SOL     OW13897   4.131   2.025   4.826
 4333SOL    HW113898   4.119   1.994   4.732
 4333SOL    HW213899   4.086   1.962   4.889
 4334SOL     OW13900   1.588   2.963   2.471
 4334SOL    HW113901   1.623   3.054   2.490
 4334SOL    HW213902   1.630   2.928   2.386
 4335SOL     OW13903   3.786   2.718   1.744
 4335SOL    HW113904   3.872   2.746   1.701
 4335SOL    HW213905   3.773   2.769   1.829
 4336SOL     OW13906   2.312   5.162   5.629
 4336SOL    HW113907   2.345   5.092   5.692
 4336SOL    HW213908   2.374   5.170   5.552
 4337SOL     OW13909   1.889   5.026   1.644
 4337SOL    HW113910   1.887   5.115   1.689
 4337SOL    HW213911   1.957   4.967   1.688
 4338SOL     OW13912   6.207   0.300   6.459
 4338SOL    HW113913   6.305   0.283   6.468
 4338SOL    HW213914   6.176   0.356   6.536
 4339SOL     OW13915   3.582   2.487   6.337
 4339SOL    HW113916   3.590   2.496   6.237
 4339SOL    HW213917   3.487   2.505   6.364
 4340SOL     OW13918   5.682   3.309   1.023
 4340SOL    HW113919   5.641   3.342   0.938
 4340SOL    HW213920   5.641   3.221   1.047
 4341SOL     OW13921   1.131   5.288   1.575
 4341SOL    HW113922   1.161   5.212   1.518
 4341SOL    HW213923   1.047   5.263   1.623
 4342SOL     OW13924   5.143   3.282   3.040
 4342SOL    HW113925   5.189   3.195   3.056
 4342SOL    HW213926   5.136   3.298   2.941
 4343SOL     OW13927   3.111   6.174   5.288
 4343SOL    HW113928   3.085   6.082   5.319
 4343SOL    HW213929   3.210   6.177   5.271
 4344SOL     OW13930   0.929   2.943   3.095
 4344SOL    HW113931   0.908   2.990   3.180
 4344SOL    HW213932   0.848   2.894   3.063
 4345SOL     OW13933   2.902   3.353   4.695
 4345SOL    HW113934   2.853   3.306   4.768
 4345SOL    HW213935   2.932   3.287   4.626
 4346SOL     OW13936   2.159   2.985   2.442
 4346SOL    HW113937   2.084   2.934   2.400
 4346SOL    HW213938   2.205   2.929   2.511
 4347SOL     OW13939   6.153   6.672   2.743
 4347SOL    HW113940   6.150   6.641   2.838
 4347SOL    HW213941   6.079   6.737   2.727
 4348SOL     OW13942   0.441   5.781   4.413
 4348SOL    HW113943   0.434   5.797   4.315
 4348SOL    HW213944   0.479   5.861   4.458
 4349SOL     OW13945   6.977   3.133   3.850
 4349SOL    HW113946   0.025   3.155   3.908
 4349SOL    HW213947   6.926   3.056   3.890
 4350SOL     OW13948   5.317   2.235   3.985
 4350SOL    HW113949   5.390   2.267   4.045
 4350SOL    HW213950   5.354   2.167   3.921
 4351SOL     OW13951   1.137   5.923   1.217
 4351SOL    HW113952   1.225   5.901   1.258
 4351SOL    HW213953   1.119   6.022   1.226
 4352SOL     OW13954   6.246   3.979   1.851
 4352SOL    HW113955   6.315   4.049   1.864
 4352SOL    HW213956   6.178   3.986   1.924
 4353SOL     OW13957   3.403   3.607   0.293
 4353SOL    HW113958   3.308   3.614   0.325
 4353SOL    HW213959   3.415   3.663   0.211
 4354SOL     OW13960   0.690   1.921   5.976
 4354SOL    HW113961   0.681   1.844   6.040
 4354SOL    HW213962   0.780   1.962   5.987
 4355SOL     OW13963   1.863   6.986   3.070
 4355SOL    HW113964   1.781   0.007   3.043
 4355SOL    HW213965   1.843   6.935   3.154
 4356SOL     OW13966   4.523   3.551   5.347
 4356SOL    HW113967   4.548   3.477   5.409
 4356SOL    HW213968   4.591   3.556   5.273
 4357SOL     OW13969   6.989   1.504   1.369
 4357SOL    HW113970   7.028   1.592   1.341
 4357SOL    HW213971   6.990   1.442   1.291
 4358SOL     OW13972   6.783   0.045   0.236
 4358SOL    HW113973   6.707   7.014   0.216
 4358SOL    HW213974   6.764   0.097   0.319
 4359SOL     OW13975   1.605   1.337   6.621
 4359SOL    HW113976   1.568   1.275   6.689
 4359SOL    HW213977   1.691   1.376   6.654
 4360SOL     OW13978   0.940   2.812   4.257
 4360SOL    HW113979   0.952   2.819   4.158
 4360SOL    HW213980   0.843   2.800   4.278
 4361SOL     OW13981   2.137   3.335   1.352
 4361SOL    HW113982   2.150   3.241   1.321
 4361SOL    HW213983   2.175   3.398   1.284
 4362SOL     OW13984   0.063   5.628   3.922
 4362SOL    HW113985   0.015   5.573   3.991
 4362SOL    HW213986   0.046   5.589   3.831
 4363SOL     OW13987   4.393   1.178   2.164
 4363SOL    HW113988   4.469   1.218   2.112
 4363SOL    HW213989   4.394   1.079   2.154
 4364SOL     OW13990   3.048   3.919   3.106
 4364SOL    HW113991   3.053   3.987   3.179
 4364SOL    HW213992   3.136   3.874   3.096
 4365SOL     OW13993   3.260   0.620   1.967
 4365SOL    HW113994   3.180   0.677   1.984
 4365SOL    HW213995   3.282   0.568   2.049
 4366SOL     OW13996   5.877   6.261   6.385
 4366SOL    HW113997   5.889   6.275   6.483
 4366SOL    HW213998   5.874   6.349   6.339
 4367SOL     OW13999   3.078   4.865   3.518
 4367SOL    HW114000   3.031   4.793   3.568
 4367SOL    HW214001   3.158   4.896   3.571
 4368SOL     OW14002   3.963   5.601   2.200
 4368SOL    HW114003   3.919   5.636   2.117
 4368SOL    HW214004   3.934   5.656   2.278
 4369SOL     OW14005   5.097   5.465   3.453
 4369SOL    HW114006   5.166   5.397   3.426
 4369SOL    HW214007   5.107   5.486   3.550
 4370SOL     OW14008   3.540   3.926   1.543
 4370SOL    HW114009   3.549   3.906   1.641
 4370SOL    HW214010   3.489   3.852   1.499
 4371SOL     OW14011   2.190   1.448   2.934
 4371SOL    HW114012   2.204   1.466   2.836
 4371SOL    HW214013   2.207   1.352   2.953
 4372SOL     OW14014   2.067   3.187   3.922
 4372SOL    HW114015   2.128   3.148   3.991
 4372SOL    HW214016   1.973   3.156   3.939
 4373SOL     OW14017   4.475   0.854   6.515
 4373SOL    HW114018   4.557   0.858   6.458
 4373SOL    HW214019   4.475   0.770   6.568
 4374SOL     OW14020   1.766   1.524   1.286
 4374SOL    HW114021   1.862   1.549   1.273
 4374SOL    HW214022   1.745   1.519   1.384
 4375SOL     OW14023   4.010   6.278   3.028
 4375SOL    HW114024   4.067   6.341   2.975
 4375SOL    HW214025   3.967   6.327   3.103
 4376SOL     OW14026   6.824   0.199   1.606
 4376SOL    HW114027   6.740   0.153   1.637
 4376SOL    HW214028   6.892   0.196   1.679
 4377SOL     OW14029   6.245   5.549   0.339
 4377SOL    HW114030   6.199   5.512   0.419
 4377SOL    HW214031   6.269   5.645   0.355
 4378SOL     OW14032   1.143   4.487   2.829
 4378SOL    HW114033   1.224   4.435   2.802
 4378SOL    HW214034   1.160   4.531   2.917
 4379SOL     OW14035   2.299   0.736   1.756
 4379SOL    HW114036   2.229   0.676   1.718
 4379SOL    HW214037   2.386   0.720   1.709
 4380SOL     OW14038   1.849   5.930   4.496
 4380SOL    HW114039   1.754   5.921   4.527
 4380SOL    HW214040   1.911   5.908   4.571
 4381SOL     OW14041   2.266   4.215   4.815
 4381SOL    HW114042   2.265   4.150   4.891
 4381SOL    HW214043   2.347   4.274   4.823
 4382SOL     OW14044   6.095   4.417   6.046
 4382SOL    HW114045   6.119   4.347   5.979
 4382SOL    HW214046   6.108   4.507   6.006
 4383SOL     OW14047   0.750   2.495   5.506
 4383SOL    HW114048   0.663   2.466   5.465
 4383SOL    HW214049   0.820   2.501   5.434
 4384SOL     OW14050   5.032   1.199   7.030
 4384SOL    HW114051   5.048   1.237   0.091
 4384SOL    HW214052   5.025   1.274   6.964
 4385SOL     OW14053   7.020   2.865   4.121
 4385SOL    HW114054   6.973   2.896   4.039
 4385SOL    HW214055   6.995   2.770   4.141
 4386SOL     OW14056   1.071   3.251   6.578
 4386SOL    HW114057   1.107   3.176   6.523
 4386SOL    HW214058   0.975   3.267   6.554
 4387SOL     OW14059   1.172   2.200   1.766
 4387SOL    HW114060   1.141   2.144   1.843
 4387SOL    HW214061   1.093   2.235   1.717
 4388SOL     OW14062   4.590   0.841   7.014
 4388SOL    HW114063   4.619   0.865   6.922
 4388SOL    HW214064   4.629   0.905   0.050
 4389SOL     OW14065   5.895   1.973   0.527
 4389SOL    HW114066   5.816   2.027   0.557
 4389SOL    HW214067   5.876   1.933   0.438
 4390SOL     OW14068   3.879   2.131   2.234
 4390SOL    HW114069   3.828   2.127   2.320
 4390SOL    HW214070   3.816   2.151   2.159
 4391SOL     OW14071   1.311   5.744   6.443
 4391SOL    HW114072   1.397   5.789   6.464
 4391SOL    HW214073   1.235   5.798   6.479
 4392SOL     OW14074   6.315   3.543   5.289
 4392SOL    HW114075   6.283   3.629   5.248
 4392SOL    HW214076   6.345   3.561   5.383
 4393SOL     OW14077   5.128   6.309   2.984
 4393SOL    HW114078   5.153   6.394   2.937
 4393SOL    HW214079   5.147   6.318   3.082
 4394SOL     OW14080   6.328   5.162   3.109
 4394SOL    HW114081   6.368   5.206   3.189
 4394SOL    HW214082   6.247   5.111   3.137
 4395SOL     OW14083   4.239   1.621   1.734
 4395SOL    HW114084   4.268   1.525   1.726
 4395SOL    HW214085   4.140   1.625   1.749
 4396SOL     OW14086   2.450   1.778   3.940
 4396SOL    HW114087   2.484   1.859   3.987
 4396SOL    HW214088   2.352   1.767   3.958
 4397SOL     OW14089   0.126   1.723   4.657
 4397SOL    HW114090   0.123   1.729   4.557
 4397SOL    HW214091   0.185   1.795   4.693
 4398SOL     OW14092   1.170   4.512   5.432
 4398SOL    HW114093   1.115   4.595   5.434
 4398SOL    HW214094   1.205   4.497   5.340
 4399SOL     OW14095   1.962   0.410   2.120
 4399SOL    HW114096   1.998   0.418   2.213
 4399SOL    HW214097   1.903   0.489   2.099
 4400SOL     OW14098   2.090   6.605   4.676
 4400SOL    HW114099   2.072   6.652   4.590
 4400SOL    HW214100   2.006   6.565   4.712
 4401SOL     OW14101   5.624   6.183   6.337
 4401SOL    HW114102   5.577   6.256   6.287
 4401SOL    HW214103   5.722   6.204   6.343
 4402SOL     OW14104   1.822   5.989   2.562
 4402SOL    HW114105   1.774   6.070   2.595
 4402SOL    HW214106   1.755   5.917   2.541
 4403SOL     OW14107   0.227   6.962   3.637
 4403SOL    HW114108   0.139   6.992   3.674
 4403SOL    HW214109   0.228   6.977   3.538
 4404SOL     OW14110   1.254   3.890   5.335
 4404SOL    HW114111   1.184   3.948   5.291
 4404SOL    HW214112   1.226   3.794   5.330
 4405SOL     OW14113   2.896   4.006   0.327
 4405SOL    HW114114   2.894   4.104   0.307
 4405SOL    HW214115   2.820   3.961   0.282
 4406SOL     OW14116   5.627   4.527   1.558
 4406SOL    HW114117   5.652   4.571   1.645
 4406SOL    HW214118   5.706   4.529   1.496
 4407SOL     OW14119   6.963   4.805   0.630
 4407SOL    HW114120   6.952   4.902   0.610
 4407SOL    HW214121   6.964   4.791   0.730
 4408SOL     OW14122   5.141   0.853   0.897
 4408SOL    HW114123   5.120   0.920   0.967
 4408SOL    HW214124   5.068   0.785   0.892
 4409SOL     OW14125   4.198   0.834   2.338
 4409SOL    HW114126   4.290   0.804   2.364
 4409SOL    HW214127   4.132   0.766   2.369
 4410SOL     OW14128   1.723   4.651   0.141
 4410SOL    HW114129   1.818   4.679   0.128
 4410SOL    HW214130   1.718   4.580   0.210
 4411SOL     OW14131   4.053   3.377   3.598
 4411SOL    HW114132   4.060   3.303   3.666
 4411SOL    HW214133   4.109   3.454   3.627
 4412SOL     OW14134   3.613   1.749   4.518
 4412SOL    HW114135   3.547   1.796   4.460
 4412SOL    HW214136   3.579   1.659   4.542
 4413SOL     OW14137   5.081   5.938   5.064
 4413SOL    HW114138   5.060   6.034   5.044
 4413SOL    HW214139   5.075   5.884   4.980
 4414SOL     OW14140   4.298   4.985   1.604
 4414SOL    HW114141   4.365   4.966   1.532
 4414SOL    HW214142   4.332   4.949   1.691
 4415SOL     OW14143   4.254   4.001   6.598
 4415SOL    HW114144   4.192   3.923   6.610
 4415SOL    HW214145   4.343   3.968   6.567
 4416SOL     OW14146   3.023   0.639   4.683
 4416SOL    HW114147   2.928   0.658   4.710
 4416SOL    HW214148   3.042   0.681   4.595
 4417SOL     OW14149   6.941   4.219   2.664
 4417SOL    HW114150   6.913   4.218   2.760
 4417SOL    HW214151   7.012   4.287   2.650
 4418SOL     OW14152   5.158   0.764   4.313
 4418SOL    HW114153   5.173   0.676   4.358
 4418SOL    HW214154   5.204   0.836   4.365
 4419SOL     OW14155   5.616   6.310   0.582
 4419SOL    HW114156   5.667   6.396   0.589
 4419SOL    HW214157   5.597   6.289   0.486
 4420SOL     OW14158   5.021   1.943   0.725
 4420SOL    HW114159   4.987   2.031   0.759
 4420SOL    HW214160   4.997   1.871   0.789
 4421SOL     OW14161   1.776   1.090   3.267
 4421SOL    HW114162   1.746   1.027   3.195
 4421SOL    HW214163   1.874   1.106   3.259
 4422SOL     OW14164   2.365   3.732   5.913
 4422SOL    HW114165   2.340   3.720   5.817
 4422SOL    HW214166   2.341   3.825   5.942
 4423SOL     OW14167   1.691   2.661   6.040
 4423SOL    HW114168   1.703   2.585   6.104
 4423SOL    HW214169   1.738   2.639   5.954
 4424SOL     OW14170   5.624   6.793   3.745
 4424SOL    HW114171   5.655   6.698   3.753
 4424SOL    HW214172   5.701   6.852   3.722
 4425SOL     OW14173   3.537   5.836   5.943
 4425SOL    HW114174   3.480   5.875   5.871
 4425SOL    HW214175   3.486   5.834   6.029
 4426SOL     OW14176   6.977   2.105   4.729
 4426SOL    HW114177   0.016   2.134   4.796
 4426SOL    HW214178   6.895   2.160   4.741
 4427SOL     OW14179   6.985   6.734   2.734
 4427SOL    HW114180   0.050   6.707   2.750
 4427SOL    HW214181   6.975   6.832   2.752
 4428SOL     OW14182   3.049   5.265   2.668
 4428SOL    HW114183   3.123   5.209   2.630
 4428SOL    HW214184   3.087   5.350   2.704
 4429SOL     OW14185   3.035   0.976   4.027
 4429SOL    HW114186   2.985   0.892   4.047
 4429SOL    HW214187   2.987   1.027   3.955
 4430SOL     OW14188   5.505   3.071   4.011
 4430SOL    HW114189   5.420   3.108   4.048
 4430SOL    HW214190   5.566   3.046   4.087
 4431SOL     OW14191   1.605   1.345   1.981
 4431SOL    HW114192   1.602   1.420   1.915
 4431SOL    HW214193   1.513   1.330   2.018
 4432SOL     OW14194   3.353   4.157   3.905
 4432SOL    HW114195   3.268   4.160   3.958
 4432SOL    HW214196   3.357   4.071   3.854
 4433SOL     OW14197   5.998   0.628   4.299
 4433SOL    HW114198   6.014   0.621   4.398
 4433SOL    HW214199   6.066   0.691   4.259
 4434SOL     OW14200   4.250   2.119   3.799
 4434SOL    HW114201   4.315   2.183   3.757
 4434SOL    HW214202   4.254   2.128   3.899
 4435SOL     OW14203   4.501   3.743   0.933
 4435SOL    HW114204   4.558   3.703   1.005
 4435SOL    HW214205   4.467   3.670   0.874
 4436SOL     OW14206   3.246   2.279   0.615
 4436SOL    HW114207   3.333   2.327   0.606
 4436SOL    HW214208   3.210   2.257   0.524
 4437SOL     OW14209   5.545   1.367   3.486
 4437SOL    HW114210   5.478   1.416   3.542
 4437SOL    HW214211   5.587   1.295   3.541
 4438SOL     OW14212   4.349   1.103   6.941
 4438SOL    HW114213   4.387   1.189   6.973
 4438SOL    HW214214   4.342   1.038   7.018
 4439SOL     OW14215   0.208   6.284   1.532
 4439SOL    HW114216   0.208   6.223   1.611
 4439SOL    HW214217   0.241   6.235   1.451
 4440SOL     OW14218   1.754   4.448   0.315
 4440SOL    HW114219   1.699   4.374   0.355
 4440SOL    HW214220   1.777   4.514   0.385
 4441SOL     OW14221   6.979   1.233   2.519
 4441SOL    HW114222   6.974   1.333   2.514
 4441SOL    HW214223   6.934   1.193   2.439
 4442SOL     OW14224   3.274   6.291   4.138
 4442SOL    HW114225   3.227   6.202   4.145
 4442SOL    HW214226   3.373   6.277   4.143
 4443SOL     OW14227   0.238   2.796   0.590
 4443SOL    HW114228   0.333   2.800   0.620
 4443SOL    HW214229   0.230   2.733   0.512
 4444SOL     OW14230   3.679   5.901   6.304
 4444SOL    HW114231   3.684   5.976   6.371
 4444SOL    HW214232   3.589   5.858   6.309
 4445SOL     OW14233   6.806   0.557   0.908
 4445SOL    HW114234   6.734   0.534   0.973
 4445SOL    HW214235   6.773   0.628   0.846
 4446SOL     OW14236   5.425   1.318   1.784
 4446SOL    HW114237   5.388   1.235   1.826
 4446SOL    HW214238   5.525   1.309   1.778
 4447SOL     OW14239   6.194   3.785   5.852
 4447SOL    HW114240   6.208   3.829   5.764
 4447SOL    HW214241   6.283   3.758   5.890
 4448SOL     OW14242   3.316   4.172   0.969
 4448SOL    HW114243   3.242   4.232   0.942
 4448SOL    HW214244   3.318   4.163   1.069
 4449SOL     OW14245   4.250   0.783   6.008
 4449SOL    HW114246   4.269   0.798   6.105
 4449SOL    HW214247   4.293   0.857   5.955
 4450SOL     OW14248   3.949   3.422   4.271
 4450SOL    HW114249   4.017   3.383   4.334
 4450SOL    HW214250   3.977   3.516   4.248
 4451SOL     OW14251   5.747   3.956   2.821
 4451SOL    HW114252   5.818   3.926   2.884
 4451SOL    HW214253   5.669   3.992   2.872
 4452SOL     OW14254   5.667   6.782   5.188
 4452SOL    HW114255   5.749   6.817   5.233
 4452SOL    HW214256   5.636   6.847   5.119
 4453SOL     OW14257   6.241   2.564   0.953
 4453SOL    HW114258   6.324   2.618   0.942
 4453SOL    HW214259   6.223   2.549   1.050
 4454SOL     OW14260   5.315   2.508   0.108
 4454SOL    HW114261   5.407   2.478   0.129
 4454SOL    HW214262   5.249   2.437   0.134
 4455SOL     OW14263   3.739   0.561   6.284
 4455SOL    HW114264   3.724   0.647   6.332
 4455SOL    HW214265   3.836   0.538   6.287
 4456SOL     OW14266   2.577   5.071   2.520
 4456SOL    HW114267   2.522   5.152   2.541
 4456SOL    HW214268   2.597   5.022   2.605
 4457SOL     OW14269   4.047   2.382   0.355
 4457SOL    HW114270   4.094   2.467   0.378
 4457SOL    HW214271   4.071   2.312   0.423
 4458SOL     OW14272   1.074   3.669   6.473
 4458SOL    HW114273   1.134   3.590   6.487
 4458SOL    HW214274   1.123   3.752   6.499
 4459SOL     OW14275   5.204   0.669   3.311
 4459SOL    HW114276   5.284   0.718   3.277
 4459SOL    HW214277   5.127   0.732   3.317
 4460SOL     OW14278   2.774   3.138   5.560
 4460SOL    HW114279   2.830   3.141   5.643
 4460SOL    HW214280   2.677   3.147   5.584
 4461SOL     OW14281   0.976   0.499   2.575
 4461SOL    HW114282   0.919   0.506   2.493
 4461SOL    HW214283   0.924   0.527   2.655
 4462SOL     OW14284   0.066   3.522   1.638
 4462SOL    HW114285   0.127   3.533   1.717
 4462SOL    HW214286   0.120   3.513   1.555
 4463SOL     OW14287   2.716   2.719   6.795
 4463SOL    HW114288   2.666   2.726   6.881
 4463SOL    HW214289   2.760   2.806   6.775
 4464SOL     OW14290   5.715   4.852   6.949
 4464SOL    HW114291   5.721   4.831   0.017
 4464SOL    HW214292   5.758   4.778   6.897
 4465SOL     OW14293   2.050   5.698   3.617
 4465SOL    HW114294   2.146   5.702   3.589
 4465SOL    HW214295   2.041   5.641   3.699
 4466SOL     OW14296   1.378   0.473   1.769
 4466SOL    HW114297   1.340   0.562   1.746
 4466SOL    HW214298   1.375   0.414   1.688
 4467SOL     OW14299   1.521   6.034   3.349
 4467SOL    HW114300   1.460   6.100   3.304
 4467SOL    HW214301   1.616   6.056   3.325
 4468SOL     OW14302   1.420   2.354   0.458
 4468SOL    HW114303   1.518   2.370   0.449
 4468SOL    HW214304   1.396   2.266   0.417
 4469SOL     OW14305   3.376   0.215   1.232
 4469SOL    HW114306   3.468   0.198   1.267
 4469SOL    HW214307   3.331   0.285   1.288
 4470SOL     OW14308   6.342   3.716   1.798
 4470SOL    HW114309   6.427   3.707   1.850
 4470SOL    HW214310   6.298   3.802   1.822
 4471SOL     OW14311   0.207   1.959   0.405
 4471SOL    HW114312   0.252   1.920   0.485
 4471SOL    HW214313   0.226   1.902   0.325
 4472SOL     OW14314   1.930   2.967   3.680
 4472SOL    HW114315   1.884   3.046   3.720
 4472SOL    HW214316   2.029   2.983   3.678
 4473SOL     OW14317   6.700   2.140   3.321
 4473SOL    HW114318   6.627   2.153   3.388
 4473SOL    HW214319   6.714   2.225   3.270
 4474SOL     OW14320   3.386   0.883   1.893
 4474SOL    HW114321   3.392   0.970   1.941
 4474SOL    HW214322   3.373   0.809   1.959
 4475SOL     OW14323   1.760   3.946   2.564
 4475SOL    HW114324   1.731   3.954   2.468
 4475SOL    HW214325   1.683   3.913   2.619
 4476SOL     OW14326   4.959   6.540   3.944
 4476SOL    HW114327   5.028   6.506   4.008
 4476SOL    HW214328   4.899   6.464   3.918
 4477SOL     OW14329   1.625   6.997   5.408
 4477SOL    HW114330   1.653   0.056   5.373
 4477SOL    HW214331   1.544   7.008   5.466
 4478SOL     OW14332   2.648   5.843   2.471
 4478SOL    HW114333   2.726   5.785   2.448
 4478SOL    HW214334   2.589   5.796   2.536
 4479SOL     OW14335   0.863   0.079   0.706
 4479SOL    HW114336   0.954   0.120   0.702
 4479SOL    HW214337   0.814   0.100   0.622
 4480SOL     OW14338   1.659   3.550   5.300
 4480SOL    HW114339   1.732   3.598   5.349
 4480SOL    HW214340   1.599   3.617   5.256
 4481SOL     OW14341   2.826   6.851   5.090
 4481SOL    HW114342   2.915   6.822   5.055
 4481SOL    HW214343   2.769   6.884   5.015
 4482SOL     OW14344   0.258   4.151   3.955
 4482SOL    HW114345   0.290   4.076   3.897
 4482SOL    HW214346   0.336   4.194   4.000
 4483SOL     OW14347   5.780   3.394   1.436
 4483SOL    HW114348   5.848   3.416   1.505
 4483SOL    HW214349   5.724   3.474   1.417
 4484SOL     OW14350   2.950   2.344   5.291
 4484SOL    HW114351   2.896   2.428   5.285
 4484SOL    HW214352   3.042   2.362   5.257
 4485SOL     OW14353   5.255   2.400   6.080
 4485SOL    HW114354   5.236   2.333   6.151
 4485SOL    HW214355   5.223   2.490   6.110
 4486SOL     OW14356   5.620   3.591   4.647
 4486SOL    HW114357   5.546   3.525   4.636
 4486SOL    HW214358   5.608   3.641   4.733
 4487SOL     OW14359   2.500   3.058   6.372
 4487SOL    HW114360   2.417   3.014   6.406
 4487SOL    HW214361   2.552   3.096   6.448
 4488SOL     OW14362   6.055   2.964   5.423
 4488SOL    HW114363   6.147   2.995   5.444
 4488SOL    HW214364   5.992   3.042   5.424
 4489SOL     OW14365   5.029   6.013   4.516
 4489SOL    HW114366   5.118   6.016   4.470
 4489SOL    HW214367   4.977   6.096   4.494
 4490SOL     OW14368   5.960   2.394   2.175
 4490SOL    HW114369   6.016   2.477   2.173
 4490SOL    HW214370   5.865   2.418   2.195
 4491SOL     OW14371   0.659   3.355   3.792
 4491SOL    HW114372   0.673   3.452   3.771
 4491SOL    HW214373   0.651   3.303   3.708
 4492SOL     OW14374   4.816   3.067   0.642
 4492SOL    HW114375   4.727   3.066   0.688
 4492SOL    HW214376   4.816   3.140   0.573
 4493SOL     OW14377   4.741   6.062   5.865
 4493SOL    HW114378   4.736   6.111   5.778
 4493SOL    HW214379   4.719   6.125   5.940
 4494SOL     OW14380   6.775   1.730   5.843
 4494SOL    HW114381   6.734   1.776   5.922
 4494SOL    HW214382   6.706   1.716   5.772
 4495SOL     OW14383   4.763   6.349   3.869
 4495SOL    HW114384   4.735   6.262   3.911
 4495SOL    HW214385   4.695   6.419   3.888
 4496SOL     OW14386   4.615   5.706   0.767
 4496SOL    HW114387   4.625   5.752   0.679
 4496SOL    HW214388   4.528   5.657   0.768
 4497SOL     OW14389   4.454   0.566   0.234
 4497SOL    HW114390   4.548   0.590   0.209
 4497SOL    HW214391   4.453   0.476   0.278
 4498SOL     OW14392   0.461   2.867   5.832
 4498SOL    HW114393   0.520   2.788   5.820
 4498SOL    HW214394   0.499   2.926   5.903
 4499SOL     OW14395   0.465   3.698   3.774
 4499SOL    HW114396   0.412   3.614   3.784
 4499SOL    HW214397   0.509   3.720   3.861
 4500SOL     OW14398   3.040   3.391   4.240
 4500SOL    HW114399   2.999   3.404   4.331
 4500SOL    HW214400   3.114   3.457   4.227
 4501SOL     OW14401   0.409   3.322   5.934
 4501SOL    HW114402   0.366   3.261   5.867
 4501SOL    HW214403   0.460   3.393   5.886
 4502SOL     OW14404   1.918   1.987   6.749
 4502SOL    HW114405   1.944   2.083   6.758
 4502SOL    HW214406   1.871   1.957   6.831
 4503SOL     OW14407   3.352   0.500   2.678
 4503SOL    HW114408   3.293   0.482   2.600
 4503SOL    HW214409   3.445   0.517   2.646
 4504SOL     OW14410   6.733   1.678   4.944
 4504SOL    HW114411   6.772   1.650   5.032
 4504SOL    HW214412   6.799   1.733   4.894
 4505SOL     OW14413   6.381   5.825   3.287
 4505SOL    HW114414   6.341   5.893   3.226
 4505SOL    HW214415   6.309   5.785   3.344
 4506SOL     OW14416   4.737   2.723   4.207
 4506SOL    HW114417   4.759   2.814   4.240
 4506SOL    HW214418   4.682   2.675   4.276
 4507SOL     OW14419   5.304   4.768   2.238
 4507SOL    HW114420   5.229   4.789   2.175
 4507SOL    HW214421   5.381   4.830   2.220
 4508SOL     OW14422   0.816   4.809   5.904
 4508SOL    HW114423   0.842   4.874   5.975
 4508SOL    HW214424   0.723   4.828   5.872
 4509SOL     OW14425   5.492   2.699   3.888
 4509SOL    HW114426   5.541   2.735   3.967
 4509SOL    HW214427   5.515   2.603   3.875
 4510SOL     OW14428   5.478   0.045   5.468
 4510SOL    HW114429   5.539   0.119   5.498
 4510SOL    HW214430   5.383   0.075   5.475
 4511SOL     OW14431   6.848   3.775   6.684
 4511SOL    HW114432   6.919   3.743   6.746
 4511SOL    HW214433   6.878   3.762   6.589
 4512SOL     OW14434   2.311   6.587   5.820
 4512SOL    HW114435   2.266   6.498   5.825
 4512SOL    HW214436   2.268   6.643   5.749
 4513SOL     OW14437   4.963   6.447   0.671
 4513SOL    HW114438   4.913   6.376   0.720
 4513SOL    HW214439   4.909   6.477   0.592
 4514SOL     OW14440   5.164   1.331   5.261
 4514SOL    HW114441   5.209   1.421   5.263
 4514SOL    HW214442   5.227   1.264   5.222
 4515SOL     OW14443   6.766   3.878   5.852
 4515SOL    HW114444   6.750   3.853   5.947
 4515SOL    HW214445   6.840   3.946   5.847
 4516SOL     OW14446   1.505   0.951   6.020
 4516SOL    HW114447   1.449   0.984   6.096
 4516SOL    HW214448   1.599   0.937   6.052
 4517SOL     OW14449   2.042   0.343   6.909
 4517SOL    HW114450   2.001   0.260   6.949
 4517SOL    HW214451   1.973   0.416   6.906
 4518SOL     OW14452   6.618   1.685   3.468
 4518SOL    HW114453   6.683   1.613   3.490
 4518SOL    HW214454   6.666   1.773   3.460
 4519SOL     OW14455   5.252   0.178   1.736
 4519SOL    HW114456   5.239   0.110   1.808
 4519SOL    HW214457   5.335   0.230   1.754
 4520SOL     OW14458   5.545   5.692   3.677
 4520SOL    HW114459   5.475   5.632   3.715
 4520SOL    HW214460   5.532   5.700   3.579
 4521SOL     OW14461   4.974   1.920   4.328
 4521SOL    HW114462   5.025   1.859   4.390
 4521SOL    HW214463   4.992   1.893   4.233
 4522SOL     OW14464   5.596   0.107   3.573
 4522SOL    HW114465   5.535   0.184   3.591
 4522SOL    HW214466   5.645   0.122   3.487
 4523SOL     OW14467   1.054   4.196   0.090
 4523SOL    HW114468   1.048   4.118   0.028
 4523SOL    HW214469   1.149   4.213   0.113
 4524SOL     OW14470   5.297   2.020   4.883
 4524SOL    HW114471   5.238   2.099   4.897
 4524SOL    HW214472   5.349   2.002   4.966
 4525SOL     OW14473   6.317   1.328   3.284
 4525SOL    HW114474   6.241   1.283   3.237
 4525SOL    HW214475   6.281   1.389   3.355
 4526SOL     OW14476   4.887   0.708   0.930
 4526SOL    HW114477   4.851   0.630   0.879
 4526SOL    HW214478   4.810   0.758   0.972
 4527SOL     OW14479   3.995   1.211   4.071
 4527SOL    HW114480   4.002   1.304   4.036
 4527SOL    HW214481   3.921   1.163   4.024
 4528SOL     OW14482   4.649   6.609   0.133
 4528SOL    HW114483   4.611   6.539   0.193
 4528SOL    HW214484   4.580   6.636   0.065
 4529SOL     OW14485   3.322   1.958   4.628
 4529SOL    HW114486   3.400   1.978   4.687
 4529SOL    HW214487   3.254   1.906   4.678
 4530SOL     OW14488   0.211   3.233   5.730
 4530SOL    HW114489   0.293   3.200   5.682
 4530SOL    HW214490   0.154   3.285   5.666
 4531SOL     OW14491   0.706   3.560   3.195
 4531SOL    HW114492   0.774   3.550   3.268
 4531SOL    HW214493   0.673   3.469   3.169
 4532SOL     OW14494   0.323   1.303   2.256
 4532SOL    HW114495   0.306   1.401   2.244
 4532SOL    HW214496   0.384   1.288   2.334
 4533SOL     OW14497   1.242   0.508   2.524
 4533SOL    HW114498   1.297   0.501   2.607
 4533SOL    HW214499   1.145   0.502   2.548
 4534SOL     OW14500   6.121   3.906   4.653
 4534SOL    HW114501   6.125   3.903   4.553
 4534SOL    HW214502   6.059   3.979   4.682
 4535SOL     OW14503   4.734   1.973   2.500
 4535SOL    HW114504   4.816   1.952   2.554
 4535SOL    HW214505   4.759   2.034   2.425
 4536SOL     OW14506   5.091   2.338   3.896
 4536SOL    HW114507   5.176   2.293   3.924
 4536SOL    HW214508   5.027   2.338   3.973
 4537SOL     OW14509   3.856   2.816   5.931
 4537SOL    HW114510   3.878   2.751   5.859
 4537SOL    HW214511   3.832   2.904   5.891
 4538SOL     OW14512   2.618   0.669   4.421
 4538SOL    HW114513   2.646   0.628   4.508
 4538SOL    HW214514   2.661   0.620   4.345
 4539SOL     OW14515   1.940   0.755   4.423
 4539SOL    HW114516   1.888   0.672   4.404
 4539SOL    HW214517   1.877   0.833   4.429
 4540SOL     OW14518   3.502   2.978   4.345
 4540SOL    HW114519   3.468   2.973   4.251
 4540SOL    HW214520   3.591   2.935   4.350
 4541SOL     OW14521   5.576   1.145   0.572
 4541SOL    HW114522   5.553   1.241   0.590
 4541SOL    HW214523   5.568   1.094   0.657
 4542SOL     OW14524   6.209   6.657   1.944
 4542SOL    HW114525   6.233   6.572   1.989
 4542SOL    HW214526   6.109   6.663   1.935
 4543SOL     OW14527   5.164   2.312   0.223
 4543SOL    HW114528   5.105   2.245   0.179
 4543SOL    HW214529   5.139   2.320   0.319
 4544SOL     OW14530   2.864   6.569   5.528
 4544SOL    HW114531   2.806   6.507   5.580
 4544SOL    HW214532   2.815   6.603   5.448
 4545SOL     OW14533   5.893   2.713   4.638
 4545SOL    HW114534   5.857   2.768   4.714
 4545SOL    HW214535   5.861   2.619   4.648
 4546SOL     OW14536   1.222   1.523   6.111
 4546SOL    HW114537   1.171   1.559   6.032
 4546SOL    HW214538   1.256   1.599   6.166
 4547SOL     OW14539   6.652   2.636   3.160
 4547SOL    HW114540   6.553   2.622   3.155
 4547SOL    HW214541   6.673   2.705   3.229
 4548SOL     OW14542   1.470   4.173   4.757
 4548SOL    HW114543   1.563   4.198   4.731
 4548SOL    HW214544   1.472   4.100   4.826
 4549SOL     OW14545   6.064   4.021   2.037
 4549SOL    HW114546   6.077   4.115   2.069
 4549SOL    HW214547   5.979   4.014   1.986
 4550SOL     OW14548   0.794   5.783   2.597
 4550SOL    HW114549   0.795   5.830   2.509
 4550SOL    HW214550   0.724   5.823   2.656
 4551SOL     OW14551   6.550   2.005   5.823
 4551SOL    HW114552   6.479   2.035   5.760
 4551SOL    HW214553   6.639   2.036   5.791
 4552SOL     OW14554   6.644   2.674   6.698
 4552SOL    HW114555   6.654   2.643   6.603
 4552SOL    HW214556   6.547   2.689   6.718
 4553SOL     OW14557   3.909   4.302   0.218
 4553SOL    HW114558   4.000   4.341   0.238
 4553SOL    HW214559   3.874   4.342   0.134
 4554SOL     OW14560   4.257   0.828   1.773
 4554SOL    HW114561   4.348   0.851   1.807
 4554SOL    HW214562   4.230   0.737   1.807
 4555SOL     OW14563   3.241   1.822   5.550
 4555SOL    HW114564   3.151   1.783   5.531
 4555SOL    HW214565   3.230   1.916   5.581
 4556SOL     OW14566   4.545   2.592   3.161
 4556SOL    HW114567   4.567   2.686   3.133
 4556SOL    HW214568   4.554   2.584   3.260
 4557SOL     OW14569   5.384   6.883   5.289
 4557SOL    HW114570   5.427   6.939   5.360
 4557SOL    HW214571   5.360   6.940   5.210
 4558SOL     OW14572   0.012   3.617   5.957
 4558SOL    HW114573   0.058   3.573   6.034
 4558SOL    HW214574   6.954   3.652   5.986
 4559SOL     OW14575   0.899   4.608   1.036
 4559SOL    HW114576   0.885   4.570   1.127
 4559SOL    HW214577   0.979   4.669   1.038
 4560SOL     OW14578   5.335   4.957   3.587
 4560SOL    HW114579   5.314   4.925   3.679
 4560SOL    HW214580   5.263   5.019   3.556
 4561SOL     OW14581   2.905   0.479   1.232
 4561SOL    HW114582   3.002   0.492   1.250
 4561SOL    HW214583   2.851   0.538   1.293
 4562SOL     OW14584   3.110   5.718   4.938
 4562SOL    HW114585   3.070   5.794   4.989
 4562SOL    HW214586   3.090   5.632   4.985
 4563SOL     OW14587   0.229   4.080   0.307
 4563SOL    HW114588   0.292   4.043   0.376
 4563SOL    HW214589   0.186   4.162   0.343
 4564SOL     OW14590   0.140   6.647   0.973
 4564SOL    HW114591   0.063   6.631   1.034
 4564SOL    HW214592   0.143   6.744   0.949
 4565SOL     OW14593   0.182   1.517   5.599
 4565SOL    HW114594   0.084   1.515   5.619
 4565SOL    HW214595   0.200   1.468   5.514
 4566SOL     OW14596   6.523   1.210   0.936
 4566SOL    HW114597   6.541   1.149   0.859
 4566SOL    HW214598   6.498   1.156   1.016
 4567SOL     OW14599   0.517   0.997   7.024
 4567SOL    HW114600   0.566   1.049   6.954
 4567SOL    HW214601   0.446   1.054   0.035
 4568SOL     OW14602   1.297   4.913   5.189
 4568SOL    HW114603   1.304   5.012   5.184
 4568SOL    HW214604   1.351   4.879   5.266
 4569SOL     OW14605   2.304   1.609   2.726
 4569SOL    HW114606   2.356   1.694   2.723
 4569SOL    HW214607   2.224   1.617   2.667
 4570SOL     OW14608   0.580   5.156   3.125
 4570SOL    HW114609   0.517   5.153   3.203
 4570SOL    HW214610   0.666   5.197   3.154
 4571SOL     OW14611   3.603   3.398   5.969
 4571SOL    HW114612   3.571   3.408   5.874
 4571SOL    HW214613   3.689   3.446   5.980
 4572SOL     OW14614   0.858   6.632   6.639
 4572SOL    HW114615   0.799   6.659   6.563
 4572SOL    HW214616   0.847   6.697   6.714
 4573SOL     OW14617   6.189   6.242   0.432
 4573SOL    HW114618   6.288   6.232   0.441
 4573SOL    HW214619   6.143   6.208   0.514
 4574SOL     OW14620   6.426   4.330   1.254
 4574SOL    HW114621   6.485   4.399   1.296
 4574SOL    HW214622   6.370   4.287   1.325
 4575SOL     OW14623   6.740   1.997   6.789
 4575SOL    HW114624   6.794   2.072   6.750
 4575SOL    HW214625   6.652   2.033   6.819
 4576SOL     OW14626   1.927   6.325   6.774
 4576SOL    HW114627   1.873   6.347   6.692
 4576SOL    HW214628   1.912   6.230   6.799
 4577SOL     OW14629   0.755   2.701   3.884
 4577SOL    HW114630   0.722   2.742   3.799
 4577SOL    HW214631   0.838   2.750   3.914
 4578SOL     OW14632   0.698   3.058   4.179
 4578SOL    HW114633   0.697   2.966   4.138
 4578SOL    HW214634   0.681   3.050   4.277
 4579SOL     OW14635   5.526   2.037   2.631
 4579SOL    HW114636   5.493   2.125   2.664
 4579SOL    HW214637   5.567   1.986   2.706
 4580SOL     OW14638   5.330   5.565   6.601
 4580SOL    HW114639   5.370   5.567   6.693
 4580SOL    HW214640   5.251   5.504   6.600
 4581SOL     OW14641   2.916   5.424   3.070
 4581SOL    HW114642   2.831   5.471   3.097
 4581SOL    HW214643   2.960   5.387   3.152
 4582SOL     OW14644   5.702   6.426   4.716
 4582SOL    HW114645   5.682   6.492   4.788
 4582SOL    HW214646   5.672   6.335   4.743
 4583SOL     OW14647   2.728   1.095   4.934
 4583SOL    HW114648   2.719   1.195   4.932
 4583SOL    HW214649   2.685   1.059   5.017
 4584SOL     OW14650   0.284   4.897   5.132
 4584SOL    HW114651   0.370   4.906   5.182
 4584SOL    HW214652   0.239   4.811   5.158
 4585SOL     OW14653   2.873   6.442   2.714
 4585SOL    HW114654   2.896   6.386   2.634
 4585SOL    HW214655   2.953   6.496   2.740
 4586SOL     OW14656   3.540   5.231   0.394
 4586SOL    HW114657   3.456   5.209   0.443
 4586SOL    HW214658   3.579   5.147   0.356
 4587SOL     OW14659   4.219   3.246   1.694
 4587SOL    HW114660   4.305   3.201   1.670
 4587SOL    HW214661   4.202   3.236   1.792
 4588SOL     OW14662   3.693   4.015   5.778
 4588SOL    HW114663   3.731   4.076   5.709
 4588SOL    HW214664   3.766   3.979   5.835
 4589SOL     OW14665   5.679   1.208   1.775
 4589SOL    HW114666   5.774   1.229   1.754
 4589SOL    HW214667   5.674   1.161   1.863
 4590SOL     OW14668   4.242   6.132   1.999
 4590SOL    HW114669   4.178   6.065   2.036
 4590SOL    HW214670   4.191   6.212   1.967
 4591SOL     OW14671   0.432   5.956   5.223
 4591SOL    HW114672   0.476   5.978   5.136
 4591SOL    HW214673   0.481   6.002   5.297
 4592SOL     OW14674   4.277   2.374   2.077
 4592SOL    HW114675   4.270   2.278   2.106
 4592SOL    HW214676   4.325   2.427   2.147
 4593SOL     OW14677   4.151   5.927   4.197
 4593SOL    HW114678   4.097   5.863   4.252
 4593SOL    HW214679   4.247   5.903   4.203
 4594SOL     OW14680   3.425   2.040   1.650
 4594SOL    HW114681   3.345   2.008   1.599
 4594SOL    HW214682   3.498   2.065   1.586
 4595SOL     OW14683   3.551   2.883   5.887
 4595SOL    HW114684   3.589   2.932   5.809
 4595SOL    HW214685   3.523   2.948   5.957
 4596SOL     OW14686   6.115   6.518   2.495
 4596SOL    HW114687   6.072   6.511   2.404
 4596SOL    HW214688   6.067   6.586   2.550
 4597SOL     OW14689   5.390   4.525   6.864
 4597SOL    HW114690   5.470   4.498   6.919
 4597SOL    HW214691   5.310   4.475   6.896
 4598SOL     OW14692   1.702   5.641   0.177
 4598SOL    HW114693   1.729   5.554   0.136
 4598SOL    HW214694   1.614   5.629   0.224
 4599SOL     OW14695   1.574   4.360   0.571
 4599SOL    HW114696   1.517   4.440   0.552
 4599SOL    HW214697   1.642   4.383   0.641
 4600SOL     OW14698   1.628   5.713   6.041
 4600SOL    HW114699   1.545   5.703   6.096
 4600SOL    HW214700   1.607   5.693   5.945
 4601SOL     OW14701   1.653   0.266   5.050
 4601SOL    HW114702   1.617   0.315   5.130
 4601SOL    HW214703   1.747   0.294   5.032
 4602SOL     OW14704   1.065   5.844   0.973
 4602SOL    HW114705   1.010   5.763   0.955
 4602SOL    HW214706   1.064   5.864   1.071
 4603SOL     OW14707   3.582   6.493   0.913
 4603SOL    HW114708   3.675   6.456   0.908
 4603SOL    HW214709   3.577   6.559   0.988
 4604SOL     OW14710   4.887   0.770   2.008
 4604SOL    HW114711   4.916   0.822   1.927
 4604SOL    HW214712   4.806   0.813   2.048
 4605SOL     OW14713   4.823   1.611   3.104
 4605SOL    HW114714   4.920   1.596   3.125
 4605SOL    HW214715   4.781   1.665   3.177
 4606SOL     OW14716   0.795   6.950   1.668
 4606SOL    HW114717   0.875   6.891   1.658
 4606SOL    HW214718   0.775   6.993   1.580
 4607SOL     OW14719   2.557   2.844   0.807
 4607SOL    HW114720   2.543   2.789   0.889
 4607SOL    HW214721   2.644   2.818   0.764
 4608SOL     OW14722   0.901   5.706   3.573
 4608SOL    HW114723   0.893   5.707   3.672
 4608SOL    HW214724   0.997   5.711   3.546
 4609SOL     OW14725   3.830   5.543   6.040
 4609SOL    HW114726   3.925   5.515   6.022
 4609SOL    HW214727   3.830   5.629   6.090
 4610SOL     OW14728   5.641   2.386   0.654
 4610SOL    HW114729   5.544   2.382   0.630
 4610SOL    HW214730   5.671   2.296   0.686
 4611SOL     OW14731   6.347   5.677   5.954
 4611SOL    HW114732   6.309   5.632   6.035
 4611SOL    HW214733   6.445   5.689   5.965
 4612SOL     OW14734   1.174   6.304   0.753
 4612SOL    HW114735   1.220   6.216   0.753
 4612SOL    HW214736   1.075   6.290   0.742
 4613SOL     OW14737   2.758   5.519   2.511
 4613SOL    HW114738   2.760   5.427   2.552
 4613SOL    HW214739   2.833   5.573   2.550
 4614SOL     OW14740   1.178   4.156   5.339
 4614SOL    HW114741   1.139   4.232   5.286
 4614SOL    HW214742   1.276   4.149   5.321
 4615SOL     OW14743   1.719   0.898   0.036
 4615SOL    HW114744   1.775   0.847   0.102
 4615SOL    HW214745   1.623   0.873   0.048
 4616SOL     OW14746   5.943   0.291   5.830
 4616SOL    HW114747   5.990   0.348   5.763
 4616SOL    HW214748   5.858   0.336   5.858
 4617SOL     OW14749   1.562   2.331   2.348
 4617SOL    HW114750   1.605   2.416   2.377
 4617SOL    HW214751   1.505   2.347   2.267
 4618SOL     OW14752   2.320   2.086   5.371
 4618SOL    HW114753   2.333   1.987   5.373
 4618SOL    HW214754   2.409   2.131   5.372
 4619SOL     OW14755   3.691   6.171   3.126
 4619SOL    HW114756   3.664   6.200   3.034
 4619SOL    HW214757   3.750   6.240   3.166
 4620SOL     OW14758   2.883   4.288   0.138
 4620SOL    HW114759   2.901   4.325   0.229
 4620SOL    HW214760   2.970   4.273   0.090
 4621SOL     OW14761   5.432   1.891   3.284
 4621SOL    HW114762   5.481   1.804   3.291
 4621SOL    HW214763   5.455   1.936   3.199
 4622SOL     OW14764   1.423   3.233   0.698
 4622SOL    HW114765   1.510   3.282   0.703
 4622SOL    HW214766   1.404   3.210   0.603
 4623SOL     OW14767   0.165   6.442   0.782
 4623SOL    HW114768   0.089   6.384   0.810
 4623SOL    HW214769   0.160   6.530   0.831
 4624SOL     OW14770   5.165   6.643   3.067
 4624SOL    HW114771   5.174   6.657   3.165
 4624SOL    HW214772   5.071   6.617   3.045
 4625SOL     OW14773   1.517   4.851   0.070
 4625SOL    HW114774   1.474   4.843   7.011
 4625SOL    HW214775   1.599   4.794   0.074
 4626SOL     OW14776   5.971   5.798   1.929
 4626SOL    HW114777   5.895   5.864   1.926
 4626SOL    HW214778   5.994   5.771   1.836
 4627SOL     OW14779   3.347   6.031   3.770
 4627SOL    HW114780   3.426   6.093   3.763
 4627SOL    HW214781   3.380   5.937   3.781
 4628SOL     OW14782   6.313   4.007   4.135
 4628SOL    HW114783   6.348   4.059   4.214
 4628SOL    HW214784   6.375   3.932   4.115
 4629SOL     OW14785   2.164   4.994   4.909
 4629SOL    HW114786   2.158   5.056   4.830
 4629SOL    HW214787   2.241   4.932   4.896
 4630SOL     OW14788   3.698   5.624   2.959
 4630SOL    HW114789   3.680   5.707   2.907
 4630SOL    HW214790   3.792   5.594   2.943
 4631SOL     OW14791   2.284   6.323   3.629
 4631SOL    HW114792   2.313   6.418   3.623
 4631SOL    HW214793   2.301   6.289   3.721
 4632SOL     OW14794   4.086   4.764   3.414
 4632SOL    HW114795   4.123   4.688   3.466
 4632SOL    HW214796   4.010   4.806   3.464
 4633SOL     OW14797   6.230   2.071   3.656
 4633SOL    HW114798   6.175   2.144   3.614
 4633SOL    HW214799   6.267   2.104   3.743
 4634SOL     OW14800   2.172   4.562   6.998
 4634SOL    HW114801   2.269   4.575   7.018
 4634SOL    HW214802   2.117   4.602   0.041
 4635SOL     OW14803   5.470   3.671   1.649
 4635SOL    HW114804   5.511   3.604   1.710
 4635SOL    HW214805   5.523   3.756   1.653
 4636SOL     OW14806   1.946   5.423   0.185
 4636SOL    HW114807   1.908   5.418   0.093
 4636SOL    HW214808   1.993   5.337   0.208
 4637SOL     OW14809   1.767   0.680   0.320
 4637SOL    HW114810   1.712   0.623   0.259
 4637SOL    HW214811   1.720   0.767   0.336
 4638SOL     OW14812   4.072   2.724   6.701
 4638SOL    HW114813   4.058   2.823   6.701
 4638SOL    HW214814   4.152   2.702   6.756
 4639SOL     OW14815   1.879   4.456   5.326
 4639SOL    HW114816   1.950   4.525   5.344
 4639SOL    HW214817   1.872   4.442   5.227
 4640SOL     OW14818   5.156   5.139   3.518
 4640SOL    HW114819   5.089   5.088   3.463
 4640SOL    HW214820   5.109   5.179   3.598
 4641SOL     OW14821   3.085   6.741   4.177
 4641SOL    HW114822   3.138   6.748   4.093
 4641SOL    HW214823   3.081   6.646   4.207
 4642SOL     OW14824   0.421   6.530   5.374
 4642SOL    HW114825   0.455   6.604   5.432
 4642SOL    HW214826   0.372   6.464   5.432
 4643SOL     OW14827   5.541   2.515   1.136
 4643SOL    HW114828   5.620   2.456   1.121
 4643SOL    HW214829   5.472   2.466   1.188
 4644SOL     OW14830   1.342   5.098   4.874
 4644SOL    HW114831   1.426   5.147   4.852
 4644SOL    HW214832   1.325   5.028   4.804
 4645SOL     OW14833   1.104   0.558   3.739
 4645SOL    HW114834   1.011   0.565   3.705
 4645SOL    HW214835   1.131   0.646   3.779
 4646SOL     OW14836   2.781   6.551   3.244
 4646SOL    HW114837   2.772   6.481   3.315
 4646SOL    HW214838   2.876   6.553   3.211
 4647SOL     OW14839   1.290   6.743   3.346
 4647SOL    HW114840   1.213   6.687   3.315
 4647SOL    HW214841   1.358   6.749   3.273
 4648SOL     OW14842   4.007   0.689   1.463
 4648SOL    HW114843   3.995   0.713   1.560
 4648SOL    HW214844   4.098   0.717   1.433
 4649SOL     OW14845   5.001   6.765   5.761
 4649SOL    HW114846   5.074   6.783   5.695
 4649SOL    HW214847   4.977   6.851   5.807
 4650SOL     OW14848   4.180   6.097   3.958
 4650SOL    HW114849   4.264   6.045   3.938
 4650SOL    HW214850   4.151   6.078   4.052
 4651SOL     OW14851   0.007   1.537   0.866
 4651SOL    HW114852   0.033   1.453   0.817
 4651SOL    HW214853   0.084   1.568   0.921
 4652SOL     OW14854   0.640   0.384   4.587
 4652SOL    HW114855   0.733   0.422   4.583
 4652SOL    HW214856   0.625   0.325   4.508
 4653SOL     OW14857   6.179   5.729   6.773
 4653SOL    HW114858   6.238   5.722   6.853
 4653SOL    HW214859   6.096   5.779   6.797
 4654SOL     OW14860   0.245   6.746   0.106
 4654SOL    HW114861   0.283   6.728   0.197
 4654SOL    HW214862   0.195   6.666   0.074
 4655SOL     OW14863   6.937   5.595   1.742
 4655SOL    HW114864   6.982   5.537   1.673
 4655SOL    HW214865   6.896   5.537   1.812
 4656SOL     OW14866   1.221   0.345   3.307
 4656SOL    HW114867   1.233   0.363   3.404
 4656SOL    HW214868   1.197   0.248   3.294
 4657SOL     OW14869   4.709   6.633   1.645
 4657SOL    HW114870   4.793   6.595   1.607
 4657SOL    HW214871   4.697   6.602   1.739
 4658SOL     OW14872   3.994   1.304   2.264
 4658SOL    HW114873   4.058   1.229   2.284
 4658SOL    HW214874   4.046   1.385   2.237
 4659SOL     OW14875   2.709   4.025   5.986
 4659SOL    HW114876   2.662   4.075   5.913
 4659SOL    HW214877   2.666   3.935   5.996
 4660SOL     OW14878   1.211   2.987   5.245
 4660SOL    HW114879   1.210   2.905   5.302
 4660SOL    HW214880   1.299   2.994   5.199
 4661SOL     OW14881   3.417   3.908   5.735
 4661SOL    HW114882   3.508   3.949   5.748
 4661SOL    HW214883   3.354   3.978   5.702
 4662SOL     OW14884   4.292   0.432   5.050
 4662SOL    HW114885   4.216   0.466   5.105
 4662SOL    HW214886   4.373   0.488   5.067
 4663SOL     OW14887   0.972   1.833   2.448
 4663SOL    HW114888   1.029   1.760   2.486
 4663SOL    HW214889   1.029   1.914   2.430
 4664SOL     OW14890   2.376   1.792   0.566
 4664SOL    HW114891   2.459   1.840   0.593
 4664SOL    HW214892   2.342   1.830   0.480
 4665SOL     OW14893   4.294   6.870   0.669
 4665SOL    HW114894   4.389   6.884   0.695
 4665SOL    HW214895   4.237   6.871   0.751
 4666SOL     OW14896   1.488   1.735   0.702
 4666SOL    HW114897   1.585   1.761   0.707
 4666SOL    HW214898   1.444   1.785   0.628
 4667SOL     OW14899   6.232   4.560   1.080
 4667SOL    HW114900   6.299   4.498   1.039
 4667SOL    HW214901   6.278   4.622   1.143
 4668SOL     OW14902   6.157   2.292   2.804
 4668SOL    HW114903   6.153   2.258   2.710
 4668SOL    HW214904   6.178   2.389   2.804
 4669SOL     OW14905   2.972   6.889   0.270
 4669SOL    HW114906   2.971   6.933   0.360
 4669SOL    HW214907   3.010   6.953   0.203
 4670SOL     OW14908   3.108   1.841   4.786
 4670SOL    HW114909   3.084   1.744   4.797
 4670SOL    HW214910   3.047   1.897   4.841
 4671SOL     OW14911   6.743   2.744   2.186
 4671SOL    HW114912   6.687   2.767   2.265
 4671SOL    HW214913   6.760   2.826   2.132
 4672SOL     OW14914   2.737   4.936   6.319
 4672SOL    HW114915   2.779   5.026   6.327
 4672SOL    HW214916   2.731   4.895   6.410
 4673SOL     OW14917   4.579   6.486   0.698
 4673SOL    HW114918   4.623   6.568   0.661
 4673SOL    HW214919   4.515   6.511   0.770
 4674SOL     OW14920   4.969   0.143   6.955
 4674SOL    HW114921   5.019   0.224   6.924
 4674SOL    HW214922   4.920   0.164   0.009
 4675SOL     OW14923   0.618   2.812   6.681
 4675SOL    HW114924   0.569   2.858   6.756
 4675SOL    HW214925   0.713   2.844   6.680
 4676SOL     OW14926   6.779   5.685   3.763
 4676SOL    HW114927   6.785   5.618   3.689
 4676SOL    HW214928   6.838   5.763   3.744
 4677SOL     OW14929   3.058   2.328   0.807
 4677SOL    HW114930   3.120   2.286   0.874
 4677SOL    HW214931   3.104   2.334   0.719
 4678SOL     OW14932   2.076   4.592   3.110
 4678SOL    HW114933   1.983   4.555   3.119
 4678SOL    HW214934   2.136   4.546   3.176
 4679SOL     OW14935   4.441   0.069   1.793
 4679SOL    HW114936   4.477   0.079   1.885
 4679SOL    HW214937   4.516   0.078   1.727
 4680SOL     OW14938   4.151   1.052   6.647
 4680SOL    HW114939   4.149   0.953   6.657
 4680SOL    HW214940   4.180   1.094   6.733
 4681SOL     OW14941   5.290   4.892   0.092
 4681SOL    HW114942   5.328   4.809   0.133
 4681SOL    HW214943   5.286   4.880   7.022
 4682SOL     OW14944   4.562   4.824   5.478
 4682SOL    HW114945   4.612   4.846   5.562
 4682SOL    HW214946   4.628   4.810   5.404
 4683SOL     OW14947   5.486   5.520   2.859
 4683SOL    HW114948   5.395   5.496   2.891
 4683SOL    HW214949   5.543   5.548   2.936
 4684SOL     OW14950   4.901   0.046   5.634
 4684SOL    HW114951   4.917   0.080   5.727
 4684SOL    HW214952   4.945   6.987   5.623
 4685SOL     OW14953   1.972   4.811   6.716
 4685SOL    HW114954   1.980   4.852   6.625
 4685SOL    HW214955   2.055   4.758   6.736
 4686SOL     OW14956   4.099   6.163   7.003
 4686SOL    HW114957   4.188   6.207   7.013
 4686SOL    HW214958   4.054   6.198   6.921
 4687SOL     OW14959   4.899   3.086   4.035
 4687SOL    HW114960   4.851   3.072   3.948
 4687SOL    HW214961   4.997   3.071   4.022
 4688SOL     OW14962   5.832   2.807   5.208
 4688SOL    HW114963   5.822   2.906   5.200
 4688SOL    HW214964   5.829   2.766   5.117
 4689SOL     OW14965   5.315   0.669   0.925
 4689SOL    HW114966   5.246   0.600   0.905
 4689SOL    HW214967   5.277   0.760   0.911
 4690SOL     OW14968   2.060   0.469   0.636
 4690SOL    HW114969   2.000   0.548   0.626
 4690SOL    HW214970   2.154   0.495   0.613
 4691SOL     OW14971   2.957   3.403   1.049
 4691SOL    HW114972   2.893   3.345   1.099
 4691SOL    HW214973   2.908   3.479   1.006
 4692SOL     OW14974   5.633   5.424   3.075
 4692SOL    HW114975   5.725   5.390   3.093
 4692SOL    HW214976   5.567   5.367   3.123
 4693SOL     OW14977   1.382   0.522   3.533
 4693SOL    HW114978   1.331   0.441   3.562
 4693SOL    HW214979   1.324   0.579   3.476
 4694SOL     OW14980   2.353   1.513   0.110
 4694SOL    HW114981   2.346   1.504   0.210
 4694SOL    HW214982   2.448   1.499   0.082
 4695SOL     OW14983   1.212   4.646   1.060
 4695SOL    HW114984   1.191   4.743   1.056
 4695SOL    HW214985   1.273   4.622   0.984
 4696SOL     OW14986   0.346   5.352   6.366
 4696SOL    HW114987   0.397   5.353   6.452
 4696SOL    HW214988   0.410   5.355   6.289
 4697SOL     OW14989   1.082   3.877   1.682
 4697SOL    HW114990   1.083   3.894   1.780
 4697SOL    HW214991   0.990   3.852   1.653
 4698SOL     OW14992   4.113   6.094   3.316
 4698SOL    HW114993   4.170   6.058   3.242
 4698SOL    HW214994   4.099   6.192   3.302
 4699SOL     OW14995   0.610   6.575   2.530
 4699SOL    HW114996   0.535   6.546   2.589
 4699SOL    HW214997   0.650   6.495   2.484
 4700SOL     OW14998   6.903   1.934   2.395
 4700SOL    HW114999   6.837   1.993   2.348
 4700SOL    HW215000   6.949   1.875   2.328
 4701SOL     OW15001   3.405   2.110   7.006
 4701SOL    HW115002   3.486   2.054   6.989
 4701SOL    HW215003   3.383   2.162   6.923
 4702SOL     OW15004   4.776   4.795   0.261
 4702SOL    HW115005   4.735   4.870   0.312
 4702SOL    HW215006   4.870   4.780   0.291
 4703SOL     OW15007   1.004   0.292   2.762
 4703SOL    HW115008   0.996   0.386   2.729
 4703SOL    HW215009   1.084   0.249   2.721
 4704SOL     OW15010   6.424   6.004   6.216
 4704SOL    HW115011   6.374   5.954   6.145
 4704SOL    HW215012   6.501   6.052   6.175
 4705SOL     OW15013   4.301   2.413   0.928
 4705SOL    HW115014   4.222   2.377   0.977
 4705SOL    HW215015   4.369   2.445   0.993
 4706SOL     OW15016   1.812   0.378   0.419
 4706SOL    HW115017   1.904   0.359   0.383
 4706SOL    HW215018   1.791   0.475   0.407
 4707SOL     OW15019   0.764   6.711   1.419
 4707SOL    HW115020   0.863   6.711   1.433
 4707SOL    HW215021   0.734   6.619   1.393
 4708SOL     OW15022   1.214   1.937   5.486
 4708SOL    HW115023   1.157   1.882   5.424
 4708SOL    HW215024   1.292   1.883   5.516
 4709SOL     OW15025   4.812   5.608   5.270
 4709SOL    HW115026   4.857   5.630   5.357
 4709SOL    HW215027   4.881   5.592   5.200
 4710SOL     OW15028   5.413   0.201   5.941
 4710SOL    HW115029   5.387   0.139   5.867
 4710SOL    HW215030   5.452   0.148   6.017
 4711SOL     OW15031   6.469   1.653   1.520
 4711SOL    HW115032   6.560   1.689   1.542
 4711SOL    HW215033   6.401   1.723   1.539
 4712SOL     OW15034   3.050   4.783   6.909
 4712SOL    HW115035   2.968   4.839   6.911
 4712SOL    HW215036   3.062   4.745   6.817
 4713SOL     OW15037   3.692   4.523   0.875
 4713SOL    HW115038   3.608   4.474   0.852
 4713SOL    HW215039   3.669   4.610   0.920
 4714SOL     OW15040   0.863   1.645   6.001
 4714SOL    HW115041   0.944   1.618   5.949
 4714SOL    HW215042   0.781   1.613   5.954
 4715SOL     OW15043   6.124   3.692   1.461
 4715SOL    HW115044   6.098   3.629   1.388
 4715SOL    HW215045   6.148   3.641   1.543
 4716SOL     OW15046   4.329   6.291   5.518
 4716SOL    HW115047   4.369   6.339   5.596
 4716SOL    HW215048   4.262   6.224   5.551
 4717SOL     OW15049   0.634   5.962   4.499
 4717SOL    HW115050   0.686   6.029   4.552
 4717SOL    HW215051   0.696   5.907   4.444
 4718SOL     OW15052   5.706   1.774   1.275
 4718SOL    HW115053   5.793   1.755   1.230
 4718SOL    HW215054   5.722   1.821   1.362
 4719SOL     OW15055   4.900   3.534   2.362
 4719SOL    HW115056   4.860   3.457   2.312
 4719SOL    HW215057   4.974   3.574   2.308
 4720SOL     OW15058   2.249   5.319   5.887
 4720SOL    HW115059   2.275   5.281   5.799
 4720SOL    HW215060   2.151   5.340   5.887
 4721SOL     OW15061   6.782   1.818   2.092
 4721SOL    HW115062   6.724   1.785   2.018
 4721SOL    HW215063   6.752   1.911   2.118
 4722SOL     OW15064   1.061   5.978   6.960
 4722SOL    HW115065   1.037   6.031   6.879
 4722SOL    HW215066   1.041   5.881   6.945
 4723SOL     OW15067   2.792   3.531   5.504
 4723SOL    HW115068   2.847   3.503   5.582
 4723SOL    HW215069   2.729   3.458   5.479
 4724SOL     OW15070   6.972   6.970   4.436
 4724SOL    HW115071   7.029   6.951   4.516
 4724SOL    HW215072   6.989   6.901   4.366
 4725SOL     OW15073   6.178   5.282   0.251
 4725SOL    HW115074   6.266   5.236   0.254
 4725SOL    HW215075   6.191   5.380   0.270
 4726SOL     OW15076   1.568   3.039   6.264
 4726SOL    HW115077   1.558   3.068   6.359
 4726SOL    HW215078   1.505   2.963   6.245
 4727SOL     OW15079   0.730   6.201   1.223
 4727SOL    HW115080   0.701   6.121   1.275
 4727SOL    HW215081   0.762   6.173   1.132
 4728SOL     OW15082   5.467   1.353   2.607
 4728SOL    HW115083   5.372   1.346   2.639
 4728SOL    HW215084   5.480   1.293   2.529
 4729SOL     OW15085   5.139   1.152   0.562
 4729SOL    HW115086   5.174   1.099   0.639
 4729SOL    HW215087   5.067   1.101   0.516
 4730SOL     OW15088   3.339   5.797   4.824
 4730SOL    HW115089   3.261   5.787   4.886
 4730SOL    HW215090   3.423   5.769   4.870
 4731SOL     OW15091   2.981   0.997   0.704
 4731SOL    HW115092   2.944   1.090   0.710
 4731SOL    HW215093   3.065   0.998   0.650
 4732SOL     OW15094   0.831   3.576   5.203
 4732SOL    HW115095   0.898   3.523   5.255
 4732SOL    HW215096   0.792   3.647   5.262
 4733SOL     OW15097   1.776   3.735   4.032
 4733SOL    HW115098   1.752   3.666   3.964
 4733SOL    HW215099   1.836   3.804   3.991
 4734SOL     OW15100   4.345   3.434   0.560
 4734SOL    HW115101   4.297   3.354   0.597
 4734SOL    HW215102   4.303   3.461   0.474
 4735SOL     OW15103   6.803   5.670   4.057
 4735SOL    HW115104   6.729   5.708   4.112
 4735SOL    HW215105   6.769   5.650   3.965
 4736SOL     OW15106   5.920   1.564   6.161
 4736SOL    HW115107   5.891   1.659   6.168
 4736SOL    HW215108   6.012   1.559   6.124
 4737SOL     OW15109   2.902   4.358   1.070
 4737SOL    HW115110   2.838   4.341   0.996
 4737SOL    HW215111   2.851   4.385   1.152
 4738SOL     OW15112   2.273   6.458   2.993
 4738SOL    HW115113   2.197   6.501   3.043
 4738SOL    HW215114   2.332   6.529   2.954
 4739SOL     OW15115   5.107   1.643   2.879
 4739SOL    HW115116   5.067   1.615   2.792
 4739SOL    HW215117   5.177   1.577   2.907
 4740SOL     OW15118   0.306   1.213   0.879
 4740SOL    HW115119   0.216   1.243   0.847
 4740SOL    HW215120   0.349   1.155   0.809
 4741SOL     OW15121   4.712   3.296   1.427
 4741SOL    HW115122   4.644   3.278   1.355
 4741SOL    HW215123   4.747   3.388   1.416
 4742SOL     OW15124   2.535   6.703   1.091
 4742SOL    HW115125   2.492   6.647   1.020
 4742SOL    HW215126   2.558   6.793   1.053
 4743SOL     OW15127   1.816   2.958   4.905
 4743SOL    HW115128   1.755   3.001   4.972
 4743SOL    HW215129   1.789   2.985   4.813
 4744SOL     OW15130   2.665   4.170   6.224
 4744SOL    HW115131   2.701   4.260   6.200
 4744SOL    HW215132   2.708   4.101   6.166
 4745SOL     OW15133   2.726   5.253   5.204
 4745SOL    HW115134   2.723   5.303   5.290
 4745SOL    HW215135   2.680   5.306   5.133
 4746SOL     OW15136   5.742   6.430   2.565
 4746SOL    HW115137   5.799   6.413   2.645
 4746SOL    HW215138   5.702   6.344   2.533
 4747SOL     OW15139   1.334   4.228   0.163
 4747SOL    HW115140   1.352   4.312   0.215
 4747SOL    HW215141   1.325   4.152   0.226
 4748SOL     OW15142   1.109   5.135   0.737
 4748SOL    HW115143   1.089   5.042   0.766
 4748SOL    HW215144   1.060   5.156   0.653
 4749SOL     OW15145   2.850   6.347   5.291
 4749SOL    HW115146   2.886   6.436   5.319
 4749SOL    HW215147   2.925   6.288   5.261
 4750SOL     OW15148   0.135   3.362   4.201
 4750SOL    HW115149   0.092   3.443   4.239
 4750SOL    HW215150   0.233   3.365   4.220
 4751SOL     OW15151   2.629   2.796   0.464
 4751SOL    HW115152   2.693   2.747   0.524
 4751SOL    HW215153   2.544   2.745   0.457
 4752SOL     OW15154   2.882   0.485   0.040
 4752SOL    HW115155   2.973   0.444   0.037
 4752SOL    HW215156   2.858   0.506   0.135
 4753SOL     OW15157   5.696   0.434   4.469
 4753SOL    HW115158   5.745   0.383   4.399
 4753SOL    HW215159   5.630   0.374   4.514
 4754SOL     OW15160   5.746   0.545   4.865
 4754SOL    HW115161   5.745   0.473   4.934
 4754SOL    HW215162   5.839   0.555   4.828
 4755SOL     OW15163   3.035   0.894   1.238
 4755SOL    HW115164   3.038   0.877   1.337
 4755SOL    HW215165   3.107   0.959   1.214
 4756SOL     OW15166   5.836   3.128   1.371
 4756SOL    HW115167   5.822   3.227   1.376
 4756SOL    HW215168   5.750   3.084   1.344
 4757SOL     OW15169   1.645   2.355   1.675
 4757SOL    HW115170   1.705   2.383   1.599
 4757SOL    HW215171   1.653   2.421   1.750
 4758SOL     OW15172   2.600   6.086   4.269
 4758SOL    HW115173   2.511   6.112   4.231
 4758SOL    HW215174   2.594   5.993   4.307
 4759SOL     OW15175   5.299   5.484   4.442
 4759SOL    HW115176   5.208   5.464   4.407
 4759SOL    HW215177   5.347   5.398   4.460
 4760SOL     OW15178   3.635   1.986   0.606
 4760SOL    HW115179   3.625   2.054   0.534
 4760SOL    HW215180   3.730   1.954   0.609
 4761SOL     OW15181   0.881   6.347   6.393
 4761SOL    HW115182   0.793   6.386   6.366
 4761SOL    HW215183   0.900   6.370   6.488
 4762SOL     OW15184   1.943   5.211   3.080
 4762SOL    HW115185   2.023   5.266   3.056
 4762SOL    HW215186   1.952   5.178   3.174
 4763SOL     OW15187   6.192   6.481   3.730
 4763SOL    HW115188   6.263   6.411   3.734
 4763SOL    HW215189   6.106   6.439   3.700
 4764SOL     OW15190   5.389   4.214   5.540
 4764SOL    HW115191   5.441   4.290   5.500
 4764SOL    HW215192   5.293   4.239   5.546
 4765SOL     OW15193   5.783   0.684   4.524
 4765SOL    HW115194   5.770   0.585   4.515
 4765SOL    HW215195   5.792   0.725   4.434
 4766SOL     OW15196   4.646   7.009   4.057
 4766SOL    HW115197   4.666   0.053   4.120
 4766SOL    HW215198   4.691   6.925   4.088
 4767SOL     OW15199   3.727   4.916   5.779
 4767SOL    HW115200   3.633   4.913   5.746
 4767SOL    HW215201   3.728   4.927   5.878
 4768SOL     OW15202   4.544   1.795   5.041
 4768SOL    HW115203   4.587   1.711   5.074
 4768SOL    HW215204   4.483   1.775   4.965
 4769SOL     OW15205   4.993   4.633   6.938
 4769SOL    HW115206   5.075   4.678   6.903
 4769SOL    HW215207   4.935   4.700   6.983
 4770SOL     OW15208   0.925   0.980   4.624
 4770SOL    HW115209   0.932   0.889   4.664
 4770SOL    HW215210   0.832   0.995   4.590
 4771SOL     OW15211   3.204   5.526   5.477
 4771SOL    HW115212   3.240   5.433   5.472
 4771SOL    HW215213   3.276   5.589   5.505
 4772SOL     OW15214   3.102   5.198   1.540
 4772SOL    HW115215   3.152   5.168   1.621
 4772SOL    HW215216   3.019   5.246   1.567
 4773SOL     OW15217   6.735   5.408   4.934
 4773SOL    HW115218   6.641   5.431   4.912
 4773SOL    HW215219   6.797   5.458   4.874
 4774SOL     OW15220   1.398   2.582   1.604
 4774SOL    HW115221   1.375   2.534   1.689
 4774SOL    HW215222   1.404   2.516   1.529
 4775SOL     OW15223   4.949   6.598   2.445
 4775SOL    HW115224   5.039   6.640   2.455
 4775SOL    HW215225   4.959   6.511   2.396
 4776SOL     OW15226   1.090   6.432   4.952
 4776SOL    HW115227   1.133   6.452   5.040
 4776SOL    HW215228   1.009   6.376   4.966
 4777SOL     OW15229   2.823   4.410   1.430
 4777SOL    HW115230   2.818   4.310   1.430
 4777SOL    HW215231   2.779   4.446   1.512
 4778SOL     OW15232   6.412   2.814   2.258
 4778SOL    HW115233   6.441   2.783   2.168
 4778SOL    HW215234   6.395   2.735   2.317
 4779SOL     OW15235   6.377   6.601   2.459
 4779SOL    HW115236   6.280   6.578   2.464
 4779SOL    HW215237   6.416   6.561   2.376
 4780SOL     OW15238   6.673   0.739   0.736
 4780SOL    HW115239   6.690   0.728   0.638
 4780SOL    HW215240   6.580   0.709   0.757
 4781SOL     OW15241   2.843   5.821   2.247
 4781SOL    HW115242   2.922   5.882   2.251
 4781SOL    HW215243   2.783   5.850   2.173
 4782SOL     OW15244   4.450   6.153   0.096
 4782SOL    HW115245   4.502   6.205   0.028
 4782SOL    HW215246   4.417   6.215   0.167
 4783SOL     OW15247   4.754   4.697   6.661
 4783SOL    HW115248   4.743   4.605   6.697
 4783SOL    HW215249   4.718   4.763   6.726
 4784SOL     OW15250   5.853   4.166   6.388
 4784SOL    HW115251   5.947   4.155   6.356
 4784SOL    HW215252   5.854   4.193   6.485
 4785SOL     OW15253   5.899   5.511   1.532
 4785SOL    HW115254   5.929   5.415   1.526
 4785SOL    HW215255   5.811   5.521   1.486
 4786SOL     OW15256   2.627   2.053   1.267
 4786SOL    HW115257   2.665   2.144   1.248
 4786SOL    HW215258   2.646   2.029   1.363
 4787SOL     OW15259   3.367   1.990   3.400
 4787SOL    HW115260   3.459   2.013   3.433
 4787SOL    HW215261   3.351   2.034   3.312
 4788SOL     OW15262   1.291   5.386   5.730
 4788SOL    HW115263   1.318   5.315   5.665
 4788SOL    HW215264   1.269   5.470   5.680
 4789SOL     OW15265   5.508   1.049   0.813
 4789SOL    HW115266   5.414   1.068   0.839
 4789SOL    HW215267   5.526   0.951   0.822
 4790SOL     OW15268   0.443   3.162   5.594
 4790SOL    HW115269   0.397   3.084   5.551
 4790SOL    HW215270   0.540   3.141   5.606
 4791SOL     OW15271   6.270   1.663   0.939
 4791SOL    HW115272   6.227   1.748   0.970
 4791SOL    HW215273   6.346   1.685   0.878
 4792SOL     OW15274   2.107   3.214   2.975
 4792SOL    HW115275   2.128   3.310   2.959
 4792SOL    HW215276   2.117   3.162   2.890
 4793SOL     OW15277   2.055   3.046   5.829
 4793SOL    HW115278   2.082   2.952   5.807
 4793SOL    HW215279   1.963   3.062   5.795
 4794SOL     OW15280   4.726   0.520   3.460
 4794SOL    HW115281   4.646   0.568   3.496
 4794SOL    HW215282   4.711   0.421   3.467
 4795SOL     OW15283   6.879   1.731   3.724
 4795SOL    HW115284   6.961   1.783   3.699
 4795SOL    HW215285   6.797   1.783   3.699
 4796SOL     OW15286   5.142   1.986   6.190
 4796SOL    HW115287   5.053   1.942   6.187
 4796SOL    HW215288   5.201   1.949   6.118
 4797SOL     OW15289   1.743   6.261   5.861
 4797SOL    HW115290   1.676   6.333   5.845
 4797SOL    HW215291   1.834   6.301   5.871
 4798SOL     OW15292   0.008   3.122   4.759
 4798SOL    HW115293   6.999   3.041   4.716
 4798SOL    HW215294   7.010   3.126   4.855
 4799SOL     OW15295   4.784   2.394   6.585
 4799SOL    HW115296   4.702   2.349   6.549
 4799SOL    HW215297   4.770   2.493   6.586
 4800SOL     OW15298   2.890   3.276   6.071
 4800SOL    HW115299   2.799   3.270   6.111
 4800SOL    HW215300   2.905   3.368   6.036
 4801SOL     OW15301   2.881   2.148   1.199
 4801SOL    HW115302   2.910   2.055   1.174
 4801SOL    HW215303   2.924   2.174   1.286
 4802SOL     OW15304   0.798   6.403   2.406
 4802SOL    HW115305   0.807   6.396   2.307
 4802SOL    HW215306   0.861   6.472   2.441
 4803SOL     OW15307   1.325   5.793   0.874
 4803SOL    HW115308   1.230   5.826   0.867
 4803SOL    HW215309   1.332   5.702   0.834
 4804SOL     OW15310   4.862   5.741   6.595
 4804SOL    HW115311   4.847   5.822   6.653
 4804SOL    HW215312   4.885   5.771   6.503
 4805SOL     OW15313   5.794   0.063   1.448
 4805SOL    HW115314   5.771   7.016   1.389
 4805SOL    HW215315   5.836   0.136   1.393
 4806SOL     OW15316   0.946   4.792   2.872
 4806SOL    HW115317   0.872   4.724   2.868
 4806SOL    HW215318   1.016   4.761   2.936
 4807SOL     OW15319   0.799   4.740   0.237
 4807SOL    HW115320   0.818   4.831   0.276
 4807SOL    HW215321   0.726   4.697   0.289
 4808SOL     OW15322   6.277   3.624   6.385
 4808SOL    HW115323   6.264   3.718   6.418
 4808SOL    HW215324   6.203   3.600   6.323
 4809SOL     OW15325   3.433   4.174   0.170
 4809SOL    HW115326   3.450   4.268   0.142
 4809SOL    HW215327   3.520   4.125   0.176
 4810SOL     OW15328   0.899   5.159   2.471
 4810SOL    HW115329   0.890   5.060   2.461
 4810SOL    HW215330   0.934   5.198   2.386
 4811SOL     OW15331   1.718   4.582   2.212
 4811SOL    HW115332   1.649   4.565   2.142
 4811SOL    HW215333   1.796   4.629   2.172
 4812SOL     OW15334   6.828   4.786   4.636
 4812SOL    HW115335   6.862   4.763   4.727
 4812SOL    HW215336   6.904   4.801   4.574
 4813SOL     OW15337   5.725   2.036   0.953
 4813SOL    HW115338   5.805   2.004   1.004
 4813SOL    HW215339   5.648   2.048   1.016
 4814SOL     OW15340   5.772   4.220   0.518
 4814SOL    HW115341   5.698   4.246   0.456
 4814SOL    HW215342   5.806   4.301   0.566
 4815SOL     OW15343   5.951   4.182   3.134
 4815SOL    HW115344   5.979   4.140   3.047
 4815SOL    HW215345   6.029   4.186   3.196
 4816SOL     OW15346   0.669   5.046   1.238
 4816SOL    HW115347   0.630   5.032   1.147
 4816SOL    HW215348   0.768   5.033   1.234
 4817SOL     OW15349   0.572   2.317   6.732
 4817SOL    HW115350   0.492   2.351   6.781
 4817SOL    HW215351   0.598   2.382   6.661
 4818SOL     OW15352   0.991   0.576   5.297
 4818SOL    HW115353   0.918   0.583   5.229
 4818SOL    HW215354   1.018   0.481   5.307
 4819SOL     OW15355   0.888   2.318   0.359
 4819SOL    HW115356   0.957   2.381   0.323
 4819SOL    HW215357   0.933   2.240   0.402
 4820SOL     OW15358   6.466   2.663   1.087
 4820SOL    HW115359   6.421   2.621   1.166
 4820SOL    HW215360   6.548   2.712   1.117
 4821SOL     OW15361   1.433   6.235   2.688
 4821SOL    HW115362   1.412   6.174   2.612
 4821SOL    HW215363   1.413   6.190   2.775
 4822SOL     OW15364   2.036   2.963   4.311
 4822SOL    HW115365   1.971   3.035   4.337
 4822SOL    HW215366   2.070   2.918   4.394
 4823SOL     OW15367   1.817   1.186   4.252
 4823SOL    HW115368   1.774   1.148   4.170
 4823SOL    HW215369   1.867   1.270   4.228
 4824SOL     OW15370   4.808   3.057   4.966
 4824SOL    HW115371   4.795   3.142   5.017
 4824SOL    HW215372   4.842   3.078   4.874
 4825SOL     OW15373   1.396   2.746   4.110
 4825SOL    HW115374   1.368   2.688   4.186
 4825SOL    HW215375   1.457   2.694   4.049
 4826SOL     OW15376   5.602   0.741   0.302
 4826SOL    HW115377   5.695   0.775   0.312
 4826SOL    HW215378   5.591   0.697   0.212
 4827SOL     OW15379   6.141   1.438   0.933
 4827SOL    HW115380   6.186   1.527   0.933
 4827SOL    HW215381   6.210   1.365   0.936
 4828SOL     OW15382   5.289   1.666   0.675
 4828SOL    HW115383   5.284   1.669   0.775
 4828SOL    HW215384   5.231   1.592   0.641
 4829SOL     OW15385   3.392   0.381   5.786
 4829SOL    HW115386   3.389   0.311   5.857
 4829SOL    HW215387   3.458   0.451   5.812
 4830SOL     OW15388   4.004   5.971   4.549
 4830SOL    HW115389   3.957   5.906   4.609
 4830SOL    HW215390   4.097   5.939   4.532
 4831SOL     OW15391   1.383   4.807   5.448
 4831SOL    HW115392   1.456   4.871   5.472
 4831SOL    HW215393   1.374   4.739   5.521
 4832SOL     OW15394   3.418   3.937   3.748
 4832SOL    HW115395   3.413   3.849   3.794
 4832SOL    HW215396   3.394   3.926   3.651
 4833SOL     OW15397   6.409   1.485   3.076
 4833SOL    HW115398   6.345   1.437   3.136
 4833SOL    HW215399   6.460   1.553   3.129
 4834SOL     OW15400   2.850   5.354   1.931
 4834SOL    HW115401   2.848   5.436   1.989
 4834SOL    HW215402   2.757   5.317   1.923
 4835SOL     OW15403   5.615   2.816   5.617
 4835SOL    HW115404   5.647   2.754   5.689
 4835SOL    HW215405   5.597   2.763   5.534
 4836SOL     OW15406   5.147   1.750   4.548
 4836SOL    HW115407   5.075   1.704   4.600
 4836SOL    HW215408   5.236   1.721   4.583
 4837SOL     OW15409   0.042   3.640   2.811
 4837SOL    HW115410   6.996   3.600   2.760
 4837SOL    HW215411   0.056   3.589   2.896
 4838SOL     OW15412   2.164   5.979   0.532
 4838SOL    HW115413   2.117   6.053   0.485
 4838SOL    HW215414   2.119   5.961   0.620
 4839SOL     OW15415   1.087   3.722   0.187
 4839SOL    HW115416   1.096   3.624   0.165
 4839SOL    HW215417   1.052   3.732   0.280
 4840SOL     OW15418   6.824   4.792   6.398
 4840SOL    HW115419   6.823   4.805   6.497
 4840SOL    HW215420   6.731   4.780   6.365
 4841SOL     OW15421   2.317   5.216   3.130
 4841SOL    HW115422   2.235   5.196   3.184
 4841SOL    HW215423   2.398   5.186   3.181
 4842SOL     OW15424   2.653   5.155   2.980
 4842SOL    HW115425   2.632   5.150   3.078
 4842SOL    HW215426   2.747   5.185   2.968
 4843SOL     OW15427   6.206   2.741   1.705
 4843SOL    HW115428   6.120   2.698   1.681
 4843SOL    HW215429   6.223   2.820   1.647
 4844SOL     OW15430   0.397   3.925   6.071
 4844SOL    HW115431   0.412   3.893   6.165
 4844SOL    HW215432   0.439   3.860   6.007
 4845SOL     OW15433   4.903   5.066   6.216
 4845SOL    HW115434   4.892   4.968   6.230
 4845SOL    HW215435   4.817   5.105   6.183
 4846SOL     OW15436   0.459   2.563   3.658
 4846SOL    HW115437   0.541   2.620   3.646
 4846SOL    HW215438   0.422   2.539   3.569
 4847SOL     OW15439   1.919   1.546   6.156
 4847SOL    HW115440   1.921   1.500   6.067
 4847SOL    HW215441   2.011   1.578   6.179
 4848SOL     OW15442   2.398   0.754   4.969
 4848SOL    HW115443   2.434   0.662   4.958
 4848SOL    HW215444   2.451   0.818   4.912
 4849SOL     OW15445   1.555   5.970   0.895
 4849SOL    HW115446   1.601   5.916   0.825
 4849SOL    HW215447   1.463   5.934   0.910
 4850SOL     OW15448   4.672   0.778   1.638
 4850SOL    HW115449   4.630   0.773   1.547
 4850SOL    HW215450   4.701   0.871   1.656
 4851SOL     OW15451   2.933   5.570   5.582
 4851SOL    HW115452   3.019   5.532   5.549
 4851SOL    HW215453   2.952   5.647   5.643
 4852SOL     OW15454   2.050   5.814   5.045
 4852SOL    HW115455   2.064   5.728   5.094
 4852SOL    HW215456   1.976   5.866   5.088
 4853SOL     OW15457   4.243   1.075   3.077
 4853SOL    HW115458   4.218   1.167   3.104
 4853SOL    HW215459   4.177   1.039   3.011
 4854SOL     OW15460   5.107   0.002   2.355
 4854SOL    HW115461   5.056   0.085   2.335
 4854SOL    HW215462   5.056   6.952   2.323
 4855SOL     OW15463   6.321   2.988   5.751
 4855SOL    HW115464   6.327   3.028   5.660
 4855SOL    HW215465   6.412   2.979   5.791
 4856SOL     OW15466   1.724   3.229   2.843
 4856SOL    HW115467   1.711   3.325   2.818
 4856SOL    HW215468   1.773   3.182   2.769
 4857SOL     OW15469   2.774   1.905   3.450
 4857SOL    HW115470   2.815   1.978   3.505
 4857SOL    HW215471   2.677   1.925   3.434
 4858SOL     OW15472   6.834   6.379   4.924
 4858SOL    HW115473   6.813   6.305   4.989
 4858SOL    HW215474   6.932   6.398   4.927
 4859SOL     OW15475   0.355   4.875   1.891
 4859SOL    HW115476   0.327   4.918   1.977
 4859SOL    HW215477   0.296   4.797   1.872
 4860SOL     OW15478   4.549   4.388   6.977
 4860SOL    HW115479   4.491   4.307   6.963
 4860SOL    HW215480   4.556   4.407   0.045
 4861SOL     OW15481   5.801   5.674   6.507
 4861SOL    HW115482   5.724   5.637   6.455
 4861SOL    HW215483   5.793   5.647   6.603
 4862SOL     OW15484   2.431   4.754   4.888
 4862SOL    HW115485   2.455   4.686   4.819
 4862SOL    HW215486   2.492   4.745   4.967
 4863SOL     OW15487   5.100   2.899   2.413
 4863SOL    HW115488   5.057   2.832   2.474
 4863SOL    HW215489   5.131   2.853   2.329
 4864SOL     OW15490   3.375   1.165   1.996
 4864SOL    HW115491   3.358   1.250   2.045
 4864SOL    HW215492   3.340   1.172   1.903
 4865SOL     OW15493   2.306   5.865   4.570
 4865SOL    HW115494   2.282   5.814   4.653
 4865SOL    HW215495   2.244   5.943   4.561
 4866SOL     OW15496   5.691   4.370   1.180
 4866SOL    HW115497   5.617   4.339   1.120
 4866SOL    HW215498   5.776   4.373   1.128
 4867SOL     OW15499   4.709   5.801   3.353
 4867SOL    HW115500   4.638   5.747   3.309
 4867SOL    HW215501   4.799   5.771   3.321
 4868SOL     OW15502   6.906   5.468   1.354
 4868SOL    HW115503   6.989   5.460   1.409
 4868SOL    HW215504   6.923   5.431   1.263
 4869SOL     OW15505   0.022   2.543   1.226
 4869SOL    HW115506   0.117   2.528   1.201
 4869SOL    HW215507   7.013   2.613   1.166
 4870SOL     OW15508   5.387   5.377   1.779
 4870SOL    HW115509   5.418   5.367   1.685
 4870SOL    HW215510   5.436   5.312   1.838
 4871SOL     OW15511   0.339   1.339   4.432
 4871SOL    HW115512   0.381   1.278   4.499
 4871SOL    HW215513   0.370   1.433   4.449
 4872SOL     OW15514   0.483   5.825   4.142
 4872SOL    HW115515   0.476   5.746   4.082
 4872SOL    HW215516   0.500   5.908   4.088
 4873SOL     OW15517   6.634   4.907   3.855
 4873SOL    HW115518   6.705   4.901   3.785
 4873SOL    HW215519   6.646   4.833   3.921
 4874SOL     OW15520   5.862   4.119   2.572
 4874SOL    HW115521   5.827   4.119   2.478
 4874SOL    HW215522   5.810   4.054   2.626
 4875SOL     OW15523   5.041   2.544   1.250
 4875SOL    HW115524   5.074   2.530   1.156
 4875SOL    HW215525   5.076   2.472   1.309
 4876SOL     OW15526   6.201   0.809   4.390
 4876SOL    HW115527   6.240   0.717   4.397
 4876SOL    HW215528   6.273   0.875   4.372
 4877SOL     OW15529   6.791   1.595   0.742
 4877SOL    HW115530   6.863   1.593   0.811
 4877SOL    HW215531   6.762   1.502   0.721
 4878SOL     OW15532   6.111   1.538   2.249
 4878SOL    HW115533   6.204   1.553   2.283
 4878SOL    HW215534   6.072   1.457   2.292
 4879SOL     OW15535   4.297   5.359   3.501
 4879SOL    HW115536   4.217   5.406   3.465
 4879SOL    HW215537   4.345   5.419   3.565
 4880SOL     OW15538   5.417   3.158   6.264
 4880SOL    HW115539   5.460   3.156   6.355
 4880SOL    HW215540   5.350   3.085   6.257
 4881SOL     OW15541   2.401   5.962   6.970
 4881SOL    HW115542   2.408   5.892   0.010
 4881SOL    HW215543   2.420   6.052   7.010
 4882SOL     OW15544   5.800   1.296   4.497
 4882SOL    HW115545   5.745   1.225   4.455
 4882SOL    HW215546   5.831   1.266   4.587
 4883SOL     OW15547   5.354   4.716   2.728
 4883SOL    HW115548   5.256   4.733   2.718
 4883SOL    HW215549   5.389   4.672   2.645
 4884SOL     OW15550   4.314   0.148   0.726
 4884SOL    HW115551   4.242   0.080   0.713
 4884SOL    HW215552   4.366   0.126   0.808
 4885SOL     OW15553   2.507   6.392   2.401
 4885SOL    HW115554   2.607   6.393   2.408
 4885SOL    HW215555   2.468   6.370   2.490
 4886SOL     OW15556   0.158   5.507   6.191
 4886SOL    HW115557   0.242   5.482   6.238
 4886SOL    HW215558   0.160   5.472   6.097
 4887SOL     OW15559   0.571   1.435   2.641
 4887SOL    HW115560   0.657   1.429   2.590
 4887SOL    HW215561   0.518   1.512   2.608
 4888SOL     OW15562   1.703   6.745   4.279
 4888SOL    HW115563   1.715   6.801   4.196
 4888SOL    HW215564   1.660   6.801   4.350
 4889SOL     OW15565   0.329   1.324   6.737
 4889SOL    HW115566   0.372   1.348   6.824
 4889SOL    HW215567   0.394   1.274   6.679
 4890SOL     OW15568   0.603   2.415   5.186
 4890SOL    HW115569   0.520   2.363   5.170
 4890SOL    HW215570   0.585   2.512   5.171
 4891SOL     OW15571   1.261   5.989   0.414
 4891SOL    HW115572   1.338   5.925   0.416
 4891SOL    HW215573   1.204   5.970   0.333
 4892SOL     OW15574   2.465   5.932   2.258
 4892SOL    HW115575   2.532   5.994   2.218
 4892SOL    HW215576   2.503   5.888   2.339
 4893SOL     OW15577   6.008   4.642   6.839
 4893SOL    HW115578   5.908   4.648   6.832
 4893SOL    HW215579   6.048   4.651   6.748
 4894SOL     OW15580   2.591   0.919   1.815
 4894SOL    HW115581   2.574   1.006   1.770
 4894SOL    HW215582   2.621   0.936   1.909
 4895SOL     OW15583   0.240   4.858   1.377
 4895SOL    HW115584   0.267   4.936   1.434
 4895SOL    HW215585   0.150   4.876   1.337
 4896SOL     OW15586   2.437   5.306   2.581
 4896SOL    HW115587   2.346   5.312   2.622
 4896SOL    HW215588   2.441   5.367   2.501
 4897SOL     OW15589   2.815   5.185   6.375
 4897SOL    HW115590   2.843   5.157   6.466
 4897SOL    HW215591   2.778   5.278   6.379
 4898SOL     OW15592   5.998   1.578   5.341
 4898SOL    HW115593   6.021   1.532   5.255
 4898SOL    HW215594   5.907   1.548   5.371
 4899SOL     OW15595   6.151   4.651   3.134
 4899SOL    HW115596   6.201   4.734   3.160
 4899SOL    HW215597   6.202   4.571   3.164
 4900SOL     OW15598   1.879   6.165   5.323
 4900SOL    HW115599   1.873   6.152   5.422
 4900SOL    HW215600   1.960   6.219   5.301
 4901SOL     OW15601   2.460   6.549   5.410
 4901SOL    HW115602   2.361   6.554   5.395
 4901SOL    HW215603   2.487   6.617   5.478
 4902SOL     OW15604   2.077   2.261   4.538
 4902SOL    HW115605   2.000   2.305   4.584
 4902SOL    HW215606   2.049   2.232   4.446
 4903SOL     OW15607   3.378   6.822   6.960
 4903SOL    HW115608   3.431   6.770   6.892
 4903SOL    HW215609   3.293   6.774   6.980
 4904SOL     OW15610   1.618   0.100   3.981
 4904SOL    HW115611   1.531   0.081   4.028
 4904SOL    HW215612   1.638   0.025   3.917
 4905SOL     OW15613   4.492   2.107   2.646
 4905SOL    HW115614   4.526   2.100   2.552
 4905SOL    HW215615   4.397   2.136   2.645
 4906SOL     OW15616   3.710   1.063   6.531
 4906SOL    HW115617   3.623   1.030   6.568
 4906SOL    HW215618   3.781   1.053   6.600
 4907SOL     OW15619   4.430   6.220   2.247
 4907SOL    HW115620   4.434   6.132   2.199
 4907SOL    HW215621   4.341   6.230   2.292
 4908SOL     OW15622   4.212   5.157   0.017
 4908SOL    HW115623   4.229   5.223   0.090
 4908SOL    HW215624   4.114   5.133   0.016
 4909SOL     OW15625   6.377   6.827   6.342
 4909SOL    HW115626   6.373   6.772   6.425
 4909SOL    HW215627   6.438   6.905   6.356
 4910SOL     OW15628   5.849   6.890   4.729
 4910SOL    HW115629   5.900   6.971   4.700
 4910SOL    HW215630   5.781   6.916   4.798
 4911SOL     OW15631   7.023   2.500   5.959
 4911SOL    HW115632   0.090   2.523   5.956
 4911SOL    HW215633   6.970   2.582   5.979
 4912SOL     OW15634   5.363   1.736   1.258
 4912SOL    HW115635   5.354   1.641   1.288
 4912SOL    HW215636   5.444   1.777   1.301
 4913SOL     OW15637   3.514   3.332   3.624
 4913SOL    HW115638   3.470   3.418   3.601
 4913SOL    HW215639   3.607   3.330   3.585
 4914SOL     OW15640   3.816   1.048   4.773
 4914SOL    HW115641   3.867   1.128   4.742
 4914SOL    HW215642   3.803   0.985   4.697
 4915SOL     OW15643   4.753   0.563   4.620
 4915SOL    HW115644   4.712   0.472   4.618
 4915SOL    HW215645   4.848   0.556   4.651
 4916SOL     OW15646   2.003   1.353   3.190
 4916SOL    HW115647   2.000   1.262   3.149
 4916SOL    HW215648   2.024   1.421   3.119
 4917SOL     OW15649   1.759   4.150   0.569
 4917SOL    HW115650   1.695   4.226   0.568
 4917SOL    HW215651   1.716   4.070   0.610
 4918SOL     OW15652   3.064   0.236   2.340
 4918SOL    HW115653   3.078   0.191   2.428
 4918SOL    HW215654   2.966   0.248   2.324
 4919SOL     OW15655   2.716   1.752   1.375
 4919SOL    HW115656   2.670   1.664   1.367
 4919SOL    HW215657   2.729   1.791   1.283
 4920SOL     OW15658   4.132   0.809   6.952
 4920SOL    HW115659   4.107   0.851   6.864
 4920SOL    HW215660   4.057   0.752   6.985
 4921SOL     OW15661   1.968   3.785   1.288
 4921SOL    HW115662   1.892   3.850   1.295
 4921SOL    HW215663   1.933   3.691   1.296
 4922SOL     OW15664   1.045   3.224   5.117
 4922SOL    HW115665   0.954   3.200   5.150
 4922SOL    HW215666   1.103   3.142   5.116
 4923SOL     OW15667   4.223   0.813   1.372
 4923SOL    HW115668   4.229   0.821   1.272
 4923SOL    HW215669   4.231   0.903   1.413
 4924SOL     OW15670   2.270   2.990   6.067
 4924SOL    HW115671   2.266   3.020   6.162
 4924SOL    HW215672   2.187   3.018   6.019
 4925SOL     OW15673   6.383   6.223   0.788
 4925SOL    HW115674   6.400   6.320   0.773
 4925SOL    HW215675   6.438   6.191   0.865
 4926SOL     OW15676   5.354   3.097   1.519
 4926SOL    HW115677   5.292   3.070   1.592
 4926SOL    HW215678   5.347   3.196   1.503
 4927SOL     OW15679   3.944   3.243   4.060
 4927SOL    HW115680   3.851   3.208   4.059
 4927SOL    HW215681   3.956   3.303   4.139
 4928SOL     OW15682   0.325   6.799   6.828
 4928SOL    HW115683   0.319   6.754   6.918
 4928SOL    HW215684   0.303   6.896   6.838
 4929SOL     OW15685   1.190   4.188   5.643
 4929SOL    HW115686   1.149   4.178   5.552
 4929SOL    HW215687   1.244   4.272   5.647
 4930SOL     OW15688   6.831   0.279   1.366
 4930SOL    HW115689   6.850   0.204   1.303
 4930SOL    HW215690   6.824   0.245   1.459
 4931SOL     OW15691   0.495   6.619   0.699
 4931SOL    HW115692   0.491   6.521   0.677
 4931SOL    HW215693   0.589   6.651   0.689
 4932SOL     OW15694   2.287   3.305   1.632
 4932SOL    HW115695   2.310   3.354   1.716
 4932SOL    HW215696   2.206   3.346   1.591
 4933SOL     OW15697   2.786   0.100   4.252
 4933SOL    HW115698   2.876   0.058   4.259
 4933SOL    HW215699   2.751   0.088   4.159
 4934SOL     OW15700   1.263   5.359   3.450
 4934SOL    HW115701   1.216   5.404   3.374
 4934SOL    HW215702   1.359   5.388   3.451
 4935SOL     OW15703   1.172   1.119   6.746
 4935SOL    HW115704   1.200   1.180   6.820
 4935SOL    HW215705   1.073   1.129   6.732
 4936SOL     OW15706   1.749   5.072   2.026
 4936SOL    HW115707   1.827   5.073   1.964
 4936SOL    HW215708   1.670   5.031   1.981
 4937SOL     OW15709   0.731   3.962   5.816
 4937SOL    HW115710   0.799   3.955   5.889
 4937SOL    HW215711   0.696   4.056   5.812
 4938SOL     OW15712   3.496   5.237   1.621
 4938SOL    HW115713   3.447   5.323   1.635
 4938SOL    HW215714   3.441   5.161   1.658
 4939SOL     OW15715   1.480   2.024   3.326
 4939SOL    HW115716   1.433   1.950   3.374
 4939SOL    HW215717   1.536   1.985   3.253
 4940SOL     OW15718   0.095   1.873   5.856
 4940SOL    HW115719   0.046   1.789   5.878
 4940SOL    HW215720   0.045   1.951   5.893
 4941SOL     OW15721   4.214   2.800   5.349
 4941SOL    HW115722   4.141   2.867   5.335
 4941SOL    HW215723   4.211   2.731   5.277
 4942SOL     OW15724   5.143   3.182   4.404
 4942SOL    HW115725   5.194   3.103   4.371
 4942SOL    HW215726   5.206   3.256   4.428
 4943SOL     OW15727   5.139   3.879   5.905
 4943SOL    HW115728   5.134   3.923   5.994
 4943SOL    HW215729   5.234   3.872   5.876
 4944SOL     OW15730   2.332   4.691   1.776
 4944SOL    HW115731   2.402   4.667   1.844
 4944SOL    HW215732   2.298   4.609   1.732
 4945SOL     OW15733   1.094   0.273   5.032
 4945SOL    HW115734   1.117   0.288   5.128
 4945SOL    HW215735   1.014   0.328   5.007
 4946SOL     OW15736   1.042   5.429   0.035
 4946SOL    HW115737   1.090   5.371   6.999
 4946SOL    HW215738   1.031   5.379   0.121
 4947SOL     OW15739   2.306   1.025   1.277
 4947SOL    HW115740   2.333   0.974   1.358
 4947SOL    HW215741   2.342   0.980   1.195
 4948SOL     OW15742   2.153   2.812   2.870
 4948SOL    HW115743   2.169   2.842   2.964
 4948SOL    HW215744   2.085   2.872   2.827
 4949SOL     OW15745   0.193   3.964   5.126
 4949SOL    HW115746   0.231   3.874   5.105
 4949SOL    HW215747   0.254   4.013   5.188
 4950SOL     OW15748   2.559   4.083   5.764
 4950SOL    HW115749   2.577   3.986   5.755
 4950SOL    HW215750   2.581   4.129   5.677
 4951SOL     OW15751   6.208   6.998   4.560
 4951SOL    HW115752   6.298   0.010   4.560
 4951SOL    HW215753   6.217   6.900   4.577
 4952SOL     OW15754   0.324   6.795   6.167
 4952SOL    HW115755   0.231   6.809   6.201
 4952SOL    HW215756   0.334   6.839   6.078
 4953SOL     OW15757   1.590   0.044   2.958
 4953SOL    HW115758   1.563   0.068   3.051
 4953SOL    HW215759   1.537   6.996   2.927
 4954SOL     OW15760   3.272   3.550   0.002
 4954SOL    HW115761   3.308   3.643   0.007
 4954SOL    HW215762   3.201   3.546   6.961
 4955SOL     OW15763   3.092   6.429   6.969
 4955SOL    HW115764   2.997   6.402   6.980
 4955SOL    HW215765   3.152   6.356   7.000
 4956SOL     OW15766   2.777   0.333   4.840
 4956SOL    HW115767   2.847   0.335   4.911
 4956SOL    HW215768   2.695   0.289   4.876
 4957SOL     OW15769   5.322   3.312   0.872
 4957SOL    HW115770   5.413   3.275   0.850
 4957SOL    HW215771   5.264   3.238   0.907
 4958SOL     OW15772   1.786   5.550   5.866
 4958SOL    HW115773   1.805   5.519   5.960
 4958SOL    HW215774   1.744   5.476   5.814
 4959SOL     OW15775   6.115   0.977   1.496
 4959SOL    HW115776   6.054   0.907   1.535
 4959SOL    HW215777   6.202   0.935   1.471
 4960SOL     OW15778   4.431   4.780   4.149
 4960SOL    HW115779   4.513   4.828   4.181
 4960SOL    HW215780   4.393   4.726   4.224
 4961SOL     OW15781   3.208   0.199   6.400
 4961SOL    HW115782   3.283   0.181   6.463
 4961SOL    HW215783   3.168   0.113   6.369
 4962SOL     OW15784   5.722   2.582   0.851
 4962SOL    HW115785   5.711   2.671   0.809
 4962SOL    HW215786   5.695   2.511   0.786
 4963SOL     OW15787   0.974   5.208   0.518
 4963SOL    HW115788   0.965   5.257   0.431
 4963SOL    HW215789   0.884   5.192   0.558
 4964SOL     OW15790   2.423   0.044   4.259
 4964SOL    HW115791   2.448   6.997   4.202
 4964SOL    HW215792   2.494   0.060   4.328
 4965SOL     OW15793   1.156   6.335   2.594
 4965SOL    HW115794   1.250   6.312   2.620
 4965SOL    HW215795   1.122   6.408   2.654
 4966SOL     OW15796   3.080   6.819   4.987
 4966SOL    HW115797   3.050   6.757   4.914
 4966SOL    HW215798   3.153   6.776   5.040
 4967SOL     OW15799   2.937   5.208   5.672
 4967SOL    HW115800   2.938   5.271   5.750
 4967SOL    HW215801   2.867   5.139   5.687
 4968SOL     OW15802   0.521   1.353   3.526
 4968SOL    HW115803   0.524   1.402   3.613
 4968SOL    HW215804   0.436   1.376   3.477
 4969SOL     OW15805   1.488   6.147   2.954
 4969SOL    HW115806   1.445   6.179   3.038
 4969SOL    HW215807   1.572   6.199   2.938
 4970SOL     OW15808   2.565   1.526   1.303
 4970SOL    HW115809   2.538   1.591   1.232
 4970SOL    HW215810   2.533   1.435   1.278
 4971SOL     OW15811   6.372   5.572   3.029
 4971SOL    HW115812   6.394   5.652   3.086
 4971SOL    HW215813   6.273   5.561   3.024
 4972SOL     OW15814   0.505   4.157   0.885
 4972SOL    HW115815   0.531   4.226   0.817
 4972SOL    HW215816   0.414   4.121   0.862
 4973SOL     OW15817   0.777   0.169   1.808
 4973SOL    HW115818   0.777   0.073   1.779
 4973SOL    HW215819   0.689   0.210   1.783
 4974SOL     OW15820   6.169   5.135   0.571
 4974SOL    HW115821   6.103   5.096   0.507
 4974SOL    HW215822   6.138   5.119   0.665
 4975SOL     OW15823   5.509   4.051   6.736
 4975SOL    HW115824   5.424   4.102   6.749
 4975SOL    HW215825   5.494   3.954   6.755
 4976SOL     OW15826   1.358   1.440   4.334
 4976SOL    HW115827   1.395   1.360   4.286
 4976SOL    HW215828   1.260   1.448   4.313
 4977SOL     OW15829   4.462   5.072   0.060
 4977SOL    HW115830   4.470   4.974   0.079
 4977SOL    HW215831   4.373   5.091   0.019
 4978SOL     OW15832   5.669   5.052   4.728
 4978SOL    HW115833   5.699   4.983   4.794
 4978SOL    HW215834   5.602   5.112   4.771
 4979SOL     OW15835   6.836   6.773   5.964
 4979SOL    HW115836   6.787   6.779   5.877
 4979SOL    HW215837   6.774   6.794   6.039
 4980SOL     OW15838   5.382   5.285   3.553
 4980SOL    HW115839   5.305   5.228   3.527
 4980SOL    HW215840   5.459   5.227   3.580
 4981SOL     OW15841   3.996   5.462   1.630
 4981SOL    HW115842   4.048   5.416   1.703
 4981SOL    HW215843   4.006   5.410   1.545
 4982SOL     OW15844   3.218   2.311   5.813
 4982SOL    HW115845   3.183   2.390   5.863
 4982SOL    HW215846   3.304   2.336   5.767
 4983SOL     OW15847   5.569   3.942   5.134
 4983SOL    HW115848   5.504   3.940   5.210
 4983SOL    HW215849   5.609   4.034   5.128
 4984SOL     OW15850   4.885   3.652   3.024
 4984SOL    HW115851   4.883   3.564   3.070
 4984SOL    HW215852   4.910   3.639   2.927
 4985SOL     OW15853   5.654   6.899   3.290
 4985SOL    HW115854   5.556   6.886   3.301
 4985SOL    HW215855   5.684   6.857   3.204
 4986SOL     OW15856   6.352   5.327   0.576
 4986SOL    HW115857   6.382   5.316   0.481
 4986SOL    HW215858   6.303   5.245   0.605
 4987SOL     OW15859   1.217   6.702   2.418
 4987SOL    HW115860   1.242   6.626   2.359
 4987SOL    HW215861   1.287   6.714   2.489
 4988SOL     OW15862   5.549   1.090   2.394
 4988SOL    HW115863   5.618   1.156   2.365
 4988SOL    HW215864   5.575   1.050   2.481
 4989SOL     OW15865   5.272   6.887   1.263
 4989SOL    HW115866   5.180   6.896   1.225
 4989SOL    HW215867   5.269   6.895   1.362
 4990SOL     OW15868   2.880   2.237   6.203
 4990SOL    HW115869   2.845   2.331   6.201
 4990SOL    HW215870   2.835   2.183   6.132
 4991SOL     OW15871   6.221   5.331   4.095
 4991SOL    HW115872   6.305   5.359   4.050
 4991SOL    HW215873   6.145   5.335   4.030
 4992SOL     OW15874   4.957   0.246   2.297
 4992SOL    HW115875   4.863   0.261   2.328
 4992SOL    HW215876   5.015   0.321   2.329
 4993SOL     OW15877   3.633   6.510   5.073
 4993SOL    HW115878   3.688   6.483   5.152
 4993SOL    HW215879   3.601   6.428   5.025
 4994SOL     OW15880   2.110   6.834   4.487
 4994SOL    HW115881   2.011   6.850   4.485
 4994SOL    HW215882   2.154   6.910   4.535
 4995SOL     OW15883   0.847   2.151   5.627
 4995SOL    HW115884   0.793   2.175   5.546
 4995SOL    HW215885   0.856   2.051   5.631
 4996SOL     OW15886   0.050   1.078   3.482
 4996SOL    HW115887   0.102   1.000   3.447
 4996SOL    HW215888   6.983   1.062   3.467
 4997SOL     OW15889   4.474   2.467   2.256
 4997SOL    HW115890   4.539   2.423   2.318
 4997SOL    HW215891   4.504   2.560   2.237
 4998SOL     OW15892   2.066   3.740   4.390
 4998SOL    HW115893   2.094   3.730   4.485
 4998SOL    HW215894   1.967   3.743   4.385
 4999SOL     OW15895   6.710   3.294   4.730
 4999SOL    HW115896   6.802   3.315   4.699
 4999SOL    HW215897   6.676   3.213   4.682
 5000SOL     OW15898   3.155   0.107   3.451
 5000SOL    HW115899   3.232   0.057   3.413
 5000SOL    HW215900   3.097   0.045   3.503
 5001SOL     OW15901   0.932   5.230   1.913
 5001SOL    HW115902   0.893   5.315   1.877
 5001SOL    HW215903   1.008   5.252   1.975
 5002SOL     OW15904   0.702   3.600   1.960
 5002SOL    HW115905   0.614   3.644   1.977
 5002SOL    HW215906   0.712   3.522   2.021
 5003SOL     OW15907   3.270   5.917   3.162
 5003SOL    HW115908   3.177   5.952   3.148
 5003SOL    HW215909   3.265   5.823   3.197
 5004SOL     OW15910   2.369   4.868   5.523
 5004SOL    HW115911   2.361   4.953   5.470
 5004SOL    HW215912   2.446   4.814   5.488
 5005SOL     OW15913   3.504   2.975   7.023
 5005SOL    HW115914   3.505   3.065   0.035
 5005SOL    HW215915   3.421   2.926   0.020
 5006SOL     OW15916   5.425   0.865   1.910
 5006SOL    HW115917   5.488   0.942   1.915
 5006SOL    HW215918   5.450   0.797   1.979
 5007SOL     OW15919   0.186   6.851   1.592
 5007SOL    HW115920   0.104   6.878   1.541
 5007SOL    HW215921   0.189   6.752   1.601
 5008SOL     OW15922   5.510   6.168   2.163
 5008SOL    HW115923   5.413   6.155   2.143
 5008SOL    HW215924   5.549   6.082   2.196
 5009SOL     OW15925   7.011   2.115   0.457
 5009SOL    HW115926   7.001   2.177   0.379
 5009SOL    HW215927   0.051   2.047   0.437
 5010SOL     OW15928   4.208   2.887   1.257
 5010SOL    HW115929   4.263   2.812   1.293
 5010SOL    HW215930   4.232   2.972   1.304
 5011SOL     OW15931   1.327   4.835   1.794
 5011SOL    HW115932   1.254   4.861   1.857
 5011SOL    HW215933   1.287   4.795   1.711
 5012SOL     OW15934   5.710   3.053   5.230
 5012SOL    HW115935   5.647   2.986   5.189
 5012SOL    HW215936   5.689   3.062   5.328
 5013SOL     OW15937   5.245   1.643   6.360
 5013SOL    HW115938   5.342   1.620   6.373
 5013SOL    HW215939   5.220   1.718   6.420
 5014SOL     OW15940   5.700   4.168   1.355
 5014SOL    HW115941   5.715   4.229   1.277
 5014SOL    HW215942   5.773   4.182   1.422
 5015SOL     OW15943   5.115   1.690   5.029
 5015SOL    HW115944   5.134   1.752   5.105
 5015SOL    HW215945   5.105   1.743   4.944
 5016SOL     OW15946   2.064   3.074   5.262
 5016SOL    HW115947   1.997   3.049   5.331
 5016SOL    HW215948   2.104   3.164   5.284
 5017SOL     OW15949   2.491   2.323   1.187
 5017SOL    HW115950   2.448   2.393   1.244
 5017SOL    HW215951   2.420   2.262   1.152
 5018SOL     OW15952   1.160   4.724   2.671
 5018SOL    HW115953   1.170   4.635   2.714
 5018SOL    HW215954   1.073   4.765   2.698
 5019SOL     OW15955   1.457   5.727   5.815
 5019SOL    HW115956   1.407   5.813   5.802
 5019SOL    HW215957   1.414   5.674   5.887
 5020SOL     OW15958   5.493   7.008   6.111
 5020SOL    HW115959   5.517   6.971   6.201
 5020SOL    HW215960   5.575   0.014   6.066
 5021SOL     OW15961   1.054   1.415   0.243
 5021SOL    HW115962   1.115   1.398   0.321
 5021SOL    HW215963   1.013   1.328   0.213
 5022SOL     OW15964   2.647   2.262   0.840
 5022SOL    HW115965   2.657   2.295   0.933
 5022SOL    HW215966   2.556   2.286   0.805
 5023SOL     OW15967   0.249   3.277   1.673
 5023SOL    HW115968   0.159   3.287   1.716
 5023SOL    HW215969   0.243   3.304   1.577
 5024SOL     OW15970   6.029   5.248   1.484
 5024SOL    HW115971   6.037   5.247   1.384
 5024SOL    HW215972   6.115   5.278   1.524
 5025SOL     OW15973   4.368   1.783   3.535
 5025SOL    HW115974   4.382   1.731   3.451
 5025SOL    HW215975   4.272   1.777   3.562
 5026SOL     OW15976   6.563   6.331   5.353
 5026SOL    HW115977   6.601   6.240   5.371
 5026SOL    HW215978   6.624   6.380   5.291
 5027SOL     OW15979   6.570   6.353   1.606
 5027SOL    HW115980   6.481   6.372   1.648
 5027SOL    HW215981   6.597   6.259   1.628
 5028SOL     OW15982   0.570   2.083   2.719
 5028SOL    HW115983   0.522   2.105   2.634
 5028SOL    HW215984   0.643   2.017   2.700
 5029SOL     OW15985   6.364   2.366   2.503
 5029SOL    HW115986   6.416   2.297   2.554
 5029SOL    HW215987   6.317   2.322   2.426
 5030SOL     OW15988   0.601   6.111   6.592
 5030SOL    HW115989   0.570   6.202   6.566
 5030SOL    HW215990   0.557   6.043   6.533
 5031SOL     OW15991   6.578   0.794   6.383
 5031SOL    HW115992   6.490   0.798   6.334
 5031SOL    HW215993   6.572   0.849   6.466
 5032SOL     OW15994   2.370   2.560   5.926
 5032SOL    HW115995   2.327   2.519   5.845
 5032SOL    HW215996   2.467   2.537   5.927
 5033SOL     OW15997   2.058   6.732   5.948
 5033SOL    HW115998   2.148   6.696   5.973
 5033SOL    HW215999   2.035   6.808   6.010
 5034SOL     OW16000   5.994   0.013   3.323
 5034SOL    HW116001   5.975   6.954   3.364
 5034SOL    HW216002   6.017   0.001   3.226
 5035SOL     OW16003   0.408   4.191   6.065
 5035SOL    HW116004   0.325   4.219   6.017
 5035SOL    HW216005   0.409   4.092   6.077
 5036SOL     OW16006   0.182   5.066   6.853
 5036SOL    HW116007   0.113   5.117   6.903
 5036SOL    HW216008   0.229   5.127   6.789
 5037SOL     OW16009   5.137   4.415   1.672
 5037SOL    HW116010   5.095   4.482   1.611
 5037SOL    HW216011   5.159   4.332   1.621
 5038SOL     OW16012   3.319   3.710   5.907
 5038SOL    HW116013   3.330   3.796   5.857
 5038SOL    HW216014   3.408   3.680   5.941
 5039SOL     OW16015   2.295   4.428   5.828
 5039SOL    HW116016   2.257   4.345   5.870
 5039SOL    HW216017   2.226   4.471   5.769
 5040SOL     OW16018   1.412   6.798   5.997
 5040SOL    HW116019   1.445   6.751   6.079
 5040SOL    HW216020   1.346   6.739   5.950
 5041SOL     OW16021   1.476   1.866   2.487
 5041SOL    HW116022   1.548   1.822   2.540
 5041SOL    HW216023   1.400   1.803   2.474
 5042SOL     OW16024   6.174   3.570   6.865
 5042SOL    HW116025   6.116   3.604   6.790
 5042SOL    HW216026   6.116   3.543   6.942
 5043SOL     OW16027   3.442   6.962   6.235
 5043SOL    HW116028   3.469   0.021   6.199
 5043SOL    HW216029   3.517   6.924   6.289
 5044SOL     OW16030   0.595   6.426   0.283
 5044SOL    HW116031   0.634   6.518   0.272
 5044SOL    HW216032   0.648   6.361   0.229
 5045SOL     OW16033   5.713   0.110   6.006
 5045SOL    HW116034   5.687   0.185   5.947
 5045SOL    HW216035   5.760   0.040   5.952
 5046SOL     OW16036   3.365   4.100   2.879
 5046SOL    HW116037   3.346   4.144   2.966
 5046SOL    HW216038   3.287   4.042   2.854
 5047SOL     OW16039   1.111   4.235   2.647
 5047SOL    HW116040   1.066   4.147   2.665
 5047SOL    HW216041   1.048   4.310   2.670
 5048SOL     OW16042   1.147   1.553   2.863
 5048SOL    HW116043   1.206   1.479   2.832
 5048SOL    HW216044   1.172   1.579   2.957
 5049SOL     OW16045   5.060   2.043   6.765
 5049SOL    HW116046   4.991   1.976   6.790
 5049SOL    HW216047   5.038   2.083   6.677
 5050SOL     OW16048   2.052   0.562   1.359
 5050SOL    HW116049   2.016   0.490   1.301
 5050SOL    HW216050   2.035   0.651   1.316
 5051SOL     OW16051   4.075   4.550   0.832
 5051SOL    HW116052   4.122   4.470   0.869
 5051SOL    HW216053   4.057   4.536   0.735
 5052SOL     OW16054   2.309   0.736   6.110
 5052SOL    HW116055   2.393   0.777   6.146
 5052SOL    HW216056   2.314   0.731   6.011
 5053SOL     OW16057   2.022   3.512   4.241
 5053SOL    HW116058   2.064   3.513   4.150
 5053SOL    HW216059   2.058   3.588   4.295
 5054SOL     OW16060   3.416   4.937   4.389
 5054SOL    HW116061   3.343   4.880   4.427
 5054SOL    HW216062   3.429   5.018   4.446
 5055SOL     OW16063   1.619   2.261   5.193
 5055SOL    HW116064   1.545   2.230   5.253
 5055SOL    HW216065   1.605   2.224   5.101
 5056SOL     OW16066   5.247   4.182   6.759
 5056SOL    HW116067   5.203   4.212   6.674
 5056SOL    HW216068   5.207   4.231   6.836
 5057SOL     OW16069   6.834   6.200   3.716
 5057SOL    HW116070   6.761   6.219   3.781
 5057SOL    HW216071   6.914   6.256   3.738
 5058SOL     OW16072   3.268   4.108   5.609
 5058SOL    HW116073   3.344   4.172   5.597
 5058SOL    HW216074   3.265   4.046   5.530
 5059SOL     OW16075   6.922   1.342   2.913
 5059SOL    HW116076   6.848   1.301   2.858
 5059SOL    HW216077   7.008   1.336   2.862
 5060SOL     OW16078   0.603   2.175   5.797
 5060SOL    HW116079   0.699   2.200   5.797
 5060SOL    HW216080   0.591   2.086   5.753
 5061SOL     OW16081   4.509   2.575   1.322
 5061SOL    HW116082   4.572   2.546   1.394
 5061SOL    HW216083   4.416   2.580   1.358
 5062SOL     OW16084   5.999   0.473   3.266
 5062SOL    HW116085   5.913   0.452   3.220
 5062SOL    HW216086   6.024   0.397   3.326
 5063SOL     OW16087   1.035   0.052   2.200
 5063SOL    HW116088   1.048   0.145   2.236
 5063SOL    HW216089   1.094   7.019   2.249
 5064SOL     OW16090   5.246   3.621   1.288
 5064SOL    HW116091   5.287   3.553   1.348
 5064SOL    HW216092   5.242   3.586   1.195
 5065SOL     OW16093   2.404   0.798   4.082
 5065SOL    HW116094   2.387   0.729   4.013
 5065SOL    HW216095   2.384   0.760   4.173
 5066SOL     OW16096   5.047   4.739   2.755
 5066SOL    HW116097   5.041   4.733   2.655
 5066SOL    HW216098   4.965   4.699   2.796
 5067SOL     OW16099   4.477   1.079   1.677
 5067SOL    HW116100   4.471   1.148   1.749
 5067SOL    HW216101   4.572   1.074   1.644
 5068SOL     OW16102   2.909   4.065   1.041
 5068SOL    HW116103   2.942   4.035   1.130
 5068SOL    HW216104   2.912   4.165   1.037
 5069SOL     OW16105   1.945   3.742   5.681
 5069SOL    HW116106   1.895   3.790   5.754
 5069SOL    HW216107   2.031   3.790   5.663
 5070SOL     OW16108   5.331   4.049   4.351
 5070SOL    HW116109   5.239   4.072   4.319
 5070SOL    HW216110   5.335   3.952   4.375
 5071SOL     OW16111   4.419   2.495   4.258
 5071SOL    HW116112   4.439   2.498   4.160
 5071SOL    HW216113   4.487   2.550   4.307
 5072SOL     OW16114   1.371   0.022   0.847
 5072SOL    HW116115   1.320   6.966   0.847
 5072SOL    HW216116   1.381   0.054   0.941
 5073SOL     OW16117   0.038   6.073   2.467
 5073SOL    HW116118   0.083   5.995   2.510
 5073SOL    HW216119   6.994   6.041   2.408
 5074SOL     OW16120   2.923   3.052   0.975
 5074SOL    HW116121   2.910   2.955   0.997
 5074SOL    HW216122   3.011   3.083   1.011
 5075SOL     OW16123   1.301   2.129   6.824
 5075SOL    HW116124   1.307   2.141   6.725
 5075SOL    HW216125   1.210   2.157   6.855
 5076SOL     OW16126   3.669   1.288   0.750
 5076SOL    HW116127   3.668   1.262   0.653
 5076SOL    HW216128   3.723   1.222   0.802
 5077SOL     OW16129   0.908   4.054   5.404
 5077SOL    HW116130   1.001   4.088   5.391
 5077SOL    HW216131   0.850   4.089   5.331
 5078SOL     OW16132   2.179   1.751   3.976
 5078SOL    HW116133   2.125   1.768   4.059
 5078SOL    HW216134   2.155   1.661   3.939
 5079SOL     OW16135   2.323   3.658   5.655
 5079SOL    HW116136   2.279   3.746   5.634
 5079SOL    HW216137   2.287   3.588   5.593
 5080SOL     OW16138   6.257   6.282   6.243
 5080SOL    HW116139   6.224   6.189   6.225
 5080SOL    HW216140   6.343   6.278   6.293
 5081SOL     OW16141   3.440   2.958   4.067
 5081SOL    HW116142   3.443   2.918   3.975
 5081SOL    HW216143   3.439   3.058   4.060
 5082SOL     OW16144   5.063   6.122   6.553
 5082SOL    HW116145   5.005   6.139   6.474
 5082SOL    HW216146   5.007   6.094   6.631
 5083SOL     OW16147   2.898   6.990   3.019
 5083SOL    HW116148   2.822   7.024   3.075
 5083SOL    HW216149   2.962   0.034   3.001
 5084SOL     OW16150   0.672   4.557   4.227
 5084SOL    HW116151   0.635   4.650   4.231
 5084SOL    HW216152   0.655   4.511   4.314
 5085SOL     OW16153   4.826   3.533   6.614
 5085SOL    HW116154   4.926   3.535   6.625
 5085SOL    HW216155   4.785   3.609   6.664
 5086SOL     OW16156   0.369   5.455   3.231
 5086SOL    HW116157   0.358   5.507   3.316
 5086SOL    HW216158   0.411   5.514   3.162
 5087SOL     OW16159   0.159   4.704   2.992
 5087SOL    HW116160   0.077   4.750   3.025
 5087SOL    HW216161   0.201   4.758   2.919
 5088SOL     OW16162   6.363   1.697   4.901
 5088SOL    HW116163   6.309   1.670   4.821
 5088SOL    HW216164   6.422   1.621   4.928
 5089SOL     OW16165   5.229   3.368   3.804
 5089SOL    HW116166   5.273   3.354   3.893
 5089SOL    HW216167   5.198   3.462   3.797
 5090SOL     OW16168   2.046   4.003   2.896
 5090SOL    HW116169   2.047   3.941   2.817
 5090SOL    HW216170   1.971   3.978   2.957
 5091SOL     OW16171   1.537   6.705   2.255
 5091SOL    HW116172   1.561   6.683   2.349
 5091SOL    HW216173   1.464   6.644   2.224
 5092SOL     OW16174   3.606   2.904   1.519
 5092SOL    HW116175   3.649   2.831   1.467
 5092SOL    HW216176   3.646   2.992   1.492
 5093SOL     OW16177   3.055   1.409   1.033
 5093SOL    HW116178   3.005   1.325   1.051
 5093SOL    HW216179   3.150   1.398   1.061
 5094SOL     OW16180   1.584   6.287   5.288
 5094SOL    HW116181   1.627   6.284   5.198
 5094SOL    HW216182   1.654   6.287   5.359
 5095SOL     OW16183   0.185   2.658   4.952
 5095SOL    HW116184   0.170   2.754   4.928
 5095SOL    HW216185   0.119   2.600   4.904
 5096SOL     OW16186   4.117   3.544   0.887
 5096SOL    HW116187   4.074   3.482   0.952
 5096SOL    HW216188   4.216   3.527   0.886
 5097SOL     OW16189   1.285   0.742   6.752
 5097SOL    HW116190   1.253   0.687   6.829
 5097SOL    HW216191   1.324   0.682   6.682
 5098SOL     OW16192   1.516   0.513   1.320
 5098SOL    HW116193   1.596   0.470   1.362
 5098SOL    HW216194   1.538   0.607   1.293
 5099SOL     OW16195   0.757   6.408   6.800
 5099SOL    HW116196   0.666   6.422   6.838
 5099SOL    HW216197   0.786   6.489   6.750
 5100SOL     OW16198   4.093   6.175   5.310
 5100SOL    HW116199   4.069   6.185   5.406
 5100SOL    HW216200   4.064   6.256   5.259
 5101SOL     OW16201   3.910   6.870   0.321
 5101SOL    HW116202   3.988   6.810   0.339
 5101SOL    HW216203   3.874   6.906   0.407
 5102SOL     OW16204   6.453   0.536   4.782
 5102SOL    HW116205   6.360   0.560   4.807
 5102SOL    HW216206   6.517   0.601   4.824
 5103SOL     OW16207   0.428   0.709   4.305
 5103SOL    HW116208   0.463   0.776   4.239
 5103SOL    HW216209   0.403   0.756   4.389
 5104SOL     OW16210   2.063   6.649   2.445
 5104SOL    HW116211   1.984   6.700   2.413
 5104SOL    HW216212   2.146   6.701   2.427
 5105SOL     OW16213   3.592   2.717   0.031
 5105SOL    HW116214   3.676   2.681   7.020
 5105SOL    HW216215   3.561   2.796   7.010
 5106SOL     OW16216   3.444   0.837   1.147
 5106SOL    HW116217   3.394   0.921   1.167
 5106SOL    HW216218   3.510   0.854   1.073
 5107SOL     OW16219   4.273   0.825   1.107
 5107SOL    HW116220   4.210   0.748   1.100
 5107SOL    HW216221   4.265   0.882   1.024
 5108SOL     OW16222   2.942   3.730   4.253
 5108SOL    HW116223   2.994   3.808   4.289
 5108SOL    HW216224   2.931   3.661   4.326
 5109SOL     OW16225   1.244   0.571   1.002
 5109SOL    HW116226   1.262   0.650   0.943
 5109SOL    HW216227   1.297   0.493   0.969
 5110SOL     OW16228   0.609   0.398   6.521
 5110SOL    HW116229   0.650   0.422   6.433
 5110SOL    HW216230   0.681   0.393   6.591
 5111SOL     OW16231   1.923   1.059   5.628
 5111SOL    HW116232   1.917   1.074   5.727
 5111SOL    HW216233   1.982   1.130   5.588
 5112SOL     OW16234   1.180   6.969   2.376
 5112SOL    HW116235   1.195   6.870   2.374
 5112SOL    HW216236   1.212   7.006   2.463
 5113SOL     OW16237   2.362   0.338   2.138
 5113SOL    HW116238   2.344   0.246   2.101
 5113SOL    HW216239   2.430   0.384   2.080
 5114SOL     OW16240   3.282   2.687   7.029
 5114SOL    HW116241   3.214   2.614   7.025
 5114SOL    HW216242   3.369   2.649   0.031
 5115SOL     OW16243   2.188   5.104   4.610
 5115SOL    HW116244   2.148   5.012   4.602
 5115SOL    HW216245   2.128   5.170   4.567
 5116SOL     OW16246   5.676   6.645   6.623
 5116SOL    HW116247   5.576   6.644   6.618
 5116SOL    HW216248   5.704   6.637   6.718
 5117SOL     OW16249   1.853   4.465   4.585
 5117SOL    HW116250   1.866   4.474   4.486
 5117SOL    HW216251   1.937   4.430   4.627
 5118SOL     OW16252   4.334   0.231   0.474
 5118SOL    HW116253   4.261   0.298   0.457
 5118SOL    HW216254   4.311   0.177   0.555
 5119SOL     OW16255   5.268   1.097   1.960
 5119SOL    HW116256   5.307   1.007   1.939
 5119SOL    HW216257   5.308   1.130   2.046
 5120SOL     OW16258   4.319   1.270   3.708
 5120SOL    HW116259   4.419   1.271   3.715
 5120SOL    HW216260   4.291   1.325   3.630
 5121SOL     OW16261   2.233   2.427   6.973
 5121SOL    HW116262   2.296   2.379   0.004
 5121SOL    HW216263   2.139   2.398   6.993
 5122SOL     OW16264   3.290   0.523   3.963
 5122SOL    HW116265   3.305   0.602   3.904
 5122SOL    HW216266   3.225   0.461   3.920
 5123SOL     OW16267   5.929   2.190   4.721
 5123SOL    HW116268   6.017   2.206   4.767
 5123SOL    HW216269   5.943   2.192   4.622
 5124SOL     OW16270   2.746   5.299   4.810
 5124SOL    HW116271   2.779   5.206   4.827
 5124SOL    HW216272   2.665   5.316   4.866
 5125SOL     OW16273   6.160   3.232   4.271
 5125SOL    HW116274   6.119   3.244   4.181
 5125SOL    HW216275   6.225   3.306   4.289
 5126SOL     OW16276   6.151   5.397   6.298
 5126SOL    HW116277   6.197   5.482   6.272
 5126SOL    HW216278   6.153   5.333   6.221
 5127SOL     OW16279   6.881   4.074   0.254
 5127SOL    HW116280   6.861   4.136   0.178
 5127SOL    HW216281   6.936   4.121   0.322
 5128SOL     OW16282   0.037   6.626   6.789
 5128SOL    HW116283   0.115   6.684   6.762
 5128SOL    HW216284   0.047   6.600   6.885
 5129SOL     OW16285   4.937   0.268   3.157
 5129SOL    HW116286   4.921   0.364   3.179
 5129SOL    HW216287   4.850   0.224   3.134
 5130SOL     OW16288   1.628   6.137   4.276
 5130SOL    HW116289   1.718   6.094   4.277
 5130SOL    HW216290   1.638   6.236   4.274
 5131SOL     OW16291   2.791   4.704   3.631
 5131SOL    HW116292   2.739   4.623   3.659
 5131SOL    HW216293   2.795   4.708   3.531
 5132SOL     OW16294   3.746   1.088   6.272
 5132SOL    HW116295   3.840   1.054   6.269
 5132SOL    HW216296   3.721   1.109   6.366
 5133SOL     OW16297   2.626   5.510   6.648
 5133SOL    HW116298   2.605   5.445   6.721
 5133SOL    HW216299   2.634   5.602   6.686
 5134SOL     OW16300   0.184   6.977   2.591
 5134SOL    HW116301   0.100   7.016   2.555
 5134SOL    HW216302   0.252   6.969   2.518
 5135SOL     OW16303   5.381   3.693   3.946
 5135SOL    HW116304   5.296   3.652   3.916
 5135SOL    HW216305   5.458   3.648   3.902
 5136SOL     OW16306   5.752   0.622   5.915
 5136SOL    HW116307   5.845   0.659   5.922
 5136SOL    HW216308   5.705   0.664   5.838
 5137SOL     OW16309   5.468   3.258   5.028
 5137SOL    HW116310   5.510   3.346   5.051
 5137SOL    HW216311   5.540   3.189   5.018
 5138SOL     OW16312   3.593   4.153   4.659
 5138SOL    HW116313   3.540   4.159   4.575
 5138SOL    HW216314   3.535   4.114   4.732
 5139SOL     OW16315   0.824   0.054   4.686
 5139SOL    HW116316   0.775   0.110   4.753
 5139SOL    HW216317   0.850   6.997   4.728
 5140SOL     OW16318   3.898   2.334   5.593
 5140SOL    HW116319   3.841   2.262   5.554
 5140SOL    HW216320   3.974   2.353   5.531
 5141SOL     OW16321   6.672   3.584   0.914
 5141SOL    HW116322   6.650   3.671   0.868
 5141SOL    HW216323   6.659   3.594   1.012
 5142SOL     OW16324   5.236   6.724   4.926
 5142SOL    HW116325   5.136   6.717   4.925
 5142SOL    HW216326   5.263   6.816   4.899
 5143SOL     OW16327   1.005   4.264   5.072
 5143SOL    HW116328   0.937   4.284   5.001
 5143SOL    HW216329   1.092   4.239   5.029
 5144SOL     OW16330   1.895   4.097   6.067
 5144SOL    HW116331   1.798   4.118   6.071
 5144SOL    HW216332   1.937   4.144   5.989
 5145SOL     OW16333   4.137   6.289   6.269
 5145SOL    HW116334   4.106   6.318   6.179
 5145SOL    HW216335   4.078   6.216   6.303
 5146SOL     OW16336   3.850   4.172   5.375
 5146SOL    HW116337   3.777   4.141   5.314
 5146SOL    HW216338   3.935   4.181   5.323
 5147SOL     OW16339   5.974   4.702   3.491
 5147SOL    HW116340   5.917   4.713   3.409
 5147SOL    HW216341   6.008   4.792   3.519
 5148SOL     OW16342   0.462   1.290   2.029
 5148SOL    HW116343   0.552   1.330   2.048
 5148SOL    HW216344   0.402   1.302   2.108
 5149SOL     OW16345   5.888   5.847   4.826
 5149SOL    HW116346   5.908   5.918   4.759
 5149SOL    HW216347   5.893   5.757   4.782
 5150SOL     OW16348   1.932   4.400   3.919
 5150SOL    HW116349   1.984   4.483   3.896
 5150SOL    HW216350   1.898   4.358   3.835
 5151SOL     OW16351   6.430   3.995   2.147
 5151SOL    HW116352   6.409   3.902   2.176
 5151SOL    HW216353   6.377   4.018   2.065
 5152SOL     OW16354   2.035   5.702   6.576
 5152SOL    HW116355   2.050   5.788   6.625
 5152SOL    HW216356   2.119   5.648   6.578
 5153SOL     OW16357   0.459   2.269   0.959
 5153SOL    HW116358   0.399   2.210   0.904
 5153SOL    HW216359   0.550   2.229   0.963
 5154SOL     OW16360   1.402   2.606   6.048
 5154SOL    HW116361   1.488   2.622   6.000
 5154SOL    HW216362   1.409   2.641   6.141
 5155SOL     OW16363   4.021   0.935   1.684
 5155SOL    HW116364   4.026   1.030   1.654
 5155SOL    HW216365   4.114   0.900   1.699
 5156SOL     OW16366   5.756   4.851   4.908
 5156SOL    HW116367   5.844   4.892   4.930
 5156SOL    HW216368   5.771   4.761   4.865
 5157SOL     OW16369   3.291   2.118   2.370
 5157SOL    HW116370   3.366   2.083   2.315
 5157SOL    HW216371   3.205   2.075   2.341
 5158SOL     OW16372   3.915   2.676   0.921
 5158SOL    HW116373   4.002   2.650   0.879
 5158SOL    HW216374   3.930   2.708   1.014
 5159SOL     OW16375   5.831   3.602   6.187
 5159SOL    HW116376   5.844   3.688   6.237
 5159SOL    HW216377   5.740   3.600   6.146
 5160SOL     OW16378   0.175   5.379   3.042
 5160SOL    HW116379   0.178   5.455   2.977
 5160SOL    HW216380   0.238   5.397   3.118
 5161SOL     OW16381   1.370   3.744   0.262
 5161SOL    HW116382   1.276   3.737   0.228
 5161SOL    HW216383   1.390   3.665   0.320
 5162SOL     OW16384   0.883   5.413   2.643
 5162SOL    HW116385   0.890   5.330   2.588
 5162SOL    HW216386   0.967   5.466   2.635
 5163SOL     OW16387   3.474   6.644   0.722
 5163SOL    HW116388   3.534   6.629   0.643
 5163SOL    HW216389   3.489   6.571   0.789
 5164SOL     OW16390   3.276   3.079   6.491
 5164SOL    HW116391   3.178   3.059   6.494
 5164SOL    HW216392   3.322   3.036   6.569
 5165SOL     OW16393   0.946   4.151   6.372
 5165SOL    HW116394   0.858   4.130   6.329
 5165SOL    HW216395   1.016   4.161   6.302
 5166SOL     OW16396   1.861   5.243   2.662
 5166SOL    HW116397   1.893   5.166   2.716
 5166SOL    HW216398   1.769   5.224   2.627
 5167SOL     OW16399   6.420   4.146   4.909
 5167SOL    HW116400   6.324   4.159   4.934
 5167SOL    HW216401   6.446   4.050   4.926
 5168SOL     OW16402   5.208   2.829   2.777
 5168SOL    HW116403   5.162   2.815   2.864
 5168SOL    HW216404   5.145   2.808   2.702
 5169SOL     OW16405   4.477   1.975   3.666
 5169SOL    HW116406   4.505   2.029   3.586
 5169SOL    HW216407   4.437   1.888   3.635
 5170SOL     OW16408   1.439   3.472   5.018
 5170SOL    HW116409   1.480   3.402   4.960
 5170SOL    HW216410   1.466   3.455   5.113
 5171SOL     OW16411   6.759   4.490   5.812
 5171SOL    HW116412   6.758   4.390   5.810
 5171SOL    HW216413   6.842   4.521   5.859
 5172SOL     OW16414   1.536   4.476   3.090
 5172SOL    HW116415   1.532   4.455   3.187
 5172SOL    HW216416   1.499   4.400   3.037
 5173SOL     OW16417   4.598   5.250   5.303
 5173SOL    HW116418   4.663   5.187   5.262
 5173SOL    HW216419   4.647   5.325   5.347
 5174SOL     OW16420   2.110   5.053   3.802
 5174SOL    HW116421   2.088   5.149   3.820
 5174SOL    HW216422   2.204   5.035   3.831
 5175SOL     OW16423   2.751   3.888   0.128
 5175SOL    HW116424   2.730   3.867   0.033
 5175SOL    HW216425   2.771   3.803   0.177
 5176SOL     OW16426   4.930   4.794   6.278
 5176SOL    HW116427   4.870   4.724   6.315
 5176SOL    HW216428   5.004   4.751   6.226
 5177SOL     OW16429   4.381   6.583   0.909
 5177SOL    HW116430   4.287   6.550   0.896
 5177SOL    HW216431   4.380   6.681   0.926
 5178SOL     OW16432   1.594   4.497   1.954
 5178SOL    HW116433   1.660   4.564   1.919
 5178SOL    HW216434   1.511   4.544   1.982
 5179SOL     OW16435   5.050   4.154   4.340
 5179SOL    HW116436   5.008   4.073   4.299
 5179SOL    HW216437   4.980   4.210   4.385
 5180SOL     OW16438   3.596   0.890   1.349
 5180SOL    HW116439   3.542   0.861   1.270
 5180SOL    HW216440   3.653   0.968   1.324
 5181SOL     OW16441   6.368   0.418   1.615
 5181SOL    HW116442   6.445   0.422   1.552
 5181SOL    HW216443   6.403   0.404   1.708
 5182SOL     OW16444   4.478   4.612   2.140
 5182SOL    HW116445   4.560   4.564   2.109
 5182SOL    HW216446   4.403   4.594   2.077
 5183SOL     OW16447   4.066   1.946   2.306
 5183SOL    HW116448   4.000   2.017   2.286
 5183SOL    HW216449   4.028   1.882   2.372
 5184SOL     OW16450   2.489   1.842   3.390
 5184SOL    HW116451   2.515   1.748   3.410
 5184SOL    HW216452   2.473   1.853   3.292
 5185SOL     OW16453   5.210   0.552   2.665
 5185SOL    HW116454   5.125   0.556   2.613
 5185SOL    HW216455   5.232   0.457   2.686
 5186SOL     OW16456   6.020   2.663   6.683
 5186SOL    HW116457   5.928   2.649   6.647
 5186SOL    HW216458   6.057   2.749   6.649
 5187SOL     OW16459   1.053   5.649   5.329
 5187SOL    HW116460   1.033   5.692   5.241
 5187SOL    HW216461   1.007   5.699   5.402
 5188SOL     OW16462   6.074   6.041   1.939
 5188SOL    HW116463   6.152   6.059   1.879
 5188SOL    HW216464   6.059   5.942   1.945
 5189SOL     OW16465   4.861   5.815   0.357
 5189SOL    HW116466   4.938   5.756   0.331
 5189SOL    HW216467   4.896   5.907   0.375
 5190SOL     OW16468   0.846   3.905   3.661
 5190SOL    HW116469   0.930   3.923   3.711
 5190SOL    HW216470   0.866   3.896   3.564
 5191SOL     OW16471   3.407   5.925   2.444
 5191SOL    HW116472   3.498   5.916   2.486
 5191SOL    HW216473   3.349   5.850   2.476
 5192SOL     OW16474   1.456   5.933   1.318
 5192SOL    HW116475   1.495   5.848   1.353
 5192SOL    HW216476   1.454   6.001   1.392
 5193SOL     OW16477   4.955   5.923   5.822
 5193SOL    HW116478   4.868   5.965   5.848
 5193SOL    HW216479   5.001   5.980   5.754
 5194SOL     OW16480   3.733   2.205   6.845
 5194SOL    HW116481   3.781   2.134   6.897
 5194SOL    HW216482   3.695   2.272   6.908
 5195SOL     OW16483   0.543   0.704   4.616
 5195SOL    HW116484   0.512   0.611   4.600
 5195SOL    HW216485   0.474   0.769   4.584
 5196SOL     OW16486   4.872   6.900   2.315
 5196SOL    HW116487   4.860   6.802   2.329
 5196SOL    HW216488   4.791   6.949   2.347
 5197SOL     OW16489   1.493   3.681   6.556
 5197SOL    HW116490   1.527   3.651   6.645
 5197SOL    HW216491   1.566   3.675   6.488
 5198SOL     OW16492   4.595   5.339   3.021
 5198SOL    HW116493   4.510   5.384   3.048
 5198SOL    HW216494   4.660   5.340   3.097
 5199SOL     OW16495   0.907   5.588   0.947
 5199SOL    HW116496   0.922   5.490   0.940
 5199SOL    HW216497   0.841   5.617   0.876
 5200SOL     OW16498   6.910   3.504   4.983
 5200SOL    HW116499   6.848   3.557   4.924
 5200SOL    HW216500   6.998   3.551   4.988
 5201SOL     OW16501   1.253   0.086   2.903
 5201SOL    HW116502   1.316   0.066   2.978
 5201SOL    HW216503   1.177   0.141   2.937
 5202SOL     OW16504   4.929   3.104   6.610
 5202SOL    HW116505   4.957   3.090   6.705
 5202SOL    HW216506   4.837   3.143   6.608
 5203SOL     OW16507   2.172   1.884   6.757
 5203SOL    HW116508   2.199   1.788   6.756
 5203SOL    HW216509   2.073   1.892   6.751
 5204SOL     OW16510   3.684   5.001   0.358
 5204SOL    HW116511   3.678   4.963   0.266
 5204SOL    HW216512   3.692   4.927   0.425
 5205SOL     OW16513   1.786   6.582   1.204
 5205SOL    HW116514   1.858   6.615   1.143
 5205SOL    HW216515   1.726   6.519   1.155
 5206SOL     OW16516   0.494   4.348   5.078
 5206SOL    HW116517   0.486   4.444   5.106
 5206SOL    HW216518   0.590   4.324   5.066
 5207SOL     OW16519   1.030   5.944   3.854
 5207SOL    HW116520   0.970   6.015   3.888
 5207SOL    HW216521   0.988   5.854   3.870
 5208SOL     OW16522   3.980   2.010   6.670
 5208SOL    HW116523   3.991   2.075   6.595
 5208SOL    HW216524   3.995   2.056   6.757
 5209SOL     OW16525   5.730   5.891   3.744
 5209SOL    HW116526   5.765   5.952   3.672
 5209SOL    HW216527   5.665   5.827   3.704
 5210SOL     OW16528   5.847   2.417   5.291
 5210SOL    HW116529   5.853   2.392   5.194
 5210SOL    HW216530   5.752   2.439   5.313
 5211SOL     OW16531   3.898   2.984   4.997
 5211SOL    HW116532   3.995   2.966   5.010
 5211SOL    HW216533   3.846   2.950   5.075
 5212SOL     OW16534   6.253   1.175   0.673
 5212SOL    HW116535   6.161   1.182   0.634
 5212SOL    HW216536   6.263   1.085   0.716
 5213SOL     OW16537   5.184   4.241   6.504
 5213SOL    HW116538   5.172   4.298   6.423
 5213SOL    HW216539   5.241   4.162   6.481
 5214SOL     OW16540   5.083   1.295   6.179
 5214SOL    HW116541   5.159   1.359   6.168
 5214SOL    HW216542   5.080   1.261   6.273
 5215SOL     OW16543   5.915   5.026   3.596
 5215SOL    HW116544   6.005   4.984   3.602
 5215SOL    HW216545   5.884   5.052   3.687
 5216SOL     OW16546   4.247   5.236   1.519
 5216SOL    HW116547   4.229   5.263   1.614
 5216SOL    HW216548   4.269   5.138   1.517
 5217SOL     OW16549   3.436   5.509   4.035
 5217SOL    HW116550   3.448   5.411   4.046
 5217SOL    HW216551   3.339   5.530   4.020
 5218SOL     OW16552   1.227   0.708   3.367
 5218SOL    HW116553   1.178   0.767   3.431
 5218SOL    HW216554   1.163   0.675   3.297
 5219SOL     OW16555   3.838   0.530   5.731
 5219SOL    HW116556   3.788   0.478   5.662
 5219SOL    HW216557   3.919   0.570   5.690
 5220SOL     OW16558   1.620   5.786   2.530
 5220SOL    HW116559   1.657   5.694   2.534
 5220SOL    HW216560   1.600   5.818   2.623
 5221SOL     OW16561   5.646   2.084   3.877
 5221SOL    HW116562   5.698   2.119   3.799
 5221SOL    HW216563   5.567   2.032   3.843
 5222SOL     OW16564   2.474   6.929   3.216
 5222SOL    HW116565   2.452   6.832   3.208
 5222SOL    HW216566   2.418   6.981   3.152
 5223SOL     OW16567   5.607   0.691   1.263
 5223SOL    HW116568   5.623   0.706   1.361
 5223SOL    HW216569   5.642   0.601   1.237
 5224SOL     OW16570   0.399   2.121   3.905
 5224SOL    HW116571   0.383   2.094   3.810
 5224SOL    HW216572   0.318   2.168   3.941
 5225SOL     OW16573   6.758   0.210   3.163
 5225SOL    HW116574   6.771   0.308   3.178
 5225SOL    HW216575   6.843   0.171   3.127
 5226SOL     OW16576   0.580   5.719   5.157
 5226SOL    HW116577   0.521   5.740   5.234
 5226SOL    HW216578   0.563   5.783   5.083
 5227SOL     OW16579   1.143   5.106   3.894
 5227SOL    HW116580   1.144   5.164   3.813
 5227SOL    HW216581   1.073   5.138   3.958
 5228SOL     OW16582   6.447   2.149   0.987
 5228SOL    HW116583   6.504   2.096   0.924
 5228SOL    HW216584   6.486   2.240   0.999
 5229SOL     OW16585   1.314   4.019   0.343
 5229SOL    HW116586   1.295   4.011   0.441
 5229SOL    HW216587   1.355   3.934   0.310
 5230SOL     OW16588   0.306   6.763   1.248
 5230SOL    HW116589   0.394   6.782   1.292
 5230SOL    HW216590   0.243   6.839   1.267
 5231SOL     OW16591   3.918   3.524   4.837
 5231SOL    HW116592   3.839   3.465   4.820
 5231SOL    HW216593   3.894   3.591   4.908
 5232SOL     OW16594   3.278   1.920   5.953
 5232SOL    HW116595   3.196   1.976   5.965
 5232SOL    HW216596   3.318   1.900   6.042
 5233SOL     OW16597   5.761   0.415   1.857
 5233SOL    HW116598   5.828   0.484   1.884
 5233SOL    HW216599   5.798   0.359   1.783
 5234SOL     OW16600   2.253   0.125   6.825
 5234SOL    HW116601   2.231   0.215   6.862
 5234SOL    HW216602   2.326   0.135   6.757
 5235SOL     OW16603   2.423   2.915   1.345
 5235SOL    HW116604   2.343   2.884   1.396
 5235SOL    HW216605   2.492   2.842   1.343
 5236SOL     OW16606   5.723   3.512   2.236
 5236SOL    HW116607   5.653   3.550   2.295
 5236SOL    HW216608   5.686   3.498   2.144
 5237SOL     OW16609   2.623   0.753   5.729
 5237SOL    HW116610   2.681   0.671   5.734
 5237SOL    HW216611   2.680   0.833   5.712
 5238SOL     OW16612   1.435   4.848   0.740
 5238SOL    HW116613   1.528   4.856   0.705
 5238SOL    HW216614   1.377   4.919   0.700
 5239SOL     OW16615   4.074   3.650   4.303
 5239SOL    HW116616   4.051   3.715   4.376
 5239SOL    HW216617   4.133   3.579   4.339
 5240SOL     OW16618   2.813   1.764   6.357
 5240SOL    HW116619   2.884   1.750   6.289
 5240SOL    HW216620   2.757   1.843   6.332
 5241SOL     OW16621   1.196   5.494   6.356
 5241SOL    HW116622   1.125   5.476   6.424
 5241SOL    HW216623   1.253   5.570   6.387
 5242SOL     OW16624   6.991   6.794   5.614
 5242SOL    HW116625   6.899   6.755   5.621
 5242SOL    HW216626   0.026   6.720   5.599
 5243SOL     OW16627   0.981   5.865   1.415
 5243SOL    HW116628   1.036   5.890   1.336
 5243SOL    HW216629   1.032   5.882   1.499
 5244SOL     OW16630   3.694   4.297   6.097
 5244SOL    HW116631   3.659   4.389   6.115
 5244SOL    HW216632   3.630   4.230   6.136
 5245SOL     OW16633   4.389   4.572   6.853
 5245SOL    HW116634   4.461   4.505   6.872
 5245SOL    HW216635   4.352   4.606   6.939
 5246SOL     OW16636   5.699   4.637   2.652
 5246SOL    HW116637   5.678   4.687   2.736
 5246SOL    HW216638   5.728   4.544   2.674
 5247SOL     OW16639   1.328   6.071   0.666
 5247SOL    HW116640   1.409   6.128   0.652
 5247SOL    HW216641   1.299   6.032   0.578
 5248SOL     OW16642   6.037   0.073   4.731
 5248SOL    HW116643   6.106   0.037   4.668
 5248SOL    HW216644   5.989   0.149   4.687
 5249SOL     OW16645   0.903   4.949   4.913
 5249SOL    HW116646   0.891   4.937   5.012
 5249SOL    HW216647   0.816   4.931   4.867
 5250SOL     OW16648   0.473   1.002   5.912
 5250SOL    HW116649   0.537   0.926   5.901
 5250SOL    HW216650   0.392   0.970   5.960
 5251SOL     OW16651   0.442   3.402   1.123
 5251SOL    HW116652   0.449   3.469   1.198
 5251SOL    HW216653   0.354   3.356   1.127
 5252SOL     OW16654   2.007   5.644   0.862
 5252SOL    HW116655   2.088   5.601   0.901
 5252SOL    HW216656   1.925   5.602   0.901
 5253SOL     OW16657   6.105   3.905   5.146
 5253SOL    HW116658   6.138   3.969   5.216
 5253SOL    HW216659   6.174   3.834   5.132
 5254SOL     OW16660   5.439   1.318   3.836
 5254SOL    HW116661   5.434   1.223   3.807
 5254SOL    HW216662   5.405   1.377   3.763
 5255SOL     OW16663   4.341   0.445   5.719
 5255SOL    HW116664   4.436   0.420   5.737
 5255SOL    HW216665   4.329   0.463   5.621
 5256SOL     OW16666   4.490   0.652   3.511
 5256SOL    HW116667   4.435   0.717   3.459
 5256SOL    HW216668   4.481   0.671   3.609
 5257SOL     OW16669   4.663   0.025   2.365
 5257SOL    HW116670   4.578   7.006   2.344
 5257SOL    HW216671   4.645   0.123   2.367
 5258SOL     OW16672   5.083   3.387   1.436
 5258SOL    HW116673   5.047   3.326   1.506
 5258SOL    HW216674   5.077   3.343   1.347
 5259SOL     OW16675   4.195   5.894   1.140
 5259SOL    HW116676   4.285   5.867   1.106
 5259SOL    HW216677   4.203   5.924   1.235
 5260SOL     OW16678   5.630   3.629   1.414
 5260SOL    HW116679   5.681   3.713   1.396
 5260SOL    HW216680   5.549   3.651   1.469
 5261SOL     OW16681   1.834   3.055   6.093
 5261SOL    HW116682   1.830   3.036   5.995
 5261SOL    HW216683   1.748   3.027   6.135
 5262SOL     OW16684   3.039   0.429   2.723
 5262SOL    HW116685   3.102   0.354   2.739
 5262SOL    HW216686   3.082   0.499   2.666
 5263SOL     OW16687   1.097   1.311   5.344
 5263SOL    HW116688   1.008   1.339   5.310
 5263SOL    HW216689   1.101   1.322   5.443
 5264SOL     OW16690   6.682   0.399   2.559
 5264SOL    HW116691   6.584   0.411   2.569
 5264SOL    HW216692   6.726   0.407   2.649
 5265SOL     OW16693   4.937   4.460   3.073
 5265SOL    HW116694   4.935   4.467   2.973
 5265SOL    HW216695   4.843   4.456   3.109
 5266SOL     OW16696   2.673   0.563   2.238
 5266SOL    HW116697   2.668   0.662   2.235
 5266SOL    HW216698   2.646   0.530   2.329
 5267SOL     OW16699   4.658   4.547   5.713
 5267SOL    HW116700   4.586   4.479   5.722
 5267SOL    HW216701   4.633   4.613   5.642
 5268SOL     OW16702   6.019   6.154   5.701
 5268SOL    HW116703   6.020   6.132   5.604
 5268SOL    HW216704   6.094   6.217   5.722
 5269SOL     OW16705   2.172   6.606   4.203
 5269SOL    HW116706   2.082   6.614   4.246
 5269SOL    HW216707   2.237   6.662   4.253
 5270SOL     OW16708   5.122   1.317   1.844
 5270SOL    HW116709   5.190   1.303   1.772
 5270SOL    HW216710   5.136   1.249   1.917
 5271SOL     OW16711   4.765   5.106   4.910
 5271SOL    HW116712   4.812   5.172   4.968
 5271SOL    HW216713   4.831   5.039   4.875
 5272SOL     OW16714   2.052   5.877   2.858
 5272SOL    HW116715   1.955   5.896   2.876
 5272SOL    HW216716   2.096   5.959   2.822
 5273SOL     OW16717   0.445   3.392   3.463
 5273SOL    HW116718   0.458   3.451   3.383
 5273SOL    HW216719   0.354   3.351   3.459
 5274SOL     OW16720   6.118   5.684   2.134
 5274SOL    HW116721   6.132   5.768   2.187
 5274SOL    HW216722   6.051   5.700   2.062
 5275SOL     OW16723   4.014   1.261   6.252
 5275SOL    HW116724   4.027   1.268   6.154
 5275SOL    HW216725   4.040   1.169   6.283
 5276SOL     OW16726   0.950   6.794   1.170
 5276SOL    HW116727   1.002   6.828   1.092
 5276SOL    HW216728   0.942   6.695   1.164
 5277SOL     OW16729   1.845   2.889   2.992
 5277SOL    HW116730   1.832   2.983   3.023
 5277SOL    HW216731   1.896   2.838   3.061
 5278SOL     OW16732   4.805   7.017   4.308
 5278SOL    HW116733   4.896   6.984   4.334
 5278SOL    HW216734   4.801   0.086   4.320
 5279SOL     OW16735   1.605   5.595   6.867
 5279SOL    HW116736   1.675   5.572   6.800
 5279SOL    HW216737   1.563   5.511   6.902
 5280SOL     OW16738   2.618   5.741   5.828
 5280SOL    HW116739   2.588   5.816   5.887
 5280SOL    HW216740   2.557   5.663   5.840
 5281SOL     OW16741   1.013   1.391   3.666
 5281SOL    HW116742   0.978   1.378   3.759
 5281SOL    HW216743   0.937   1.390   3.601
 5282SOL     OW16744   1.762   1.419   2.817
 5282SOL    HW116745   1.803   1.484   2.753
 5282SOL    HW216746   1.693   1.466   2.872
 5283SOL     OW16747   2.782   0.278   2.308
 5283SOL    HW116748   2.702   0.226   2.340
 5283SOL    HW216749   2.751   0.360   2.260
 5284SOL     OW16750   4.800   2.998   2.690
 5284SOL    HW116751   4.768   3.075   2.745
 5284SOL    HW216752   4.839   3.031   2.604
 5285SOL     OW16753   1.194   4.110   4.412
 5285SOL    HW116754   1.203   4.110   4.511
 5285SOL    HW216755   1.283   4.089   4.371
 5286SOL     OW16756   6.824   4.039   1.237
 5286SOL    HW116757   6.807   4.059   1.141
 5286SOL    HW216758   6.856   4.121   1.283
 5287SOL     OW16759   1.752   6.157   1.588
 5287SOL    HW116760   1.807   6.074   1.573
 5287SOL    HW216761   1.740   6.172   1.686
 5288SOL     OW16762   3.831   1.026   2.302
 5288SOL    HW116763   3.894   1.009   2.226
 5288SOL    HW216764   3.753   1.081   2.270
 5289SOL     OW16765   1.861   5.267   6.454
 5289SOL    HW116766   1.769   5.230   6.443
 5289SOL    HW216767   1.883   5.328   6.377
 5290SOL     OW16768   1.316   4.431   5.650
 5290SOL    HW116769   1.295   4.476   5.737
 5290SOL    HW216770   1.261   4.472   5.577
 5291SOL     OW16771   2.872   4.814   6.088
 5291SOL    HW116772   2.812   4.844   6.163
 5291SOL    HW216773   2.960   4.861   6.097
 5292SOL     OW16774   6.039   4.766   6.512
 5292SOL    HW116775   6.066   4.769   6.415
 5292SOL    HW216776   5.940   4.778   6.519
 5293SOL     OW16777   1.228   0.216   4.284
 5293SOL    HW116778   1.270   0.155   4.351
 5293SOL    HW216779   1.141   0.177   4.254
 5294SOL     OW16780   5.842   2.792   4.905
 5294SOL    HW116781   5.889   2.880   4.900
 5294SOL    HW216782   5.906   2.722   4.936
 5295SOL     OW16783   3.866   1.190   2.847
 5295SOL    HW116784   3.844   1.269   2.904
 5295SOL    HW216785   3.888   1.219   2.754
 5296SOL     OW16786   3.056   5.355   0.173
 5296SOL    HW116787   2.959   5.374   0.191
 5296SOL    HW216788   3.097   5.435   0.128
 5297SOL     OW16789   2.050   2.584   0.654
 5297SOL    HW116790   2.100   2.513   0.604
 5297SOL    HW216791   1.997   2.542   0.727
 5298SOL     OW16792   1.086   5.904   0.229
 5298SOL    HW116793   1.136   5.826   0.193
 5298SOL    HW216794   1.005   5.920   0.172
 5299SOL     OW16795   2.320   3.168   0.477
 5299SOL    HW116796   2.359   3.232   0.410
 5299SOL    HW216797   2.394   3.126   0.530
 5300SOL     OW16798   0.702   5.961   1.367
 5300SOL    HW116799   0.651   5.907   1.434
 5300SOL    HW216800   0.800   5.958   1.389
 5301SOL     OW16801   3.365   2.213   6.718
 5301SOL    HW116802   3.284   2.236   6.771
 5301SOL    HW216803   3.387   2.288   6.656
 5302SOL     OW16804   6.006   5.781   4.106
 5302SOL    HW116805   5.989   5.758   4.010
 5302SOL    HW216806   5.942   5.731   4.164
 5303SOL     OW16807   6.640   5.753   3.372
 5303SOL    HW116808   6.713   5.818   3.393
 5303SOL    HW216809   6.554   5.802   3.360
 5304SOL     OW16810   5.433   1.228   0.094
 5304SOL    HW116811   5.349   1.202   0.045
 5304SOL    HW216812   5.408   1.278   0.177
 5305SOL     OW16813   0.648   4.980   2.624
 5305SOL    HW116814   0.690   4.999   2.713
 5305SOL    HW216815   0.719   4.978   2.554
 5306SOL     OW16816   1.200   4.280   4.876
 5306SOL    HW116817   1.184   4.371   4.839
 5306SOL    HW216818   1.295   4.253   4.859
 5307SOL     OW16819   4.357   2.000   0.507
 5307SOL    HW116820   4.346   2.024   0.411
 5307SOL    HW216821   4.293   2.054   0.562
 5308SOL     OW16822   0.876   5.686   3.837
 5308SOL    HW116823   0.885   5.586   3.839
 5308SOL    HW216824   0.780   5.711   3.849
 5309SOL     OW16825   4.457   4.510   1.466
 5309SOL    HW116826   4.460   4.410   1.459
 5309SOL    HW216827   4.448   4.536   1.563
 5310SOL     OW16828   6.362   3.664   2.179
 5310SOL    HW116829   6.423   3.691   2.104
 5310SOL    HW216830   6.388   3.574   2.213
 5311SOL     OW16831   6.517   5.989   6.698
 5311SOL    HW116832   6.523   6.069   6.638
 5311SOL    HW216833   6.525   5.905   6.643
 5312SOL     OW16834   6.899   5.242   1.858
 5312SOL    HW116835   6.849   5.261   1.774
 5312SOL    HW216836   6.986   5.197   1.836
 5313SOL     OW16837   1.307   4.045   6.179
 5313SOL    HW116838   1.394   3.995   6.185
 5313SOL    HW216839   1.319   4.137   6.216
 5314SOL     OW16840   3.372   6.170   0.698
 5314SOL    HW116841   3.419   6.160   0.786
 5314SOL    HW216842   3.274   6.178   0.713
 5315SOL     OW16843   5.026   3.708   1.458
 5315SOL    HW116844   5.053   3.731   1.552
 5315SOL    HW216845   5.092   3.644   1.420
 5316SOL     OW16846   0.812   4.176   4.909
 5316SOL    HW116847   0.739   4.129   4.958
 5316SOL    HW216848   0.866   4.109   4.858
 5317SOL     OW16849   6.717   6.724   4.391
 5317SOL    HW116850   6.674   6.634   4.387
 5317SOL    HW216851   6.682   6.781   4.316
 5318SOL     OW16852   0.445   2.887   6.479
 5318SOL    HW116853   0.481   2.951   6.411
 5318SOL    HW216854   0.516   2.866   6.546
 5319SOL     OW16855   3.441   6.631   0.219
 5319SOL    HW116856   3.373   6.559   0.229
 5319SOL    HW216857   3.491   6.619   0.133
 5320SOL     OW16858   5.712   5.494   0.014
 5320SOL    HW116859   5.790   5.507   6.983
 5320SOL    HW216860   5.628   5.489   6.990
 5321SOL     OW16861   1.177   5.144   4.362
 5321SOL    HW116862   1.172   5.132   4.461
 5321SOL    HW216863   1.266   5.112   4.329
 5322SOL     OW16864   5.039   6.511   6.245
 5322SOL    HW116865   4.945   6.478   6.259
 5322SOL    HW216866   5.088   6.510   6.332
 5323SOL     OW16867   3.969   1.589   6.780
 5323SOL    HW116868   4.016   1.504   6.755
 5323SOL    HW216869   3.960   1.647   6.699
 5324SOL     OW16870   4.134   2.547   0.763
 5324SOL    HW116871   4.188   2.504   0.835
 5324SOL    HW216872   4.049   2.495   0.749
 5325SOL     OW16873   4.490   0.922   4.462
 5325SOL    HW116874   4.441   0.945   4.378
 5325SOL    HW216875   4.464   0.985   4.535
 5326SOL     OW16876   0.496   5.072   3.396
 5326SOL    HW116877   0.580   5.018   3.405
 5326SOL    HW216878   0.417   5.011   3.394
 5327SOL     OW16879   5.896   3.291   5.677
 5327SOL    HW116880   5.802   3.259   5.688
 5327SOL    HW216881   5.945   3.282   5.764
 5328SOL     OW16882   4.807   2.747   4.962
 5328SOL    HW116883   4.753   2.825   4.930
 5328SOL    HW216884   4.750   2.689   5.020
 5329SOL     OW16885   0.049   4.875   6.976
 5329SOL    HW116886   7.014   4.926   0.001
 5329SOL    HW216887   0.103   4.939   6.921
 5330SOL     OW16888   3.813   4.401   5.860
 5330SOL    HW116889   3.903   4.358   5.862
 5330SOL    HW216890   3.756   4.364   5.934
 5331SOL     OW16891   5.259   1.184   0.922
 5331SOL    HW116892   5.335   1.235   0.962
 5331SOL    HW216893   5.189   1.248   0.890
 5332SOL     OW16894   0.562   3.839   1.598
 5332SOL    HW116895   0.503   3.879   1.528
 5332SOL    HW216896   0.577   3.906   1.671
 5333SOL     OW16897   0.850   0.751   3.567
 5333SOL    HW116898   0.899   0.672   3.530
 5333SOL    HW216899   0.782   0.783   3.501
 5334SOL     OW16900   4.111   0.163   4.483
 5334SOL    HW116901   4.079   0.258   4.477
 5334SOL    HW216902   4.158   0.138   4.398
 5335SOL     OW16903   5.601   5.921   2.648
 5335SOL    HW116904   5.620   5.885   2.739
 5335SOL    HW216905   5.671   5.888   2.584
 5336SOL     OW16906   2.750   1.649   3.347
 5336SOL    HW116907   2.739   1.748   3.355
 5336SOL    HW216908   2.802   1.614   3.425
 5337SOL     OW16909   5.226   3.816   1.635
 5337SOL    HW116910   5.244   3.898   1.581
 5337SOL    HW216911   5.307   3.757   1.633
 5338SOL     OW16912   5.518   1.717   6.202
 5338SOL    HW116913   5.549   1.785   6.268
 5338SOL    HW216914   5.570   1.633   6.215
 5339SOL     OW16915   6.726   2.472   4.073
 5339SOL    HW116916   6.686   2.484   3.982
 5339SOL    HW216917   6.755   2.377   4.085
 5340SOL     OW16918   5.590   2.843   0.727
 5340SOL    HW116919   5.525   2.875   0.658
 5340SOL    HW216920   5.649   2.919   0.755
 5341SOL     OW16921   3.242   4.285   6.555
 5341SOL    HW116922   3.321   4.279   6.495
 5341SOL    HW216923   3.178   4.353   6.518
 5342SOL     OW16924   3.455   6.873   3.803
 5342SOL    HW116925   3.472   6.897   3.899
 5342SOL    HW216926   3.539   6.838   3.763
 5343SOL     OW16927   3.697   3.386   4.822
 5343SOL    HW116928   3.657   3.412   4.735
 5343SOL    HW216929   3.663   3.296   4.850
 5344SOL     OW16930   2.627   2.087   2.216
 5344SOL    HW116931   2.698   2.037   2.168
 5344SOL    HW216932   2.565   2.022   2.262
 5345SOL     OW16933   3.695   6.678   1.457
 5345SOL    HW116934   3.638   6.754   1.428
 5345SOL    HW216935   3.653   6.633   1.536
 5346SOL     OW16936   3.419   5.653   4.372
 5346SOL    HW116937   3.506   5.625   4.333
 5346SOL    HW216938   3.394   5.743   4.336
 5347SOL     OW16939   0.083   2.382   1.692
 5347SOL    HW116940   7.023   2.421   1.674
 5347SOL    HW216941   0.153   2.446   1.661
 5348SOL     OW16942   6.948   1.924   1.040
 5348SOL    HW116943   6.857   1.897   1.009
 5348SOL    HW216944   6.970   2.015   1.004
 5349SOL     OW16945   2.092   2.476   0.251
 5349SOL    HW116946   2.089   2.575   0.240
 5349SOL    HW216947   2.000   2.438   0.242
 5350SOL     OW16948   1.955   0.044   5.429
 5350SOL    HW116949   2.032   0.088   5.384
 5350SOL    HW216950   1.873   0.102   5.419
 5351SOL     OW16951   6.897   5.294   2.489
 5351SOL    HW116952   6.942   5.206   2.476
 5351SOL    HW216953   6.855   5.298   2.579
 5352SOL     OW16954   2.354   4.966   3.353
 5352SOL    HW116955   2.332   4.882   3.402
 5352SOL    HW216956   2.291   4.977   3.276
 5353SOL     OW16957   4.060   4.971   4.171
 5353SOL    HW116958   4.076   4.961   4.269
 5353SOL    HW216959   4.148   4.976   4.123
 5354SOL     OW16960   2.570   5.224   2.145
 5354SOL    HW116961   2.575   5.133   2.186
 5354SOL    HW216962   2.639   5.283   2.187
 5355SOL     OW16963   0.119   4.326   4.113
 5355SOL    HW116964   0.142   4.241   4.067
 5355SOL    HW216965   0.020   4.340   4.110
 5356SOL     OW16966   5.951   4.679   2.092
 5356SOL    HW116967   6.009   4.598   2.077
 5356SOL    HW216968   5.862   4.650   2.126
 5357SOL     OW16969   3.380   5.961   0.517
 5357SOL    HW116970   3.392   6.050   0.560
 5357SOL    HW216971   3.308   5.911   0.565
 5358SOL     OW16972   4.710   1.111   0.437
 5358SOL    HW116973   4.703   1.203   0.476
 5358SOL    HW216974   4.803   1.077   0.449
 5359SOL     OW16975   1.432   1.379   5.479
 5359SOL    HW116976   1.475   1.289   5.476
 5359SOL    HW216977   1.503   1.450   5.478
 5360SOL     OW16978   3.548   6.609   4.660
 5360SOL    HW116979   3.628   6.660   4.630
 5360SOL    HW216980   3.469   6.631   4.602
 5361SOL     OW16981   2.491   0.972   5.359
 5361SOL    HW116982   2.453   0.985   5.451
 5361SOL    HW216983   2.548   1.051   5.336
 5362SOL     OW16984   6.862   5.913   3.383
 5362SOL    HW116985   6.845   6.002   3.341
 5362SOL    HW216986   6.931   5.863   3.330
 5363SOL     OW16987   0.467   0.387   6.203
 5363SOL    HW116988   0.552   0.344   6.174
 5363SOL    HW216989   0.421   0.329   6.271
 5364SOL     OW16990   6.961   6.248   2.110
 5364SOL    HW116991   7.028   6.174   2.099
 5364SOL    HW216992   6.897   6.248   2.034
 5365SOL     OW16993   4.067   3.092   7.023
 5365SOL    HW116994   3.977   3.067   0.027
 5365SOL    HW216995   4.138   3.048   0.048
 5366SOL     OW16996   5.278   5.635   1.771
 5366SOL    HW116997   5.313   5.545   1.799
 5366SOL    HW216998   5.347   5.705   1.790
 5367SOL     OW16999   0.663   6.592   1.055
 5367SOL    HW117000   0.570   6.557   1.066
 5367SOL    HW217001   0.714   6.580   1.141
 5368SOL     OW17002   5.637   0.353   2.758
 5368SOL    HW117003   5.601   0.371   2.667
 5368SOL    HW217004   5.618   0.431   2.818
 5369SOL     OW17005   2.758   0.012   1.724
 5369SOL    HW117006   2.764   6.968   1.791
 5369SOL    HW217007   2.752   0.100   1.773
 5370SOL     OW17008   4.644   2.718   1.567
 5370SOL    HW117009   4.610   2.640   1.620
 5370SOL    HW217010   4.688   2.783   1.628
 5371SOL     OW17011   0.951   3.766   5.409
 5371SOL    HW117012   0.946   3.863   5.383
 5371SOL    HW217013   0.993   3.758   5.500
 5372SOL     OW17014   2.027   6.327   3.706
 5372SOL    HW117015   2.036   6.362   3.799
 5372SOL    HW217016   2.113   6.339   3.658
 5373SOL     OW17017   3.677   6.818   4.465
 5373SOL    HW117018   3.729   6.882   4.409
 5373SOL    HW217019   3.591   6.861   4.493
 5374SOL     OW17020   1.661   3.999   0.143
 5374SOL    HW117021   1.697   3.984   0.051
 5374SOL    HW217022   1.576   4.051   0.137
 5375SOL     OW17023   0.846   5.744   5.153
 5375SOL    HW117024   0.753   5.733   5.188
 5375SOL    HW217025   0.844   5.743   5.053
 5376SOL     OW17026   2.040   2.663   0.965
 5376SOL    HW117027   2.105   2.723   1.010
 5376SOL    HW217028   1.980   2.621   1.034
 5377SOL     OW17029   6.904   6.871   2.471
 5377SOL    HW117030   6.957   6.835   2.548
 5377SOL    HW217031   6.871   6.796   2.415
 5378SOL     OW17032   6.436   0.347   1.864
 5378SOL    HW117033   6.347   0.307   1.843
 5378SOL    HW217034   6.492   0.280   1.913
 5379SOL     OW17035   1.462   4.649   5.063
 5379SOL    HW117036   1.549   4.633   5.016
 5379SOL    HW217037   1.408   4.716   5.011
 5380SOL     OW17038   2.692   1.273   2.842
 5380SOL    HW117039   2.603   1.311   2.820
 5380SOL    HW217040   2.759   1.303   2.775
 5381SOL     OW17041   6.507   5.041   1.830
 5381SOL    HW117042   6.429   4.996   1.785
 5381SOL    HW217043   6.527   4.995   1.916
 5382SOL     OW17044   2.858   1.132   1.713
 5382SOL    HW117045   2.770   1.155   1.670
 5382SOL    HW217046   2.847   1.132   1.812
 5383SOL     OW17047   2.494   2.317   5.350
 5383SOL    HW117048   2.487   2.407   5.394
 5383SOL    HW217049   2.545   2.326   5.265
 5384SOL     OW17050   6.131   6.727   5.441
 5384SOL    HW117051   6.090   6.639   5.465
 5384SOL    HW217052   6.130   6.738   5.342
 5385SOL     OW17053   3.316   3.250   4.222
 5385SOL    HW117054   3.275   3.159   4.212
 5385SOL    HW217055   3.257   3.318   4.177
 5386SOL     OW17056   4.993   1.575   4.682
 5386SOL    HW117057   4.968   1.538   4.592
 5386SOL    HW217058   4.911   1.581   4.739
 5387SOL     OW17059   2.295   0.229   3.300
 5387SOL    HW117060   2.376   0.222   3.359
 5387SOL    HW217061   2.215   0.195   3.349
 5388SOL     OW17062   7.014   1.690   4.098
 5388SOL    HW117063   0.029   1.767   4.054
 5388SOL    HW217064   0.053   1.624   4.128
 5389SOL     OW17065   4.527   1.339   3.171
 5389SOL    HW117066   4.547   1.342   3.269
 5389SOL    HW217067   4.609   1.362   3.119
 5390SOL     OW17068   4.885   3.932   3.516
 5390SOL    HW117069   4.876   3.896   3.609
 5390SOL    HW217070   4.876   3.856   3.451
 5391SOL     OW17071   2.139   1.906   0.655
 5391SOL    HW117072   2.133   1.878   0.751
 5391SOL    HW217073   2.234   1.926   0.632
 5392SOL     OW17074   5.391   3.524   0.998
 5392SOL    HW117075   5.368   3.449   0.936
 5392SOL    HW217076   5.408   3.487   1.089
 5393SOL     OW17077   4.269   6.763   5.822
 5393SOL    HW117078   4.269   6.795   5.916
 5393SOL    HW217079   4.362   6.735   5.796
 5394SOL     OW17080   0.171   5.034   0.154
 5394SOL    HW117081   0.140   4.970   0.085
 5394SOL    HW217082   0.109   5.032   0.233
 5395SOL     OW17083   4.509   0.873   1.422
 5395SOL    HW117084   4.428   0.815   1.409
 5395SOL    HW217085   4.575   0.855   1.350
 5396SOL     OW17086   4.939   4.406   1.471
 5396SOL    HW117087   4.972   4.313   1.452
 5396SOL    HW217088   4.958   4.464   1.392
 5397SOL     OW17089   0.404   2.727   1.167
 5397SOL    HW117090   0.335   2.721   1.095
 5397SOL    HW217091   0.361   2.759   1.251
 5398SOL     OW17092   3.203   1.866   3.697
 5398SOL    HW117093   3.211   1.891   3.600
 5398SOL    HW217094   3.109   1.839   3.716
 5399SOL     OW17095   2.874   5.397   1.101
 5399SOL    HW117096   2.798   5.451   1.067
 5399SOL    HW217097   2.960   5.446   1.085
 5400SOL     OW17098   3.235   3.827   6.899
 5400SOL    HW117099   3.141   3.819   6.932
 5400SOL    HW217100   3.256   3.923   6.880
 5401SOL     OW17101   5.976   3.895   1.221
 5401SOL    HW117102   6.000   3.976   1.169
 5401SOL    HW217103   6.013   3.902   1.314
 5402SOL     OW17104   2.606   5.200   1.873
 5402SOL    HW117105   2.695   5.155   1.864
 5402SOL    HW217106   2.568   5.180   1.963
 5403SOL     OW17107   5.258   2.723   5.999
 5403SOL    HW117108   5.262   2.810   5.950
 5403SOL    HW217109   5.168   2.713   6.043
 5404SOL     OW17110   0.954   0.468   2.222
 5404SOL    HW117111   1.038   0.414   2.234
 5404SOL    HW217112   0.912   0.443   2.134
 5405SOL     OW17113   6.071   6.409   6.954
 5405SOL    HW117114   6.144   6.340   6.949
 5405SOL    HW217115   5.995   6.373   7.008
 5406SOL     OW17116   2.462   6.956   6.218
 5406SOL    HW117117   2.536   6.975   6.154
 5406SOL    HW217118   2.399   0.004   6.220
 5407SOL     OW17119   4.118   1.931   1.411
 5407SOL    HW117120   4.157   2.004   1.356
 5407SOL    HW217121   4.142   1.945   1.507
 5408SOL     OW17122   3.630   1.094   5.801
 5408SOL    HW117123   3.590   1.003   5.793
 5408SOL    HW217124   3.645   1.116   5.897
 5409SOL     OW17125   6.501   2.137   3.503
 5409SOL    HW117126   6.551   2.146   3.589
 5409SOL    HW217127   6.424   2.075   3.515
 5410SOL     OW17128   1.081   2.908   0.045
 5410SOL    HW117129   1.055   3.002   0.023
 5410SOL    HW217130   1.048   2.884   0.136
 5411SOL     OW17131   6.212   4.972   5.275
 5411SOL    HW117132   6.227   4.970   5.374
 5411SOL    HW217133   6.301   4.971   5.228
 5412SOL     OW17134   4.134   0.363   0.129
 5412SOL    HW117135   4.187   0.313   0.197
 5412SOL    HW217136   4.193   0.425   0.079
 5413SOL     OW17137   0.447   0.243   1.232
 5413SOL    HW117138   0.368   0.220   1.290
 5413SOL    HW217139   0.475   0.161   1.181
 5414SOL     OW17140   0.067   3.041   5.233
 5414SOL    HW117141   0.048   3.114   5.167
 5414SOL    HW217142   7.022   3.034   5.299
 5415SOL     OW17143   1.131   6.364   1.455
 5415SOL    HW117144   1.076   6.446   1.474
 5415SOL    HW217145   1.227   6.390   1.446
 5416SOL     OW17146   3.700   4.918   6.444
 5416SOL    HW117147   3.638   4.913   6.365
 5416SOL    HW217148   3.710   4.828   6.485
 5417SOL     OW17149   4.435   6.746   4.686
 5417SOL    HW117150   4.417   6.719   4.591
 5417SOL    HW217151   4.490   6.830   4.686
 5418SOL     OW17152   5.235   0.545   4.500
 5418SOL    HW117153   5.321   0.521   4.455
 5418SOL    HW217154   5.213   0.474   4.567
 5419SOL     OW17155   3.247   5.469   0.513
 5419SOL    HW117156   3.288   5.387   0.554
 5419SOL    HW217157   3.165   5.494   0.565
 5420SOL     OW17158   1.938   2.855   2.127
 5420SOL    HW117159   2.037   2.867   2.132
 5420SOL    HW217160   1.913   2.767   2.168
 5421SOL     OW17161   2.266   4.329   3.185
 5421SOL    HW117162   2.333   4.362   3.118
 5421SOL    HW217163   2.242   4.234   3.164
 5422SOL     OW17164   0.814   5.929   5.884
 5422SOL    HW117165   0.894   5.977   5.848
 5422SOL    HW217166   0.838   5.835   5.906
 5423SOL     OW17167   5.389   3.599   7.026
 5423SOL    HW117168   5.378   3.563   6.934
 5423SOL    HW217169   5.376   3.526   0.063
 5424SOL     OW17170   6.154   3.617   4.320
 5424SOL    HW117171   6.218   3.604   4.396
 5424SOL    HW217172   6.199   3.593   4.234
 5425SOL     OW17173   5.318   1.472   3.654
 5425SOL    HW117174   5.337   1.570   3.661
 5425SOL    HW217175   5.219   1.458   3.648
 5426SOL     OW17176   6.885   5.163   3.705
 5426SOL    HW117177   6.980   5.152   3.734
 5426SOL    HW217178   6.845   5.073   3.685
 5427SOL     OW17179   5.275   5.139   1.216
 5427SOL    HW117180   5.184   5.148   1.173
 5427SOL    HW217181   5.300   5.043   1.221
 5428SOL     OW17182   7.008   0.358   2.273
 5428SOL    HW117183   6.939   0.413   2.226
 5428SOL    HW217184   0.041   0.319   2.205
 5429SOL     OW17185   1.470   0.733   4.947
 5429SOL    HW117186   1.433   0.825   4.935
 5429SOL    HW217187   1.417   0.685   5.017
 5430SOL     OW17188   1.968   2.536   5.198
 5430SOL    HW117189   2.002   2.574   5.284
 5430SOL    HW217190   1.936   2.610   5.139
 5431SOL     OW17191   3.670   5.080   6.850
 5431SOL    HW117192   3.641   5.175   6.833
 5431SOL    HW217193   3.764   5.068   6.817
 5432SOL     OW17194   3.899   6.165   5.873
 5432SOL    HW117195   3.868   6.070   5.865
 5432SOL    HW217196   3.997   6.167   5.891
 5433SOL     OW17197   6.947   2.033   3.307
 5433SOL    HW117198   6.955   1.945   3.260
 5433SOL    HW217199   6.852   2.065   3.303
 5434SOL     OW17200   4.077   1.036   4.982
 5434SOL    HW117201   3.997   1.094   4.971
 5434SOL    HW217202   4.054   0.957   5.038
 5435SOL     OW17203   5.974   1.674   1.207
 5435SOL    HW117204   5.941   1.585   1.176
 5435SOL    HW217205   6.063   1.663   1.251
 5436SOL     OW17206   5.604   4.207   4.806
 5436SOL    HW117207   5.610   4.259   4.892
 5436SOL    HW217208   5.639   4.263   4.731
 5437SOL     OW17209   2.763   4.954   5.663
 5437SOL    HW117210   2.735   4.875   5.609
 5437SOL    HW217211   2.732   4.943   5.757
 5438SOL     OW17212   5.491   3.973   2.362
 5438SOL    HW117213   5.408   4.015   2.326
 5438SOL    HW217214   5.468   3.886   2.407
 5439SOL     OW17215   0.017   2.441   0.234
 5439SOL    HW117216   0.057   2.363   0.186
 5439SOL    HW217217   6.948   2.439   0.225
 5440SOL     OW17218   0.563   6.936   2.628
 5440SOL    HW117219   0.537   6.883   2.709
 5440SOL    HW217220   0.636   6.887   2.579
 5441SOL     OW17221   4.844   2.955   3.692
 5441SOL    HW117222   4.778   2.881   3.704
 5441SOL    HW217223   4.930   2.930   3.735
 5442SOL     OW17224   3.215   6.647   3.327
 5442SOL    HW117225   3.219   6.732   3.274
 5442SOL    HW217226   3.241   6.666   3.421
 5443SOL     OW17227   2.653   6.059   3.768
 5443SOL    HW117228   2.720   6.008   3.714
 5443SOL    HW217229   2.697   6.137   3.811
 5444SOL     OW17230   0.476   0.791   3.030
 5444SOL    HW117231   0.429   0.708   3.000
 5444SOL    HW217232   0.423   0.871   3.003
 5445SOL     OW17233   6.456   4.746   4.056
 5445SOL    HW117234   6.425   4.840   4.071
 5445SOL    HW217235   6.396   4.701   3.990
 5446SOL     OW17236   5.354   4.880   4.746
 5446SOL    HW117237   5.287   4.954   4.750
 5446SOL    HW217238   5.421   4.891   4.820
 5447SOL     OW17239   1.203   2.065   0.918
 5447SOL    HW117240   1.144   2.004   0.865
 5447SOL    HW217241   1.174   2.065   1.013
 5448SOL     OW17242   5.949   4.106   4.719
 5448SOL    HW117243   5.948   4.107   4.819
 5448SOL    HW217244   5.859   4.131   4.684
 5449SOL     OW17245   1.628   2.002   0.349
 5449SOL    HW117246   1.721   2.015   0.384
 5449SOL    HW217247   1.620   1.912   0.307
 5450SOL     OW17248   2.769   0.056   1.447
 5450SOL    HW117249   2.722   0.037   1.534
 5450SOL    HW217250   2.781   7.000   1.398
 5451SOL     OW17251   1.793   5.625   3.169
 5451SOL    HW117252   1.711   5.681   3.161
 5451SOL    HW217253   1.822   5.621   3.265
 5452SOL     OW17254   2.206   3.580   0.712
 5452SOL    HW117255   2.286   3.523   0.733
 5452SOL    HW217256   2.123   3.524   0.721
 5453SOL     OW17257   5.301   4.316   1.379
 5453SOL    HW117258   5.396   4.290   1.400
 5453SOL    HW217259   5.285   4.410   1.409
 5454SOL     OW17260   6.165   4.679   5.627
 5454SOL    HW117261   6.220   4.607   5.669
 5454SOL    HW217262   6.224   4.756   5.602
 5455SOL     OW17263   6.535   2.433   2.040
 5455SOL    HW117264   6.555   2.416   2.137
 5455SOL    HW217265   6.547   2.349   1.988
 5456SOL     OW17266   2.783   0.526   0.292
 5456SOL    HW117267   2.865   0.568   0.331
 5456SOL    HW217268   2.713   0.518   0.363
 5457SOL     OW17269   0.317   2.451   1.092
 5457SOL    HW117270   0.368   2.386   1.036
 5457SOL    HW217271   0.372   2.534   1.106
 5458SOL     OW17272   0.316   4.736   0.604
 5458SOL    HW117273   0.233   4.681   0.596
 5458SOL    HW217274   0.314   4.809   0.536
 5459SOL     OW17275   2.848   3.363   6.481
 5459SOL    HW117276   2.783   3.422   6.529
 5459SOL    HW217277   2.935   3.412   6.469
 5460SOL     OW17278   4.045   0.110   3.036
 5460SOL    HW117279   4.125   0.133   2.981
 5460SOL    HW217280   4.029   0.184   3.103
 5461SOL     OW17281   0.751   0.209   6.142
 5461SOL    HW117282   0.689   0.132   6.158
 5461SOL    HW217283   0.809   0.190   6.063
 5462SOL     OW17284   6.392   6.709   1.373
 5462SOL    HW117285   6.397   6.633   1.308
 5462SOL    HW217286   6.357   6.677   1.461
 5463SOL     OW17287   0.067   1.335   0.509
 5463SOL    HW117288   0.107   1.282   0.434
 5463SOL    HW217289   0.076   1.433   0.490
 5464SOL     OW17290   6.353   0.302   4.384
 5464SOL    HW117291   6.274   0.242   4.391
 5464SOL    HW217292   6.431   0.262   4.432
 5465SOL     OW17293   4.844   0.882   4.623
 5465SOL    HW117294   4.896   0.925   4.549
 5465SOL    HW217295   4.907   0.857   4.697
 5466SOL     OW17296   5.604   2.925   4.797
 5466SOL    HW117297   5.531   2.857   4.793
 5466SOL    HW217298   5.677   2.893   4.856
 5467SOL     OW17299   4.766   4.177   3.504
 5467SOL    HW117300   4.812   4.088   3.498
 5467SOL    HW217301   4.717   4.182   3.591
 5468SOL     OW17302   6.946   2.664   3.707
 5468SOL    HW117303   7.022   2.726   3.686
 5468SOL    HW217304   6.970   2.607   3.786
 5469SOL     OW17305   2.700   5.716   5.561
 5469SOL    HW117306   2.670   5.733   5.655
 5469SOL    HW217307   2.780   5.656   5.563
 5470SOL     OW17308   3.605   5.238   3.391
 5470SOL    HW117309   3.665   5.277   3.461
 5470SOL    HW217310   3.528   5.192   3.435
 5471SOL     OW17311   5.400   6.852   3.250
 5471SOL    HW117312   5.360   6.932   3.205
 5471SOL    HW217313   5.330   6.808   3.308
 5472SOL     OW17314   2.729   4.204   6.943
 5472SOL    HW117315   2.766   4.230   0.002
 5472SOL    HW217316   2.636   4.241   6.934
 5473SOL     OW17317   0.689   3.435   2.228
 5473SOL    HW117318   0.604   3.384   2.220
 5473SOL    HW217319   0.766   3.376   2.205
 5474SOL     OW17320   0.991   4.897   3.705
 5474SOL    HW117321   1.085   4.930   3.714
 5474SOL    HW217322   0.934   4.939   3.776
 5475SOL     OW17323   2.330   2.981   0.917
 5475SOL    HW117324   2.345   3.070   0.960
 5475SOL    HW217325   2.413   2.952   0.871
 5476SOL     OW17326   2.410   4.376   5.588
 5476SOL    HW117327   2.330   4.399   5.532
 5476SOL    HW217328   2.387   4.383   5.684
 5477SOL     OW17329   2.046   4.397   2.460
 5477SOL    HW117330   2.145   4.401   2.447
 5477SOL    HW217331   2.020   4.306   2.492
 5478SOL     OW17332   2.985   5.955   4.252
 5478SOL    HW117333   3.007   5.881   4.189
 5478SOL    HW217334   2.933   5.919   4.329
 5479SOL     OW17335   5.231   1.446   6.580
 5479SOL    HW117336   5.314   1.435   6.634
 5479SOL    HW217337   5.250   1.504   6.501
 5480SOL     OW17338   5.275   5.120   4.196
 5480SOL    HW117339   5.282   5.025   4.225
 5480SOL    HW217340   5.208   5.167   4.253
 5481SOL     OW17341   4.266   1.561   4.310
 5481SOL    HW117342   4.168   1.582   4.312
 5481SOL    HW217343   4.281   1.465   4.334
 5482SOL     OW17344   3.538   4.371   1.768
 5482SOL    HW117345   3.534   4.471   1.766
 5482SOL    HW217346   3.547   4.339   1.862
 5483SOL     OW17347   0.382   1.971   5.418
 5483SOL    HW117348   0.407   2.054   5.468
 5483SOL    HW217349   0.380   1.893   5.482
 5484SOL     OW17350   3.879   1.395   4.371
 5484SOL    HW117351   3.845   1.380   4.278
 5484SOL    HW217352   3.933   1.479   4.373
 5485SOL     OW17353   3.820   0.374   4.682
 5485SOL    HW117354   3.884   0.297   4.690
 5485SOL    HW217355   3.854   0.438   4.613
 5486SOL     OW17356   2.357   6.267   5.483
 5486SOL    HW117357   2.417   6.343   5.460
 5486SOL    HW217358   2.399   6.210   5.553
 5487SOL     OW17359   5.278   2.457   6.608
 5487SOL    HW117360   5.262   2.381   6.672
 5487SOL    HW217361   5.316   2.535   6.658
 5488SOL     OW17362   6.168   0.266   0.981
 5488SOL    HW117363   6.152   0.278   0.883
 5488SOL    HW217364   6.220   0.344   1.017
 5489SOL     OW17365   0.134   4.226   1.781
 5489SOL    HW117366   0.100   4.244   1.874
 5489SOL    HW217367   0.102   4.137   1.751
 5490SOL     OW17368   3.374   0.170   1.927
 5490SOL    HW117369   3.321   0.087   1.909
 5490SOL    HW217370   3.350   0.206   2.017
 5491SOL     OW17371   1.130   3.455   0.110
 5491SOL    HW117372   1.071   3.376   0.123
 5491SOL    HW217373   1.152   3.464   0.013
 5492SOL     OW17374   0.637   3.555   5.941
 5492SOL    HW117375   0.663   3.552   6.038
 5492SOL    HW217376   0.628   3.650   5.912
 5493SOL     OW17377   3.157   4.080   4.568
 5493SOL    HW117378   3.105   4.157   4.605
 5493SOL    HW217379   3.163   4.007   4.636
 5494SOL     OW17380   0.659   3.600   6.204
 5494SOL    HW117381   0.576   3.578   6.255
 5494SOL    HW217382   0.674   3.699   6.204
 5495SOL     OW17383   5.194   1.031   1.122
 5495SOL    HW117384   5.272   0.977   1.152
 5495SOL    HW217385   5.224   1.103   1.059
 5496SOL     OW17386   4.045   0.815   3.282
 5496SOL    HW117387   4.095   0.806   3.196
 5496SOL    HW217388   4.079   0.748   3.348
 5497SOL     OW17389   6.891   0.996   4.905
 5497SOL    HW117390   6.935   0.982   4.994
 5497SOL    HW217391   6.862   0.907   4.868
 5498SOL     OW17392   6.895   5.763   1.382
 5498SOL    HW117393   6.971   5.803   1.332
 5498SOL    HW217394   6.909   5.664   1.390
 5499SOL     OW17395   0.139   0.582   4.630
 5499SOL    HW117396   0.130   0.679   4.653
 5499SOL    HW217397   0.225   0.567   4.582
 5500SOL     OW17398   0.992   0.436   0.151
 5500SOL    HW117399   0.995   0.405   0.246
 5500SOL    HW217400   0.905   0.484   0.135
 5501SOL     OW17401   3.588   1.926   6.824
 5501SOL    HW117402   3.646   1.845   6.816
 5501SOL    HW217403   3.586   1.974   6.736
 5502SOL     OW17404   4.715   3.675   0.505
 5502SOL    HW117405   4.813   3.661   0.493
 5502SOL    HW217406   4.677   3.600   0.558
 5503SOL     OW17407   6.770   4.439   1.585
 5503SOL    HW117408   6.868   4.457   1.589
 5503SOL    HW217409   6.753   4.343   1.609
 5504SOL     OW17410   4.832   1.641   5.240
 5504SOL    HW117411   4.834   1.724   5.185
 5504SOL    HW217412   4.873   1.566   5.189
 5505SOL     OW17413   2.116   5.218   4.162
 5505SOL    HW117414   2.161   5.145   4.112
 5505SOL    HW217415   2.054   5.179   4.230
 5506SOL     OW17416   0.375   3.420   0.830
 5506SOL    HW117417   0.409   3.380   0.915
 5506SOL    HW217418   0.304   3.488   0.852
 5507SOL     OW17419   4.011   1.167   4.577
 5507SOL    HW117420   4.032   1.141   4.482
 5507SOL    HW217421   3.926   1.220   4.578
 5508SOL     OW17422   1.283   0.953   6.969
 5508SOL    HW117423   1.283   0.878   6.902
 5508SOL    HW217424   1.248   1.036   6.926
 5509SOL     OW17425   0.620   6.410   6.293
 5509SOL    HW117426   0.563   6.388   6.372
 5509SOL    HW217427   0.625   6.331   6.232
 5510SOL     OW17428   4.589   5.465   0.326
 5510SOL    HW117429   4.587   5.562   0.301
 5510SOL    HW217430   4.575   5.410   0.243
 5511SOL     OW17431   1.238   0.303   3.591
 5511SOL    HW117432   1.298   0.257   3.657
 5511SOL    HW217433   1.143   0.286   3.615
 5512SOL     OW17434   5.351   2.434   0.598
 5512SOL    HW117435   5.390   2.512   0.647
 5512SOL    HW217436   5.289   2.384   0.659
 5513SOL     OW17437   3.696   4.984   6.054
 5513SOL    HW117438   3.787   5.017   6.078
 5513SOL    HW217439   3.652   4.944   6.134
 5514SOL     OW17440   3.560   0.499   4.719
 5514SOL    HW117441   3.641   0.448   4.693
 5514SOL    HW217442   3.481   0.437   4.723
 5515SOL     OW17443   0.809   5.774   2.073
 5515SOL    HW117444   0.847   5.731   1.991
 5515SOL    HW217445   0.780   5.867   2.051
 5516SOL     OW17446   1.986   3.572   6.044
 5516SOL    HW117447   2.010   3.668   6.053
 5516SOL    HW217448   1.988   3.546   5.948
 5517SOL     OW17449   2.060   3.372   2.211
 5517SOL    HW117450   2.011   3.305   2.156
 5517SOL    HW217451   2.133   3.413   2.156
 5518SOL     OW17452   5.680   6.023   6.886
 5518SOL    HW117453   5.581   6.037   6.897
 5518SOL    HW217454   5.696   5.957   6.813
 5519SOL     OW17455   5.533   3.342   3.129
 5519SOL    HW117456   5.571   3.381   3.045
 5519SOL    HW217457   5.581   3.380   3.208
 5520SOL     OW17458   6.583   6.848   2.503
 5520SOL    HW117459   6.535   6.844   2.591
 5520SOL    HW217460   6.591   6.944   2.474
 5521SOL     OW17461   4.881   6.523   2.118
 5521SOL    HW117462   4.810   6.571   2.169
 5521SOL    HW217463   4.898   6.434   2.161
 5522SOL     OW17464   6.111   4.762   0.590
 5522SOL    HW117465   6.112   4.852   0.634
 5522SOL    HW217466   6.174   4.701   0.637
 5523SOL     OW17467   3.949   1.651   1.807
 5523SOL    HW117468   3.863   1.610   1.838
 5523SOL    HW217469   3.929   1.733   1.753
 5524SOL     OW17470   4.438   0.550   4.634
 5524SOL    HW117471   4.485   0.463   4.649
 5524SOL    HW217472   4.446   0.607   4.715
 5525SOL     OW17473   0.367   2.173   0.036
 5525SOL    HW117474   0.385   2.219   6.979
 5525SOL    HW217475   0.325   2.084   0.018
 5526SOL     OW17476   4.746   5.106   2.860
 5526SOL    HW117477   4.769   5.180   2.923
 5526SOL    HW217478   4.800   5.114   2.777
 5527SOL     OW17479   5.116   3.592   3.989
 5527SOL    HW117480   5.057   3.517   4.019
 5527SOL    HW217481   5.158   3.635   4.069
 5528SOL     OW17482   1.453   0.712   0.513
 5528SOL    HW117483   1.514   0.670   0.580
 5528SOL    HW217484   1.489   0.801   0.486
 5529SOL     OW17485   3.549   6.878   4.884
 5529SOL    HW117486   3.594   6.859   4.971
 5529SOL    HW217487   3.495   6.799   4.856
 5530SOL     OW17488   5.931   1.912   1.092
 5530SOL    HW117489   6.011   1.928   1.035
 5530SOL    HW217490   5.922   1.814   1.110
 5531SOL     OW17491   3.678   3.458   2.018
 5531SOL    HW117492   3.758   3.448   1.959
 5531SOL    HW217493   3.631   3.370   2.025
 5532SOL     OW17494   0.916   3.404   1.046
 5532SOL    HW117495   0.885   3.331   1.107
 5532SOL    HW217496   0.968   3.365   0.970
 5533SOL     OW17497   3.832   2.031   3.208
 5533SOL    HW117498   3.915   2.060   3.160
 5533SOL    HW217499   3.833   1.932   3.221
 5534SOL     OW17500   0.950   1.835   6.986
 5534SOL    HW117501   0.884   1.909   6.971
 5534SOL    HW217502   0.902   1.755   7.024
 5535SOL     OW17503   0.890   1.775   3.501
 5535SOL    HW117504   0.833   1.759   3.581
 5535SOL    HW217505   0.972   1.825   3.527
 5536SOL     OW17506   3.760   0.922   4.186
 5536SOL    HW117507   3.835   0.863   4.217
 5536SOL    HW217508   3.759   1.006   4.240
 5537SOL     OW17509   2.798   1.007   2.009
 5537SOL    HW117510   2.892   1.004   2.044
 5537SOL    HW217511   2.760   1.098   2.026
 5538SOL     OW17512   3.031   5.687   5.260
 5538SOL    HW117513   3.083   5.626   5.320
 5538SOL    HW217514   3.007   5.640   5.176
 5539SOL     OW17515   0.805   3.736   1.472
 5539SOL    HW117516   0.839   3.665   1.533
 5539SOL    HW217517   0.730   3.785   1.517
 5540SOL     OW17518   4.735   4.254   4.254
 5540SOL    HW117519   4.644   4.290   4.231
 5540SOL    HW217520   4.792   4.328   4.289
 5541SOL     OW17521   5.146   0.229   6.750
 5541SOL    HW117522   5.079   0.299   6.729
 5541SOL    HW217523   5.117   0.142   6.711
 5542SOL     OW17524   4.891   3.526   6.097
 5542SOL    HW117525   4.983   3.488   6.092
 5542SOL    HW217526   4.846   3.495   6.180
 5543SOL     OW17527   3.995   3.865   6.549
 5543SOL    HW117528   4.004   3.776   6.503
 5543SOL    HW217529   3.921   3.917   6.506
 5544SOL     OW17530   5.099   5.413   6.607
 5544SOL    HW117531   5.011   5.385   6.646
 5544SOL    HW217532   5.096   5.405   6.507
 5545SOL     OW17533   4.529   1.181   2.826
 5545SOL    HW117534   4.538   1.150   2.920
 5545SOL    HW217535   4.516   1.280   2.824
 5546SOL     OW17536   0.508   4.541   4.762
 5546SOL    HW117537   0.468   4.610   4.823
 5546SOL    HW217538   0.599   4.570   4.734
 5547SOL     OW17539   3.044   6.746   5.434
 5547SOL    HW117540   3.010   6.700   5.516
 5547SOL    HW217541   2.971   6.801   5.394
 5548SOL     OW17542   6.041   2.334   5.476
 5548SOL    HW117543   5.987   2.298   5.552
 5548SOL    HW217544   5.984   2.339   5.394
 5549SOL     OW17545   4.566   5.014   6.427
 5549SOL    HW117546   4.635   5.026   6.499
 5549SOL    HW217547   4.549   4.917   6.412
 5550SOL     OW17548   2.786   5.276   2.618
 5550SOL    HW117549   2.756   5.191   2.573
 5550SOL    HW217550   2.882   5.267   2.644
 5551SOL     OW17551   2.377   0.806   2.662
 5551SOL    HW117552   2.310   0.736   2.687
 5551SOL    HW217553   2.442   0.767   2.597
 5552SOL     OW17554   0.088   0.985   6.867
 5552SOL    HW117555   0.112   0.894   6.833
 5552SOL    HW217556   0.123   0.998   6.959
 5553SOL     OW17557   3.552   6.674   0.456
 5553SOL    HW117558   3.508   6.673   0.366
 5553SOL    HW217559   3.618   6.748   0.459
 5554SOL     OW17560   3.195   1.649   5.155
 5554SOL    HW117561   3.247   1.564   5.159
 5554SOL    HW217562   3.226   1.703   5.077
 5555SOL     OW17563   0.418   4.825   3.960
 5555SOL    HW117564   0.434   4.829   3.861
 5555SOL    HW217565   0.374   4.738   3.983
 5556SOL     OW17566   0.361   2.881   4.107
 5556SOL    HW117567   0.271   2.852   4.075
 5556SOL    HW217568   0.402   2.809   4.163
 5557SOL     OW17569   3.373   5.000   3.414
 5557SOL    HW117570   3.355   4.951   3.499
 5557SOL    HW217571   3.288   5.007   3.361
 5558SOL     OW17572   5.263   3.488   5.454
 5558SOL    HW117573   5.164   3.471   5.456
 5558SOL    HW217574   5.308   3.410   5.410
 5559SOL     OW17575   2.736   6.746   2.157
 5559SOL    HW117576   2.724   6.735   2.255
 5559SOL    HW217577   2.743   6.657   2.113
 5560SOL     OW17578   0.483   6.767   2.872
 5560SOL    HW117579   0.544   6.811   2.938
 5560SOL    HW217580   0.466   6.673   2.899
 5561SOL     OW17581   2.194   2.136   4.073
 5561SOL    HW117582   2.194   2.198   3.994
 5561SOL    HW217583   2.206   2.042   4.042
 5562SOL     OW17584   1.978   2.255   6.665
 5562SOL    HW117585   2.063   2.217   6.629
 5562SOL    HW217586   1.959   2.343   6.621
 5563SOL     OW17587   4.380   6.512   2.825
 5563SOL    HW117588   4.390   6.414   2.810
 5563SOL    HW217589   4.443   6.561   2.766
 5564SOL     OW17590   5.261   2.068   1.527
 5564SOL    HW117591   5.289   2.100   1.617
 5564SOL    HW217592   5.331   2.092   1.460
 5565SOL     OW17593   4.607   1.887   5.693
 5565SOL    HW117594   4.639   1.924   5.780
 5565SOL    HW217595   4.529   1.942   5.660
 5566SOL     OW17596   1.718   5.449   1.456
 5566SOL    HW117597   1.666   5.457   1.541
 5566SOL    HW217598   1.663   5.399   1.388
 5567SOL     OW17599   0.770   4.833   0.756
 5567SOL    HW117600   0.719   4.818   0.840
 5567SOL    HW217601   0.756   4.756   0.694
 5568SOL     OW17602   4.769   2.457   2.041
 5568SOL    HW117603   4.758   2.554   2.063
 5568SOL    HW217604   4.840   2.446   1.972
 5569SOL     OW17605   4.086   2.009   1.888
 5569SOL    HW117606   4.000   1.972   1.855
 5569SOL    HW217607   4.082   2.109   1.888
 5570SOL     OW17608   6.134   4.803   4.640
 5570SOL    HW117609   6.114   4.901   4.644
 5570SOL    HW217610   6.055   4.754   4.603
 5571SOL     OW17611   0.071   6.534   0.005
 5571SOL    HW117612   7.019   6.529   0.062
 5571SOL    HW217613   0.116   6.445   0.002
 5572SOL     OW17614   2.603   2.512   6.424
 5572SOL    HW117615   2.641   2.597   6.460
 5572SOL    HW217616   2.675   2.461   6.377
 5573SOL     OW17617   1.228   2.807   0.520
 5573SOL    HW117618   1.187   2.844   0.604
 5573SOL    HW217619   1.271   2.719   0.540
 5574SOL     OW17620   6.952   1.395   4.359
 5574SOL    HW117621   6.909   1.454   4.426
 5574SOL    HW217622   7.025   1.342   4.403
 5575SOL     OW17623   1.285   0.712   1.750
 5575SOL    HW117624   1.218   0.777   1.713
 5575SOL    HW217625   1.372   0.722   1.700
 5576SOL     OW17626   6.164   5.522   1.820
 5576SOL    HW117627   6.127   5.584   1.750
 5576SOL    HW217628   6.121   5.542   1.908
 5577SOL     OW17629   2.510   3.160   5.653
 5577SOL    HW117630   2.463   3.105   5.722
 5577SOL    HW217631   2.530   3.251   5.691
 5578SOL     OW17632   3.733   2.603   0.711
 5578SOL    HW117633   3.748   2.663   0.632
 5578SOL    HW217634   3.802   2.622   0.780
 5579SOL     OW17635   6.438   3.650   5.906
 5579SOL    HW117636   6.528   3.615   5.881
 5579SOL    HW217637   6.383   3.576   5.945
 5580SOL     OW17638   4.729   2.184   0.426
 5580SOL    HW117639   4.791   2.250   0.468
 5580SOL    HW217640   4.775   2.096   0.416
 5581SOL     OW17641   2.643   6.928   1.001
 5581SOL    HW117642   2.662   7.000   1.069
 5581SOL    HW217643   2.723   6.869   0.992
 5582SOL     OW17644   3.247   3.553   4.140
 5582SOL    HW117645   3.249   3.553   4.040
 5582SOL    HW217646   3.273   3.643   4.174
 5583SOL     OW17647   4.197   0.047   2.605
 5583SOL    HW117648   4.203   0.039   2.705
 5583SOL    HW217649   4.107   0.082   2.580
 5584SOL     OW17650   5.633   3.803   3.640
 5584SOL    HW117651   5.602   3.708   3.639
 5584SOL    HW217652   5.555   3.864   3.630
 5585SOL     OW17653   5.355   0.677   4.051
 5585SOL    HW117654   5.272   0.729   4.071
 5585SOL    HW217655   5.337   0.579   4.060
 5586SOL     OW17656   1.614   2.591   6.504
 5586SOL    HW117657   1.545   2.526   6.536
 5586SOL    HW217658   1.623   2.666   6.568
 5587SOL     OW17659   3.954   6.881   2.395
 5587SOL    HW117660   3.950   6.828   2.479
 5587SOL    HW217661   3.934   6.977   2.415
 5588SOL     OW17662   1.287   6.779   4.345
 5588SOL    HW117663   1.233   6.814   4.270
 5588SOL    HW217664   1.308   6.853   4.409
 5589SOL     OW17665   5.276   3.132   5.602
 5589SOL    HW117666   5.214   3.081   5.543
 5589SOL    HW217667   5.223   3.192   5.663
 5590SOL     OW17668   6.586   5.386   3.087
 5590SOL    HW117669   6.525   5.452   3.043
 5590SOL    HW217670   6.534   5.331   3.152
 5591SOL     OW17671   5.729   0.666   0.016
 5591SOL    HW117672   5.704   0.572   7.023
 5591SOL    HW217673   5.821   0.685   7.014
 5592SOL     OW17674   1.918   3.579   3.604
 5592SOL    HW117675   2.009   3.553   3.638
 5592SOL    HW217676   1.918   3.574   3.504
 5593SOL     OW17677   0.159   2.732   5.863
 5593SOL    HW117678   0.127   2.785   5.941
 5593SOL    HW217679   0.256   2.752   5.847
 5594SOL     OW17680   2.392   1.214   6.688
 5594SOL    HW117681   2.379   1.286   6.756
 5594SOL    HW217682   2.481   1.170   6.703
 5595SOL     OW17683   6.818   0.583   5.509
 5595SOL    HW117684   6.868   0.548   5.430
 5595SOL    HW217685   6.858   0.547   5.593
 5596SOL     OW17686   5.552   0.069   2.841
 5596SOL    HW117687   5.606   0.146   2.809
 5596SOL    HW217688   5.550   7.028   2.770
 5597SOL     OW17689   5.267   2.674   5.070
 5597SOL    HW117690   5.248   2.772   5.074
 5597SOL    HW217691   5.194   2.627   5.020
 5598SOL     OW17692   5.327   2.349   3.706
 5598SOL    HW117693   5.238   2.344   3.661
 5598SOL    HW217694   5.318   2.321   3.801
 5599SOL     OW17695   5.552   4.228   1.866
 5599SOL    HW117696   5.520   4.317   1.901
 5599SOL    HW217697   5.543   4.159   1.938
 5600SOL     OW17698   2.782   6.782   2.812
 5600SOL    HW117699   2.828   6.845   2.875
 5600SOL    HW217700   2.748   6.703   2.863
 5601SOL     OW17701   4.960   2.929   5.155
 5601SOL    HW117702   4.912   2.858   5.207
 5601SOL    HW217703   4.900   2.966   5.084
 5602SOL     OW17704   0.200   1.699   3.494
 5602SOL    HW117705   0.136   1.643   3.441
 5602SOL    HW217706   0.151   1.741   3.571
 5603SOL     OW17707   4.504   2.624   4.981
 5603SOL    HW117708   4.495   2.531   4.946
 5603SOL    HW217709   4.437   2.684   4.936
 5604SOL     OW17710   0.714   1.094   4.268
 5604SOL    HW117711   0.667   1.012   4.235
 5604SOL    HW217712   0.668   1.175   4.233
 5605SOL     OW17713   0.876   0.364   4.889
 5605SOL    HW117714   0.801   0.301   4.870
 5605SOL    HW217715   0.916   0.396   4.803
 5606SOL     OW17716   4.635   1.592   0.471
 5606SOL    HW117717   4.640   1.579   0.372
 5606SOL    HW217718   4.653   1.688   0.493
 5607SOL     OW17719   6.394   2.283   3.198
 5607SOL    HW117720   6.445   2.257   3.116
 5607SOL    HW217721   6.327   2.211   3.220
 5608SOL     OW17722   6.075   0.600   2.944
 5608SOL    HW117723   6.120   0.547   3.016
 5608SOL    HW217724   5.999   0.547   2.907
 5609SOL     OW17725   4.514   6.477   0.383
 5609SOL    HW117726   4.449   6.411   0.345
 5609SOL    HW217727   4.463   6.550   0.430
 5610SOL     OW17728   5.575   4.047   7.008
 5610SOL    HW117729   5.590   3.957   0.018
 5610SOL    HW217730   5.568   4.038   6.909
 5611SOL     OW17731   0.093   4.291   2.058
 5611SOL    HW117732   0.025   4.342   2.111
 5611SOL    HW217733   0.175   4.347   2.048
 5612SOL     OW17734   3.158   2.936   0.361
 5612SOL    HW117735   3.187   3.029   0.338
 5612SOL    HW217736   3.128   2.932   0.456
 5613SOL     OW17737   6.596   5.089   4.164
 5613SOL    HW117738   6.513   5.069   4.111
 5613SOL    HW217739   6.673   5.038   4.125
 5614SOL     OW17740   6.575   2.031   4.536
 5614SOL    HW117741   6.630   2.070   4.609
 5614SOL    HW217742   6.531   1.947   4.570
 5615SOL     OW17743   0.061   2.206   2.355
 5615SOL    HW117744   0.122   2.203   2.276
 5615SOL    HW217745   0.046   2.114   2.390
 5616SOL     OW17746   2.257   1.461   4.657
 5616SOL    HW117747   2.290   1.535   4.599
 5616SOL    HW217748   2.172   1.424   4.619
 5617SOL     OW17749   1.893   5.353   4.801
 5617SOL    HW117750   1.853   5.445   4.803
 5617SOL    HW217751   1.914   5.329   4.706
 5618SOL     OW17752   6.316   5.460   3.474
 5618SOL    HW117753   6.242   5.514   3.434
 5618SOL    HW217754   6.393   5.519   3.497
 5619SOL     OW17755   3.054   3.096   3.896
 5619SOL    HW117756   3.078   3.189   3.869
 5619SOL    HW217757   3.108   3.030   3.843
 5620SOL     OW17758   4.517   4.010   5.981
 5620SOL    HW117759   4.438   3.948   5.982
 5620SOL    HW217760   4.543   4.029   5.886
 5621SOL     OW17761   1.884   2.903   6.609
 5621SOL    HW117762   1.867   2.895   6.510
 5621SOL    HW217763   1.940   2.827   6.639
 5622SOL     OW17764   4.316   5.838   5.024
 5622SOL    HW117765   4.255   5.861   4.948
 5622SOL    HW217766   4.404   5.885   5.012
 5623SOL     OW17767   4.905   6.741   4.643
 5623SOL    HW117768   4.903   6.789   4.731
 5623SOL    HW217769   4.978   6.781   4.586
 5624SOL     OW17770   0.726   5.541   3.209
 5624SOL    HW117771   0.653   5.590   3.161
 5624SOL    HW217772   0.705   5.537   3.306
 5625SOL     OW17773   1.025   5.793   4.172
 5625SOL    HW117774   1.100   5.744   4.215
 5625SOL    HW217775   1.062   5.865   4.113
 5626SOL     OW17776   1.945   4.467   4.335
 5626SOL    HW117777   1.946   4.401   4.259
 5626SOL    HW217778   1.957   4.559   4.299
 5627SOL     OW17779   0.622   5.671   6.107
 5627SOL    HW117780   0.642   5.706   6.198
 5627SOL    HW217781   0.535   5.709   6.075
 5628SOL     OW17782   2.755   3.066   0.476
 5628SOL    HW117783   2.800   2.980   0.454
 5628SOL    HW217784   2.791   3.101   0.563
 5629SOL     OW17785   3.607   3.166   1.249
 5629SOL    HW117786   3.665   3.133   1.323
 5629SOL    HW217787   3.523   3.113   1.246
 5630SOL     OW17788   1.550   3.898   6.199
 5630SOL    HW117789   1.587   3.927   6.287
 5630SOL    HW217790   1.542   3.799   6.197
 5631SOL     OW17791   4.671   1.038   2.414
 5631SOL    HW117792   4.596   1.052   2.478
 5631SOL    HW217793   4.730   1.118   2.414
 5632SOL     OW17794   5.350   0.890   5.914
 5632SOL    HW117795   5.374   0.947   5.835
 5632SOL    HW217796   5.364   0.942   5.998
 5633SOL     OW17797   0.553   4.809   4.325
 5633SOL    HW117798   0.598   4.857   4.401
 5633SOL    HW217799   0.454   4.817   4.335
 5634SOL     OW17800   2.624   5.717   5.312
 5634SOL    HW117801   2.663   5.728   5.403
 5634SOL    HW217802   2.558   5.641   5.312
 5635SOL     OW17803   3.039   6.971   7.028
 5635SOL    HW117804   3.044   6.874   7.002
 5635SOL    HW217805   3.107   7.023   6.977
 5636SOL     OW17806   6.271   1.275   5.867
 5636SOL    HW117807   6.204   1.347   5.884
 5636SOL    HW217808   6.363   1.311   5.883
 5637SOL     OW17809   5.684   6.881   4.259
 5637SOL    HW117810   5.648   6.914   4.172
 5637SOL    HW217811   5.669   6.782   4.266
 5638SOL     OW17812   5.474   5.902   1.637
 5638SOL    HW117813   5.502   5.832   1.702
 5638SOL    HW217814   5.376   5.918   1.646
 5639SOL     OW17815   1.301   0.806   1.358
 5639SOL    HW117816   1.353   0.736   1.310
 5639SOL    HW217817   1.324   0.896   1.320
 5640SOL     OW17818   2.578   6.939   2.712
 5640SOL    HW117819   2.670   6.906   2.735
 5640SOL    HW217820   2.559   6.920   2.615
 5641SOL     OW17821   1.238   4.610   5.854
 5641SOL    HW117822   1.248   4.647   5.946
 5641SOL    HW217823   1.142   4.591   5.835
 5642SOL     OW17824   0.675   5.191   5.984
 5642SOL    HW117825   0.731   5.113   6.012
 5642SOL    HW217826   0.688   5.207   5.886
 5643SOL     OW17827   3.326   1.220   4.682
 5643SOL    HW117828   3.306   1.131   4.722
 5643SOL    HW217829   3.425   1.230   4.672
 5644SOL     OW17830   5.155   1.096   4.019
 5644SOL    HW117831   5.252   1.117   4.025
 5644SOL    HW217832   5.143   1.003   3.985
 5645SOL     OW17833   6.170   4.615   2.569
 5645SOL    HW117834   6.110   4.546   2.528
 5645SOL    HW217835   6.175   4.601   2.668
 5646SOL     OW17836   1.622   5.634   3.565
 5646SOL    HW117837   1.591   5.573   3.637
 5646SOL    HW217838   1.560   5.712   3.558
 5647SOL     OW17839   6.565   6.351   6.600
 5647SOL    HW117840   6.494   6.300   6.552
 5647SOL    HW217841   6.618   6.405   6.534
 5648SOL     OW17842   1.876   0.962   2.920
 5648SOL    HW117843   1.903   0.891   2.854
 5648SOL    HW217844   1.847   1.044   2.870
 5649SOL     OW17845   1.373   6.662   5.485
 5649SOL    HW117846   1.411   6.635   5.397
 5649SOL    HW217847   1.447   6.675   5.551
 5650SOL     OW17848   0.332   5.136   1.181
 5650SOL    HW117849   0.337   5.107   1.276
 5650SOL    HW217850   0.411   5.100   1.131
 5651SOL     OW17851   0.160   1.518   1.555
 5651SOL    HW117852   0.121   1.492   1.644
 5651SOL    HW217853   0.095   1.494   1.482
 5652SOL     OW17854   4.843   6.126   2.084
 5652SOL    HW117855   4.826   6.130   1.986
 5652SOL    HW217856   4.940   6.141   2.103
 5653SOL     OW17857   0.465   6.324   6.525
 5653SOL    HW117858   0.372   6.286   6.523
 5653SOL    HW217859   0.461   6.419   6.555
 5654SOL     OW17860   0.064   6.851   6.241
 5654SOL    HW117861   0.047   6.854   6.143
 5654SOL    HW217862   7.023   6.903   6.289
 5655SOL     OW17863   0.873   3.444   4.455
 5655SOL    HW117864   0.868   3.350   4.490
 5655SOL    HW217865   0.918   3.444   4.366
 5656SOL     OW17866   2.830   4.586   0.635
 5656SOL    HW117867   2.827   4.643   0.717
 5656SOL    HW217868   2.848   4.491   0.662
 5657SOL     OW17869   4.585   6.883   1.265
 5657SOL    HW117870   4.521   6.806   1.268
 5657SOL    HW217871   4.537   6.967   1.292
 5658SOL     OW17872   3.032   6.686   6.094
 5658SOL    HW117873   3.042   6.587   6.099
 5658SOL    HW217874   3.116   6.725   6.057
 5659SOL     OW17875   2.933   3.692   2.985
 5659SOL    HW117876   2.946   3.777   3.035
 5659SOL    HW217877   2.901   3.713   2.892
 5660SOL     OW17878   5.307   0.566   6.202
 5660SOL    HW117879   5.405   0.552   6.221
 5660SOL    HW217880   5.277   0.652   6.243
 5661SOL     OW17881   0.135   4.973   6.071
 5661SOL    HW117882   0.195   4.915   6.126
 5661SOL    HW217883   0.042   4.935   6.072
 5662SOL     OW17884   2.606   4.958   4.462
 5662SOL    HW117885   2.583   5.029   4.528
 5662SOL    HW217886   2.686   4.907   4.494
 5663SOL     OW17887   1.234   4.040   6.783
 5663SOL    HW117888   1.306   4.089   6.833
 5663SOL    HW217889   1.190   3.974   6.843
 5664SOL     OW17890   6.799   3.778   4.300
 5664SOL    HW117891   6.788   3.698   4.240
 5664SOL    HW217892   6.773   3.861   4.251
 5665SOL     OW17893   1.718   1.215   6.203
 5665SOL    HW117894   1.794   1.245   6.262
 5665SOL    HW217895   1.718   1.270   6.120
 5666SOL     OW17896   4.899   6.052   1.063
 5666SOL    HW117897   4.893   5.980   0.994
 5666SOL    HW217898   4.995   6.078   1.076
 5667SOL     OW17899   0.581   5.279   3.670
 5667SOL    HW117900   0.484   5.297   3.687
 5667SOL    HW217901   0.616   5.344   3.603
 5668SOL     OW17902   5.160   2.354   6.400
 5668SOL    HW117903   5.235   2.406   6.441
 5668SOL    HW217904   5.196   2.269   6.360
 5669SOL     OW17905   0.173   3.490   6.817
 5669SOL    HW117906   0.270   3.505   6.794
 5669SOL    HW217907   0.160   3.394   6.843
 5670SOL     OW17908   0.494   3.121   3.067
 5670SOL    HW117909   0.408   3.102   3.114
 5670SOL    HW217910   0.521   3.042   3.013
 5671SOL     OW17911   1.074   6.740   6.478
 5671SOL    HW117912   1.012   6.753   6.400
 5671SOL    HW217913   1.021   6.718   6.560
 5672SOL     OW17914   4.116   5.061   6.339
 5672SOL    HW117915   4.161   5.053   6.428
 5672SOL    HW217916   4.094   5.157   6.321
 5673SOL     OW17917   1.049   6.827   1.759
 5673SOL    HW117918   1.126   6.782   1.802
 5673SOL    HW217919   1.014   6.899   1.819
 5674SOL     OW17920   6.616   3.539   2.457
 5674SOL    HW117921   6.566   3.624   2.445
 5674SOL    HW217922   6.585   3.494   2.541
 5675SOL     OW17923   4.213   2.196   6.105
 5675SOL    HW117924   4.213   2.296   6.102
 5675SOL    HW217925   4.128   2.162   6.065
 5676SOL     OW17926   2.040   1.695   1.533
 5676SOL    HW117927   2.038   1.606   1.577
 5676SOL    HW217928   1.986   1.761   1.585
 5677SOL     OW17929   0.700   2.075   3.077
 5677SOL    HW117930   0.764   2.063   3.001
 5677SOL    HW217931   0.610   2.041   3.049
 5678SOL     OW17932   3.043   6.561   3.152
 5678SOL    HW117933   3.104   6.608   3.216
 5678SOL    HW217934   3.065   6.589   3.059
 5679SOL     OW17935   1.336   6.946   3.836
 5679SOL    HW117936   1.426   6.948   3.793
 5679SOL    HW217937   1.335   7.007   3.915
 5680SOL     OW17938   1.594   5.162   0.726
 5680SOL    HW117939   1.576   5.203   0.636
 5680SOL    HW217940   1.692   5.161   0.743
 5681SOL     OW17941   0.724   3.702   6.730
 5681SOL    HW117942   0.739   3.737   6.638
 5681SOL    HW217943   0.644   3.749   6.770
 5682SOL     OW17944   2.131   5.026   6.120
 5682SOL    HW117945   2.182   5.103   6.156
 5682SOL    HW217946   2.075   4.986   6.193
 5683SOL     OW17947   4.600   2.039   6.336
 5683SOL    HW117948   4.677   2.102   6.326
 5683SOL    HW217949   4.626   1.965   6.398
 5684SOL     OW17950   4.103   3.638   4.669
 5684SOL    HW117951   4.090   3.737   4.661
 5684SOL    HW217952   4.022   3.597   4.711
 5685SOL     OW17953   0.719   4.592   1.833
 5685SOL    HW117954   0.710   4.533   1.753
 5685SOL    HW217955   0.792   4.559   1.892
 5686SOL     OW17956   3.214   0.685   0.122
 5686SOL    HW117957   3.192   0.658   0.028
 5686SOL    HW217958   3.272   0.767   0.120
 5687SOL     OW17959   6.731   3.675   4.820
 5687SOL    HW117960   6.800   3.747   4.822
 5687SOL    HW217961   6.684   3.676   4.732
 5688SOL     OW17962   6.395   1.133   0.170
 5688SOL    HW117963   6.470   1.178   0.219
 5688SOL    HW217964   6.417   1.129   0.073
 5689SOL     OW17965   4.044   1.162   0.056
 5689SOL    HW117966   4.108   1.235   0.081
 5689SOL    HW217967   4.082   1.111   7.008
 5690SOL     OW17968   2.589   6.329   0.945
 5690SOL    HW117969   2.657   6.358   1.012
 5690SOL    HW217970   2.630   6.264   0.881
 5691SOL     OW17971   3.098   6.313   2.274
 5691SOL    HW117972   3.126   6.404   2.244
 5691SOL    HW217973   3.176   6.265   2.313
 5692SOL     OW17974   6.849   2.901   5.860
 5692SOL    HW117975   6.862   2.848   5.776
 5692SOL    HW217976   6.890   2.992   5.849
 5693SOL     OW17977   5.501   3.196   1.960
 5693SOL    HW117978   5.460   3.251   1.887
 5693SOL    HW217979   5.432   3.135   1.999
 5694SOL     OW17980   0.349   1.238   3.969
 5694SOL    HW117981   0.398   1.268   4.050
 5694SOL    HW217982   0.376   1.144   3.946
 5695SOL     OW17983   0.819   2.625   3.195
 5695SOL    HW117984   0.816   2.526   3.205
 5695SOL    HW217985   0.915   2.655   3.191
 5696SOL     OW17986   1.536   0.486   2.923
 5696SOL    HW117987   1.575   0.497   3.014
 5696SOL    HW217988   1.585   0.414   2.874
 5697SOL     OW17989   6.205   1.879   0.594
 5697SOL    HW117990   6.166   1.930   0.671
 5697SOL    HW217991   6.249   1.796   0.628
 5698SOL     OW17992   0.423   2.432   2.023
 5698SOL    HW117993   0.376   2.509   1.979
 5698SOL    HW217994   0.454   2.459   2.114
 5699SOL     OW17995   6.492   2.441   3.415
 5699SOL    HW117996   6.459   2.390   3.335
 5699SOL    HW217997   6.568   2.392   3.457
 5700SOL     OW17998   6.666   6.252   4.502
 5700SOL    HW117999   6.739   6.308   4.462
 5700SOL    HW218000   6.683   6.240   4.600
 5701SOL     OW18001   1.218   5.945   3.230
 5701SOL    HW118002   1.207   5.909   3.137
 5701SOL    HW218003   1.276   6.027   3.226
 5702SOL     OW18004   1.958   0.072   5.703
 5702SOL    HW118005   1.975   0.170   5.710
 5702SOL    HW218006   1.961   0.043   5.607
 5703SOL     OW18007   4.946   4.503   0.578
 5703SOL    HW118008   4.979   4.457   0.661
 5703SOL    HW218009   4.978   4.597   0.576
 5704SOL     OW18010   4.156   5.383   2.468
 5704SOL    HW118011   4.114   5.447   2.404
 5704SOL    HW218012   4.155   5.292   2.429
 5705SOL     OW18013   5.854   0.832   0.701
 5705SOL    HW118014   5.802   0.750   0.723
 5705SOL    HW218015   5.952   0.814   0.712
 5706SOL     OW18016   1.023   1.902   0.785
 5706SOL    HW118017   1.058   1.980   0.733
 5706SOL    HW218018   0.985   1.834   0.722
 5707SOL     OW18019   0.361   6.580   0.373
 5707SOL    HW118020   0.406   6.657   0.418
 5707SOL    HW218021   0.430   6.522   0.328
 5708SOL     OW18022   5.543   6.370   1.337
 5708SOL    HW118023   5.545   6.453   1.282
 5708SOL    HW218024   5.548   6.290   1.276
 5709SOL     OW18025   1.097   7.018   3.619
 5709SOL    HW118026   1.186   7.001   3.662
 5709SOL    HW218027   1.026   7.020   3.689
 5710SOL     OW18028   2.461   3.399   5.798
 5710SOL    HW118029   2.374   3.353   5.820
 5710SOL    HW218030   2.456   3.495   5.828
 5711SOL     OW18031   5.217   0.773   3.010
 5711SOL    HW118032   5.159   0.779   2.930
 5711SOL    HW218033   5.225   0.677   3.039
 5712SOL     OW18034   0.571   6.218   5.724
 5712SOL    HW118035   0.561   6.124   5.757
 5712SOL    HW218036   0.485   6.267   5.740
 5713SOL     OW18037   0.914   2.048   1.280
 5713SOL    HW118038   0.859   2.019   1.358
 5713SOL    HW218039   0.884   1.999   1.198
 5714SOL     OW18040   1.082   6.209   0.104
 5714SOL    HW118041   1.075   6.123   0.052
 5714SOL    HW218042   0.996   6.259   0.097
 5715SOL     OW18043   1.281   6.208   3.513
 5715SOL    HW118044   1.228   6.124   3.503
 5715SOL    HW218045   1.231   6.284   3.472
 5716SOL     OW18046   1.068   3.730   5.657
 5716SOL    HW118047   1.158   3.768   5.679
 5716SOL    HW218048   1.012   3.728   5.739
 5717SOL     OW18049   1.759   5.445   0.381
 5717SOL    HW118050   1.828   5.446   0.308
 5717SOL    HW218051   1.711   5.532   0.382
 5718SOL     OW18052   1.266   4.163   5.931
 5718SOL    HW118053   1.233   4.121   5.846
 5718SOL    HW218054   1.252   4.100   6.007
 5719SOL     OW18055   2.474   1.321   6.057
 5719SOL    HW118056   2.488   1.317   5.958
 5719SOL    HW218057   2.379   1.298   6.078
 5720SOL     OW18058   1.084   4.727   4.296
 5720SOL    HW118059   1.183   4.733   4.288
 5720SOL    HW218060   1.047   4.817   4.320
 5721SOL     OW18061   0.160   3.613   0.854
 5721SOL    HW118062   0.093   3.622   0.780
 5721SOL    HW218063   0.217   3.696   0.859
 5722SOL     OW18064   5.613   1.758   4.840
 5722SOL    HW118065   5.693   1.698   4.841
 5722SOL    HW218066   5.641   1.852   4.820
 5723SOL     OW18067   3.995   3.765   6.970
 5723SOL    HW118068   3.918   3.701   6.965
 5723SOL    HW218069   4.006   3.798   0.034
 5724SOL     OW18070   4.027   2.517   5.383
 5724SOL    HW118071   4.018   2.589   5.452
 5724SOL    HW218072   4.099   2.542   5.318
 5725SOL     OW18073   5.374   5.794   3.355
 5725SOL    HW118074   5.422   5.712   3.387
 5725SOL    HW218075   5.317   5.771   3.276
 5726SOL     OW18076   6.235   3.322   3.384
 5726SOL    HW118077   6.183   3.265   3.447
 5726SOL    HW218078   6.285   3.263   3.320
 5727SOL     OW18079   0.514   2.999   3.763
 5727SOL    HW118080   0.613   3.008   3.769
 5727SOL    HW218081   0.475   3.085   3.728
 5728SOL     OW18082   4.711   1.425   5.852
 5728SOL    HW118083   4.712   1.376   5.765
 5728SOL    HW218084   4.755   1.368   5.922
 5729SOL     OW18085   0.971   1.247   0.663
 5729SOL    HW118086   1.044   1.280   0.604
 5729SOL    HW218087   1.004   1.239   0.757
 5730SOL     OW18088   3.976   5.291   5.802
 5730SOL    HW118089   4.031   5.291   5.719
 5730SOL    HW218090   3.894   5.347   5.788
 5731SOL     OW18091   1.923   6.574   3.923
 5731SOL    HW118092   2.010   6.527   3.938
 5731SOL    HW218093   1.889   6.553   3.832
 5732SOL     OW18094   6.565   4.400   4.961
 5732SOL    HW118095   6.642   4.337   4.971
 5732SOL    HW218096   6.500   4.364   4.894
 5733SOL     OW18097   3.159   0.564   5.580
 5733SOL    HW118098   3.201   0.477   5.555
 5733SOL    HW218099   3.112   0.554   5.668
 5734SOL     OW18100   1.438   6.477   6.414
 5734SOL    HW118101   1.465   6.385   6.443
 5734SOL    HW218102   1.395   6.525   6.490
 5735SOL     OW18103   3.876   1.488   2.881
 5735SOL    HW118104   3.832   1.497   2.791
 5735SOL    HW218105   3.836   1.554   2.944
 5736SOL     OW18106   5.377   4.735   0.536
 5736SOL    HW118107   5.319   4.654   0.522
 5736SOL    HW218108   5.449   4.713   0.601
 5737SOL     OW18109   5.526   6.349   0.314
 5737SOL    HW118110   5.597   6.339   0.245
 5737SOL    HW218111   5.447   6.293   0.290
 5738SOL     OW18112   3.732   1.703   6.916
 5738SOL    HW118113   3.734   1.692   7.015
 5738SOL    HW218114   3.823   1.686   6.879
 5739SOL     OW18115   1.132   6.537   5.466
 5739SOL    HW118116   1.102   6.481   5.543
 5739SOL    HW218117   1.214   6.588   5.492
 5740SOL     OW18118   4.676   3.572   1.128
 5740SOL    HW118119   4.628   3.598   1.212
 5740SOL    HW218120   4.768   3.611   1.129
 5741SOL     OW18121   0.275   3.782   4.085
 5741SOL    HW118122   0.189   3.806   4.040
 5741SOL    HW218123   0.256   3.741   4.174
 5742SOL     OW18124   4.425   6.047   3.225
 5742SOL    HW118125   4.480   6.028   3.143
 5742SOL    HW218126   4.438   6.143   3.252
 5743SOL     OW18127   2.589   6.149   5.156
 5743SOL    HW118128   2.616   6.178   5.064
 5743SOL    HW218129   2.617   6.054   5.170
 5744SOL     OW18130   5.089   0.865   2.280
 5744SOL    HW118131   5.052   0.828   2.195
 5744SOL    HW218132   5.186   0.886   2.269
 5745SOL     OW18133   2.647   0.896   4.061
 5745SOL    HW118134   2.649   0.996   4.069
 5745SOL    HW218135   2.556   0.863   4.087
 5746SOL     OW18136   4.829   6.819   1.390
 5746SOL    HW118137   4.782   6.793   1.474
 5746SOL    HW218138   4.761   6.837   1.319
 5747SOL     OW18139   0.737   5.226   1.613
 5747SOL    HW118140   0.785   5.140   1.628
 5747SOL    HW218141   0.733   5.278   1.698
 5748SOL     OW18142   1.531   6.866   1.066
 5748SOL    HW118143   1.595   6.869   0.988
 5748SOL    HW218144   1.547   6.945   1.125
 5749SOL     OW18145   1.519   6.887   4.896
 5749SOL    HW118146   1.601   6.842   4.861
 5749SOL    HW218147   1.439   6.831   4.874
 5750SOL     OW18148   6.039   6.288   5.289
 5750SOL    HW118149   6.138   6.284   5.306
 5750SOL    HW218150   6.021   6.353   5.215
 5751SOL     OW18151   2.224   2.729   4.785
 5751SOL    HW118152   2.278   2.667   4.842
 5751SOL    HW218153   2.224   2.821   4.826
 5752SOL     OW18154   5.544   0.157   0.640
 5752SOL    HW118155   5.596   0.162   0.725
 5752SOL    HW218156   5.582   0.086   0.581
 5753SOL     OW18157   3.433   4.184   5.178
 5753SOL    HW118158   3.357   4.223   5.230
 5753SOL    HW218159   3.399   4.139   5.096
 5754SOL     OW18160   0.877   5.641   1.585
 5754SOL    HW118161   0.943   5.699   1.536
 5754SOL    HW218162   0.797   5.625   1.527
 5755SOL     OW18163   1.437   2.054   6.273
 5755SOL    HW118164   1.481   1.967   6.250
 5755SOL    HW218165   1.485   2.128   6.227
 5756SOL     OW18166   0.666   0.640   2.603
 5756SOL    HW118167   0.650   0.600   2.513
 5756SOL    HW218168   0.644   0.574   2.674
 5757SOL     OW18169   0.433   5.382   4.256
 5757SOL    HW118170   0.352   5.372   4.199
 5757SOL    HW218171   0.458   5.293   4.293
 5758SOL     OW18172   2.490   1.391   2.652
 5758SOL    HW118173   2.476   1.334   2.570
 5758SOL    HW218174   2.437   1.476   2.642
 5759SOL     OW18175   4.709   0.589   0.199
 5759SOL    HW118176   4.761   0.647   0.135
 5759SOL    HW218177   4.763   0.576   0.283
 5760SOL     OW18178   6.109   2.268   0.665
 5760SOL    HW118179   6.137   2.357   0.702
 5760SOL    HW218180   6.100   2.276   0.565
 5761SOL     OW18181   6.194   5.104   5.699
 5761SOL    HW118182   6.123   5.138   5.761
 5761SOL    HW218183   6.152   5.049   5.627
 5762SOL     OW18184   5.031   4.571   1.263
 5762SOL    HW118185   5.126   4.594   1.284
 5762SOL    HW218186   5.016   4.576   1.165
 5763SOL     OW18187   5.931   5.965   0.727
 5763SOL    HW118188   5.870   5.987   0.651
 5763SOL    HW218189   6.009   6.027   0.725
 5764SOL     OW18190   4.627   4.684   4.662
 5764SOL    HW118191   4.651   4.587   4.668
 5764SOL    HW218192   4.566   4.707   4.737
 5765SOL     OW18193   6.173   3.405   0.299
 5765SOL    HW118194   6.234   3.326   0.290
 5765SOL    HW218195   6.224   3.489   0.279
 5766SOL     OW18196   1.588   1.685   5.128
 5766SOL    HW118197   1.496   1.669   5.165
 5766SOL    HW218198   1.638   1.599   5.125
 5767SOL     OW18199   2.254   0.136   0.988
 5767SOL    HW118200   2.267   0.145   1.086
 5767SOL    HW218201   2.309   0.060   0.953
 5768SOL     OW18202   0.411   7.011   3.992
 5768SOL    HW118203   0.343   0.002   4.062
 5768SOL    HW218204   0.377   0.009   3.903
 5769SOL     OW18205   2.686   5.260   3.955
 5769SOL    HW118206   2.649   5.168   3.945
 5769SOL    HW218207   2.640   5.306   4.031
 5770SOL     OW18208   6.884   6.172   6.108
 5770SOL    HW118209   6.799   6.121   6.121
 5770SOL    HW218210   6.937   6.129   6.035
 5771SOL     OW18211   0.820   0.208   4.047
 5771SOL    HW118212   0.889   0.200   4.119
 5771SOL    HW218213   0.833   0.293   3.998
 5772SOL     OW18214   5.247   1.223   1.340
 5772SOL    HW118215   5.224   1.161   1.265
 5772SOL    HW218216   5.346   1.230   1.348
 5773SOL     OW18217   4.103   1.169   3.397
 5773SOL    HW118218   4.060   1.103   3.459
 5773SOL    HW218219   4.089   1.140   3.303
 5774SOL     OW18220   3.096   0.132   3.882
 5774SOL    HW118221   3.155   0.141   3.962
 5774SOL    HW218222   3.130   0.059   3.823
 5775SOL     OW18223   1.389   0.213   2.160
 5775SOL    HW118224   1.429   0.122   2.165
 5775SOL    HW218225   1.354   0.229   2.068
 5776SOL     OW18226   0.468   0.364   3.837
 5776SOL    HW118227   0.503   0.447   3.795
 5776SOL    HW218228   0.445   0.298   3.765
 5777SOL     OW18229   6.692   0.335   4.923
 5777SOL    HW118230   6.638   0.251   4.923
 5777SOL    HW218231   6.693   0.374   5.015
 5778SOL     OW18232   1.351   0.456   0.255
 5778SOL    HW118233   1.380   0.506   0.174
 5778SOL    HW218234   1.429   0.439   0.314
 5779SOL     OW18235   4.905   2.241   1.107
 5779SOL    HW118236   4.853   2.293   1.175
 5779SOL    HW218237   4.985   2.199   1.150
 5780SOL     OW18238   6.359   6.289   3.741
 5780SOL    HW118239   6.452   6.292   3.776
 5780SOL    HW218240   6.342   6.200   3.698
 5781SOL     OW18241   6.912   4.987   4.420
 5781SOL    HW118242   6.953   4.936   4.344
 5781SOL    HW218243   6.889   5.080   4.389
 5782SOL     OW18244   2.040   1.679   0.973
 5782SOL    HW118245   1.973   1.738   1.017
 5782SOL    HW218246   2.118   1.734   0.942
 5783SOL     OW18247   0.809   0.933   1.254
 5783SOL    HW118248   0.901   0.941   1.217
 5783SOL    HW218249   0.812   0.879   1.339
 5784SOL     OW18250   6.954   6.193   5.390
 5784SOL    HW118251   0.022   6.184   5.372
 5784SOL    HW218252   6.939   6.215   5.486
 5785SOL     OW18253   2.302   2.073   0.116
 5785SOL    HW118254   2.345   2.053   0.028
 5785SOL    HW218255   2.326   2.166   0.145
 5786SOL     OW18256   0.636   4.615   0.398
 5786SOL    HW118257   0.630   4.644   0.493
 5786SOL    HW218258   0.556   4.649   0.348
 5787SOL     OW18259   2.940   1.625   4.553
 5787SOL    HW118260   2.920   1.545   4.610
 5787SOL    HW218261   2.907   1.707   4.599
 5788SOL     OW18262   3.107   1.735   1.507
 5788SOL    HW118263   3.122   1.652   1.454
 5788SOL    HW218264   3.016   1.731   1.549
 5789SOL     OW18265   3.304   4.733   0.168
 5789SOL    HW118266   3.324   4.826   0.138
 5789SOL    HW218267   3.299   4.673   0.088
 5790SOL     OW18268   1.444   4.202   5.098
 5790SOL    HW118269   1.406   4.124   5.048
 5790SOL    HW218270   1.544   4.192   5.104
 5791SOL     OW18271   4.118   1.610   2.282
 5791SOL    HW118272   4.082   1.647   2.368
 5791SOL    HW218273   4.105   1.677   2.209
 5792SOL     OW18274   5.914   3.329   2.206
 5792SOL    HW118275   5.953   3.306   2.296
 5792SOL    HW218276   5.847   3.403   2.217
 5793SOL     OW18277   5.042   1.394   3.645
 5793SOL    HW118278   5.005   1.352   3.728
 5793SOL    HW218279   5.079   1.323   3.585
 5794SOL     OW18280   2.789   1.471   0.327
 5794SOL    HW118281   2.719   1.542   0.334
 5794SOL    HW218282   2.875   1.504   0.364
 5795SOL     OW18283   6.327   0.157   6.876
 5795SOL    HW118284   6.274   0.106   6.809
 5795SOL    HW218285   6.424   0.136   6.864
 5796SOL     OW18286   4.818   1.421   6.770
 5796SOL    HW118287   4.853   1.364   6.696
 5796SOL    HW218288   4.726   1.453   6.746
 5797SOL     OW18289   4.609   2.984   6.158
 5797SOL    HW118290   4.647   2.899   6.195
 5797SOL    HW218291   4.628   3.059   6.221
 5798SOL     OW18292   0.888   4.685   5.563
 5798SOL    HW118293   0.923   4.721   5.650
 5798SOL    HW218294   0.898   4.585   5.563
 5799SOL     OW18295   0.297   0.328   2.776
 5799SOL    HW118296   0.229   0.321   2.703
 5799SOL    HW218297   0.343   0.239   2.786
 5800SOL     OW18298   6.286   6.384   1.993
 5800SOL    HW118299   6.385   6.383   2.001
 5800SOL    HW218300   6.245   6.344   2.075
 5801SOL     OW18301   2.129   2.048   3.363
 5801SOL    HW118302   2.135   2.005   3.273
 5801SOL    HW218303   2.095   2.142   3.353
 5802SOL     OW18304   0.745   4.298   2.291
 5802SOL    HW118305   0.844   4.298   2.277
 5802SOL    HW218306   0.721   4.372   2.355
 5803SOL     OW18307   2.184   4.660   2.557
 5803SOL    HW118308   2.214   4.751   2.528
 5803SOL    HW218309   2.238   4.590   2.511
 5804SOL     OW18310   0.238   5.308   4.052
 5804SOL    HW118311   0.219   5.324   3.955
 5804SOL    HW218312   0.216   5.214   4.075
 5805SOL     OW18313   3.001   3.509   6.922
 5805SOL    HW118314   3.002   3.464   7.011
 5805SOL    HW218315   3.000   3.440   6.849
 5806SOL     OW18316   0.284   5.781   4.863
 5806SOL    HW118317   0.376   5.744   4.880
 5806SOL    HW218318   0.243   5.732   4.786
 5807SOL     OW18319   0.607   3.775   2.288
 5807SOL    HW118320   0.595   3.706   2.217
 5807SOL    HW218321   0.629   3.863   2.246
 5808SOL     OW18322   5.476   5.556   4.919
 5808SOL    HW118323   5.417   5.595   4.990
 5808SOL    HW218324   5.558   5.613   4.910
 5809SOL     OW18325   5.324   1.392   4.571
 5809SOL    HW118326   5.320   1.449   4.653
 5809SOL    HW218327   5.312   1.449   4.490
 5810SOL     OW18328   3.582   1.764   4.870
 5810SOL    HW118329   3.584   1.856   4.833
 5810SOL    HW218330   3.488   1.741   4.898
 5811SOL     OW18331   2.893   0.882   5.384
 5811SOL    HW118332   2.840   0.885   5.299
 5811SOL    HW218333   2.975   0.825   5.369
 5812SOL     OW18334   6.559   2.738   4.133
 5812SOL    HW118335   6.575   2.821   4.187
 5812SOL    HW218336   6.646   2.693   4.114
 5813SOL     OW18337   1.936   2.240   0.988
 5813SOL    HW118338   1.971   2.195   1.071
 5813SOL    HW218339   1.880   2.318   1.015
 5814SOL     OW18340   6.324   4.714   1.274
 5814SOL    HW118341   6.344   4.713   1.372
 5814SOL    HW218342   6.369   4.792   1.231
 5815SOL     OW18343   3.976   2.229   4.276
 5815SOL    HW118344   3.896   2.189   4.231
 5815SOL    HW218345   4.036   2.269   4.206
 5816SOL     OW18346   4.322   5.377   0.154
 5816SOL    HW118347   4.293   5.404   0.246
 5816SOL    HW218348   4.419   5.400   0.143
 5817SOL     OW18349   5.567   3.551   6.084
 5817SOL    HW118350   5.542   3.458   6.113
 5817SOL    HW218351   5.554   3.559   5.985
 5818SOL     OW18352   6.430   6.308   4.809
 5818SOL    HW118353   6.369   6.230   4.792
 5818SOL    HW218354   6.524   6.276   4.814
 5819SOL     OW18355   4.044   6.791   6.951
 5819SOL    HW118356   4.011   6.749   6.866
 5819SOL    HW218357   3.967   6.814   7.009
 5820SOL     OW18358   4.403   5.796   4.204
 5820SOL    HW118359   4.425   5.775   4.108
 5820SOL    HW218360   4.480   5.844   4.246
 5821SOL     OW18361   0.156   0.003   1.275
 5821SOL    HW118362   0.071   7.018   1.325
 5821SOL    HW218363   0.153   0.094   1.232
 5822SOL     OW18364   1.432   2.172   1.739
 5822SOL    HW118365   1.334   2.193   1.737
 5822SOL    HW218366   1.484   2.252   1.709
 5823SOL     OW18367   1.604   1.175   5.562
 5823SOL    HW118368   1.671   1.167   5.489
 5823SOL    HW218369   1.651   1.188   5.649
 5824SOL     OW18370   6.487   5.474   2.354
 5824SOL    HW118371   6.489   5.403   2.424
 5824SOL    HW218372   6.578   5.483   2.313
 5825SOL     OW18373   1.867   1.544   5.458
 5825SOL    HW118374   1.770   1.558   5.441
 5825SOL    HW218375   1.914   1.632   5.458
 5826SOL     OW18376   0.095   4.728   5.194
 5826SOL    HW118377   0.004   4.770   5.204
 5826SOL    HW218378   0.084   4.634   5.162
 5827SOL     OW18379   2.058   4.372   4.751
 5827SOL    HW118380   2.003   4.346   4.830
 5827SOL    HW218381   2.151   4.337   4.763
 5828SOL     OW18382   6.521   2.080   1.334
 5828SOL    HW118383   6.615   2.047   1.326
 5828SOL    HW218384   6.465   2.036   1.263
 5829SOL     OW18385   1.474   0.837   3.282
 5829SOL    HW118386   1.480   0.836   3.182
 5829SOL    HW218387   1.378   0.838   3.310
 5830SOL     OW18388   4.975   6.420   5.126
 5830SOL    HW118389   5.019   6.487   5.186
 5830SOL    HW218390   4.974   6.455   5.033
 5831SOL     OW18391   0.632   0.911   5.592
 5831SOL    HW118392   0.627   0.861   5.678
 5831SOL    HW218393   0.643   1.008   5.610
 5832SOL     OW18394   3.068   4.662   6.640
 5832SOL    HW118395   3.152   4.661   6.586
 5832SOL    HW218396   2.994   4.618   6.589
 5833SOL     OW18397   3.579   3.535   5.021
 5833SOL    HW118398   3.613   3.482   4.943
 5833SOL    HW218399   3.489   3.572   4.999
 5834SOL     OW18400   0.358   3.080   0.043
 5834SOL    HW118401   0.318   3.121   0.125
 5834SOL    HW218402   0.286   3.060   7.007
 5835SOL     OW18403   5.286   3.292   4.071
 5835SOL    HW118404   5.210   3.229   4.088
 5835SOL    HW218405   5.314   3.333   4.157
 5836SOL     OW18406   2.783   6.759   2.436
 5836SOL    HW118407   2.797   6.661   2.424
 5836SOL    HW218408   2.860   6.797   2.487
 5837SOL     OW18409   4.116   4.500   5.902
 5837SOL    HW118410   4.105   4.549   5.988
 5837SOL    HW218411   4.049   4.533   5.835
 5838SOL     OW18412   3.240   2.333   6.923
 5838SOL    HW118413   3.273   2.377   7.007
 5838SOL    HW218414   3.171   2.391   6.880
 5839SOL     OW18415   0.712   1.735   2.370
 5839SOL    HW118416   0.802   1.773   2.390
 5839SOL    HW218417   0.721   1.660   2.304
 5840SOL     OW18418   0.514   5.371   6.566
 5840SOL    HW118419   0.590   5.435   6.582
 5840SOL    HW218420   0.548   5.291   6.517
 5841SOL     OW18421   5.218   2.143   2.355
 5841SOL    HW118422   5.258   2.053   2.334
 5841SOL    HW218423   5.189   2.145   2.450
 5842SOL     OW18424   4.618   3.037   1.497
 5842SOL    HW118425   4.657   2.967   1.437
 5842SOL    HW218426   4.678   3.117   1.498
 5843SOL     OW18427   1.811   4.214   3.182
 5843SOL    HW118428   1.893   4.170   3.217
 5843SOL    HW218429   1.798   4.189   3.086
 5844SOL     OW18430   1.959   6.431   6.360
 5844SOL    HW118431   1.911   6.416   6.447
 5844SOL    HW218432   1.944   6.524   6.329
 5845SOL     OW18433   0.275   1.000   2.295
 5845SOL    HW118434   0.278   1.100   2.299
 5845SOL    HW218435   0.243   0.971   2.204
 5846SOL     OW18436   0.480   2.605   4.256
 5846SOL    HW118437   0.452   2.574   4.164
 5846SOL    HW218438   0.514   2.527   4.308
 5847SOL     OW18439   2.619   2.063   1.768
 5847SOL    HW118440   2.602   2.036   1.673
 5847SOL    HW218441   2.693   2.129   1.771
 5848SOL     OW18442   2.289   5.609   3.462
 5848SOL    HW118443   2.267   5.526   3.513
 5848SOL    HW218444   2.273   5.593   3.364
 5849SOL     OW18445   0.060   0.105   6.616
 5849SOL    HW118446   7.008   0.091   6.561
 5849SOL    HW218447   0.086   0.201   6.614
 5850SOL     OW18448   6.828   2.474   1.672
 5850SOL    HW118449   6.808   2.521   1.586
 5850SOL    HW218450   6.757   2.496   1.739
 5851SOL     OW18451   5.375   3.816   3.305
 5851SOL    HW118452   5.281   3.781   3.306
 5851SOL    HW218453   5.378   3.902   3.254
 5852SOL     OW18454   6.625   5.910   3.075
 5852SOL    HW118455   6.663   5.824   3.108
 5852SOL    HW218456   6.676   5.986   3.115
 5853SOL     OW18457   3.932   6.128   4.252
 5853SOL    HW118458   3.998   6.189   4.295
 5853SOL    HW218459   3.980   6.050   4.211
 5854SOL     OW18460   5.910   5.154   5.827
 5854SOL    HW118461   5.864   5.120   5.909
 5854SOL    HW218462   5.855   5.132   5.747
 5855SOL     OW18463   0.244   1.550   4.821
 5855SOL    HW118464   0.195   1.615   4.763
 5855SOL    HW218465   0.202   1.546   4.911
 5856SOL     OW18466   1.706   5.913   3.860
 5856SOL    HW118467   1.608   5.901   3.848
 5856SOL    HW218468   1.725   6.004   3.897
 5857SOL     OW18469   6.632   2.277   5.955
 5857SOL    HW118470   6.658   2.195   5.904
 5857SOL    HW218471   6.574   2.335   5.898
 5858SOL     OW18472   2.436   2.515   2.718
 5858SOL    HW118473   2.504   2.505   2.645
 5858SOL    HW218474   2.350   2.547   2.679
 5859SOL     OW18475   5.683   6.222   1.795
 5859SOL    HW118476   5.679   6.277   1.879
 5859SOL    HW218477   5.640   6.273   1.720
 5860SOL     OW18478   1.149   4.175   1.811
 5860SOL    HW118479   1.158   4.077   1.825
 5860SOL    HW218480   1.121   4.218   1.897
 5861SOL     OW18481   4.457   1.456   4.765
 5861SOL    HW118482   4.545   1.415   4.742
 5861SOL    HW218483   4.437   1.439   4.862
 5862SOL     OW18484   5.156   4.988   1.828
 5862SOL    HW118485   5.096   5.035   1.764
 5862SOL    HW218486   5.216   5.054   1.873
 5863SOL     OW18487   3.022   1.560   4.862
 5863SOL    HW118488   2.973   1.584   4.946
 5863SOL    HW218489   3.070   1.474   4.875
 5864SOL     OW18490   3.813   3.921   1.702
 5864SOL    HW118491   3.903   3.937   1.743
 5864SOL    HW218492   3.787   3.826   1.716
 5865SOL     OW18493   5.961   0.744   5.301
 5865SOL    HW118494   5.941   0.803   5.223
 5865SOL    HW218495   5.974   0.800   5.383
 5866SOL     OW18496   3.871   4.251   0.713
 5866SOL    HW118497   3.884   4.295   0.801
 5866SOL    HW218498   3.932   4.292   0.645
 5867SOL     OW18499   1.045   3.847   0.695
 5867SOL    HW118500   1.139   3.844   0.661
 5867SOL    HW218501   1.042   3.896   0.782
 5868SOL     OW18502   0.530   1.568   5.430
 5868SOL    HW118503   0.529   1.593   5.333
 5868SOL    HW218504   0.490   1.477   5.442
 5869SOL     OW18505   2.129   6.390   3.944
 5869SOL    HW118506   2.083   6.333   4.013
 5869SOL    HW218507   2.222   6.355   3.929
 5870SOL     OW18508   5.232   6.074   4.684
 5870SOL    HW118509   5.136   6.052   4.669
 5870SOL    HW218510   5.239   6.166   4.724
 5871SOL     OW18511   3.975   2.793   1.150
 5871SOL    HW118512   3.904   2.864   1.141
 5871SOL    HW218513   4.060   2.835   1.180
 5872SOL     OW18514   3.735   6.094   1.640
 5872SOL    HW118515   3.805   6.162   1.614
 5872SOL    HW218516   3.774   6.002   1.633
 5873SOL     OW18517   3.207   1.980   1.504
 5873SOL    HW118518   3.201   2.014   1.410
 5873SOL    HW218519   3.186   1.882   1.504
 5874SOL     OW18520   3.088   4.263   7.003
 5874SOL    HW118521   3.069   4.326   6.928
 5874SOL    HW218522   3.114   4.173   6.966
 5875SOL     OW18523   4.660   0.980   6.783
 5875SOL    HW118524   4.729   1.044   6.816
 5875SOL    HW218525   4.578   1.030   6.755
 5876SOL     OW18526   3.404   3.549   0.785
 5876SOL    HW118527   3.374   3.611   0.713
 5876SOL    HW218528   3.323   3.510   0.831
 5877SOL     OW18529   0.315   0.421   0.702
 5877SOL    HW118530   0.361   0.508   0.717
 5877SOL    HW218531   0.308   0.402   0.604
 5878SOL     OW18532   5.823   5.232   4.085
 5878SOL    HW118533   5.752   5.255   4.151
 5878SOL    HW218534   5.866   5.145   4.111
 5879SOL     OW18535   1.400   3.360   6.822
 5879SOL    HW118536   1.443   3.290   6.879
 5879SOL    HW218537   1.314   3.387   6.864
 5880SOL     OW18538   5.248   4.565   6.591
 5880SOL    HW118539   5.294   4.517   6.666
 5880SOL    HW218540   5.296   4.547   6.505
 5881SOL     OW18541   1.199   0.013   1.397
 5881SOL    HW118542   1.223   6.947   1.392
 5881SOL    HW218543   1.104   0.026   1.366
 5882SOL     OW18544   0.897   6.447   5.907
 5882SOL    HW118545   0.849   6.365   5.937
 5882SOL    HW218546   0.926   6.499   5.987
 5883SOL     OW18547   0.966   1.309   6.964
 5883SOL    HW118548   0.897   1.243   6.992
 5883SOL    HW218549   0.955   1.330   6.867
 5884SOL     OW18550   4.439   1.128   4.628
 5884SOL    HW118551   4.373   1.092   4.694
 5884SOL    HW218552   4.522   1.155   4.676
 5885SOL     OW18553   0.348   5.746   2.503
 5885SOL    HW118554   0.353   5.653   2.467
 5885SOL    HW218555   0.353   5.743   2.603
 5886SOL     OW18556   0.971   2.083   4.018
 5886SOL    HW118557   0.943   1.994   3.980
 5886SOL    HW218558   1.066   2.101   3.992
 5887SOL     OW18559   2.593   1.961   1.516
 5887SOL    HW118560   2.495   1.941   1.519
 5887SOL    HW218561   2.642   1.882   1.479
 5888SOL     OW18562   2.332   6.797   1.259
 5888SOL    HW118563   2.395   6.773   1.185
 5888SOL    HW218564   2.375   6.866   1.317
 5889SOL     OW18565   6.318   1.907   6.428
 5889SOL    HW118566   6.239   1.938   6.375
 5889SOL    HW218567   6.328   1.808   6.419
 5890SOL     OW18568   2.669   0.169   2.828
 5890SOL    HW118569   2.672   0.165   2.928
 5890SOL    HW218570   2.648   0.078   2.792
 5891SOL     OW18571   2.340   3.785   0.458
 5891SOL    HW118572   2.255   3.734   0.452
 5891SOL    HW218573   2.343   3.835   0.545
 5892SOL     OW18574   0.437   5.335   1.706
 5892SOL    HW118575   0.521   5.358   1.754
 5892SOL    HW218576   0.416   5.238   1.719
 5893SOL     OW18577   1.964   4.592   2.111
 5893SOL    HW118578   2.052   4.618   2.150
 5893SOL    HW218579   1.969   4.499   2.075
 5894SOL     OW18580   0.856   5.976   4.871
 5894SOL    HW118581   0.839   5.903   4.805
 5894SOL    HW218582   0.953   5.976   4.897
 5895SOL     OW18583   6.032   3.667   3.648
 5895SOL    HW118584   6.118   3.670   3.597
 5895SOL    HW218585   5.995   3.574   3.644
 5896SOL     OW18586   4.847   1.836   1.277
 5896SOL    HW118587   4.813   1.886   1.356
 5896SOL    HW218588   4.945   1.817   1.289
 5897SOL     OW18589   3.925   0.850   1.245
 5897SOL    HW118590   3.949   0.947   1.243
 5897SOL    HW218591   3.920   0.819   1.340
 5898SOL     OW18592   2.675   0.628   5.047
 5898SOL    HW118593   2.639   0.545   5.004
 5898SOL    HW218594   2.740   0.602   5.119
 5899SOL     OW18595   5.780   6.353   6.628
 5899SOL    HW118596   5.691   6.309   6.641
 5899SOL    HW218597   5.766   6.451   6.612
 5900SOL     OW18598   6.729   4.581   3.148
 5900SOL    HW118599   6.722   4.504   3.085
 5900SOL    HW218600   6.658   4.648   3.127
 5901SOL     OW18601   3.270   0.619   1.201
 5901SOL    HW118602   3.322   0.704   1.206
 5901SOL    HW218603   3.232   0.597   1.291
 5902SOL     OW18604   5.812   3.473   5.935
 5902SOL    HW118605   5.898   3.498   5.892
 5902SOL    HW218606   5.830   3.418   6.016
 5903SOL     OW18607   4.542   3.860   6.214
 5903SOL    HW118608   4.599   3.786   6.178
 5903SOL    HW218609   4.506   3.915   6.138
 5904SOL     OW18610   0.628   4.225   1.113
 5904SOL    HW118611   0.712   4.221   1.060
 5904SOL    HW218612   0.551   4.201   1.054
 5905SOL     OW18613   6.730   0.497   3.240
 5905SOL    HW118614   6.723   0.595   3.219
 5905SOL    HW218615   6.707   0.483   3.336
 5906SOL     OW18616   4.788   1.849   4.537
 5906SOL    HW118617   4.836   1.899   4.464
 5906SOL    HW218618   4.763   1.758   4.504
 5907SOL     OW18619   1.136   6.588   0.788
 5907SOL    HW118620   1.165   6.498   0.756
 5907SOL    HW218621   1.216   6.649   0.793
 5908SOL     OW18622   6.771   4.259   0.087
 5908SOL    HW118623   6.725   4.322   0.024
 5908SOL    HW218624   6.822   4.312   0.155
 5909SOL     OW18625   6.273   5.111   6.378
 5909SOL    HW118626   6.294   5.154   6.290
 5909SOL    HW218627   6.178   5.133   6.403
 5910SOL     OW18628   0.488   4.549   1.569
 5910SOL    HW118629   0.411   4.609   1.547
 5910SOL    HW218630   0.527   4.513   1.485
 5911SOL     OW18631   6.548   5.159   6.419
 5911SOL    HW118632   6.574   5.077   6.470
 5911SOL    HW218633   6.450   5.156   6.400
 5912SOL     OW18634   6.001   3.103   6.794
 5912SOL    HW118635   5.984   3.190   6.840
 5912SOL    HW218636   5.941   3.033   6.833
 5913SOL     OW18637   3.657   3.159   6.340
 5913SOL    HW118638   3.641   3.213   6.258
 5913SOL    HW218639   3.593   3.082   6.342
 5914SOL     OW18640   2.983   5.734   6.146
 5914SOL    HW118641   2.962   5.712   6.051
 5914SOL    HW218642   2.989   5.649   6.199
 5915SOL     OW18643   5.877   4.384   1.715
 5915SOL    HW118644   5.896   4.318   1.642
 5915SOL    HW218645   5.800   4.442   1.688
 5916SOL     OW18646   3.982   6.198   5.576
 5916SOL    HW118647   3.977   6.258   5.655
 5916SOL    HW218648   3.902   6.138   5.575
 5917SOL     OW18649   3.696   3.462   4.129
 5917SOL    HW118650   3.655   3.394   4.190
 5917SOL    HW218651   3.749   3.527   4.183
 5918SOL     OW18652   2.382   3.748   5.320
 5918SOL    HW118653   2.464   3.743   5.378
 5918SOL    HW218654   2.378   3.838   5.277
 5919SOL     OW18655   3.552   2.453   0.915
 5919SOL    HW118656   3.601   2.502   0.844
 5919SOL    HW218657   3.617   2.407   0.975
 5920SOL     OW18658   3.504   0.231   0.538
 5920SOL    HW118659   3.532   0.191   0.451
 5920SOL    HW218660   3.467   0.323   0.522
 5921SOL     OW18661   3.527   5.364   5.750
 5921SOL    HW118662   3.533   5.444   5.810
 5921SOL    HW218663   3.500   5.284   5.803
 5922SOL     OW18664   6.793   5.515   3.231
 5922SOL    HW118665   6.716   5.460   3.197
 5922SOL    HW218666   6.758   5.592   3.283
 5923SOL     OW18667   5.098   0.209   1.082
 5923SOL    HW118668   5.004   0.239   1.100
 5923SOL    HW218669   5.159   0.245   1.152
 5924SOL     OW18670   6.632   2.100   5.015
 5924SOL    HW118671   6.671   2.167   4.951
 5924SOL    HW218672   6.593   2.024   4.964
 5925SOL     OW18673   4.382   5.473   3.081
 5925SOL    HW118674   4.311   5.523   3.131
 5925SOL    HW218675   4.389   5.511   2.988
 5926SOL     OW18676   4.164   5.038   1.871
 5926SOL    HW118677   4.243   4.978   1.886
 5926SOL    HW218678   4.091   4.986   1.827
 5927SOL     OW18679   1.450   4.331   3.575
 5927SOL    HW118680   1.376   4.339   3.508
 5927SOL    HW218681   1.505   4.249   3.554
 5928SOL     OW18682   3.335   0.377   1.510
 5928SOL    HW118683   3.332   0.402   1.607
 5928SOL    HW218684   3.390   0.444   1.460
 5929SOL     OW18685   0.606   6.573   5.843
 5929SOL    HW118686   0.533   6.544   5.903
 5929SOL    HW218687   0.687   6.515   5.857
 5930SOL     OW18688   6.994   2.162   3.583
 5930SOL    HW118689   6.923   2.232   3.591
 5930SOL    HW218690   7.001   2.132   3.488
 5931SOL     OW18691   5.909   5.320   3.170
 5931SOL    HW118692   5.963   5.276   3.098
 5931SOL    HW218693   5.912   5.264   3.253
 5932SOL     OW18694   2.292   6.288   1.237
 5932SOL    HW118695   2.219   6.220   1.233
 5932SOL    HW218696   2.380   6.242   1.245
 5933SOL     OW18697   0.654   6.039   2.907
 5933SOL    HW118698   0.748   6.051   2.940
 5933SOL    HW218699   0.593   6.020   2.984
 5934SOL     OW18700   3.785   3.601   4.424
 5934SOL    HW118701   3.839   3.531   4.378
 5934SOL    HW218702   3.847   3.669   4.465
 5935SOL     OW18703   4.252   3.433   5.474
 5935SOL    HW118704   4.203   3.436   5.386
 5935SOL    HW218705   4.317   3.509   5.477
 5936SOL     OW18706   4.122   3.758   0.443
 5936SOL    HW118707   4.186   3.723   0.374
 5936SOL    HW218708   4.098   3.685   0.506
 5937SOL     OW18709   0.808   4.655   2.567
 5937SOL    HW118710   0.779   4.657   2.663
 5937SOL    HW218711   0.734   4.619   2.510
 5938SOL     OW18712   1.247   5.533   3.795
 5938SOL    HW118713   1.195   5.457   3.758
 5938SOL    HW218714   1.220   5.550   3.890
 5939SOL     OW18715   3.597   6.970   3.105
 5939SOL    HW118716   3.548   6.886   3.081
 5939SOL    HW218717   3.556   0.017   3.057
 5940SOL     OW18718   4.357   5.631   1.269
 5940SOL    HW118719   4.357   5.561   1.340
 5940SOL    HW218720   4.318   5.715   1.306
 5941SOL     OW18721   6.516   3.144   1.536
 5941SOL    HW118722   6.455   3.185   1.603
 5941SOL    HW218723   6.610   3.144   1.571
 5942SOL     OW18724   4.716   2.862   6.757
 5942SOL    HW118725   4.652   2.840   6.830
 5942SOL    HW218726   4.668   2.912   6.685
 5943SOL     OW18727   3.067   5.237   0.876
 5943SOL    HW118728   3.022   5.150   0.857
 5943SOL    HW218729   3.163   5.232   0.848
 5944SOL     OW18730   5.975   2.299   1.280
 5944SOL    HW118731   6.014   2.384   1.315
 5944SOL    HW218732   6.035   2.223   1.304
 5945SOL     OW18733   6.531   5.270   5.334
 5945SOL    HW118734   6.547   5.310   5.425
 5945SOL    HW218735   6.597   5.309   5.269
 5946SOL     OW18736   3.151   3.170   6.073
 5946SOL    HW118737   3.053   3.191   6.073
 5946SOL    HW218738   3.189   3.192   5.984
 5947SOL     OW18739   4.165   3.195   1.968
 5947SOL    HW118740   4.213   3.112   1.997
 5947SOL    HW218741   4.133   3.245   2.048
 5948SOL     OW18742   4.123   5.089   3.742
 5948SOL    HW118743   4.080   5.178   3.725
 5948SOL    HW218744   4.184   5.067   3.666
 5949SOL     OW18745   3.703   3.154   1.500
 5949SOL    HW118746   3.650   3.236   1.520
 5949SOL    HW218747   3.795   3.164   1.537
 5950SOL     OW18748   5.099   2.989   5.444
 5950SOL    HW118749   5.063   2.988   5.351
 5950SOL    HW218750   5.153   2.906   5.460
 5951SOL     OW18751   0.150   5.600   4.649
 5951SOL    HW118752   0.085   5.657   4.598
 5951SOL    HW218753   0.182   5.526   4.590
 5952SOL     OW18754   5.614   5.451   3.939
 5952SOL    HW118755   5.568   5.530   3.979
 5952SOL    HW218756   5.632   5.383   4.010
 5953SOL     OW18757   6.685   2.653   5.657
 5953SOL    HW118758   6.763   2.599   5.688
 5953SOL    HW218759   6.617   2.593   5.614
 5954SOL     OW18760   0.190   4.499   5.764
 5954SOL    HW118761   0.171   4.450   5.679
 5954SOL    HW218762   0.282   4.539   5.759
 5955SOL     OW18763   4.923   5.805   2.602
 5955SOL    HW118764   4.971   5.879   2.649
 5955SOL    HW218765   4.887   5.839   2.515
 5956SOL     OW18766   3.738   1.446   6.247
 5956SOL    HW118767   3.759   1.371   6.184
 5956SOL    HW218768   3.777   1.426   6.337
 5957SOL     OW18769   4.225   0.529   5.945
 5957SOL    HW118770   4.279   0.494   5.868
 5957SOL    HW218771   4.237   0.628   5.951
 5958SOL     OW18772   6.459   6.012   2.408
 5958SOL    HW118773   6.361   6.020   2.392
 5958SOL    HW218774   6.486   5.916   2.404
 5959SOL     OW18775   3.691   2.086   5.557
 5959SOL    HW118776   3.646   2.039   5.633
 5959SOL    HW218777   3.786   2.055   5.552
 5960SOL     OW18778   4.394   6.274   4.984
 5960SOL    HW118779   4.424   6.185   5.017
 5960SOL    HW218780   4.370   6.267   4.887
 5961SOL     OW18781   5.057   1.555   3.244
 5961SOL    HW118782   5.006   1.469   3.237
 5961SOL    HW218783   5.056   1.588   3.339
 5962SOL     OW18784   4.462   5.860   1.029
 5962SOL    HW118785   4.540   5.804   1.003
 5962SOL    HW218786   4.494   5.941   1.078
 5963SOL     OW18787   3.500   2.925   4.713
 5963SOL    HW118788   3.597   2.922   4.738
 5963SOL    HW218789   3.491   2.921   4.614
 5964SOL     OW18790   0.380   5.234   5.473
 5964SOL    HW118791   0.438   5.256   5.395
 5964SOL    HW218792   0.304   5.176   5.443
 5965SOL     OW18793   1.391   2.468   6.913
 5965SOL    HW118794   1.379   2.561   6.878
 5965SOL    HW218795   1.332   2.455   6.993
 5966SOL     OW18796   2.195   5.870   4.813
 5966SOL    HW118797   2.133   5.838   4.885
 5966SOL    HW218798   2.215   5.967   4.827
 5967SOL     OW18799   3.918   5.993   0.657
 5967SOL    HW118800   3.989   6.045   0.704
 5967SOL    HW218801   3.942   5.984   0.560
 5968SOL     OW18802   4.709   0.960   2.142
 5968SOL    HW118803   4.732   0.983   2.237
 5968SOL    HW218804   4.610   0.959   2.131
 5969SOL     OW18805   6.657   0.532   6.438
 5969SOL    HW118806   6.630   0.628   6.442
 5969SOL    HW218807   6.746   0.524   6.393
 5970SOL     OW18808   0.879   3.956   2.412
 5970SOL    HW118809   0.961   3.973   2.466
 5970SOL    HW218810   0.807   3.920   2.471
 5971SOL     OW18811   1.874   1.365   3.452
 5971SOL    HW118812   1.899   1.357   3.355
 5971SOL    HW218813   1.800   1.301   3.473
 5972SOL     OW18814   5.526   6.903   0.109
 5972SOL    HW118815   5.436   6.865   0.129
 5972SOL    HW218816   5.559   6.866   0.022
 5973SOL     OW18817   1.671   4.044   2.324
 5973SOL    HW118818   1.756   4.068   2.276
 5973SOL    HW218819   1.593   4.065   2.266
 5974SOL     OW18820   5.597   4.496   6.579
 5974SOL    HW118821   5.609   4.401   6.607
 5974SOL    HW218822   5.532   4.500   6.503
 5975SOL     OW18823   3.152   1.928   0.903
 5975SOL    HW118824   3.094   1.906   0.824
 5975SOL    HW218825   3.220   1.996   0.877
 5976SOL     OW18826   3.261   3.754   5.100
 5976SOL    HW118827   3.287   3.783   5.192
 5976SOL    HW218828   3.199   3.676   5.106
 5977SOL     OW18829   1.778   4.777   1.204
 5977SOL    HW118830   1.790   4.711   1.129
 5977SOL    HW218831   1.867   4.801   1.242
 5978SOL     OW18832   4.787   5.851   3.622
 5978SOL    HW118833   4.886   5.860   3.610
 5978SOL    HW218834   4.744   5.842   3.532
 5979SOL     OW18835   6.460   6.952   2.730
 5979SOL    HW118836   6.464   6.998   2.819
 5979SOL    HW218837   6.409   6.866   2.740
 5980SOL     OW18838   3.897   3.381   0.310
 5980SOL    HW118839   3.990   3.360   0.339
 5980SOL    HW218840   3.874   3.328   0.228
 5981SOL     OW18841   6.334   0.785   2.614
 5981SOL    HW118842   6.306   0.768   2.708
 5981SOL    HW218843   6.258   0.766   2.552
 5982SOL     OW18844   6.479   2.746   0.694
 5982SOL    HW118845   6.575   2.727   0.714
 5982SOL    HW218846   6.472   2.790   0.604
 5983SOL     OW18847   1.332   0.971   4.491
 5983SOL    HW118848   1.298   0.910   4.563
 5983SOL    HW218849   1.324   1.066   4.522
 5984SOL     OW18850   6.637   6.591   5.070
 5984SOL    HW118851   6.627   6.606   5.168
 5984SOL    HW218852   6.714   6.530   5.053
 5985SOL     OW18853   6.558   3.443   3.961
 5985SOL    HW118854   6.587   3.400   4.046
 5985SOL    HW218855   6.570   3.379   3.885
 5986SOL     OW18856   3.372   3.703   4.473
 5986SOL    HW118857   3.369   3.758   4.390
 5986SOL    HW218858   3.360   3.606   4.449
 5987SOL     OW18859   4.799   0.897   5.050
 5987SOL    HW118860   4.723   0.939   5.001
 5987SOL    HW218861   4.808   0.801   5.022
 5988SOL     OW18862   4.555   6.945   5.307
 5988SOL    HW118863   4.499   6.919   5.228
 5988SOL    HW218864   4.596   6.863   5.347
 5989SOL     OW18865   2.864   5.564   0.416
 5989SOL    HW118866   2.912   5.652   0.408
 5989SOL    HW218867   2.872   5.514   0.330
 5990SOL     OW18868   4.048   4.392   0.569
 5990SOL    HW118869   4.035   4.488   0.544
 5990SOL    HW218870   4.095   4.344   0.494
 5991SOL     OW18871   3.816   5.491   5.760
 5991SOL    HW118872   3.890   5.556   5.776
 5991SOL    HW218873   3.763   5.481   5.844
 5992SOL     OW18874   3.378   0.646   3.668
 5992SOL    HW118875   3.342   0.592   3.592
 5992SOL    HW218876   3.461   0.694   3.639
 5993SOL     OW18877   3.253   6.100   5.602
 5993SOL    HW118878   3.236   6.193   5.636
 5993SOL    HW218879   3.312   6.105   5.522
 5994SOL     OW18880   6.334   2.341   1.746
 5994SOL    HW118881   6.370   2.425   1.705
 5994SOL    HW218882   6.410   2.290   1.787
 5995SOL     OW18883   5.802   5.015   2.628
 5995SOL    HW118884   5.874   5.077   2.598
 5995SOL    HW218885   5.807   4.931   2.574
 5996SOL     OW18886   0.899   5.989   0.816
 5996SOL    HW118887   0.938   5.932   0.888
 5996SOL    HW218888   0.937   5.960   0.728
 5997SOL     OW18889   1.117   6.293   2.938
 5997SOL    HW118890   1.124   6.378   2.886
 5997SOL    HW218891   1.021   6.278   2.963
 5998SOL     OW18892   6.325   1.900   1.578
 5998SOL    HW118893   6.230   1.896   1.610
 5998SOL    HW218894   6.384   1.932   1.652
 5999SOL     OW18895   1.583   1.871   2.887
 5999SOL    HW118896   1.489   1.860   2.919
 5999SOL    HW218897   1.598   1.815   2.806
 6000SOL     OW18898   3.887   6.668   2.066
 6000SOL    HW118899   3.986   6.659   2.078
 6000SOL    HW218900   3.865   6.764   2.045
 6001SOL     OW18901   0.691   4.083   6.277
 6001SOL    HW118902   0.632   4.054   6.352
 6001SOL    HW218903   0.637   4.132   6.209
 6002SOL     OW18904   6.519   0.383   0.811
 6002SOL    HW118905   6.516   0.429   0.899
 6002SOL    HW218906   6.614   0.361   0.788
 6003SOL     OW18907   0.115   2.131   4.513
 6003SOL    HW118908   0.059   2.102   4.590
 6003SOL    HW218909   0.105   2.065   4.438
 6004SOL     OW18910   0.277   4.392   3.057
 6004SOL    HW118911   0.279   4.441   3.144
 6004SOL    HW218912   0.186   4.400   3.016
 6005SOL     OW18913   4.935   5.437   4.791
 6005SOL    HW118914   4.927   5.510   4.723
 6005SOL    HW218915   5.021   5.446   4.840
 6006SOL     OW18916   2.840   0.445   6.673
 6006SOL    HW118917   2.825   0.489   6.762
 6006SOL    HW218918   2.938   0.440   6.654
 6007SOL     OW18919   4.890   3.665   4.653
 6007SOL    HW118920   4.856   3.738   4.713
 6007SOL    HW218921   4.925   3.591   4.710
 6008SOL     OW18922   2.462   5.501   5.841
 6008SOL    HW118923   2.519   5.452   5.907
 6008SOL    HW218924   2.372   5.458   5.837
 6009SOL     OW18925   4.200   1.060   4.751
 6009SOL    HW118926   4.143   1.085   4.673
 6009SOL    HW218927   4.142   1.036   4.829
 6010SOL     OW18928   1.315   4.071   3.403
 6010SOL    HW118929   1.356   4.058   3.494
 6010SOL    HW218930   1.255   3.994   3.383
 6011SOL     OW18931   4.669   2.602   2.901
 6011SOL    HW118932   4.655   2.509   2.866
 6011SOL    HW218933   4.640   2.606   2.996
 6012SOL     OW18934   5.820   1.298   0.200
 6012SOL    HW118935   5.815   1.228   0.271
 6012SOL    HW218936   5.806   1.256   0.110
 6013SOL     OW18937   5.823   2.382   2.574
 6013SOL    HW118938   5.892   2.455   2.575
 6013SOL    HW218939   5.839   2.323   2.495
 6014SOL     OW18940   4.320   2.679   0.594
 6014SOL    HW118941   4.386   2.610   0.564
 6014SOL    HW218942   4.260   2.639   0.663
 6015SOL     OW18943   5.401   2.020   5.133
 6015SOL    HW118944   5.346   1.945   5.169
 6015SOL    HW218945   5.410   2.091   5.203
 6016SOL     OW18946   0.075   1.409   6.496
 6016SOL    HW118947   0.068   1.375   6.590
 6016SOL    HW218948   0.146   1.359   6.447
 6017SOL     OW18949   6.759   4.474   2.759
 6017SOL    HW118950   6.856   4.484   2.780
 6017SOL    HW218951   6.724   4.391   2.801
 6018SOL     OW18952   3.496   1.329   6.945
 6018SOL    HW118953   3.492   1.428   6.933
 6018SOL    HW218954   3.490   1.284   6.856
 6019SOL     OW18955   6.475   1.775   4.295
 6019SOL    HW118956   6.384   1.774   4.252
 6019SOL    HW218957   6.466   1.800   4.391
 6020SOL     OW18958   2.264   5.293   1.807
 6020SOL    HW118959   2.256   5.245   1.895
 6020SOL    HW218960   2.173   5.300   1.766
 6021SOL     OW18961   3.914   1.056   2.559
 6021SOL    HW118962   3.884   1.044   2.464
 6021SOL    HW218963   3.925   1.154   2.578
 6022SOL     OW18964   4.712   1.386   4.719
 6022SOL    HW118965   4.719   1.294   4.758
 6022SOL    HW218966   4.760   1.451   4.778
 6023SOL     OW18967   5.754   1.244   2.320
 6023SOL    HW118968   5.764   1.339   2.288
 6023SOL    HW218969   5.794   1.182   2.252
 6024SOL     OW18970   0.509   4.381   3.477
 6024SOL    HW118971   0.565   4.350   3.401
 6024SOL    HW218972   0.487   4.477   3.465
 6025SOL     OW18973   3.651   1.425   2.347
 6025SOL    HW118974   3.739   1.393   2.312
 6025SOL    HW218975   3.584   1.428   2.272
 6026SOL     OW18976   0.074   4.546   4.531
 6026SOL    HW118977   0.148   4.501   4.482
 6026SOL    HW218978   0.108   4.630   4.573
 6027SOL     OW18979   1.294   3.732   5.917
 6027SOL    HW118980   1.300   3.798   5.842
 6027SOL    HW218981   1.199   3.725   5.948
 6028SOL     OW18982   0.826   4.057   0.222
 6028SOL    HW118983   0.894   4.079   0.152
 6028SOL    HW218984   0.740   4.105   0.202
 6029SOL     OW18985   1.845   6.538   4.845
 6029SOL    HW118986   1.753   6.513   4.872
 6029SOL    HW218987   1.911   6.498   4.909
 6030SOL     OW18988   3.826   6.374   3.244
 6030SOL    HW118989   3.778   6.456   3.215
 6030SOL    HW218990   3.864   6.388   3.335
 6031SOL     OW18991   3.513   5.021   3.929
 6031SOL    HW118992   3.470   5.083   3.862
 6031SOL    HW218993   3.582   4.965   3.883
 6032SOL     OW18994   2.111   3.845   3.360
 6032SOL    HW118995   2.052   3.764   3.360
 6032SOL    HW218996   2.162   3.850   3.446
 6033SOL     OW18997   3.225   1.676   2.342
 6033SOL    HW118998   3.280   1.732   2.280
 6033SOL    HW218999   3.286   1.623   2.402
 6034SOL     OW19000   1.624   5.985   4.702
 6034SOL    HW119001   1.680   6.002   4.783
 6034SOL    HW219002   1.577   6.069   4.676
 6035SOL     OW19003   0.339   0.642   2.854
 6035SOL    HW119004   0.357   0.544   2.862
 6035SOL    HW219005   0.325   0.666   2.758
 6036SOL     OW19006   6.534   6.488   4.072
 6036SOL    HW119007   6.464   6.559   4.081
 6036SOL    HW219008   6.501   6.403   4.113
 6037SOL     OW19009   4.163   4.827   5.633
 6037SOL    HW119010   4.222   4.881   5.693
 6037SOL    HW219011   4.103   4.888   5.582
 6038SOL     OW19012   1.410   2.781   6.310
 6038SOL    HW119013   1.327   2.813   6.356
 6038SOL    HW219014   1.477   2.753   6.379
 6039SOL     OW19015   3.154   3.000   2.539
 6039SOL    HW119016   3.147   2.955   2.450
 6039SOL    HW219017   3.248   2.997   2.571
 6040SOL     OW19018   0.522   2.331   6.300
 6040SOL    HW119019   0.477   2.407   6.347
 6040SOL    HW219020   0.457   2.290   6.236
 6041SOL     OW19021   2.037   0.223   4.655
 6041SOL    HW119022   2.065   0.300   4.598
 6041SOL    HW219023   2.105   0.150   4.648
 6042SOL     OW19024   5.273   5.650   2.224
 6042SOL    HW119025   5.269   5.606   2.314
 6042SOL    HW219026   5.365   5.640   2.186
 6043SOL     OW19027   0.898   4.273   5.635
 6043SOL    HW119028   0.894   4.291   5.536
 6043SOL    HW219029   0.993   4.254   5.661
 6044SOL     OW19030   1.803   2.517   1.477
 6044SOL    HW119031   1.901   2.534   1.476
 6044SOL    HW219032   1.754   2.598   1.445
 6045SOL     OW19033   5.942   5.236   1.219
 6045SOL    HW119034   5.875   5.288   1.166
 6045SOL    HW219035   6.032   5.243   1.175
 6046SOL     OW19036   3.124   1.873   0.118
 6046SOL    HW119037   3.068   1.900   0.040
 6046SOL    HW219038   3.171   1.788   0.097
 6047SOL     OW19039   6.214   2.294   2.255
 6047SOL    HW119040   6.122   2.333   2.250
 6047SOL    HW219041   6.251   2.285   2.162
 6048SOL     OW19042   4.452   6.340   3.761
 6048SOL    HW119043   4.527   6.312   3.701
 6048SOL    HW219044   4.427   6.264   3.821
 6049SOL     OW19045   6.049   3.549   5.810
 6049SOL    HW119046   6.081   3.641   5.833
 6049SOL    HW219047   6.072   3.530   5.715
 6050SOL     OW19048   3.272   4.852   5.222
 6050SOL    HW119049   3.326   4.929   5.188
 6050SOL    HW219050   3.210   4.821   5.151
 6051SOL     OW19051   1.788   1.553   4.347
 6051SOL    HW119052   1.840   1.623   4.395
 6051SOL    HW219053   1.690   1.576   4.351
 6052SOL     OW19054   6.429   6.206   0.488
 6052SOL    HW119055   6.469   6.257   0.413
 6052SOL    HW219056   6.463   6.241   0.575
 6053SOL     OW19057   3.114   0.900   6.057
 6053SOL    HW119058   3.023   0.941   6.066
 6053SOL    HW219059   3.115   0.840   5.976
 6054SOL     OW19060   2.745   3.921   0.548
 6054SOL    HW119061   2.805   3.979   0.493
 6054SOL    HW219062   2.688   3.866   0.487
 6055SOL     OW19063   5.380   1.505   5.702
 6055SOL    HW119064   5.457   1.453   5.738
 6055SOL    HW219065   5.323   1.538   5.777
 6056SOL     OW19066   5.193   2.957   4.665
 6056SOL    HW119067   5.240   2.872   4.688
 6056SOL    HW219068   5.226   3.031   4.724
 6057SOL     OW19069   5.239   2.916   4.403
 6057SOL    HW119070   5.262   2.819   4.389
 6057SOL    HW219071   5.229   2.934   4.501
 6058SOL     OW19072   5.296   3.095   2.123
 6058SOL    HW119073   5.226   3.026   2.103
 6058SOL    HW219074   5.253   3.185   2.129
 6059SOL     OW19075   4.619   5.746   5.121
 6059SOL    HW119076   4.533   5.696   5.123
 6059SOL    HW219077   4.690   5.692   5.164
 6060SOL     OW19078   3.003   4.079   6.593
 6060SOL    HW119079   3.074   4.150   6.587
 6060SOL    HW219080   2.914   4.123   6.602
 6061SOL     OW19081   4.344   1.824   1.091
 6061SOL    HW119082   4.293   1.773   1.021
 6061SOL    HW219083   4.364   1.764   1.168
 6062SOL     OW19084   1.589   1.378   4.758
 6062SOL    HW119085   1.572   1.288   4.798
 6062SOL    HW219086   1.641   1.368   4.674
 6063SOL     OW19087   3.732   1.355   6.500
 6063SOL    HW119088   3.634   1.344   6.515
 6063SOL    HW219089   3.780   1.271   6.528
 6064SOL     OW19090   2.658   5.863   1.999
 6064SOL    HW119091   2.667   5.862   1.900
 6064SOL    HW219092   2.620   5.951   2.029
 6065SOL     OW19093   5.905   6.984   1.875
 6065SOL    HW119094   5.809   6.966   1.853
 6065SOL    HW219095   5.958   6.991   1.790
 6066SOL     OW19096   4.596   1.753   6.919
 6066SOL    HW119097   4.504   1.790   6.909
 6066SOL    HW219098   4.618   1.741   7.016
 6067SOL     OW19099   5.656   1.884   6.382
 6067SOL    HW119100   5.637   1.974   6.420
 6067SOL    HW219101   5.701   1.827   6.451
 6068SOL     OW19102   5.720   2.757   4.395
 6068SOL    HW119103   5.785   2.735   4.467
 6068SOL    HW219104   5.710   2.679   4.333
 6069SOL     OW19105   0.000   3.267   5.012
 6069SOL    HW119106   0.075   3.286   4.948
 6069SOL    HW219107   6.973   3.348   5.022
 6070SOL     OW19108   2.496   1.730   6.206
 6070SOL    HW119109   2.538   1.780   6.282
 6070SOL    HW219110   2.483   1.791   6.129
 6071SOL     OW19111   5.410   4.924   4.484
 6071SOL    HW119112   5.391   4.905   4.580
 6071SOL    HW219113   5.350   4.868   4.427
 6072SOL     OW19114   6.848   0.332   2.797
 6072SOL    HW119115   6.902   0.266   2.746
 6072SOL    HW219116   6.903   0.414   2.815
 6073SOL     OW19117   6.435   4.057   0.050
 6073SOL    HW119118   6.526   4.047   0.010
 6073SOL    HW219119   6.407   4.153   0.043
 6074SOL     OW19120   0.877   6.536   4.249
 6074SOL    HW119121   0.859   6.517   4.345
 6074SOL    HW219122   0.797   6.581   4.209
 6075SOL     OW19123   6.862   2.003   0.024
 6075SOL    HW119124   6.906   1.923   0.065
 6075SOL    HW219125   6.822   1.979   6.966
 6076SOL     OW19126   2.744   6.037   4.635
 6076SOL    HW119127   2.671   5.969   4.634
 6076SOL    HW219128   2.714   6.118   4.686
 6077SOL     OW19129   4.425   5.938   2.145
 6077SOL    HW119130   4.332   5.951   2.112
 6077SOL    HW219131   4.487   5.929   2.066
 6078SOL     OW19132   3.938   4.727   1.741
 6078SOL    HW119133   3.917   4.778   1.825
 6078SOL    HW219134   3.853   4.704   1.694
 6079SOL     OW19135   3.446   2.918   6.291
 6079SOL    HW119136   3.459   2.855   6.367
 6079SOL    HW219137   3.348   2.928   6.273
 6080SOL     OW19138   6.764   1.042   2.052
 6080SOL    HW119139   6.678   1.057   2.099
 6080SOL    HW219140   6.778   0.943   2.038
 6081SOL     OW19141   5.935   3.045   4.810
 6081SOL    HW119142   6.024   3.091   4.805
 6081SOL    HW219143   5.876   3.079   4.737
 6082SOL     OW19144   2.737   1.592   3.092
 6082SOL    HW119145   2.743   1.628   3.184
 6082SOL    HW219146   2.764   1.662   3.026
 6083SOL     OW19147   0.520   5.387   6.143
 6083SOL    HW119148   0.567   5.475   6.141
 6083SOL    HW219149   0.571   5.321   6.088
 6084SOL     OW19150   0.043   5.592   3.638
 6084SOL    HW119151   6.993   5.545   3.601
 6084SOL    HW219152   0.124   5.569   3.584
 6085SOL     OW19153   0.571   4.249   0.061
 6085SOL    HW119154   0.609   4.282   0.148
 6085SOL    HW219155   0.599   4.310   7.017
 6086SOL     OW19156   3.060   1.334   5.169
 6086SOL    HW119157   3.143   1.339   5.113
 6086SOL    HW219158   3.002   1.413   5.151
 6087SOL     OW19159   4.093   5.500   0.045
 6087SOL    HW119160   4.174   5.442   0.054
 6087SOL    HW219161   4.106   5.564   6.999
 6088SOL     OW19162   5.913   6.640   4.626
 6088SOL    HW119163   5.845   6.570   4.649
 6088SOL    HW219164   5.877   6.730   4.649
 6089SOL     OW19165   0.080   3.088   1.352
 6089SOL    HW119166   0.002   3.142   1.383
 6089SOL    HW219167   0.160   3.147   1.340
 6090SOL     OW19168   1.775   6.609   6.026
 6090SOL    HW119169   1.755   6.690   5.971
 6090SOL    HW219170   1.843   6.631   6.095
 6091SOL     OW19171   2.119   1.816   2.302
 6091SOL    HW119172   2.200   1.840   2.247
 6091SOL    HW219173   2.072   1.738   2.260
 6092SOL     OW19174   2.782   0.630   3.330
 6092SOL    HW119175   2.772   0.694   3.406
 6092SOL    HW219176   2.693   0.593   3.305
 6093SOL     OW19177   1.011   2.775   2.697
 6093SOL    HW119178   1.103   2.798   2.664
 6093SOL    HW219179   0.953   2.856   2.694
 6094SOL     OW19180   3.992   0.623   0.872
 6094SOL    HW119181   4.090   0.610   0.859
 6094SOL    HW219182   3.942   0.557   0.815
 6095SOL     OW19183   4.391   3.551   6.812
 6095SOL    HW119184   4.422   3.528   6.720
 6095SOL    HW219185   4.295   3.524   6.822
 6096SOL     OW19186   5.758   0.395   3.821
 6096SOL    HW119187   5.815   0.363   3.745
 6096SOL    HW219188   5.816   0.425   3.896
 6097SOL     OW19189   1.802   0.604   2.263
 6097SOL    HW119190   1.732   0.543   2.298
 6097SOL    HW219191   1.871   0.621   2.334
 6098SOL     OW19192   1.070   2.006   6.429
 6098SOL    HW119193   1.048   2.032   6.335
 6098SOL    HW219194   1.032   2.073   6.492
 6099SOL     OW19195   0.110   5.984   0.407
 6099SOL    HW119196   0.136   5.930   0.327
 6099SOL    HW219197   0.192   6.010   0.458
 6100SOL     OW19198   4.686   3.536   0.094
 6100SOL    HW119199   4.617   3.605   0.073
 6100SOL    HW219200   4.750   3.528   0.017
 6101SOL     OW19201   6.348   1.842   5.173
 6101SOL    HW119202   6.373   1.799   5.087
 6101SOL    HW219203   6.426   1.893   5.209
 6102SOL     OW19204   3.496   0.845   4.192
 6102SOL    HW119205   3.491   0.763   4.249
 6102SOL    HW219206   3.591   0.876   4.187
 6103SOL     OW19207   0.290   2.209   2.855
 6103SOL    HW119208   0.359   2.207   2.783
 6103SOL    HW219209   0.203   2.239   2.817
 6104SOL     OW19210   6.125   2.341   5.874
 6104SOL    HW119211   6.133   2.396   5.791
 6104SOL    HW219212   6.179   2.382   5.948
 6105SOL     OW19213   1.986   0.365   5.584
 6105SOL    HW119214   1.994   0.453   5.631
 6105SOL    HW219215   2.003   0.378   5.486
 6106SOL     OW19216   1.497   3.954   5.449
 6106SOL    HW119217   1.526   3.866   5.488
 6106SOL    HW219218   1.398   3.952   5.434
 6107SOL     OW19219   2.417   4.382   4.518
 6107SOL    HW119220   2.369   4.308   4.471
 6107SOL    HW219221   2.498   4.409   4.466
 6108SOL     OW19222   0.621   2.530   2.602
 6108SOL    HW119223   0.595   2.444   2.645
 6108SOL    HW219224   0.706   2.517   2.550
 6109SOL     OW19225   4.929   3.174   6.144
 6109SOL    HW119226   5.020   3.208   6.165
 6109SOL    HW219227   4.929   3.132   6.053
 6110SOL     OW19228   3.825   2.612   6.969
 6110SOL    HW119229   3.815   2.656   6.880
 6110SOL    HW219230   3.877   2.672   7.030
 6111SOL     OW19231   1.762   4.456   2.424
 6111SOL    HW119232   1.856   4.441   2.394
 6111SOL    HW219233   1.714   4.512   2.357
 6112SOL     OW19234   3.451   0.848   3.865
 6112SOL    HW119235   3.460   0.812   3.958
 6112SOL    HW219236   3.436   0.772   3.801
 6113SOL     OW19237   0.813   1.287   5.841
 6113SOL    HW119238   0.810   1.236   5.927
 6113SOL    HW219239   0.780   1.380   5.856
 6114SOL     OW19240   5.020   4.680   1.002
 6114SOL    HW119241   5.083   4.681   0.924
 6114SOL    HW219242   5.021   4.769   1.047
 6115SOL     OW19243   5.429   6.350   3.357
 6115SOL    HW119244   5.476   6.315   3.438
 6115SOL    HW219245   5.458   6.444   3.339
 6116SOL     OW19246   2.843   1.257   0.736
 6116SOL    HW119247   2.811   1.257   0.642
 6116SOL    HW219248   2.829   1.348   0.776
 6117SOL     OW19249   6.335   0.511   6.028
 6117SOL    HW119250   6.343   0.421   6.071
 6117SOL    HW219251   6.322   0.500   5.930
 6118SOL     OW19252   0.183   0.313   1.446
 6118SOL    HW119253   0.180   0.413   1.454
 6118SOL    HW219254   0.166   0.272   1.535
 6119SOL     OW19255   0.753   3.757   4.620
 6119SOL    HW119256   0.721   3.738   4.527
 6119SOL    HW219257   0.692   3.822   4.664
 6120SOL     OW19258   4.426   7.009   3.603
 6120SOL    HW119259   4.511   7.021   3.654
 6120SOL    HW219260   4.351   0.025   3.650
 6121SOL     OW19261   0.111   3.260   4.507
 6121SOL    HW119262   0.106   3.218   4.597
 6121SOL    HW219263   0.155   3.196   4.443
 6122SOL     OW19264   3.936   6.843   1.826
 6122SOL    HW119265   3.842   6.876   1.810
 6122SOL    HW219266   3.998   6.889   1.762
 6123SOL     OW19267   6.685   0.238   6.628
 6123SOL    HW119268   6.652   0.328   6.657
 6123SOL    HW219269   6.645   0.168   6.686
 6124SOL     OW19270   2.529   0.825   6.215
 6124SOL    HW119271   2.588   0.746   6.199
 6124SOL    HW219272   2.511   0.834   6.313
 6125SOL     OW19273   3.175   5.611   0.253
 6125SOL    HW119274   3.168   5.541   0.324
 6125SOL    HW219275   3.254   5.669   0.271
 6126SOL     OW19276   6.865   6.861   3.847
 6126SOL    HW119277   6.948   6.853   3.903
 6126SOL    HW219278   6.805   6.783   3.866
 6127SOL     OW19279   2.852   0.244   2.657
 6127SOL    HW119280   2.786   0.236   2.731
 6127SOL    HW219281   2.892   0.336   2.658
 6128SOL     OW19282   6.286   3.804   0.583
 6128SOL    HW119283   6.273   3.713   0.623
 6128SOL    HW219284   6.207   3.861   0.605
 6129SOL     OW19285   6.111   4.217   3.352
 6129SOL    HW119286   6.030   4.232   3.407
 6129SOL    HW219287   6.113   4.122   3.320
 6130SOL     OW19288   6.249   1.977   4.100
 6130SOL    HW119289   6.226   1.917   4.177
 6130SOL    HW219290   6.310   1.930   4.037
 6131SOL     OW19291   6.410   1.400   5.235
 6131SOL    HW119292   6.441   1.305   5.229
 6131SOL    HW219293   6.399   1.438   5.143
 6132SOL     OW19294   5.068   1.364   0.232
 6132SOL    HW119295   5.128   1.318   0.297
 6132SOL    HW219296   5.038   1.451   0.270
 6133SOL     OW19297   1.256   2.355   2.719
 6133SOL    HW119298   1.287   2.273   2.767
 6133SOL    HW219299   1.198   2.410   2.780
 6134SOL     OW19300   3.888   4.380   6.987
 6134SOL    HW119301   3.961   4.345   6.928
 6134SOL    HW219302   3.805   4.393   6.933
 6135SOL     OW19303   0.429   6.929   1.627
 6135SOL    HW119304   0.335   6.903   1.602
 6135SOL    HW219305   0.431   7.025   1.653
 6136SOL     OW19306   1.119   2.696   1.661
 6136SOL    HW119307   1.207   2.669   1.621
 6136SOL    HW219308   1.128   2.705   1.760
 6137SOL     OW19309   5.525   1.699   4.449
 6137SOL    HW119310   5.597   1.720   4.382
 6137SOL    HW219311   5.567   1.662   4.532
 6138SOL     OW19312   4.219   6.221   2.426
 6138SOL    HW119313   4.218   6.218   2.526
 6138SOL    HW219314   4.193   6.313   2.395
 6139SOL     OW19315   1.953   2.453   4.855
 6139SOL    HW119316   1.985   2.539   4.893
 6139SOL    HW219317   1.997   2.377   4.902
 6140SOL     OW19318   0.375   6.025   2.016
 6140SOL    HW119319   0.303   5.988   1.957
 6140SOL    HW219320   0.369   5.982   2.107
 6141SOL     OW19321   5.579   6.054   5.850
 6141SOL    HW119322   5.554   6.085   5.942
 6141SOL    HW219323   5.503   6.001   5.811
 6142SOL     OW19324   6.652   5.246   0.638
 6142SOL    HW119325   6.559   5.271   0.665
 6142SOL    HW219326   6.706   5.226   0.720
 6143SOL     OW19327   5.993   5.119   0.365
 6143SOL    HW119328   6.050   5.184   0.314
 6143SOL    HW219329   5.908   5.164   0.393
 6144SOL     OW19330   6.063   4.926   2.387
 6144SOL    HW119331   5.981   4.868   2.396
 6144SOL    HW219332   6.035   5.022   2.381
 6145SOL     OW19333   4.638   5.388   4.222
 6145SOL    HW119334   4.660   5.346   4.309
 6145SOL    HW219335   4.607   5.482   4.237
 6146SOL     OW19336   3.720   1.387   3.600
 6146SOL    HW119337   3.804   1.436   3.621
 6146SOL    HW219338   3.675   1.360   3.685
 6147SOL     OW19339   1.198   3.790   4.131
 6147SOL    HW119340   1.271   3.855   4.154
 6147SOL    HW219341   1.176   3.735   4.212
 6148SOL     OW19342   0.067   0.074   4.830
 6148SOL    HW119343   0.055   0.145   4.900
 6148SOL    HW219344   7.008   0.035   4.806
 6149SOL     OW19345   3.782   5.295   2.671
 6149SOL    HW119346   3.685   5.308   2.690
 6149SOL    HW219347   3.797   5.291   2.572
 6150SOL     OW19348   3.582   4.795   6.838
 6150SOL    HW119349   3.485   4.820   6.832
 6150SOL    HW219350   3.634   4.871   6.876
 6151SOL     OW19351   5.837   3.863   5.190
 6151SOL    HW119352   5.763   3.924   5.163
 6151SOL    HW219353   5.925   3.905   5.168
 6152SOL     OW19354   6.134   5.588   5.271
 6152SOL    HW119355   6.170   5.515   5.213
 6152SOL    HW219356   6.126   5.555   5.365
 6153SOL     OW19357   4.786   3.677   1.757
 6153SOL    HW119358   4.770   3.581   1.734
 6153SOL    HW219359   4.728   3.735   1.700
 6154SOL     OW19360   5.955   1.435   2.911
 6154SOL    HW119361   5.998   1.525   2.906
 6154SOL    HW219362   5.899   1.429   2.994
 6155SOL     OW19363   1.857   1.949   4.374
 6155SOL    HW119364   1.856   1.989   4.466
 6155SOL    HW219365   1.884   1.853   4.379
 6156SOL     OW19366   4.849   4.606   2.519
 6156SOL    HW119367   4.918   4.536   2.500
 6156SOL    HW219368   4.800   4.583   2.603
 6157SOL     OW19369   1.270   1.576   4.561
 6157SOL    HW119370   1.234   1.669   4.570
 6157SOL    HW219371   1.292   1.558   4.465
 6158SOL     OW19372   4.588   0.838   5.618
 6158SOL    HW119373   4.492   0.812   5.630
 6158SOL    HW219374   4.642   0.802   5.694
 6159SOL     OW19375   4.798   2.386   1.314
 6159SOL    HW119376   4.829   2.362   1.406
 6159SOL    HW219377   4.820   2.481   1.294
 6160SOL     OW19378   4.740   6.657   6.603
 6160SOL    HW119379   4.797   6.717   6.546
 6160SOL    HW219380   4.713   6.706   6.686
 6161SOL     OW19381   6.243   1.703   5.402
 6161SOL    HW119382   6.272   1.736   5.312
 6161SOL    HW219383   6.150   1.667   5.396
 6162SOL     OW19384   1.128   5.989   3.592
 6162SOL    HW119385   1.152   5.902   3.548
 6162SOL    HW219386   1.129   5.978   3.691
 6163SOL     OW19387   5.313   6.259   1.499
 6163SOL    HW119388   5.407   6.268   1.466
 6163SOL    HW219389   5.273   6.175   1.464
 6164SOL     OW19390   2.781   3.264   1.609
 6164SOL    HW119391   2.792   3.173   1.570
 6164SOL    HW219392   2.689   3.272   1.649
 6165SOL     OW19393   4.589   0.318   6.307
 6165SOL    HW119394   4.513   0.254   6.293
 6165SOL    HW219395   4.583   0.357   6.399
 6166SOL     OW19396   4.086   1.346   5.963
 6166SOL    HW119397   4.052   1.278   5.898
 6166SOL    HW219398   4.074   1.438   5.924
 6167SOL     OW19399   0.939   4.443   2.677
 6167SOL    HW119400   0.995   4.474   2.754
 6167SOL    HW219401   0.909   4.522   2.624
 6168SOL     OW19402   0.580   3.150   1.146
 6168SOL    HW119403   0.577   3.119   1.241
 6168SOL    HW219404   0.540   3.241   1.138
 6169SOL     OW19405   1.197   3.136   1.797
 6169SOL    HW119406   1.252   3.104   1.719
 6169SOL    HW219407   1.117   3.186   1.763
 6170SOL     OW19408   0.697   3.947   5.529
 6170SOL    HW119409   0.786   3.969   5.488
 6170SOL    HW219410   0.705   3.946   5.628
 6171SOL     OW19411   0.860   1.765   0.347
 6171SOL    HW119412   0.795   1.840   0.345
 6171SOL    HW219413   0.949   1.797   0.314
 6172SOL     OW19414   1.405   3.216   2.439
 6172SOL    HW119415   1.498   3.197   2.471
 6172SOL    HW219416   1.367   3.133   2.397
 6173SOL     OW19417   6.462   5.106   2.881
 6173SOL    HW119418   6.562   5.098   2.888
 6173SOL    HW219419   6.424   5.118   2.973
 6174SOL     OW19420   5.213   5.856   4.093
 6174SOL    HW119421   5.235   5.781   4.156
 6174SOL    HW219422   5.261   5.841   4.006
 6175SOL     OW19423   4.086   0.334   4.179
 6175SOL    HW119424   4.054   0.319   4.273
 6175SOL    HW219425   4.166   0.276   4.163
 6176SOL     OW19426   5.475   3.798   5.993
 6176SOL    HW119427   5.404   3.752   6.048
 6176SOL    HW219428   5.508   3.878   6.043
 6177SOL     OW19429   6.046   1.890   1.880
 6177SOL    HW119430   5.976   1.953   1.913
 6177SOL    HW219431   6.019   1.854   1.790
 6178SOL     OW19432   5.042   4.419   2.526
 6178SOL    HW119433   5.108   4.488   2.498
 6178SOL    HW219434   5.074   4.374   2.609
 6179SOL     OW19435   6.452   4.524   2.484
 6179SOL    HW119436   6.364   4.555   2.521
 6179SOL    HW219437   6.468   4.568   2.396
 6180SOL     OW19438   2.802   4.654   1.291
 6180SOL    HW119439   2.842   4.730   1.342
 6180SOL    HW219440   2.796   4.573   1.351
 6181SOL     OW19441   4.793   6.651   6.035
 6181SOL    HW119442   4.828   6.644   5.942
 6181SOL    HW219443   4.851   6.713   6.088
 6182SOL     OW19444   4.510   3.436   6.054
 6182SOL    HW119445   4.547   3.343   6.050
 6182SOL    HW219446   4.539   3.488   5.974
 6183SOL     OW19447   1.951   2.223   2.039
 6183SOL    HW119448   1.951   2.165   2.120
 6183SOL    HW219449   1.858   2.233   2.005
 6184SOL     OW19450   2.919   6.921   6.339
 6184SOL    HW119451   2.886   7.014   6.357
 6184SOL    HW219452   3.019   6.919   6.343
 6185SOL     OW19453   1.105   4.601   6.275
 6185SOL    HW119454   1.186   4.544   6.259
 6185SOL    HW219455   1.095   4.617   6.374
 6186SOL     OW19456   5.975   0.771   1.087
 6186SOL    HW119457   6.013   0.858   1.055
 6186SOL    HW219458   5.966   0.708   1.009
 6187SOL     OW19459   4.818   2.977   4.258
 6187SOL    HW119460   4.848   3.004   4.166
 6187SOL    HW219461   4.825   3.055   4.320
 6188SOL     OW19462   1.583   1.655   5.964
 6188SOL    HW119463   1.553   1.580   5.905
 6188SOL    HW219464   1.652   1.709   5.916
 6189SOL     OW19465   3.953   4.804   3.148
 6189SOL    HW119466   3.887   4.879   3.147
 6189SOL    HW219467   3.999   4.801   3.237
 6190SOL     OW19468   0.007   3.550   5.318
 6190SOL    HW119469   6.938   3.566   5.324
 6190SOL    HW219470   0.035   3.553   5.222
 6191SOL     OW19471   2.905   3.117   6.335
 6191SOL    HW119472   2.977   3.144   6.270
 6191SOL    HW219473   2.841   3.193   6.347
 6192SOL     OW19474   2.615   1.816   6.797
 6192SOL    HW119475   2.617   1.716   6.792
 6192SOL    HW219476   2.643   1.855   6.709
 6193SOL     OW19477   4.745   5.913   1.617
 6193SOL    HW119478   4.777   5.932   1.524
 6193SOL    HW219479   4.739   5.815   1.632
 6194SOL     OW19480   6.473   0.309   6.440
 6194SOL    HW119481   6.532   0.379   6.478
 6194SOL    HW219482   6.497   0.293   6.344
 6195SOL     OW19483   5.261   6.058   4.287
 6195SOL    HW119484   5.297   6.141   4.245
 6195SOL    HW219485   5.271   5.982   4.223
 6196SOL     OW19486   4.880   4.044   2.737
 6196SOL    HW119487   4.793   4.034   2.785
 6196SOL    HW219488   4.864   4.046   2.638
 6197SOL     OW19489   2.314   5.458   2.099
 6197SOL    HW119490   2.403   5.414   2.108
 6197SOL    HW219491   2.277   5.478   2.190
 6198SOL     OW19492   4.098   6.608   1.129
 6198SOL    HW119493   4.114   6.595   1.031
 6198SOL    HW219494   4.056   6.526   1.167
 6199SOL     OW19495   0.759   1.256   0.445
 6199SOL    HW119496   0.670   1.264   0.490
 6199SOL    HW219497   0.831   1.263   0.513
 6200SOL     OW19498   1.077   1.980   4.836
 6200SOL    HW119499   1.007   1.999   4.766
 6200SOL    HW219500   1.072   2.048   4.908
 6201SOL     OW19501   0.734   3.564   4.836
 6201SOL    HW119502   0.719   3.631   4.764
 6201SOL    HW219503   0.822   3.518   4.821
 6202SOL     OW19504   5.908   0.883   2.106
 6202SOL    HW119505   5.909   0.873   2.205
 6202SOL    HW219506   6.000   0.904   2.074
 6203SOL     OW19507   5.536   5.748   1.866
 6203SOL    HW119508   5.553   5.784   1.958
 6203SOL    HW219509   5.591   5.665   1.853
 6204SOL     OW19510   1.127   5.908   4.867
 6204SOL    HW119511   1.107   5.935   4.961
 6204SOL    HW219512   1.222   5.878   4.860
 6205SOL     OW19513   5.958   4.488   1.067
 6205SOL    HW119514   5.906   4.570   1.045
 6205SOL    HW219515   6.055   4.509   1.069
 6206SOL     OW19516   5.652   1.538   2.462
 6206SOL    HW119517   5.719   1.587   2.517
 6206SOL    HW219518   5.582   1.498   2.522
 6207SOL     OW19519   1.767   6.572   5.397
 6207SOL    HW119520   1.821   6.501   5.443
 6207SOL    HW219521   1.826   6.623   5.335
 6208SOL     OW19522   3.444   2.319   5.642
 6208SOL    HW119523   3.528   2.367   5.618
 6208SOL    HW219524   3.378   2.328   5.567
 6209SOL     OW19525   3.536   5.554   0.058
 6209SOL    HW119526   3.598   5.487   0.099
 6209SOL    HW219527   3.588   5.635   0.029
 6210SOL     OW19528   5.116   3.719   3.268
 6210SOL    HW119529   5.179   3.649   3.235
 6210SOL    HW219530   5.067   3.759   3.191
 6211SOL     OW19531   3.280   6.604   5.539
 6211SOL    HW119532   3.220   6.670   5.494
 6211SOL    HW219533   3.348   6.570   5.474
 6212SOL     OW19534   2.344   4.724   4.088
 6212SOL    HW119535   2.342   4.660   4.164
 6212SOL    HW219536   2.407   4.691   4.018
 6213SOL     OW19537   4.507   6.834   0.011
 6213SOL    HW119538   4.428   6.783   7.008
 6213SOL    HW219539   4.480   6.889   0.090
 6214SOL     OW19540   5.925   5.832   5.241
 6214SOL    HW119541   5.923   5.749   5.186
 6214SOL    HW219542   5.909   5.809   5.337
 6215SOL     OW19543   3.540   2.700   6.706
 6215SOL    HW119544   3.470   2.635   6.676
 6215SOL    HW219545   3.626   2.652   6.722
 6216SOL     OW19546   6.313   2.005   2.307
 6216SOL    HW119547   6.248   1.935   2.337
 6216SOL    HW219548   6.268   2.094   2.303
 6217SOL     OW19549   0.667   4.353   2.751
 6217SOL    HW119550   0.755   4.365   2.706
 6217SOL    HW219551   0.593   4.375   2.688
 6218SOL     OW19552   3.811   6.854   0.076
 6218SOL    HW119553   3.840   6.843   0.171
 6218SOL    HW219554   3.729   6.911   0.073
 6219SOL     OW19555   1.268   0.784   4.669
 6219SOL    HW119556   1.315   0.783   4.757
 6219SOL    HW219557   1.230   0.693   4.650
 6220SOL     OW19558   3.515   1.462   5.700
 6220SOL    HW119559   3.552   1.502   5.784
 6220SOL    HW219560   3.417   1.485   5.693
 6221SOL     OW19561   6.303   6.552   0.153
 6221SOL    HW119562   6.290   6.484   0.082
 6221SOL    HW219563   6.228   6.546   0.219
 6222SOL     OW19564   0.099   0.345   2.586
 6222SOL    HW119565   0.048   0.269   2.545
 6222SOL    HW219566   0.081   0.429   2.535
 6223SOL     OW19567   1.347   5.617   3.167
 6223SOL    HW119568   1.402   5.700   3.173
 6223SOL    HW219569   1.398   5.541   3.206
 6224SOL     OW19570   3.924   1.714   6.072
 6224SOL    HW119571   3.831   1.732   6.105
 6224SOL    HW219572   3.933   1.617   6.049
 6225SOL     OW19573   3.891   2.240   6.244
 6225SOL    HW119574   3.882   2.328   6.196
 6225SOL    HW219575   3.922   2.257   6.337
 6226SOL     OW19576   1.251   1.398   3.908
 6226SOL    HW119577   1.311   1.419   3.985
 6226SOL    HW219578   1.247   1.477   3.846
 6227SOL     OW19579   3.429   5.163   5.239
 6227SOL    HW119580   3.387   5.120   5.320
 6227SOL    HW219581   3.398   5.258   5.232
 6228SOL     OW19582   0.581   2.339   2.822
 6228SOL    HW119583   0.566   2.240   2.813
 6228SOL    HW219584   0.676   2.360   2.798
 6229SOL     OW19585   0.611   3.090   4.869
 6229SOL    HW119586   0.617   3.162   4.938
 6229SOL    HW219587   0.591   3.130   4.779
 6230SOL     OW19588   1.076   2.347   3.184
 6230SOL    HW119589   0.986   2.324   3.147
 6230SOL    HW219590   1.079   2.445   3.204
 6231SOL     OW19591   5.251   5.478   0.647
 6231SOL    HW119592   5.255   5.430   0.560
 6231SOL    HW219593   5.308   5.560   0.643
 6232SOL     OW19594   6.168   1.284   0.275
 6232SOL    HW119595   6.252   1.230   0.269
 6232SOL    HW219596   6.192   1.381   0.287
 6233SOL     OW19597   6.973   2.784   1.553
 6233SOL    HW119598   7.003   2.874   1.587
 6233SOL    HW219599   6.984   2.716   1.624
 6234SOL     OW19600   0.078   0.082   5.354
 6234SOL    HW119601   0.096   0.181   5.347
 6234SOL    HW219602   0.097   0.051   5.447
 6235SOL     OW19603   0.374   0.592   1.852
 6235SOL    HW119604   0.464   0.595   1.809
 6235SOL    HW219605   0.376   0.644   1.937
 6236SOL     OW19606   7.018   5.065   0.368
 6236SOL    HW119607   6.970   5.150   0.347
 6236SOL    HW219608   0.018   5.067   0.464
 6237SOL     OW19609   3.346   0.139   0.241
 6237SOL    HW119610   3.356   0.040   0.230
 6237SOL    HW219611   3.268   0.158   0.301
 6238SOL     OW19612   4.600   6.541   3.542
 6238SOL    HW119613   4.688   6.582   3.518
 6238SOL    HW219614   4.568   6.581   3.628
 6239SOL     OW19615   3.815   0.784   1.011
 6239SOL    HW119616   3.880   0.735   0.952
 6239SOL    HW219617   3.855   0.797   1.102
 6240SOL     OW19618   3.325   3.632   5.468
 6240SOL    HW119619   3.412   3.647   5.514
 6240SOL    HW219620   3.259   3.702   5.496
 6241SOL     OW19621   4.135   0.313   3.843
 6241SOL    HW119622   4.210   0.350   3.898
 6241SOL    HW219623   4.057   0.294   3.903
 6242SOL     OW19624   2.935   0.391   3.287
 6242SOL    HW119625   2.895   0.475   3.323
 6242SOL    HW219626   2.968   0.406   3.194
 6243SOL     OW19627   6.732   0.408   6.089
 6243SOL    HW119628   6.674   0.333   6.122
 6243SOL    HW219629   6.773   0.382   6.001
 6244SOL     OW19630   4.920   3.623   3.462
 6244SOL    HW119631   4.989   3.649   3.395
 6244SOL    HW219632   4.883   3.532   3.440
 6245SOL     OW19633   0.561   4.410   2.029
 6245SOL    HW119634   0.616   4.406   2.112
 6245SOL    HW219635   0.621   4.405   1.949
 6246SOL     OW19636   0.419   1.120   4.676
 6246SOL    HW119637   0.509   1.109   4.633
 6246SOL    HW219638   0.414   1.211   4.719
 6247SOL     OW19639   1.439   6.404   3.282
 6247SOL    HW119640   1.520   6.427   3.227
 6247SOL    HW219641   1.454   6.433   3.376
 6248SOL     OW19642   3.668   4.044   0.180
 6248SOL    HW119643   3.700   3.963   0.229
 6248SOL    HW219644   3.670   4.026   0.082
 6249SOL     OW19645   0.046   2.822   0.761
 6249SOL    HW119646   0.119   2.812   0.694
 6249SOL    HW219647   0.011   2.916   0.759
 6250SOL     OW19648   6.914   6.707   0.841
 6250SOL    HW119649   6.861   6.637   0.794
 6250SOL    HW219650   6.876   6.723   0.932
 6251SOL     OW19651   3.725   6.019   4.673
 6251SOL    HW119652   3.748   5.967   4.756
 6251SOL    HW219653   3.733   5.959   4.593
 6252SOL     OW19654   2.701   4.641   0.282
 6252SOL    HW119655   2.752   4.606   0.203
 6252SOL    HW219656   2.617   4.588   0.293
 6253SOL     OW19657   2.451   5.169   4.644
 6253SOL    HW119658   2.497   5.108   4.708
 6253SOL    HW219659   2.360   5.135   4.624
 6254SOL     OW19660   6.929   6.937   1.019
 6254SOL    HW119661   7.011   6.960   0.966
 6254SOL    HW219662   6.852   6.923   0.956
 6255SOL     OW19663   2.418   2.337   0.685
 6255SOL    HW119664   2.400   2.414   0.747
 6255SOL    HW219665   2.371   2.352   0.598
 6256SOL     OW19666   4.063   4.768   2.201
 6256SOL    HW119667   3.996   4.816   2.143
 6256SOL    HW219668   4.114   4.703   2.146
 6257SOL     OW19669   3.977   2.810   0.098
 6257SOL    HW119670   4.067   2.780   0.129
 6257SOL    HW219671   3.923   2.843   0.176
 6258SOL     OW19672   3.039   0.313   5.021
 6258SOL    HW119673   3.063   0.219   4.995
 6258SOL    HW219674   3.111   0.375   4.991
 6259SOL     OW19675   2.136   0.755   6.346
 6259SOL    HW119676   2.116   0.838   6.398
 6259SOL    HW219677   2.167   0.780   6.254
 6260SOL     OW19678   2.405   0.562   0.761
 6260SOL    HW119679   2.392   0.464   0.776
 6260SOL    HW219680   2.477   0.596   0.823
 6261SOL     OW19681   4.101   6.482   0.878
 6261SOL    HW119682   4.063   6.468   0.787
 6261SOL    HW219683   4.133   6.394   0.914
 6262SOL     OW19684   1.426   5.804   2.331
 6262SOL    HW119685   1.515   5.785   2.373
 6262SOL    HW219686   1.361   5.733   2.356
 6263SOL     OW19687   0.832   6.288   5.281
 6263SOL    HW119688   0.909   6.225   5.288
 6263SOL    HW219689   0.818   6.314   5.185
 6264SOL     OW19690   1.484   0.064   1.417
 6264SOL    HW119691   1.405   0.030   1.366
 6264SOL    HW219692   1.504   0.002   1.493
 6265SOL     OW19693   3.867   2.923   0.708
 6265SOL    HW119694   3.856   2.877   0.620
 6265SOL    HW219695   3.875   2.854   0.781
 6266SOL     OW19696   4.093   6.902   3.149
 6266SOL    HW119697   4.192   6.910   3.145
 6266SOL    HW219698   4.051   6.982   3.104
 6267SOL     OW19699   1.353   0.071   4.725
 6267SOL    HW119700   1.350   7.001   4.728
 6267SOL    HW219701   1.431   0.104   4.779
 6268SOL     OW19702   3.007   0.782   2.042
 6268SOL    HW119703   3.034   0.852   2.108
 6268SOL    HW219704   2.982   0.699   2.091
 6269SOL     OW19705   5.898   6.660   1.434
 6269SOL    HW119706   5.925   6.710   1.352
 6269SOL    HW219707   5.799   6.661   1.443
 6270SOL     OW19708   0.495   6.894   0.148
 6270SOL    HW119709   0.459   6.881   0.241
 6270SOL    HW219710   0.463   6.819   0.090
 6271SOL     OW19711   5.807   2.520   6.533
 6271SOL    HW119712   5.715   2.513   6.495
 6271SOL    HW219713   5.839   2.429   6.559
 6272SOL     OW19714   1.019   0.966   0.590
 6272SOL    HW119715   1.023   1.065   0.602
 6272SOL    HW219716   0.928   0.933   0.615
 6273SOL     OW19717   0.253   5.595   2.883
 6273SOL    HW119718   0.331   5.644   2.845
 6273SOL    HW219719   0.178   5.596   2.817
 6274SOL     OW19720   3.105   0.057   4.939
 6274SOL    HW119721   3.193   0.095   4.969
 6274SOL    HW219722   3.094   6.995   4.976
 6275SOL     OW19723   2.342   5.753   0.724
 6275SOL    HW119724   2.253   5.799   0.728
 6275SOL    HW219725   2.343   5.691   0.645
 6276SOL     OW19726   3.305   5.629   3.695
 6276SOL    HW119727   3.341   5.708   3.645
 6276SOL    HW219728   3.206   5.637   3.704
 6277SOL     OW19729   5.197   2.091   0.947
 6277SOL    HW119730   5.166   2.018   0.885
 6277SOL    HW219731   5.265   2.147   0.900
 6278SOL     OW19732   4.031   0.662   5.479
 6278SOL    HW119733   3.951   0.645   5.420
 6278SOL    HW219734   4.060   0.757   5.470
 6279SOL     OW19735   4.149   5.713   0.773
 6279SOL    HW119736   4.127   5.811   0.772
 6279SOL    HW219737   4.136   5.678   0.866
 6280SOL     OW19738   0.213   1.039   6.617
 6280SOL    HW119739   0.268   0.956   6.602
 6280SOL    HW219740   0.158   1.029   6.700
 6281SOL     OW19741   6.278   4.379   4.089
 6281SOL    HW119742   6.277   4.282   4.065
 6281SOL    HW219743   6.283   4.435   4.006
 6282SOL     OW19744   6.240   2.768   5.200
 6282SOL    HW119745   6.210   2.714   5.279
 6282SOL    HW219746   6.217   2.864   5.216
 6283SOL     OW19747   0.778   4.225   4.181
 6283SOL    HW119748   0.827   4.304   4.219
 6283SOL    HW219749   0.842   4.150   4.167
 6284SOL     OW19750   1.387   5.760   6.825
 6284SOL    HW119751   1.482   5.729   6.829
 6284SOL    HW219752   1.371   5.827   6.897
 6285SOL     OW19753   1.276   3.259   3.523
 6285SOL    HW119754   1.176   3.254   3.523
 6285SOL    HW219755   1.311   3.245   3.616
 6286SOL     OW19756   6.781   3.576   4.136
 6286SOL    HW119757   6.702   3.524   4.166
 6286SOL    HW219758   6.841   3.517   4.082
 6287SOL     OW19759   3.910   5.244   5.477
 6287SOL    HW119760   3.886   5.241   5.380
 6287SOL    HW219761   3.980   5.314   5.492
 6288SOL     OW19762   4.915   4.700   1.461
 6288SOL    HW119763   4.851   4.637   1.505
 6288SOL    HW219764   4.948   4.660   1.376
 6289SOL     OW19765   2.852   4.549   6.537
 6289SOL    HW119766   2.794   4.538   6.456
 6289SOL    HW219767   2.827   4.480   6.605
 6290SOL     OW19768   5.794   5.546   6.742
 6290SOL    HW119769   5.749   5.457   6.745
 6290SOL    HW219770   5.888   5.537   6.778
 6291SOL     OW19771   3.806   3.590   3.497
 6291SOL    HW119772   3.843   3.682   3.495
 6291SOL    HW219773   3.870   3.529   3.544
 6292SOL     OW19774   2.304   2.264   4.696
 6292SOL    HW119775   2.246   2.287   4.618
 6292SOL    HW219776   2.337   2.170   4.688
 6293SOL     OW19777   4.594   1.786   0.795
 6293SOL    HW119778   4.591   1.697   0.842
 6293SOL    HW219779   4.589   1.859   0.862
 6294SOL     OW19780   4.408   0.303   3.173
 6294SOL    HW119781   4.349   0.357   3.233
 6294SOL    HW219782   4.354   0.229   3.131
 6295SOL     OW19783   5.171   5.112   4.744
 6295SOL    HW119784   5.107   5.039   4.769
 6295SOL    HW219785   5.143   5.197   4.787
 6296SOL     OW19786   0.698   4.249   5.797
 6296SOL    HW119787   0.779   4.262   5.740
 6296SOL    HW219788   0.616   4.267   5.742
 6297SOL     OW19789   6.433   0.201   5.679
 6297SOL    HW119790   6.369   0.158   5.615
 6297SOL    HW219791   6.522   0.212   5.634
 6298SOL     OW19792   6.191   4.369   6.471
 6298SOL    HW119793   6.125   4.425   6.420
 6298SOL    HW219794   6.257   4.330   6.407
 6299SOL     OW19795   6.466   2.872   1.846
 6299SOL    HW119796   6.426   2.788   1.882
 6299SOL    HW219797   6.445   2.881   1.749
 6300SOL     OW19798   5.195   0.481   6.466
 6300SOL    HW119799   5.183   0.437   6.555
 6300SOL    HW219800   5.288   0.464   6.433
 6301SOL     OW19801   3.199   6.951   6.346
 6301SOL    HW119802   3.209   6.880   6.416
 6301SOL    HW219803   3.285   6.962   6.297
 6302SOL     OW19804   2.363   1.092   5.585
 6302SOL    HW119805   2.277   1.142   5.573
 6302SOL    HW219806   2.440   1.150   5.557
 6303SOL     OW19807   0.314   6.261   5.758
 6303SOL    HW119808   0.271   6.176   5.788
 6303SOL    HW219809   0.282   6.336   5.815
 6304SOL     OW19810   3.805   1.635   3.807
 6304SOL    HW119811   3.814   1.729   3.774
 6304SOL    HW219812   3.716   1.624   3.852
 6305SOL     OW19813   5.985   5.997   0.266
 6305SOL    HW119814   5.936   6.014   0.180
 6305SOL    HW219815   5.977   5.901   0.291
 6306SOL     OW19816   0.358   3.494   3.952
 6306SOL    HW119817   0.372   3.555   4.030
 6306SOL    HW219818   0.442   3.441   3.936
 6307SOL     OW19819   3.177   3.011   4.167
 6307SOL    HW119820   3.246   2.968   4.109
 6307SOL    HW219821   3.090   3.016   4.117
 6308SOL     OW19822   0.895   2.425   5.749
 6308SOL    HW119823   0.904   2.328   5.729
 6308SOL    HW219824   0.862   2.472   5.667
 6309SOL     OW19825   0.062   0.404   4.324
 6309SOL    HW119826   0.039   0.358   4.239
 6309SOL    HW219827   0.161   0.407   4.335
 6310SOL     OW19828   2.107   6.545   2.699
 6310SOL    HW119829   2.139   6.451   2.689
 6310SOL    HW219830   2.094   6.585   2.608
 6311SOL     OW19831   5.186   1.747   6.588
 6311SOL    HW119832   5.121   1.776   6.658
 6311SOL    HW219833   5.279   1.755   6.624
 6312SOL     OW19834   1.555   6.896   6.360
 6312SOL    HW119835   1.620   6.922   6.432
 6312SOL    HW219836   1.463   6.927   6.385
 6313SOL     OW19837   5.746   6.525   3.077
 6313SOL    HW119838   5.648   6.507   3.062
 6313SOL    HW219839   5.762   6.623   3.071
 6314SOL     OW19840   3.884   0.692   1.746
 6314SOL    HW119841   3.790   0.683   1.714
 6314SOL    HW219842   3.911   0.789   1.745
 6315SOL     OW19843   2.000   1.736   4.517
 6315SOL    HW119844   1.999   1.647   4.564
 6315SOL    HW219845   2.010   1.809   4.585
 6316SOL     OW19846   4.929   1.986   5.665
 6316SOL    HW119847   4.839   1.946   5.645
 6316SOL    HW219848   4.952   2.051   5.593
 6317SOL     OW19849   4.871   3.735   2.550
 6317SOL    HW119850   4.851   3.814   2.493
 6317SOL    HW219851   4.878   3.653   2.492
 6318SOL     OW19852   4.886   6.832   6.462
 6318SOL    HW119853   4.951   6.907   6.476
 6318SOL    HW219854   4.837   6.848   6.376
 6319SOL     OW19855   6.570   1.893   4.879
 6319SOL    HW119856   6.635   1.818   4.887
 6319SOL    HW219857   6.482   1.858   4.849
 6320SOL     OW19858   6.961   0.105   4.203
 6320SOL    HW119859   6.891   0.165   4.241
 6320SOL    HW219860   7.005   0.054   4.276
 6321SOL     OW19861   4.839   3.396   0.270
 6321SOL    HW119862   4.933   3.415   0.242
 6321SOL    HW219863   4.776   3.449   0.215
 6322SOL     OW19864   3.403   1.884   0.334
 6322SOL    HW119865   3.473   1.955   0.345
 6322SOL    HW219866   3.312   1.926   0.335
 6323SOL     OW19867   1.655   1.812   1.455
 6323SOL    HW119868   1.734   1.772   1.501
 6323SOL    HW219869   1.590   1.740   1.431
 6324SOL     OW19870   4.037   1.876   0.754
 6324SOL    HW119871   4.085   1.958   0.786
 6324SOL    HW219872   4.098   1.823   0.696
 6325SOL     OW19873   2.182   2.962   3.139
 6325SOL    HW119874   2.179   3.044   3.083
 6325SOL    HW219875   2.125   2.974   3.220
 6326SOL     OW19876   5.318   5.657   5.630
 6326SOL    HW119877   5.221   5.655   5.654
 6326SOL    HW219878   5.355   5.748   5.648
 6327SOL     OW19879   6.824   1.480   4.115
 6327SOL    HW119880   6.864   1.569   4.094
 6327SOL    HW219881   6.866   1.443   4.198
 6328SOL     OW19882   4.689   3.776   6.690
 6328SOL    HW119883   4.700   3.828   6.775
 6328SOL    HW219884   4.593   3.780   6.661
 6329SOL     OW19885   0.913   2.810   5.127
 6329SOL    HW119886   1.011   2.791   5.129
 6329SOL    HW219887   0.875   2.798   5.219
 6330SOL     OW19888   5.697   6.798   2.193
 6330SOL    HW119889   5.744   6.778   2.279
 6330SOL    HW219890   5.759   6.781   2.116
 6331SOL     OW19891   6.639   2.989   4.688
 6331SOL    HW119892   6.609   2.991   4.783
 6331SOL    HW219893   6.561   2.971   4.628
 6332SOL     OW19894   1.012   2.710   1.177
 6332SOL    HW119895   0.978   2.787   1.231
 6332SOL    HW219896   1.104   2.685   1.207
 6333SOL     OW19897   4.973   6.772   6.182
 6333SOL    HW119898   5.031   6.835   6.235
 6333SOL    HW219899   5.011   6.680   6.187
 6334SOL     OW19900   2.586   1.212   1.811
 6334SOL    HW119901   2.622   1.254   1.894
 6334SOL    HW219902   2.562   1.283   1.745
 6335SOL     OW19903   4.949   0.984   0.447
 6335SOL    HW119904   4.935   0.895   0.492
 6335SOL    HW219905   4.955   0.971   0.348
 6336SOL     OW19906   0.405   3.864   6.338
 6336SOL    HW119907   0.408   3.962   6.356
 6336SOL    HW219908   0.436   3.814   6.419
 6337SOL     OW19909   4.288   5.586   4.810
 6337SOL    HW119910   4.385   5.589   4.787
 6337SOL    HW219911   4.244   5.673   4.787
 6338SOL     OW19912   3.162   2.206   4.590
 6338SOL    HW119913   3.097   2.239   4.659
 6338SOL    HW219914   3.234   2.154   4.635
 6339SOL     OW19915   1.088   3.865   3.828
 6339SOL    HW119916   1.179   3.832   3.855
 6339SOL    HW219917   1.089   3.964   3.822
 6340SOL     OW19918   2.183   3.539   1.162
 6340SOL    HW119919   2.227   3.602   1.226
 6340SOL    HW219920   2.139   3.592   1.089
 6341SOL     OW19921   0.536   3.848   3.418
 6341SOL    HW119922   0.604   3.868   3.489
 6341SOL    HW219923   0.580   3.851   3.328
 6342SOL     OW19924   3.449   1.259   0.919
 6342SOL    HW119925   3.514   1.244   0.844
 6342SOL    HW219926   3.362   1.216   0.895
 6343SOL     OW19927   4.040   6.709   6.467
 6343SOL    HW119928   3.974   6.676   6.400
 6343SOL    HW219929   4.038   6.809   6.469
 6344SOL     OW19930   5.892   2.089   4.028
 6344SOL    HW119931   5.928   2.001   3.998
 6344SOL    HW219932   5.800   2.102   3.992
 6345SOL     OW19933   4.769   2.853   1.780
 6345SOL    HW119934   4.836   2.821   1.848
 6345SOL    HW219935   4.720   2.932   1.817
 6346SOL     OW19936   6.826   4.299   4.777
 6346SOL    HW119937   6.924   4.310   4.758
 6346SOL    HW219938   6.781   4.388   4.771
 6347SOL     OW19939   2.265   1.455   1.389
 6347SOL    HW119940   2.279   1.554   1.383
 6347SOL    HW219941   2.353   1.409   1.381
 6348SOL     OW19942   0.917   2.525   6.244
 6348SOL    HW119943   0.939   2.459   6.172
 6348SOL    HW219944   0.999   2.576   6.268
 6349SOL     OW19945   1.601   0.521   0.671
 6349SOL    HW119946   1.599   0.544   0.768
 6349SOL    HW219947   1.647   0.433   0.658
 6350SOL     OW19948   0.899   5.051   2.839
 6350SOL    HW119949   0.927   4.956   2.845
 6350SOL    HW219950   0.974   5.110   2.867
 6351SOL     OW19951   6.503   4.359   3.693
 6351SOL    HW119952   6.529   4.432   3.630
 6351SOL    HW219953   6.404   4.345   3.689
 6352SOL     OW19954   2.578   0.366   4.062
 6352SOL    HW119955   2.560   0.267   4.055
 6352SOL    HW219956   2.491   0.415   4.063
 6353SOL     OW19957   2.443   5.436   6.850
 6353SOL    HW119958   2.350   5.453   6.815
 6353SOL    HW219959   2.468   5.342   6.832
 6354SOL     OW19960   3.645   5.988   3.319
 6354SOL    HW119961   3.648   6.050   3.240
 6354SOL    HW219962   3.700   5.907   3.301
 6355SOL     OW19963   2.688   5.826   0.253
 6355SOL    HW119964   2.787   5.818   0.239
 6355SOL    HW219965   2.666   5.802   0.348
 6356SOL     OW19966   5.274   5.389   0.386
 6356SOL    HW119967   5.358   5.367   0.338
 6356SOL    HW219968   5.195   5.364   0.329
 6357SOL     OW19969   5.871   2.907   2.236
 6357SOL    HW119970   5.965   2.920   2.266
 6357SOL    HW219971   5.848   2.974   2.166
 6358SOL     OW19972   0.446   1.891   6.617
 6358SOL    HW119973   0.496   1.977   6.616
 6358SOL    HW219974   0.362   1.900   6.563
 6359SOL     OW19975   6.117   6.218   0.691
 6359SOL    HW119976   6.111   6.313   0.723
 6359SOL    HW219977   6.207   6.181   0.714
 6360SOL     OW19978   0.681   3.291   4.053
 6360SOL    HW119979   0.678   3.296   3.953
 6360SOL    HW219980   0.698   3.196   4.081
 6361SOL     OW19981   0.999   0.524   0.866
 6361SOL    HW119982   1.092   0.505   0.897
 6361SOL    HW219983   0.942   0.549   0.944
 6362SOL     OW19984   1.835   6.037   6.812
 6362SOL    HW119985   1.930   6.012   6.827
 6362SOL    HW219986   1.777   5.989   6.878
 6363SOL     OW19987   3.023   5.136   4.259
 6363SOL    HW119988   3.116   5.103   4.241
 6363SOL    HW219989   2.966   5.060   4.290
 6364SOL     OW19990   2.511   2.605   5.409
 6364SOL    HW119991   2.485   2.616   5.313
 6364SOL    HW219992   2.491   2.689   5.459
 6365SOL     OW19993   5.764   6.211   4.967
 6365SOL    HW119994   5.758   6.139   5.036
 6365SOL    HW219995   5.699   6.192   4.894
 6366SOL     OW19996   0.081   6.347   4.851
 6366SOL    HW119997   0.051   6.386   4.764
 6366SOL    HW219998   0.149   6.407   4.893
 6367SOL     OW19999   3.367   2.148   2.807
 6367SOL    HW120000   3.279   2.134   2.852
 6367SOL    HW220001   3.387   2.246   2.803
 6368SOL     OW20002   4.279   4.695   4.340
 6368SOL    HW120003   4.279   4.720   4.436
 6368SOL    HW220004   4.190   4.717   4.300
 6369SOL     OW20005   1.931   0.258   4.316
 6369SOL    HW120006   2.010   0.286   4.262
 6369SOL    HW220007   1.963   0.213   4.400
 6370SOL     OW20008   5.478   4.212   3.378
 6370SOL    HW120009   5.501   4.298   3.422
 6370SOL    HW220010   5.482   4.138   3.445
 6371SOL     OW20011   5.153   4.073   1.897
 6371SOL    HW120012   5.157   4.160   1.946
 6371SOL    HW220013   5.203   4.003   1.949
 6372SOL     OW20014   1.142   1.461   1.832
 6372SOL    HW120015   1.161   1.519   1.753
 6372SOL    HW220016   1.156   1.365   1.807
 6373SOL     OW20017   5.883   4.138   2.297
 6373SOL    HW120018   5.890   4.062   2.232
 6373SOL    HW220019   5.788   4.168   2.303
 6374SOL     OW20020   4.453   3.026   0.466
 6374SOL    HW120021   4.540   3.069   0.442
 6374SOL    HW220022   4.464   2.927   0.473
 6375SOL     OW20023   0.896   2.536   1.602
 6375SOL    HW120024   0.973   2.593   1.632
 6375SOL    HW220025   0.901   2.523   1.503
 6376SOL     OW20026   3.983   1.562   5.807
 6376SOL    HW120027   3.903   1.622   5.802
 6376SOL    HW220028   4.061   1.607   5.764
 6377SOL     OW20029   6.866   1.303   5.462
 6377SOL    HW120030   6.846   1.206   5.480
 6377SOL    HW220031   6.785   1.347   5.424
 6378SOL     OW20032   4.995   5.672   3.294
 6378SOL    HW120033   5.023   5.596   3.353
 6378SOL    HW220034   5.052   5.673   3.212
 6379SOL     OW20035   1.007   5.066   5.838
 6379SOL    HW120036   1.104   5.052   5.855
 6379SOL    HW220037   0.958   4.981   5.856
 6380SOL     OW20038   0.160   2.943   4.346
 6380SOL    HW120039   0.104   2.929   4.264
 6380SOL    HW220040   0.128   2.882   4.419
 6381SOL     OW20041   4.119   2.807   0.404
 6381SOL    HW120042   4.182   2.792   0.480
 6381SOL    HW220043   4.154   2.761   0.322
 6382SOL     OW20044   3.563   1.636   1.259
 6382SOL    HW120045   3.468   1.621   1.287
 6382SOL    HW220046   3.577   1.598   1.168
 6383SOL     OW20047   2.136   2.411   2.161
 6383SOL    HW120048   2.144   2.368   2.251
 6383SOL    HW220049   2.087   2.350   2.099
 6384SOL     OW20050   5.714   3.141   2.150
 6384SOL    HW120051   5.770   3.223   2.166
 6384SOL    HW220052   5.651   3.158   2.074
 6385SOL     OW20053   6.565   3.711   2.014
 6385SOL    HW120054   6.617   3.627   2.028
 6385SOL    HW220055   6.628   3.787   1.995
 6386SOL     OW20056   1.725   3.780   0.289
 6386SOL    HW120057   1.698   3.761   0.194
 6386SOL    HW220058   1.702   3.874   0.313
 6387SOL     OW20059   6.005   1.217   0.497
 6387SOL    HW120060   6.050   1.249   0.414
 6387SOL    HW220061   5.934   1.150   0.473
 6388SOL     OW20062   5.881   4.979   2.120
 6388SOL    HW120063   5.857   5.020   2.209
 6388SOL    HW220064   5.889   4.880   2.131
 6389SOL     OW20065   1.278   6.788   1.438
 6389SOL    HW120066   1.309   6.748   1.352
 6389SOL    HW220067   1.356   6.798   1.500
 6390SOL     OW20068   6.577   0.188   6.168
 6390SOL    HW120069   6.576   0.093   6.198
 6390SOL    HW220070   6.521   0.198   6.085
 6391SOL     OW20071   1.536   1.253   5.930
 6391SOL    HW120072   1.467   1.223   5.864
 6391SOL    HW220073   1.491   1.290   6.011
 6392SOL     OW20074   3.001   6.254   3.602
 6392SOL    HW120075   3.008   6.287   3.697
 6392SOL    HW220076   3.061   6.175   3.590
 6393SOL     OW20077   5.686   6.065   1.569
 6393SOL    HW120078   5.599   6.015   1.575
 6393SOL    HW220079   5.698   6.118   1.653
 6394SOL     OW20080   1.555   4.934   1.163
 6394SOL    HW120081   1.600   5.023   1.166
 6394SOL    HW220082   1.621   4.862   1.183
 6395SOL     OW20083   0.235   2.874   2.153
 6395SOL    HW120084   0.200   2.843   2.241
 6395SOL    HW220085   0.159   2.904   2.095
 6396SOL     OW20086   6.535   4.083   5.684
 6396SOL    HW120087   6.450   4.082   5.736
 6396SOL    HW220088   6.607   4.127   5.737
 6397SOL     OW20089   6.426   1.225   2.383
 6397SOL    HW120090   6.480   1.144   2.363
 6397SOL    HW220091   6.423   1.285   2.303
 6398SOL     OW20092   1.689   6.855   1.766
 6398SOL    HW120093   1.653   6.844   1.859
 6398SOL    HW220094   1.777   6.808   1.758
 6399SOL     OW20095   1.511   0.153   6.919
 6399SOL    HW120096   1.421   0.109   6.923
 6399SOL    HW220097   1.542   0.157   6.824
 6400SOL     OW20098   1.991   4.776   2.712
 6400SOL    HW120099   2.068   4.742   2.659
 6400SOL    HW220100   2.007   4.872   2.736
 6401SOL     OW20101   5.349   5.144   3.157
 6401SOL    HW120102   5.345   5.094   3.071
 6401SOL    HW220103   5.317   5.085   3.232
 6402SOL     OW20104   1.785   3.181   3.767
 6402SOL    HW120105   1.718   3.134   3.825
 6402SOL    HW220106   1.778   3.279   3.782
 6403SOL     OW20107   5.968   6.503   5.953
 6403SOL    HW120108   5.912   6.424   5.929
 6403SOL    HW220109   6.048   6.473   6.006
 6404SOL     OW20110   4.162   1.698   2.555
 6404SOL    HW120111   4.192   1.693   2.651
 6404SOL    HW220112   4.081   1.756   2.548
 6405SOL     OW20113   4.434   1.532   4.066
 6405SOL    HW120114   4.396   1.591   4.137
 6405SOL    HW220115   4.486   1.458   4.108
 6406SOL     OW20116   1.635   3.165   2.041
 6406SOL    HW120117   1.680   3.228   1.978
 6406SOL    HW220118   1.562   3.213   2.090
 6407SOL     OW20119   2.302   0.054   3.055
 6407SOL    HW120120   2.306   0.113   3.136
 6407SOL    HW220121   2.221   0.076   3.001
 6408SOL     OW20122   5.875   0.430   0.722
 6408SOL    HW120123   5.954   0.382   0.760
 6408SOL    HW220124   5.834   0.375   0.649
 6409SOL     OW20125   6.951   4.761   3.119
 6409SOL    HW120126   6.902   4.678   3.091
 6409SOL    HW220127   6.884   4.831   3.143
 6410SOL     OW20128   2.229   1.028   6.594
 6410SOL    HW120129   2.139   1.058   6.561
 6410SOL    HW220130   2.289   1.107   6.603
 6411SOL     OW20131   1.368   2.947   2.246
 6411SOL    HW120132   1.451   2.921   2.197
 6411SOL    HW220133   1.310   3.002   2.186
 6412SOL     OW20134   2.608   0.841   6.973
 6412SOL    HW120135   2.591   0.899   0.022
 6412SOL    HW220136   2.524   0.791   6.949
 6413SOL     OW20137   3.859   4.978   4.661
 6413SOL    HW120138   3.796   4.992   4.737
 6413SOL    HW220139   3.843   5.048   4.591
 6414SOL     OW20140   6.054   6.663   6.588
 6414SOL    HW120141   6.075   6.747   6.537
 6414SOL    HW220142   6.107   6.587   6.549
 6415SOL     OW20143   1.615   3.399   4.067
 6415SOL    HW120144   1.615   3.301   4.085
 6415SOL    HW220145   1.684   3.421   3.998
 6416SOL     OW20146   2.791   0.114   6.382
 6416SOL    HW120147   2.739   0.152   6.305
 6416SOL    HW220148   2.748   0.142   6.468
 6417SOL     OW20149   5.183   2.797   0.751
 6417SOL    HW120150   5.206   2.774   0.845
 6417SOL    HW220151   5.260   2.846   0.709
 6418SOL     OW20152   5.236   4.287   2.913
 6418SOL    HW120153   5.272   4.358   2.973
 6418SOL    HW220154   5.236   4.200   2.962
 6419SOL     OW20155   0.758   5.395   4.776
 6419SOL    HW120156   0.738   5.426   4.684
 6419SOL    HW220157   0.847   5.432   4.805
 6420SOL     OW20158   1.961   1.543   3.955
 6420SOL    HW120159   1.949   1.453   3.913
 6420SOL    HW220160   1.929   1.614   3.893
 6421SOL     OW20161   4.457   0.406   1.230
 6421SOL    HW120162   4.387   0.428   1.298
 6421SOL    HW220163   4.457   0.476   1.158
 6422SOL     OW20164   6.640   1.451   5.394
 6422SOL    HW120165   6.656   1.546   5.368
 6422SOL    HW220166   6.565   1.414   5.339
 6423SOL     OW20167   4.858   5.724   4.685
 6423SOL    HW120168   4.762   5.716   4.708
 6423SOL    HW220169   4.871   5.800   4.621
 6424SOL     OW20170   1.579   3.686   4.955
 6424SOL    HW120171   1.650   3.699   5.024
 6424SOL    HW220172   1.528   3.603   4.975
 6425SOL     OW20173   0.030   5.595   2.727
 6425SOL    HW120174   7.025   5.633   2.642
 6425SOL    HW220175   6.984   5.578   2.790
 6426SOL     OW20176   5.371   5.464   3.761
 6426SOL    HW120177   5.377   5.397   3.687
 6426SOL    HW220178   5.417   5.428   3.842
 6427SOL     OW20179   2.970   3.740   3.381
 6427SOL    HW120180   3.016   3.766   3.465
 6427SOL    HW220181   2.974   3.815   3.315
 6428SOL     OW20182   5.444   3.537   0.520
 6428SOL    HW120183   5.428   3.590   0.604
 6428SOL    HW220184   5.491   3.452   0.543
 6429SOL     OW20185   1.071   0.532   5.672
 6429SOL    HW120186   1.050   0.617   5.720
 6429SOL    HW220187   1.020   0.456   5.714
 6430SOL     OW20188   6.516   0.854   5.073
 6430SOL    HW120189   6.459   0.774   5.057
 6430SOL    HW220190   6.592   0.830   5.133
 6431SOL     OW20191   4.693   5.387   2.750
 6431SOL    HW120192   4.658   5.347   2.835
 6431SOL    HW220193   4.688   5.319   2.677
 6432SOL     OW20194   3.710   4.239   6.505
 6432SOL    HW120195   3.685   4.277   6.417
 6432SOL    HW220196   3.771   4.302   6.553
 6433SOL     OW20197   3.332   5.003   0.143
 6433SOL    HW120198   3.313   5.041   0.053
 6433SOL    HW220199   3.275   5.048   0.212
 6434SOL     OW20200   2.791   6.675   5.975
 6434SOL    HW120201   2.874   6.695   6.026
 6434SOL    HW220202   2.794   6.722   5.887
 6435SOL     OW20203   6.379   0.082   0.944
 6435SOL    HW120204   6.317   0.141   0.996
 6435SOL    HW220205   6.432   0.137   0.880
 6436SOL     OW20206   1.248   3.810   3.405
 6436SOL    HW120207   1.269   3.722   3.447
 6436SOL    HW220208   1.261   3.803   3.306
 6437SOL     OW20209   1.721   2.489   6.275
 6437SOL    HW120210   1.799   2.426   6.281
 6437SOL    HW220211   1.697   2.521   6.366
 6438SOL     OW20212   1.110   5.111   6.455
 6438SOL    HW120213   1.195   5.164   6.455
 6438SOL    HW220214   1.112   5.045   6.531
 6439SOL     OW20215   5.668   0.866   2.875
 6439SOL    HW120216   5.715   0.781   2.849
 6439SOL    HW220217   5.734   0.930   2.913
 6440SOL     OW20218   2.949   0.532   6.055
 6440SOL    HW120219   3.007   0.549   5.975
 6440SOL    HW220220   3.000   0.480   6.123
 6441SOL     OW20221   0.616   1.023   1.549
 6441SOL    HW120222   0.535   0.967   1.568
 6441SOL    HW220223   0.594   1.089   1.477
 6442SOL     OW20224   2.306   1.898   4.899
 6442SOL    HW120225   2.364   1.899   4.817
 6442SOL    HW220226   2.356   1.938   4.976
 6443SOL     OW20227   3.491   2.208   5.901
 6443SOL    HW120228   3.401   2.196   5.944
 6443SOL    HW220229   3.479   2.245   5.809
 6444SOL     OW20230   6.419   2.577   4.548
 6444SOL    HW120231   6.381   2.601   4.459
 6444SOL    HW220232   6.405   2.480   4.565
 6445SOL     OW20233   4.069   3.444   3.310
 6445SOL    HW120234   4.018   3.357   3.310
 6445SOL    HW220235   4.083   3.473   3.405
 6446SOL     OW20236   0.529   2.057   0.570
 6446SOL    HW120237   0.476   1.993   0.625
 6446SOL    HW220238   0.467   2.121   0.525
 6447SOL     OW20239   6.357   4.607   1.712
 6447SOL    HW120240   6.364   4.647   1.804
 6447SOL    HW220241   6.261   4.604   1.685
 6448SOL     OW20242   5.087   4.869   1.267
 6448SOL    HW120243   5.186   4.854   1.268
 6448SOL    HW220244   5.045   4.822   1.345
 6449SOL     OW20245   2.848   5.035   1.828
 6449SOL    HW120246   2.794   4.961   1.867
 6449SOL    HW220247   2.942   5.004   1.815
 6450SOL     OW20248   1.137   3.853   6.975
 6450SOL    HW120249   1.049   3.900   6.973
 6450SOL    HW220250   1.132   3.775   0.007
 6451SOL     OW20251   2.769   1.395   5.925
 6451SOL    HW120252   2.864   1.398   5.894
 6451SOL    HW220253   2.765   1.415   6.022
 6452SOL     OW20254   4.921   3.915   3.021
 6452SOL    HW120255   4.904   3.817   3.031
 6452SOL    HW220256   5.003   3.929   2.966
 6453SOL     OW20257   2.712   6.836   1.287
 6453SOL    HW120258   2.799   6.803   1.324
 6453SOL    HW220259   2.660   6.759   1.250
 6454SOL     OW20260   0.824   1.433   2.529
 6454SOL    HW120261   0.858   1.511   2.582
 6454SOL    HW220262   0.878   1.424   2.445
 6455SOL     OW20263   6.631   3.419   3.408
 6455SOL    HW120264   6.582   3.399   3.492
 6455SOL    HW220265   6.568   3.456   3.340
 6456SOL     OW20266   1.365   1.103   2.669
 6456SOL    HW120267   1.375   1.025   2.731
 6456SOL    HW220268   1.275   1.144   2.681
 6457SOL     OW20269   4.718   6.578   1.169
 6457SOL    HW120270   4.720   6.642   1.093
 6457SOL    HW220271   4.625   6.573   1.205
 6458SOL     OW20272   1.632   5.153   5.045
 6458SOL    HW120273   1.596   5.067   5.080
 6458SOL    HW220274   1.732   5.149   5.042
 6459SOL     OW20275   6.387   2.661   2.810
 6459SOL    HW120276   6.405   2.643   2.907
 6459SOL    HW220277   6.289   2.652   2.792
 6460SOL     OW20278   5.966   5.987   5.992
 6460SOL    HW120279   5.929   5.928   5.921
 6460SOL    HW220280   5.938   6.082   5.975
 6461SOL     OW20281   2.526   4.431   0.270
 6461SOL    HW120282   2.441   4.484   0.276
 6461SOL    HW220283   2.507   4.342   0.230
 6462SOL     OW20284   0.332   2.986   4.616
 6462SOL    HW120285   0.358   2.892   4.635
 6462SOL    HW220286   0.283   2.990   4.528
 6463SOL     OW20287   5.078   6.670   0.743
 6463SOL    HW120288   5.043   6.576   0.735
 6463SOL    HW220289   5.093   6.691   0.839
 6464SOL     OW20290   1.843   5.945   5.164
 6464SOL    HW120291   1.866   6.014   5.232
 6464SOL    HW220292   1.764   5.893   5.195
 6465SOL     OW20293   6.807   2.803   2.624
 6465SOL    HW120294   6.749   2.729   2.657
 6465SOL    HW220295   6.891   2.766   2.586
 6466SOL     OW20296   6.957   1.751   0.068
 6466SOL    HW120297   6.985   1.730   7.004
 6466SOL    HW220298   7.013   1.698   0.132
 6467SOL     OW20299   3.655   0.387   1.113
 6467SOL    HW120300   3.657   0.294   1.150
 6467SOL    HW220301   3.588   0.392   1.039
 6468SOL     OW20302   3.535   6.419   1.784
 6468SOL    HW120303   3.584   6.436   1.870
 6468SOL    HW220304   3.576   6.340   1.738
 6469SOL     OW20305   3.457   2.143   4.146
 6469SOL    HW120306   3.377   2.173   4.198
 6469SOL    HW220307   3.430   2.126   4.051
 6470SOL     OW20308   6.030   2.566   0.361
 6470SOL    HW120309   5.947   2.611   0.394
 6470SOL    HW220310   6.010   2.469   0.343
 6471SOL     OW20311   0.841   6.214   5.623
 6471SOL    HW120312   0.747   6.223   5.656
 6471SOL    HW220313   0.879   6.305   5.606
 6472SOL     OW20314   6.051   5.723   2.803
 6472SOL    HW120315   5.967   5.682   2.837
 6472SOL    HW220316   6.076   5.681   2.715
 6473SOL     OW20317   2.083   1.758   4.876
 6473SOL    HW120318   2.164   1.817   4.873
 6473SOL    HW220319   2.110   1.668   4.911
 6474SOL     OW20320   3.518   5.554   5.959
 6474SOL    HW120321   3.561   5.540   6.048
 6474SOL    HW220322   3.520   5.652   5.936
 6475SOL     OW20323   5.750   4.668   3.647
 6475SOL    HW120324   5.840   4.653   3.606
 6475SOL    HW220325   5.717   4.759   3.622
 6476SOL     OW20326   4.706   3.176   6.297
 6476SOL    HW120327   4.732   3.268   6.324
 6476SOL    HW220328   4.772   3.141   6.231
 6477SOL     OW20329   6.112   5.088   0.829
 6477SOL    HW120330   6.102   5.187   0.828
 6477SOL    HW220331   6.041   5.048   0.887
 6478SOL     OW20332   3.433   6.858   2.588
 6478SOL    HW120333   3.457   6.860   2.491
 6478SOL    HW220334   3.464   6.942   2.632
 6479SOL     OW20335   3.436   5.125   4.572
 6479SOL    HW120336   3.414   5.156   4.664
 6479SOL    HW220337   3.428   5.203   4.509
 6480SOL     OW20338   2.007   1.425   0.177
 6480SOL    HW120339   2.076   1.491   0.146
 6480SOL    HW220340   2.028   1.335   0.139
 6481SOL     OW20341   3.339   2.634   1.695
 6481SOL    HW120342   3.381   2.551   1.731
 6481SOL    HW220343   3.393   2.713   1.724
 6482SOL     OW20344   6.375   2.524   6.306
 6482SOL    HW120345   6.350   2.606   6.358
 6482SOL    HW220346   6.319   2.517   6.224
 6483SOL     OW20347   0.354   6.203   3.948
 6483SOL    HW120348   0.361   6.274   4.018
 6483SOL    HW220349   0.440   6.200   3.896
 6484SOL     OW20350   3.040   1.186   2.547
 6484SOL    HW120351   2.973   1.113   2.561
 6484SOL    HW220352   3.014   1.241   2.467
 6485SOL     OW20353   1.874   5.903   3.617
 6485SOL    HW120354   1.957   5.847   3.620
 6485SOL    HW220355   1.827   5.895   3.705
 6486SOL     OW20356   0.619   5.305   2.489
 6486SOL    HW120357   0.691   5.239   2.465
 6486SOL    HW220358   0.619   5.319   2.588
 6487SOL     OW20359   0.810   6.476   5.492
 6487SOL    HW120360   0.890   6.535   5.491
 6487SOL    HW220361   0.795   6.438   5.401
 6488SOL     OW20362   4.520   5.967   4.755
 6488SOL    HW120363   4.462   6.038   4.715
 6488SOL    HW220364   4.515   5.973   4.855
 6489SOL     OW20365   3.538   3.386   6.233
 6489SOL    HW120366   3.467   3.318   6.252
 6489SOL    HW220367   3.553   3.392   6.134
 6490SOL     OW20368   3.245   1.288   6.313
 6490SOL    HW120369   3.283   1.300   6.221
 6490SOL    HW220370   3.147   1.309   6.311
 6491SOL     OW20371   2.924   0.838   1.760
 6491SOL    HW120372   2.958   0.804   1.848
 6491SOL    HW220373   2.844   0.895   1.776
 6492SOL     OW20374   4.151   3.390   4.892
 6492SOL    HW120375   4.231   3.417   4.839
 6492SOL    HW220376   4.075   3.451   4.872
 6493SOL     OW20377   1.210   4.608   6.615
 6493SOL    HW120378   1.298   4.578   6.651
 6493SOL    HW220379   1.140   4.541   6.638
 6494SOL     OW20380   6.736   6.613   2.643
 6494SOL    HW120381   6.824   6.644   2.680
 6494SOL    HW220382   6.677   6.693   2.628
 6495SOL     OW20383   6.304   0.538   4.486
 6495SOL    HW120384   6.312   0.452   4.435
 6495SOL    HW220385   6.374   0.540   4.558
 6496SOL     OW20386   6.017   0.019   1.624
 6496SOL    HW120387   5.932   0.049   1.579
 6496SOL    HW220388   6.059   6.977   1.570
 6497SOL     OW20389   1.379   0.157   1.118
 6497SOL    HW120390   1.450   0.138   1.185
 6497SOL    HW220391   1.324   0.235   1.150
 6498SOL     OW20392   0.574   3.979   4.649
 6498SOL    HW120393   0.649   4.037   4.682
 6498SOL    HW220394   0.576   3.975   4.550
 6499SOL     OW20395   5.720   3.963   4.859
 6499SOL    HW120396   5.659   3.885   4.868
 6499SOL    HW220397   5.665   4.046   4.844
 6500SOL     OW20398   0.271   4.127   2.592
 6500SOL    HW120399   0.306   4.038   2.621
 6500SOL    HW220400   0.215   4.115   2.510
 6501SOL     OW20401   0.020   1.083   1.161
 6501SOL    HW120402   7.014   1.020   1.229
 6501SOL    HW220403   0.111   1.052   1.133
 6502SOL     OW20404   6.987   3.779   1.434
 6502SOL    HW120405   6.888   3.794   1.437
 6502SOL    HW220406   7.030   3.851   1.379
 6503SOL     OW20407   5.482   1.068   3.710
 6503SOL    HW120408   5.488   0.995   3.779
 6503SOL    HW220409   5.574   1.096   3.684
 6504SOL     OW20410   3.709   6.289   7.012
 6504SOL    HW120411   3.722   6.372   0.036
 6504SOL    HW220412   3.669   6.218   0.039
 6505SOL     OW20413   4.483   6.290   5.953
 6505SOL    HW120414   4.532   6.333   6.029
 6505SOL    HW220415   4.454   6.198   5.980
 6506SOL     OW20416   0.131   2.814   3.676
 6506SOL    HW120417   0.220   2.806   3.722
 6506SOL    HW220418   0.133   2.893   3.614
 6507SOL     OW20419   2.843   5.631   5.927
 6507SOL    HW120420   2.779   5.686   5.874
 6507SOL    HW220421   2.793   5.581   5.999
 6508SOL     OW20422   1.592   0.544   2.423
 6508SOL    HW120423   1.592   0.451   2.387
 6508SOL    HW220424   1.507   0.590   2.398
 6509SOL     OW20425   4.827   1.546   4.888
 6509SOL    HW120426   4.823   1.643   4.914
 6509SOL    HW220427   4.872   1.494   4.961
 6510SOL     OW20428   5.154   5.388   6.345
 6510SOL    HW120429   5.179   5.291   6.352
 6510SOL    HW220430   5.204   5.429   6.269
 6511SOL     OW20431   4.492   1.302   5.067
 6511SOL    HW120432   4.524   1.215   5.030
 6511SOL    HW220433   4.393   1.310   5.055
 6512SOL     OW20434   3.174   6.735   2.555
 6512SOL    HW120435   3.186   6.643   2.518
 6512SOL    HW220436   3.262   6.781   2.560
 6513SOL     OW20437   1.787   6.164   3.933
 6513SOL    HW120438   1.833   6.196   4.016
 6513SOL    HW220439   1.747   6.242   3.885
 6514SOL     OW20440   5.940   0.946   4.447
 6514SOL    HW120441   6.012   0.893   4.403
 6514SOL    HW220442   5.973   0.982   4.534
 6515SOL     OW20443   1.465   3.874   2.697
 6515SOL    HW120444   1.415   3.788   2.714
 6515SOL    HW220445   1.440   3.909   2.607
 6516SOL     OW20446   0.000   2.947   1.120
 6516SOL    HW120447   0.015   2.988   1.210
 6516SOL    HW220448   7.003   3.018   1.055
 6517SOL     OW20449   0.269   1.764   1.507
 6517SOL    HW120450   0.226   1.680   1.540
 6517SOL    HW220451   0.198   1.835   1.496
 6518SOL     OW20452   0.389   0.688   2.100
 6518SOL    HW120453   0.330   0.769   2.105
 6518SOL    HW220454   0.457   0.693   2.173
 6519SOL     OW20455   7.008   2.061   2.884
 6519SOL    HW120456   0.015   2.008   2.960
 6519SOL    HW220457   7.024   2.012   2.798
 6520SOL     OW20458   6.889   5.583   6.901
 6520SOL    HW120459   6.917   5.679   6.904
 6520SOL    HW220460   6.826   5.569   6.824
 6521SOL     OW20461   2.301   2.845   3.884
 6521SOL    HW120462   2.283   2.823   3.980
 6521SOL    HW220463   2.325   2.761   3.834
 6522SOL     OW20464   2.329   4.719   5.210
 6522SOL    HW120465   2.416   4.702   5.164
 6522SOL    HW220466   2.329   4.813   5.247
 6523SOL     OW20467   3.706   0.618   6.641
 6523SOL    HW120468   3.681   0.639   6.735
 6523SOL    HW220469   3.663   0.532   6.614
 6524SOL     OW20470   2.828   2.627   1.323
 6524SOL    HW120471   2.898   2.699   1.332
 6524SOL    HW220472   2.860   2.545   1.370
 6525SOL     OW20473   2.020   5.147   3.362
 6525SOL    HW120474   2.000   5.207   3.440
 6525SOL    HW220475   1.990   5.054   3.384
 6526SOL     OW20476   0.703   0.394   1.217
 6526SOL    HW120477   0.617   0.355   1.249
 6526SOL    HW220478   0.704   0.392   1.117
 6527SOL     OW20479   6.620   2.142   0.215
 6527SOL    HW120480   6.582   2.113   0.128
 6527SOL    HW220481   6.667   2.066   0.259
 6528SOL     OW20482   6.697   1.714   5.362
 6528SOL    HW120483   6.664   1.725   5.455
 6528SOL    HW220484   6.651   1.780   5.302
 6529SOL     OW20485   1.057   0.929   2.769
 6529SOL    HW120486   1.126   0.884   2.825
 6529SOL    HW220487   0.970   0.879   2.776
 6530SOL     OW20488   0.261   1.556   1.000
 6530SOL    HW120489   0.283   1.604   1.085
 6530SOL    HW220490   0.325   1.584   0.928
 6531SOL     OW20491   5.104   3.466   5.071
 6531SOL    HW120492   5.026   3.507   5.023
 6531SOL    HW220493   5.185   3.521   5.053
 6532SOL     OW20494   1.979   1.407   0.854
 6532SOL    HW120495   1.966   1.350   0.935
 6532SOL    HW220496   2.011   1.497   0.881
 6533SOL     OW20497   3.960   5.887   0.388
 6533SOL    HW120498   3.957   5.789   0.405
 6533SOL    HW220499   4.017   5.905   0.307
 6534SOL     OW20500   4.893   5.185   1.754
 6534SOL    HW120501   4.907   5.147   1.663
 6534SOL    HW220502   4.795   5.190   1.773
 6535SOL     OW20503   6.220   4.677   4.342
 6535SOL    HW120504   6.206   4.686   4.441
 6535SOL    HW220505   6.308   4.717   4.317
 6536SOL     OW20506   0.496   1.821   5.065
 6536SOL    HW120507   0.424   1.887   5.045
 6536SOL    HW220508   0.563   1.821   4.990
 6537SOL     OW20509   6.684   4.640   5.068
 6537SOL    HW120510   6.633   4.565   5.026
 6537SOL    HW220511   6.620   4.709   5.101
 6538SOL     OW20512   1.357   3.477   5.751
 6538SOL    HW120513   1.278   3.417   5.763
 6538SOL    HW220514   1.336   3.567   5.790
 6539SOL     OW20515   4.938   0.380   6.675
 6539SOL    HW120516   4.944   0.462   6.733
 6539SOL    HW220517   4.844   0.348   6.673
 6540SOL     OW20518   3.614   2.743   6.160
 6540SOL    HW120519   3.580   2.810   6.227
 6540SOL    HW220520   3.650   2.791   6.080
 6541SOL     OW20521   5.511   2.024   6.132
 6541SOL    HW120522   5.455   1.950   6.095
 6541SOL    HW220523   5.566   1.989   6.208
 6542SOL     OW20524   1.328   3.350   4.039
 6542SOL    HW120525   1.361   3.444   4.039
 6542SOL    HW220526   1.396   3.290   4.081
 6543SOL     OW20527   4.212   2.636   5.658
 6543SOL    HW120528   4.236   2.635   5.561
 6543SOL    HW220529   4.115   2.656   5.668
 6544SOL     OW20530   0.867   6.704   3.060
 6544SOL    HW120531   0.902   6.789   3.021
 6544SOL    HW220532   0.940   6.655   3.107
 6545SOL     OW20533   3.922   0.533   0.213
 6545SOL    HW120534   3.996   0.481   0.172
 6545SOL    HW220535   3.864   0.572   0.141
 6546SOL     OW20536   3.405   4.270   6.340
 6546SOL    HW120537   3.439   4.182   6.306
 6546SOL    HW220538   3.443   4.344   6.284
 6547SOL     OW20539   4.933   0.662   6.528
 6547SOL    HW120540   4.893   0.666   6.437
 6547SOL    HW220541   5.022   0.616   6.523
 6548SOL     OW20542   1.615   2.727   0.702
 6548SOL    HW120543   1.577   2.818   0.719
 6548SOL    HW220544   1.675   2.702   0.779
 6549SOL     OW20545   4.522   0.401   2.562
 6549SOL    HW120546   4.534   0.427   2.658
 6549SOL    HW220547   4.452   0.329   2.555
 6550SOL     OW20548   0.419   6.726   4.020
 6550SOL    HW120549   0.424   6.821   4.050
 6550SOL    HW220550   0.376   6.722   3.929
 6551SOL     OW20551   2.258   3.709   1.742
 6551SOL    HW120552   2.207   3.692   1.657
 6551SOL    HW220553   2.295   3.622   1.776
 6552SOL     OW20554   2.174   6.703   0.433
 6552SOL    HW120555   2.113   6.782   0.421
 6552SOL    HW220556   2.121   6.619   0.424
 6553SOL     OW20557   0.808   2.350   3.074
 6553SOL    HW120558   0.748   2.273   3.055
 6553SOL    HW220559   0.803   2.415   2.999
 6554SOL     OW20560   1.805   0.533   4.383
 6554SOL    HW120561   1.845   0.447   4.350
 6554SOL    HW220562   1.705   0.525   4.384
 6555SOL     OW20563   6.022   1.989   3.478
 6555SOL    HW120564   5.969   2.010   3.396
 6555SOL    HW220565   5.975   1.918   3.531
 6556SOL     OW20566   6.147   3.533   3.087
 6556SOL    HW120567   6.186   3.461   3.030
 6556SOL    HW220568   6.190   3.620   3.065
 6557SOL     OW20569   2.380   0.458   3.491
 6557SOL    HW120570   2.377   0.549   3.533
 6557SOL    HW220571   2.345   0.390   3.555
 6558SOL     OW20572   5.716   5.785   0.265
 6558SOL    HW120573   5.654   5.709   0.283
 6558SOL    HW220574   5.790   5.754   0.205
 6559SOL     OW20575   0.120   4.174   6.510
 6559SOL    HW120576   0.053   4.127   6.452
 6559SOL    HW220577   0.073   4.221   6.585
 6560SOL     OW20578   3.816   4.532   1.253
 6560SOL    HW120579   3.732   4.535   1.306
 6560SOL    HW220580   3.895   4.538   1.314
 6561SOL     OW20581   3.282   4.234   1.256
 6561SOL    HW120582   3.261   4.144   1.295
 6561SOL    HW220583   3.370   4.266   1.291
 6562SOL     OW20584   5.502   2.118   1.113
 6562SOL    HW120585   5.426   2.061   1.082
 6562SOL    HW220586   5.512   2.108   1.212
 6563SOL     OW20587   5.423   6.346   6.191
 6563SOL    HW120588   5.325   6.334   6.171
 6563SOL    HW220589   5.457   6.428   6.145
 6564SOL     OW20590   6.752   3.470   1.876
 6564SOL    HW120591   6.694   3.397   1.839
 6564SOL    HW220592   6.806   3.510   1.802
 6565SOL     OW20593   6.369   6.947   3.016
 6565SOL    HW120594   6.453   6.991   3.047
 6565SOL    HW220595   6.292   7.010   3.028
 6566SOL     OW20596   3.449   6.099   2.805
 6566SOL    HW120597   3.437   6.181   2.862
 6566SOL    HW220598   3.386   6.028   2.835
 6567SOL     OW20599   5.046   0.915   2.547
 6567SOL    HW120600   5.071   0.919   2.451
 6567SOL    HW220601   4.970   0.850   2.559
 6568SOL     OW20602   3.511   1.822   3.648
 6568SOL    HW120603   3.444   1.881   3.694
 6568SOL    HW220604   3.602   1.862   3.655
 6569SOL     OW20605   2.237   2.388   6.676
 6569SOL    HW120606   2.248   2.408   6.774
 6569SOL    HW220607   2.195   2.467   6.631
 6570SOL     OW20608   3.258   0.982   2.357
 6570SOL    HW120609   3.301   1.072   2.365
 6570SOL    HW220610   3.329   0.912   2.355
 6571SOL     OW20611   2.956   4.915   2.700
 6571SOL    HW120612   2.975   4.912   2.602
 6571SOL    HW220613   2.859   4.937   2.714
 6572SOL     OW20614   0.257   4.466   4.313
 6572SOL    HW120615   0.260   4.565   4.301
 6572SOL    HW220616   0.206   4.425   4.237
 6573SOL     OW20617   0.785   2.013   2.594
 6573SOL    HW120618   0.807   1.929   2.543
 6573SOL    HW220619   0.850   2.024   2.669
 6574SOL     OW20620   2.563   5.804   2.791
 6574SOL    HW120621   2.525   5.868   2.858
 6574SOL    HW220622   2.490   5.744   2.758
 6575SOL     OW20623   0.368   6.650   3.343
 6575SOL    HW120624   0.409   6.741   3.342
 6575SOL    HW220625   0.428   6.586   3.295
 6576SOL     OW20626   3.084   6.169   0.780
 6576SOL    HW120627   3.079   6.253   0.834
 6576SOL    HW220628   3.033   6.096   0.825
 6577SOL     OW20629   1.716   1.579   3.491
 6577SOL    HW120630   1.777   1.501   3.479
 6577SOL    HW220631   1.766   1.664   3.475
 6578SOL     OW20632   0.943   6.378   2.159
 6578SOL    HW120633   0.974   6.456   2.105
 6578SOL    HW220634   0.934   6.297   2.100
 6579SOL     OW20635   6.486   2.770   3.843
 6579SOL    HW120636   6.402   2.795   3.794
 6579SOL    HW220637   6.463   2.742   3.936
 6580SOL     OW20638   0.661   1.945   0.387
 6580SOL    HW120639   0.617   1.986   0.467
 6580SOL    HW220640   0.673   2.015   0.316
 6581SOL     OW20641   2.357   0.858   0.768
 6581SOL    HW120642   2.408   0.773   0.778
 6581SOL    HW220643   2.262   0.837   0.743
 6582SOL     OW20644   0.055   1.108   3.161
 6582SOL    HW120645   7.011   1.174   3.172
 6582SOL    HW220646   0.045   1.035   3.228
 6583SOL     OW20647   4.653   6.358   5.264
 6583SOL    HW120648   4.583   6.288   5.278
 6583SOL    HW220649   4.743   6.316   5.264
 6584SOL     OW20650   4.365   1.707   0.081
 6584SOL    HW120651   4.343   1.672   0.172
 6584SOL    HW220652   4.284   1.748   0.040
 6585SOL     OW20653   5.886   6.094   0.006
 6585SOL    HW120654   5.809   6.051   6.987
 6585SOL    HW220655   5.970   6.080   6.985
 6586SOL     OW20656   6.388   1.834   5.591
 6586SOL    HW120657   6.339   1.907   5.639
 6586SOL    HW220658   6.330   1.796   5.519
 6587SOL     OW20659   1.356   4.831   6.632
 6587SOL    HW120660   1.450   4.822   6.597
 6587SOL    HW220661   1.304   4.749   6.608
 6588SOL     OW20662   0.707   2.823   1.626
 6588SOL    HW120663   0.797   2.868   1.625
 6588SOL    HW220664   0.686   2.790   1.718
 6589SOL     OW20665   4.494   0.739   2.337
 6589SOL    HW120666   4.499   0.639   2.339
 6589SOL    HW220667   4.578   0.778   2.375
 6590SOL     OW20668   0.566   0.982   6.454
 6590SOL    HW120669   0.530   0.902   6.502
 6590SOL    HW220670   0.579   0.960   6.357
 6591SOL     OW20671   5.333   5.791   3.847
 6591SOL    HW120672   5.263   5.792   3.775
 6591SOL    HW220673   5.419   5.824   3.810
 6592SOL     OW20674   5.296   6.133   2.883
 6592SOL    HW120675   5.346   6.118   2.968
 6592SOL    HW220676   5.210   6.180   2.903
 6593SOL     OW20677   2.595   2.457   2.475
 6593SOL    HW120678   2.596   2.507   2.389
 6593SOL    HW220679   2.616   2.360   2.458
 6594SOL     OW20680   3.668   1.204   5.430
 6594SOL    HW120681   3.608   1.283   5.419
 6594SOL    HW220682   3.618   1.121   5.407
 6595SOL     OW20683   1.061   3.905   6.237
 6595SOL    HW120684   1.142   3.942   6.191
 6595SOL    HW220685   1.085   3.880   6.331
 6596SOL     OW20686   3.581   0.340   4.335
 6596SOL    HW120687   3.617   0.258   4.380
 6596SOL    HW220688   3.521   0.313   4.259
 6597SOL     OW20689   1.532   4.972   1.880
 6597SOL    HW120690   1.453   4.919   1.851
 6597SOL    HW220691   1.541   5.053   1.823
 6598SOL     OW20692   1.770   4.647   3.629
 6598SOL    HW120693   1.723   4.661   3.716
 6598SOL    HW220694   1.807   4.733   3.595
 6599SOL     OW20695   4.484   6.133   6.239
 6599SOL    HW120696   4.411   6.115   6.173
 6599SOL    HW220697   4.548   6.057   6.239
 6600SOL     OW20698   4.124   6.466   4.950
 6600SOL    HW120699   4.153   6.493   4.859
 6600SOL    HW220700   4.162   6.530   5.018
 6601SOL     OW20701   0.831   2.379   4.010
 6601SOL    HW120702   0.837   2.289   3.966
 6601SOL    HW220703   0.749   2.426   3.977
 6602SOL     OW20704   1.769   0.415   1.422
 6602SOL    HW120705   1.829   0.348   1.377
 6602SOL    HW220706   1.793   0.421   1.519
 6603SOL     OW20707   0.857   3.286   3.360
 6603SOL    HW120708   0.925   3.213   3.354
 6603SOL    HW220709   0.812   3.297   3.271
 6604SOL     OW20710   2.066   6.178   1.492
 6604SOL    HW120711   2.139   6.206   1.555
 6604SOL    HW220712   2.000   6.253   1.482
 6605SOL     OW20713   5.197   5.058   2.196
 6605SOL    HW120714   5.196   5.117   2.115
 6605SOL    HW220715   5.267   5.091   2.260
 6606SOL     OW20716   6.717   5.453   2.222
 6606SOL    HW120717   6.716   5.450   2.122
 6606SOL    HW220718   6.806   5.486   2.253
 6607SOL     OW20719   0.832   4.701   3.418
 6607SOL    HW120720   0.890   4.666   3.492
 6607SOL    HW220721   0.810   4.797   3.437
 6608SOL     OW20722   6.959   6.388   6.752
 6608SOL    HW120723   7.012   6.472   6.767
 6608SOL    HW220724   6.930   6.351   6.841
 6609SOL     OW20725   5.636   1.044   0.148
 6609SOL    HW120726   5.645   1.042   0.247
 6609SOL    HW220727   5.572   1.118   0.122
 6610SOL     OW20728   2.639   6.767   0.322
 6610SOL    HW120729   2.642   6.791   0.419
 6610SOL    HW220730   2.698   6.829   0.270
 6611SOL     OW20731   4.743   2.812   3.212
 6611SOL    HW120732   4.710   2.860   3.130
 6611SOL    HW220733   4.843   2.808   3.210
 6612SOL     OW20734   6.773   2.324   6.666
 6612SOL    HW120735   6.788   2.270   6.584
 6612SOL    HW220736   6.675   2.332   6.683
 6613SOL     OW20737   6.475   6.676   5.578
 6613SOL    HW120738   6.448   6.580   5.593
 6613SOL    HW220739   6.450   6.730   5.658
 6614SOL     OW20740   4.613   6.256   6.925
 6614SOL    HW120741   4.692   6.303   6.965
 6614SOL    HW220742   4.587   6.301   6.840
 6615SOL     OW20743   1.370   5.526   1.432
 6615SOL    HW120744   1.363   5.534   1.531
 6615SOL    HW220745   1.392   5.616   1.393
 6616SOL     OW20746   4.425   7.017   6.458
 6616SOL    HW120747   4.367   6.972   6.391
 6616SOL    HW220748   4.419   6.968   6.545
 6617SOL     OW20749   4.341   5.869   3.408
 6617SOL    HW120750   4.362   5.895   3.502
 6617SOL    HW220751   4.373   5.939   3.345
 6618SOL     OW20752   1.984   1.854   2.617
 6618SOL    HW120753   2.027   1.859   2.527
 6618SOL    HW220754   1.967   1.946   2.651
 6619SOL     OW20755   4.947   0.224   4.203
 6619SOL    HW120756   5.042   0.245   4.226
 6619SOL    HW220757   4.943   0.185   4.111
 6620SOL     OW20758   2.179   3.332   5.160
 6620SOL    HW120759   2.155   3.352   5.065
 6620SOL    HW220760   2.278   3.319   5.168
 6621SOL     OW20761   4.062   3.203   5.564
 6621SOL    HW120762   4.133   3.273   5.574
 6621SOL    HW220763   4.091   3.119   5.610
 6622SOL     OW20764   5.771   6.254   2.286
 6622SOL    HW120765   5.719   6.248   2.371
 6622SOL    HW220766   5.708   6.268   2.210
 6623SOL     OW20767   4.048   3.453   5.283
 6623SOL    HW120768   4.021   3.381   5.219
 6623SOL    HW220769   4.053   3.540   5.234
 6624SOL     OW20770   0.823   4.384   5.370
 6624SOL    HW120771   0.810   4.469   5.319
 6624SOL    HW220772   0.789   4.307   5.315
 6625SOL     OW20773   5.214   1.502   4.826
 6625SOL    HW120774   5.218   1.554   4.911
 6625SOL    HW220775   5.132   1.526   4.775
 6626SOL     OW20776   3.153   0.053   5.709
 6626SOL    HW120777   3.178   0.011   5.622
 6626SOL    HW220778   3.224   0.033   5.777
 6627SOL     OW20779   1.797   6.561   3.616
 6627SOL    HW120780   1.757   6.604   3.535
 6627SOL    HW220781   1.727   6.510   3.665
 6628SOL     OW20782   5.820   5.341   4.456
 6628SOL    HW120783   5.739   5.399   4.443
 6628SOL    HW220784   5.897   5.380   4.405
 6629SOL     OW20785   4.664   5.940   6.199
 6629SOL    HW120786   4.762   5.956   6.184
 6629SOL    HW220787   4.628   5.883   6.125
 6630SOL     OW20788   3.697   1.752   1.476
 6630SOL    HW120789   3.607   1.746   1.521
 6630SOL    HW220790   3.691   1.715   1.384
 6631SOL     OW20791   2.180   5.945   4.224
 6631SOL    HW120792   2.206   5.850   4.242
 6631SOL    HW220793   2.080   5.952   4.223
 6632SOL     OW20794   0.742   0.755   0.964
 6632SOL    HW120795   0.754   0.853   0.977
 6632SOL    HW220796   0.783   0.706   1.042
 6633SOL     OW20797   2.037   5.477   6.378
 6633SOL    HW120798   2.076   5.566   6.355
 6633SOL    HW220799   2.089   5.405   6.332
 6634SOL     OW20800   5.577   1.756   5.358
 6634SOL    HW120801   5.562   1.849   5.392
 6634SOL    HW220802   5.664   1.722   5.392
 6635SOL     OW20803   5.093   4.630   4.015
 6635SOL    HW120804   5.067   4.719   3.977
 6635SOL    HW220805   5.016   4.592   4.065
 6636SOL     OW20806   4.622   1.868   0.523
 6636SOL    HW120807   4.537   1.917   0.503
 6636SOL    HW220808   4.626   1.847   0.621
 6637SOL     OW20809   1.748   6.925   6.925
 6637SOL    HW120810   1.667   6.950   6.978
 6637SOL    HW220811   1.765   6.827   6.935
 6638SOL     OW20812   3.059   3.537   3.169
 6638SOL    HW120813   3.021   3.579   3.086
 6638SOL    HW220814   3.049   3.600   3.246
 6639SOL     OW20815   4.148   4.429   0.306
 6639SOL    HW120816   4.238   4.387   0.298
 6639SOL    HW220817   4.159   4.527   0.327
 6640SOL     OW20818   0.142   2.121   5.259
 6640SOL    HW120819   0.067   2.120   5.324
 6640SOL    HW220820   0.106   2.123   5.165
 6641SOL     OW20821   3.466   1.584   6.920
 6641SOL    HW120822   3.407   1.616   6.845
 6641SOL    HW220823   3.546   1.643   6.926
 6642SOL     OW20824   2.942   6.053   6.278
 6642SOL    HW120825   3.016   5.995   6.244
 6642SOL    HW220826   2.889   6.004   6.347
 6643SOL     OW20827   5.611   6.428   7.025
 6643SOL    HW120828   5.684   6.463   6.966
 6643SOL    HW220829   5.627   6.331   0.015
 6644SOL     OW20830   2.312   5.796   1.543
 6644SOL    HW120831   2.255   5.878   1.547
 6644SOL    HW220832   2.370   5.790   1.624
 6645SOL     OW20833   5.357   3.688   0.776
 6645SOL    HW120834   5.369   3.620   0.848
 6645SOL    HW220835   5.396   3.775   0.806
 6646SOL     OW20836   5.002   1.437   5.067
 6646SOL    HW120837   5.062   1.517   5.073
 6646SOL    HW220838   5.031   1.368   5.132
 6647SOL     OW20839   4.393   7.016   0.265
 6647SOL    HW120840   4.312   0.037   0.293
 6647SOL    HW220841   4.453   0.045   0.210
 6648SOL     OW20842   3.051   6.895   4.570
 6648SOL    HW120843   3.017   6.817   4.621
 6648SOL    HW220844   3.025   6.980   4.617
 6649SOL     OW20845   6.065   1.824   5.889
 6649SOL    HW120846   6.095   1.837   5.983
 6649SOL    HW220847   6.065   1.727   5.867
 6650SOL     OW20848   3.859   1.569   5.257
 6650SOL    HW120849   3.836   1.637   5.187
 6650SOL    HW220850   3.917   1.612   5.327
 6651SOL     OW20851   1.760   1.227   5.803
 6651SOL    HW120852   1.829   1.219   5.875
 6651SOL    HW220853   1.670   1.238   5.844
 6652SOL     OW20854   0.097   4.636   6.578
 6652SOL    HW120855   0.120   4.729   6.549
 6652SOL    HW220856   0.125   4.572   6.507
 6653SOL     OW20857   4.310   3.096   1.395
 6653SOL    HW120858   4.285   3.139   1.481
 6653SOL    HW220859   4.403   3.123   1.370
 6654SOL     OW20860   1.601   5.494   1.720
 6654SOL    HW120861   1.536   5.464   1.789
 6654SOL    HW220862   1.597   5.593   1.711
 6655SOL     OW20863   6.547   6.277   2.901
 6655SOL    HW120864   6.504   6.187   2.911
 6655SOL    HW220865   6.614   6.273   2.826
 6656SOL     OW20866   6.034   1.853   2.708
 6656SOL    HW120867   6.134   1.859   2.700
 6656SOL    HW220868   5.997   1.942   2.731
 6657SOL     OW20869   6.337   3.485   4.970
 6657SOL    HW120870   6.435   3.481   4.955
 6657SOL    HW220871   6.300   3.392   4.974
 6658SOL     OW20872   5.257   0.178   5.563
 6658SOL    HW120873   5.177   0.195   5.505
 6658SOL    HW220874   5.247   0.229   5.648
 6659SOL     OW20875   2.179   2.816   1.453
 6659SOL    HW120876   2.144   2.898   1.498
 6659SOL    HW220877   2.140   2.734   1.496
 6660SOL     OW20878   1.308   5.048   1.533
 6660SOL    HW120879   1.296   4.954   1.563
 6660SOL    HW220880   1.307   5.052   1.433
 6661SOL     OW20881   2.384   0.093   5.165
 6661SOL    HW120882   2.461   0.100   5.101
 6661SOL    HW220883   2.392   0.007   5.216
 6662SOL     OW20884   1.570   1.336   0.267
 6662SOL    HW120885   1.560   1.279   0.185
 6662SOL    HW220886   1.661   1.324   0.305
 6663SOL     OW20887   6.719   6.769   4.864
 6663SOL    HW120888   6.688   6.705   4.934
 6663SOL    HW220889   6.802   6.815   4.896
 6664SOL     OW20890   1.897   6.807   0.649
 6664SOL    HW120891   1.923   6.902   0.632
 6664SOL    HW220892   1.978   6.753   0.671
 6665SOL     OW20893   1.703   6.765   4.740
 6665SOL    HW120894   1.650   6.734   4.661
 6665SOL    HW220895   1.761   6.691   4.774
 6666SOL     OW20896   6.484   5.895   5.682
 6666SOL    HW120897   6.392   5.884   5.643
 6666SOL    HW220898   6.541   5.818   5.654
 6667SOL     OW20899   6.749   6.680   5.618
 6667SOL    HW120900   6.651   6.701   5.616
 6667SOL    HW220901   6.761   6.581   5.627
 6668SOL     OW20902   6.518   6.154   1.025
 6668SOL    HW120903   6.495   6.142   1.121
 6668SOL    HW220904   6.614   6.131   1.010
 6669SOL     OW20905   3.008   2.086   1.957
 6669SOL    HW120906   2.955   2.169   1.977
 6669SOL    HW220907   3.000   2.064   1.860
 6670SOL     OW20908   3.231   1.355   5.505
 6670SOL    HW120909   3.246   1.405   5.590
 6670SOL    HW220910   3.239   1.257   5.523
 6671SOL     OW20911   4.764   6.908   0.094
 6671SOL    HW120912   4.832   6.885   0.164
 6671SOL    HW220913   4.704   6.829   0.080
 6672SOL     OW20914   6.369   1.621   0.620
 6672SOL    HW120915   6.356   1.546   0.686
 6672SOL    HW220916   6.463   1.654   0.627
 6673SOL     OW20917   4.944   4.199   3.884
 6673SOL    HW120918   4.897   4.133   3.943
 6673SOL    HW220919   5.000   4.150   3.818
 6674SOL     OW20920   0.010   4.226   0.424
 6674SOL    HW120921   0.007   4.204   0.521
 6674SOL    HW220922   6.962   4.285   0.401
 6675SOL     OW20923   6.255   3.033   0.273
 6675SOL    HW120924   6.176   3.059   0.217
 6675SOL    HW220925   6.327   3.101   0.262
 6676SOL     OW20926   0.649   3.729   5.026
 6676SOL    HW120927   0.689   3.667   4.958
 6676SOL    HW220928   0.679   3.702   5.117
 6677SOL     OW20929   0.503   1.580   6.430
 6677SOL    HW120930   0.492   1.491   6.386
 6677SOL    HW220931   0.600   1.598   6.444
 6678SOL     OW20932   3.155   3.918   0.459
 6678SOL    HW120933   3.070   3.950   0.418
 6678SOL    HW220934   3.229   3.982   0.437
 6679SOL     OW20935   3.883   0.357   3.992
 6679SOL    HW120936   3.857   0.449   3.965
 6679SOL    HW220937   3.928   0.359   4.082
 6680SOL     OW20938   4.522   6.634   6.417
 6680SOL    HW120939   4.584   6.611   6.491
 6680SOL    HW220940   4.437   6.581   6.427
 6681SOL     OW20941   4.673   5.837   0.537
 6681SOL    HW120942   4.745   5.805   0.476
 6681SOL    HW220943   4.646   5.930   0.512
 6682SOL     OW20944   2.085   4.888   0.325
 6682SOL    HW120945   2.042   4.939   0.400
 6682SOL    HW220946   2.171   4.932   0.300
 6683SOL     OW20947   5.911   3.182   5.426
 6683SOL    HW120948   5.879   3.259   5.371
 6683SOL    HW220949   5.929   3.212   5.519
 6684SOL     OW20950   3.679   6.474   2.697
 6684SOL    HW120951   3.713   6.498   2.788
 6684SOL    HW220952   3.723   6.389   2.667
 6685SOL     OW20953   4.416   3.215   6.334
 6685SOL    HW120954   4.415   3.312   6.310
 6685SOL    HW220955   4.509   3.179   6.325
 6686SOL     OW20956   5.276   5.581   4.015
 6686SOL    HW120957   5.337   5.588   4.094
 6686SOL    HW220958   5.288   5.661   3.957
 6687SOL     OW20959   1.012   3.268   2.151
 6687SOL    HW120960   1.107   3.256   2.178
 6687SOL    HW220961   1.007   3.331   2.074
 6688SOL     OW20962   4.060   4.617   1.381
 6688SOL    HW120963   4.117   4.575   1.452
 6688SOL    HW220964   4.094   4.709   1.361
 6689SOL     OW20965   5.127   4.264   5.596
 6689SOL    HW120966   5.032   4.291   5.580
 6689SOL    HW220967   5.129   4.188   5.662
 6690SOL     OW20968   0.589   7.017   0.801
 6690SOL    HW120969   0.582   0.075   0.848
 6690SOL    HW220970   0.652   6.958   0.852
 6691SOL     OW20971   2.188   0.412   2.342
 6691SOL    HW120972   2.246   0.397   2.262
 6691SOL    HW220973   2.175   0.326   2.390
 6692SOL     OW20974   4.005   3.878   3.291
 6692SOL    HW120975   4.066   3.958   3.298
 6692SOL    HW220976   3.970   3.855   3.382
 6693SOL     OW20977   4.219   2.181   5.047
 6693SOL    HW120978   4.201   2.134   4.961
 6693SOL    HW220979   4.245   2.275   5.029
 6694SOL     OW20980   4.191   5.916   1.670
 6694SOL    HW120981   4.274   5.968   1.649
 6694SOL    HW220982   4.141   5.964   1.742
 6695SOL     OW20983   2.851   2.525   6.183
 6695SOL    HW120984   2.933   2.548   6.130
 6695SOL    HW220985   2.789   2.603   6.184
 6696SOL     OW20986   3.779   2.929   4.376
 6696SOL    HW120987   3.865   2.891   4.342
 6696SOL    HW220988   3.799   3.002   4.442
 6697SOL     OW20989   5.007   1.845   3.162
 6697SOL    HW120990   5.088   1.903   3.150
 6697SOL    HW220991   5.033   1.749   3.155
 6698SOL     OW20992   2.942   2.501   1.017
 6698SOL    HW120993   2.860   2.456   1.053
 6698SOL    HW220994   2.983   2.444   0.946
 6699SOL     OW20995   2.128   6.231   5.616
 6699SOL    HW120996   2.118   6.146   5.668
 6699SOL    HW220997   2.212   6.226   5.562
 6700SOL     OW20998   0.014   1.751   1.247
 6700SOL    HW120999   7.012   1.799   1.166
 6700SOL    HW221000   0.011   1.812   1.326
 6701SOL     OW21001   5.441   4.939   1.603
 6701SOL    HW121002   5.485   4.871   1.544
 6701SOL    HW221003   5.378   4.994   1.548
 6702SOL     OW21004   2.073   2.442   1.326
 6702SOL    HW121005   2.048   2.354   1.367
 6702SOL    HW221006   2.165   2.467   1.355
 6703SOL     OW21007   6.614   7.021   0.780
 6703SOL    HW121008   6.607   6.976   0.869
 6703SOL    HW221009   6.677   0.069   0.787
 6704SOL     OW21010   4.087   2.239   3.466
 6704SOL    HW121011   4.057   2.163   3.523
 6704SOL    HW221012   4.100   2.208   3.372
 6705SOL     OW21013   6.107   3.022   0.528
 6705SOL    HW121014   6.182   3.043   0.591
 6705SOL    HW221015   6.142   3.018   0.434
 6706SOL     OW21016   0.492   5.970   1.140
 6706SOL    HW121017   0.499   6.052   1.083
 6706SOL    HW221018   0.575   5.960   1.194
 6707SOL     OW21019   5.511   6.611   3.380
 6707SOL    HW121020   5.595   6.617   3.434
 6707SOL    HW221021   5.493   6.699   3.336
 6708SOL     OW21022   5.302   5.311   1.001
 6708SOL    HW121023   5.396   5.305   0.967
 6708SOL    HW221024   5.291   5.249   1.079
 6709SOL     OW21025   1.185   5.886   2.961
 6709SOL    HW121026   1.159   5.981   2.976
 6709SOL    HW221027   1.105   5.834   2.931
 6710SOL     OW21028   3.532   0.927   6.193
 6710SOL    HW121029   3.454   0.975   6.153
 6710SOL    HW221030   3.602   0.993   6.220
 6711SOL     OW21031   5.564   6.619   5.406
 6711SOL    HW121032   5.651   6.602   5.453
 6711SOL    HW221033   5.579   6.678   5.327
 6712SOL     OW21034   5.503   3.446   1.236
 6712SOL    HW121035   5.542   3.516   1.296
 6712SOL    HW221036   5.572   3.377   1.216
 6713SOL     OW21037   1.087   0.928   3.473
 6713SOL    HW121038   1.009   0.963   3.421
 6713SOL    HW221039   1.105   0.987   3.551
 6714SOL     OW21040   6.710   1.591   6.523
 6714SOL    HW121041   6.687   1.675   6.474
 6714SOL    HW221042   6.750   1.615   6.612
 6715SOL     OW21043   1.904   0.535   1.004
 6715SOL    HW121044   1.965   0.472   0.957
 6715SOL    HW221045   1.895   0.508   1.100
 6716SOL     OW21046   0.206   5.724   1.569
 6716SOL    HW121047   0.296   5.697   1.603
 6716SOL    HW221048   0.151   5.642   1.554
 6717SOL     OW21049   3.009   3.083   6.593
 6717SOL    HW121050   2.971   3.084   6.500
 6717SOL    HW221051   3.005   3.175   6.631
 6718SOL     OW21052   4.549   6.946   0.744
 6718SOL    HW121053   4.626   6.883   0.746
 6718SOL    HW221054   4.546   6.999   0.828
 6719SOL     OW21055   2.997   7.027   0.514
 6719SOL    HW121056   3.049   0.080   0.534
 6719SOL    HW221057   2.933   7.008   0.589
 6720SOL     OW21058   1.966   0.602   3.438
 6720SOL    HW121059   1.947   0.608   3.340
 6720SOL    HW221060   1.910   0.528   3.477
 6721SOL     OW21061   6.903   6.435   0.210
 6721SOL    HW121062   6.948   6.378   0.279
 6721SOL    HW221063   6.845   6.503   0.255
 6722SOL     OW21064   6.307   2.555   0.289
 6722SOL    HW121065   6.229   2.575   0.348
 6722SOL    HW221066   6.357   2.477   0.325
 6723SOL     OW21067   1.214   0.295   4.767
 6723SOL    HW121068   1.180   0.282   4.861
 6723SOL    HW221069   1.268   0.216   4.740
 6724SOL     OW21070   2.156   3.498   6.493
 6724SOL    HW121071   2.149   3.493   6.593
 6724SOL    HW221072   2.185   3.408   6.458
 6725SOL     OW21073   6.612   2.198   1.600
 6725SOL    HW121074   6.564   2.130   1.544
 6725SOL    HW221075   6.610   2.286   1.554
 6726SOL     OW21076   0.915   2.895   3.981
 6726SOL    HW121077   1.012   2.918   3.985
 6726SOL    HW221078   0.864   2.969   3.939
 6727SOL     OW21079   0.276   4.672   5.396
 6727SOL    HW121080   0.190   4.687   5.348
 6727SOL    HW221081   0.274   4.719   5.484
 6728SOL     OW21082   4.003   2.107   2.720
 6728SOL    HW121083   4.029   2.179   2.656
 6728SOL    HW221084   4.084   2.077   2.772
 6729SOL     OW21085   6.676   0.587   0.488
 6729SOL    HW121086   6.729   0.529   0.551
 6729SOL    HW221087   6.728   0.600   0.404
 6730SOL     OW21088   1.671   6.804   1.337
 6730SOL    HW121089   1.703   6.871   1.269
 6730SOL    HW221090   1.678   6.712   1.298
 6731SOL     OW21091   1.386   6.645   1.223
 6731SOL    HW121092   1.442   6.698   1.159
 6731SOL    HW221093   1.344   6.568   1.176
 6732SOL     OW21094   6.109   4.241   4.524
 6732SOL    HW121095   6.043   4.183   4.572
 6732SOL    HW221096   6.075   4.261   4.433
 6733SOL     OW21097   3.751   5.525   6.599
 6733SOL    HW121098   3.665   5.575   6.588
 6733SOL    HW221099   3.790   5.507   6.508
 6734SOL     OW21100   6.295   2.498   4.918
 6734SOL    HW121101   6.368   2.439   4.884
 6734SOL    HW221102   6.305   2.590   4.879
 6735SOL     OW21103   6.446   3.400   4.442
 6735SOL    HW121104   6.407   3.492   4.446
 6735SOL    HW221105   6.444   3.359   4.533
 6736SOL     OW21106   2.812   3.325   6.791
 6736SOL    HW121107   2.894   3.326   6.734
 6736SOL    HW221108   2.739   3.374   6.745
 6737SOL     OW21109   1.794   3.240   1.209
 6737SOL    HW121110   1.806   3.143   1.230
 6737SOL    HW221111   1.823   3.258   1.115
 6738SOL     OW21112   1.538   5.817   3.184
 6738SOL    HW121113   1.546   5.871   3.101
 6738SOL    HW221114   1.523   5.877   3.262
 6739SOL     OW21115   4.992   6.544   4.292
 6739SOL    HW121116   5.026   6.463   4.243
 6739SOL    HW221117   5.062   6.575   4.356
 6740SOL     OW21118   6.846   0.126   5.808
 6740SOL    HW121119   6.920   0.066   5.778
 6740SOL    HW221120   6.851   0.212   5.758
 6741SOL     OW21121   3.300   2.760   5.509
 6741SOL    HW121122   3.275   2.708   5.427
 6741SOL    HW221123   3.385   2.723   5.547
 6742SOL     OW21124   5.812   5.548   3.336
 6742SOL    HW121125   5.839   5.474   3.275
 6742SOL    HW221126   5.856   5.633   3.306
 6743SOL     OW21127   3.595   4.658   6.430
 6743SOL    HW121128   3.655   4.666   6.509
 6743SOL    HW221129   3.640   4.604   6.359
 6744SOL     OW21130   6.860   5.140   5.361
 6744SOL    HW121131   6.953   5.164   5.334
 6744SOL    HW221132   6.814   5.221   5.398
 6745SOL     OW21133   7.021   6.716   3.494
 6745SOL    HW121134   0.088   6.700   3.477
 6745SOL    HW221135   6.992   6.663   3.574
 6746SOL     OW21136   0.560   0.540   3.666
 6746SOL    HW121137   0.629   0.601   3.703
 6746SOL    HW221138   0.590   0.505   3.577
 6747SOL     OW21139   5.611   1.473   6.264
 6747SOL    HW121140   5.603   1.397   6.328
 6747SOL    HW221141   5.672   1.447   6.189
 6748SOL     OW21142   3.687   1.758   3.322
 6748SOL    HW121143   3.664   1.693   3.250
 6748SOL    HW221144   3.603   1.786   3.369
 6749SOL     OW21145   3.611   4.134   0.730
 6749SOL    HW121146   3.594   4.076   0.650
 6749SOL    HW221147   3.700   4.179   0.719
 6750SOL     OW21148   3.803   1.945   4.549
 6750SOL    HW121149   3.729   1.881   4.527
 6750SOL    HW221150   3.782   1.990   4.636
 6751SOL     OW21151   5.175   0.373   3.369
 6751SOL    HW121152   5.257   0.377   3.425
 6751SOL    HW221153   5.141   0.466   3.353
 6752SOL     OW21154   2.063   0.071   2.927
 6752SOL    HW121155   1.995   0.021   2.981
 6752SOL    HW221156   2.076   0.025   2.840
 6753SOL     OW21157   3.342   1.070   6.080
 6753SOL    HW121158   3.250   1.032   6.083
 6753SOL    HW221159   3.338   1.169   6.083
 6754SOL     OW21160   0.183   0.733   0.598
 6754SOL    HW121161   0.149   0.743   0.692
 6754SOL    HW221162   0.282   0.746   0.597
 6755SOL     OW21163   4.353   2.056   2.117
 6755SOL    HW121164   4.419   2.105   2.060
 6755SOL    HW221165   4.320   1.975   2.068
 6756SOL     OW21166   3.636   6.275   4.681
 6756SOL    HW121167   3.700   6.329   4.626
 6756SOL    HW221168   3.641   6.179   4.652
 6757SOL     OW21169   2.977   2.614   0.237
 6757SOL    HW121170   2.909   2.679   0.204
 6757SOL    HW221171   2.938   2.522   0.234
 6758SOL     OW21172   6.315   1.780   2.048
 6758SOL    HW121173   6.348   1.875   2.045
 6758SOL    HW221174   6.219   1.778   2.021
 6759SOL     OW21175   1.361   3.783   3.141
 6759SOL    HW121176   1.294   3.804   3.070
 6759SOL    HW221177   1.423   3.713   3.108
 6760SOL     OW21178   0.070   3.516   2.305
 6760SOL    HW121179   0.040   3.612   2.311
 6760SOL    HW221180   0.170   3.512   2.313
 6761SOL     OW21181   6.578   2.477   5.472
 6761SOL    HW121182   6.547   2.520   5.387
 6761SOL    HW221183   6.522   2.397   5.492
 6762SOL     OW21184   1.187   4.599   4.836
 6762SOL    HW121185   1.231   4.688   4.849
 6762SOL    HW221186   1.236   4.547   4.765
 6763SOL     OW21187   6.513   5.795   3.757
 6763SOL    HW121188   6.605   5.765   3.780
 6763SOL    HW221189   6.452   5.778   3.835
 6764SOL     OW21190   1.815   5.569   1.093
 6764SOL    HW121191   1.770   5.498   1.038
 6764SOL    HW221192   1.779   5.659   1.068
 6765SOL     OW21193   5.801   5.099   3.847
 6765SOL    HW121194   5.828   5.148   3.930
 6765SOL    HW221195   5.752   5.016   3.873
 6766SOL     OW21196   4.606   6.946   5.584
 6766SOL    HW121197   4.553   6.959   5.501
 6766SOL    HW221198   4.704   6.949   5.562
 6767SOL     OW21199   1.980   1.266   0.624
 6767SOL    HW121200   1.976   1.324   0.706
 6767SOL    HW221201   2.067   1.218   0.622
 6768SOL     OW21202   1.624   0.122   4.806
 6768SOL    HW121203   1.616   0.164   4.897
 6768SOL    HW221204   1.646   0.025   4.817
 6769SOL     OW21205   2.940   0.916   6.470
 6769SOL    HW121206   3.022   0.942   6.419
 6769SOL    HW221207   2.864   0.976   6.444
 6770SOL     OW21208   6.613   1.072   3.152
 6770SOL    HW121209   6.631   1.038   3.060
 6770SOL    HW221210   6.538   1.020   3.193
 6771SOL     OW21211   4.716   1.945   3.817
 6771SOL    HW121212   4.704   1.848   3.840
 6771SOL    HW221213   4.663   1.967   3.735
 6772SOL     OW21214   4.248   2.319   2.681
 6772SOL    HW121215   4.299   2.401   2.653
 6772SOL    HW221216   4.231   2.262   2.601
 6773SOL     OW21217   6.329   5.237   2.291
 6773SOL    HW121218   6.259   5.211   2.224
 6773SOL    HW221219   6.367   5.326   2.266
 6774SOL     OW21220   1.189   3.616   5.264
 6774SOL    HW121221   1.206   3.596   5.168
 6774SOL    HW221222   1.090   3.612   5.282
 6775SOL     OW21223   2.618   2.365   2.143
 6775SOL    HW121224   2.709   2.370   2.102
 6775SOL    HW221225   2.595   2.270   2.162
 6776SOL     OW21226   4.988   4.201   6.909
 6776SOL    HW121227   4.953   4.285   6.869
 6776SOL    HW221228   4.958   4.123   6.853
 6777SOL     OW21229   4.806   4.761   0.681
 6777SOL    HW121230   4.765   4.724   0.765
 6777SOL    HW221231   4.871   4.832   0.705
 6778SOL     OW21232   6.001   5.354   2.009
 6778SOL    HW121233   5.996   5.421   2.082
 6778SOL    HW221234   6.047   5.272   2.043
 6779SOL     OW21235   5.489   5.439   6.908
 6779SOL    HW121236   5.539   5.391   6.836
 6779SOL    HW221237   5.391   5.422   6.898
 6780SOL     OW21238   1.565   2.613   2.095
 6780SOL    HW121239   1.519   2.653   2.015
 6780SOL    HW221240   1.501   2.609   2.172
 6781SOL     OW21241   6.717   2.108   4.286
 6781SOL    HW121242   6.752   2.015   4.276
 6781SOL    HW221243   6.651   2.111   4.362
 6782SOL     OW21244   0.092   0.747   2.972
 6782SOL    HW121245   0.041   0.662   2.973
 6782SOL    HW221246   0.182   0.732   2.931
 6783SOL     OW21247   6.262   1.448   5.537
 6783SOL    HW121248   6.235   1.381   5.468
 6783SOL    HW221249   6.266   1.539   5.496
 6784SOL     OW21250   1.508   3.010   0.437
 6784SOL    HW121251   1.447   2.968   0.504
 6784SOL    HW221252   1.588   3.048   0.483
 6785SOL     OW21253   5.745   5.687   4.491
 6785SOL    HW121254   5.810   5.661   4.563
 6785SOL    HW221255   5.789   5.677   4.402
 6786SOL     OW21256   1.873   2.342   0.186
 6786SOL    HW121257   1.804   2.391   0.133
 6786SOL    HW221258   1.881   2.248   0.152
 6787SOL     OW21259   2.076   2.743   0.254
 6787SOL    HW121260   2.121   2.831   0.269
 6787SOL    HW221261   1.989   2.742   0.303
 6788SOL     OW21262   0.955   4.195   1.258
 6788SOL    HW121263   1.020   4.251   1.205
 6788SOL    HW221264   0.883   4.254   1.294
 6789SOL     OW21265   0.160   5.330   2.566
 6789SOL    HW121266   0.075   5.361   2.609
 6789SOL    HW221267   0.221   5.293   2.636
 6790SOL     OW21268   0.063   3.637   1.110
 6790SOL    HW121269   0.102   3.623   1.020
 6790SOL    HW221270   0.103   3.719   1.152
 6791SOL     OW21271   4.061   2.264   1.919
 6791SOL    HW121272   4.135   2.328   1.943
 6791SOL    HW221273   3.988   2.270   1.987
 6792SOL     OW21274   6.400   6.475   5.002
 6792SOL    HW121275   6.488   6.516   5.027
 6792SOL    HW221276   6.410   6.425   4.916
 6793SOL     OW21277   1.742   1.929   0.698
 6793SOL    HW121278   1.782   1.890   0.615
 6793SOL    HW221279   1.688   2.010   0.674
 6794SOL     OW21280   4.557   1.303   5.641
 6794SOL    HW121281   4.521   1.278   5.551
 6794SOL    HW221282   4.487   1.289   5.710
 6795SOL     OW21283   2.465   6.546   0.649
 6795SOL    HW121284   2.477   6.464   0.593
 6795SOL    HW221285   2.434   6.520   0.740
 6796SOL     OW21286   6.994   0.093   2.451
 6796SOL    HW121287   7.007   0.141   2.364
 6796SOL    HW221288   6.951   0.004   2.433
 6797SOL     OW21289   6.679   1.771   1.813
 6797SOL    HW121290   6.728   1.691   1.778
 6797SOL    HW221291   6.734   1.853   1.800
 6798SOL     OW21292   5.358   6.913   2.384
 6798SOL    HW121293   5.330   6.823   2.353
 6798SOL    HW221294   5.285   6.979   2.367
 6799SOL     OW21295   6.946   6.568   1.895
 6799SOL    HW121296   6.857   6.569   1.848
 6799SOL    HW221297   6.997   6.651   1.871
 6800SOL     OW21298   2.110   3.746   2.106
 6800SOL    HW121299   2.143   3.653   2.088
 6800SOL    HW221300   2.118   3.801   2.022
 6801SOL     OW21301   1.283   0.030   2.618
 6801SOL    HW121302   1.368   0.078   2.597
 6801SOL    HW221303   1.282   0.001   2.713
 6802SOL     OW21304   3.164   5.804   1.099
 6802SOL    HW121305   3.124   5.827   1.187
 6802SOL    HW221306   3.098   5.752   1.044
 6803SOL     OW21307   4.658   3.114   5.327
 6803SOL    HW121308   4.700   3.121   5.236
 6803SOL    HW221309   4.597   3.035   5.330
 6804SOL     OW21310   3.465   5.162   3.679
 6804SOL    HW121311   3.379   5.206   3.653
 6804SOL    HW221312   3.541   5.209   3.635
 6805SOL     OW21313   0.347   5.017   6.355
 6805SOL    HW121314   0.400   5.101   6.368
 6805SOL    HW221315   0.366   4.980   6.264
 6806SOL     OW21316   5.909   0.749   3.593
 6806SOL    HW121317   5.933   0.776   3.686
 6806SOL    HW221318   5.842   0.675   3.595
 6807SOL     OW21319   3.221   3.555   1.378
 6807SOL    HW121320   3.260   3.479   1.326
 6807SOL    HW221321   3.256   3.553   1.472
 6808SOL     OW21322   6.873   2.428   5.475
 6808SOL    HW121323   6.797   2.490   5.462
 6808SOL    HW221324   6.881   2.404   5.572
 6809SOL     OW21325   0.963   2.950   1.327
 6809SOL    HW121326   0.912   3.033   1.301
 6809SOL    HW221327   0.948   2.930   1.424
 6810SOL     OW21328   1.531   1.062   2.959
 6810SOL    HW121329   1.555   1.000   3.034
 6810SOL    HW221330   1.512   1.153   2.995
 6811SOL     OW21331   6.067   3.523   1.254
 6811SOL    HW121332   6.069   3.432   1.295
 6811SOL    HW221333   6.008   3.522   1.173
 6812SOL     OW21334   2.896   3.573   4.493
 6812SOL    HW121335   2.989   3.605   4.510
 6812SOL    HW221336   2.861   3.525   4.574
 6813SOL     OW21337   5.305   2.591   2.336
 6813SOL    HW121338   5.371   2.655   2.374
 6813SOL    HW221339   5.278   2.525   2.407
 6814SOL     OW21340   3.578   1.635   6.079
 6814SOL    HW121341   3.633   1.562   6.120
 6814SOL    HW221342   3.599   1.722   6.123
 6815SOL     OW21343   3.322   6.609   1.411
 6815SOL    HW121344   3.364   6.675   1.474
 6815SOL    HW221345   3.259   6.657   1.350
 6816SOL     OW21346   6.661   6.743   6.506
 6816SOL    HW121347   6.577   6.786   6.541
 6816SOL    HW221348   6.721   6.720   6.583
 6817SOL     OW21349   2.468   2.584   2.976
 6817SOL    HW121350   2.467   2.546   2.884
 6817SOL    HW221351   2.538   2.655   2.983
 6818SOL     OW21352   2.636   6.130   2.138
 6818SOL    HW121353   2.638   6.196   2.062
 6818SOL    HW221354   2.728   6.119   2.175
 6819SOL     OW21355   5.098   1.965   3.412
 6819SOL    HW121356   5.167   1.902   3.448
 6819SOL    HW221357   5.027   1.913   3.365
 6820SOL     OW21358   2.242   5.504   2.404
 6820SOL    HW121359   2.188   5.579   2.442
 6820SOL    HW221360   2.337   5.533   2.393
 6821SOL     OW21361   3.799   2.129   4.784
 6821SOL    HW121362   3.801   2.149   4.882
 6821SOL    HW221363   3.878   2.170   4.739
 6822SOL     OW21364   5.031   2.808   6.159
 6822SOL    HW121365   4.940   2.840   6.185
 6822SOL    HW221366   5.050   2.721   6.205
 6823SOL     OW21367   4.575   3.306   5.504
 6823SOL    HW121368   4.503   3.279   5.567
 6823SOL    HW221369   4.590   3.234   5.436
 6824SOL     OW21370   1.137   2.082   0.407
 6824SOL    HW121371   1.114   2.025   0.328
 6824SOL    HW221372   1.219   2.136   0.387
 6825SOL     OW21373   4.898   6.423   1.275
 6825SOL    HW121374   4.917   6.480   1.355
 6825SOL    HW221375   4.830   6.468   1.217
 6826SOL     OW21376   1.651   3.435   3.213
 6826SOL    HW121377   1.590   3.359   3.190
 6826SOL    HW221378   1.700   3.414   3.298
 6827SOL     OW21379   4.547   5.546   6.342
 6827SOL    HW121380   4.622   5.482   6.358
 6827SOL    HW221381   4.537   5.562   6.243
 6828SOL     OW21382   3.227   1.740   1.914
 6828SOL    HW121383   3.220   1.810   1.985
 6828SOL    HW221384   3.279   1.777   1.836
 6829SOL     OW21385   4.809   6.229   5.633
 6829SOL    HW121386   4.764   6.165   5.571
 6829SOL    HW221387   4.755   6.313   5.640
 6830SOL     OW21388   4.783   1.231   3.558
 6830SOL    HW121389   4.825   1.297   3.621
 6830SOL    HW221390   4.816   1.139   3.580
 6831SOL     OW21391   1.383   0.593   6.548
 6831SOL    HW121392   1.445   0.580   6.471
 6831SOL    HW221393   1.294   0.552   6.526
 6832SOL     OW21394   2.464   3.634   0.883
 6832SOL    HW121395   2.391   3.700   0.866
 6832SOL    HW221396   2.475   3.621   0.982
 6833SOL     OW21397   3.261   4.633   6.216
 6833SOL    HW121398   3.165   4.605   6.224
 6833SOL    HW221399   3.270   4.698   6.141
 6834SOL     OW21400   4.446   6.347   1.053
 6834SOL    HW121401   4.542   6.320   1.043
 6834SOL    HW221402   4.433   6.438   1.015
 6835SOL     OW21403   3.780   0.909   4.517
 6835SOL    HW121404   3.702   0.848   4.506
 6835SOL    HW221405   3.767   0.990   4.459
 6836SOL     OW21406   2.501   4.682   0.520
 6836SOL    HW121407   2.593   4.676   0.559
 6836SOL    HW221408   2.445   4.607   0.555
 6837SOL     OW21409   0.560   1.845   2.157
 6837SOL    HW121410   0.623   1.809   2.226
 6837SOL    HW221411   0.607   1.850   2.068
 6838SOL     OW21412   3.474   6.141   0.130
 6838SOL    HW121413   3.448   6.053   0.091
 6838SOL    HW221414   3.424   6.155   0.216
 6839SOL     OW21415   5.686   1.066   6.691
 6839SOL    HW121416   5.704   1.083   6.788
 6839SOL    HW221417   5.653   0.972   6.680
 6840SOL     OW21418   3.209   0.956   4.740
 6840SOL    HW121419   3.243   0.872   4.781
 6840SOL    HW221420   3.110   0.962   4.753
 6841SOL     OW21421   4.125   4.589   6.748
 6841SOL    HW121422   4.207   4.562   6.797
 6841SOL    HW221423   4.044   4.569   6.804
 6842SOL     OW21424   2.676   3.979   0.896
 6842SOL    HW121425   2.641   3.892   0.932
 6842SOL    HW221426   2.751   4.011   0.955
 6843SOL     OW21427   6.498   6.447   1.291
 6843SOL    HW121428   6.430   6.374   1.292
 6843SOL    HW221429   6.568   6.428   1.361
 6844SOL     OW21430   5.061   0.841   3.885
 6844SOL    HW121431   5.014   0.765   3.932
 6844SOL    HW221432   5.090   0.811   3.794
 6845SOL     OW21433   6.227   3.998   2.583
 6845SOL    HW121434   6.188   3.909   2.557
 6845SOL    HW221435   6.279   4.035   2.506
 6846SOL     OW21436   3.765   2.956   6.908
 6846SOL    HW121437   3.820   3.038   6.923
 6846SOL    HW221438   3.691   2.952   6.975
 6847SOL     OW21439   0.355   3.134   4.332
 6847SOL    HW121440   0.290   3.061   4.311
 6847SOL    HW221441   0.436   3.094   4.377
 6848SOL     OW21442   4.844   5.498   3.725
 6848SOL    HW121443   4.774   5.433   3.754
 6848SOL    HW221444   4.821   5.590   3.757
 6849SOL     OW21445   4.145   5.182   5.178
 6849SOL    HW121446   4.068   5.120   5.158
 6849SOL    HW221447   4.142   5.260   5.116
 6850SOL     OW21448   5.693   3.797   2.067
 6850SOL    HW121449   5.734   3.809   2.157
 6850SOL    HW221450   5.635   3.716   2.068
 6851SOL     OW21451   0.405   1.718   2.909
 6851SOL    HW121452   0.348   1.706   2.990
 6851SOL    HW221453   0.497   1.682   2.926
 6852SOL     OW21454   2.563   4.129   1.303
 6852SOL    HW121455   2.542   4.035   1.278
 6852SOL    HW221456   2.484   4.187   1.284
 6853SOL     OW21457   5.628   4.843   0.194
 6853SOL    HW121458   5.621   4.943   0.192
 6853SOL    HW221459   5.537   4.803   0.197
 6854SOL     OW21460   4.868   1.032   5.968
 6854SOL    HW121461   4.819   1.012   5.883
 6854SOL    HW221462   4.859   1.129   5.990
 6855SOL     OW21463   4.096   6.770   4.063
 6855SOL    HW121464   4.135   6.824   3.989
 6855SOL    HW221465   4.098   6.673   4.039
 6856SOL     OW21466   6.859   2.939   5.017
 6856SOL    HW121467   6.788   2.994   5.061
 6856SOL    HW221468   6.937   2.931   5.078
 6857SOL     OW21469   2.916   2.077   6.464
 6857SOL    HW121470   2.979   2.018   6.414
 6857SOL    HW221471   2.893   2.157   6.407
 6858SOL     OW21472   4.155   3.625   2.838
 6858SOL    HW121473   4.243   3.578   2.831
 6858SOL    HW221474   4.128   3.629   2.935
 6859SOL     OW21475   1.119   1.664   1.043
 6859SOL    HW121476   1.163   1.720   0.973
 6859SOL    HW221477   1.038   1.619   1.004
 6860SOL     OW21478   6.756   5.194   0.896
 6860SOL    HW121479   6.734   5.272   0.955
 6860SOL    HW221480   6.779   5.115   0.953
 6861SOL     OW21481   4.131   4.874   0.104
 6861SOL    HW121482   4.152   4.949   0.166
 6861SOL    HW221483   4.032   4.867   0.091
 6862SOL     OW21484   1.543   5.210   5.871
 6862SOL    HW121485   1.480   5.285   5.852
 6862SOL    HW221486   1.624   5.218   5.813
 6863SOL     OW21487   5.298   6.814   6.094
 6863SOL    HW121488   5.371   6.882   6.087
 6863SOL    HW221489   5.272   6.783   6.003
 6864SOL     OW21490   2.477   4.510   4.757
 6864SOL    HW121491   2.437   4.483   4.845
 6864SOL    HW221492   2.437   4.454   4.684
 6865SOL     OW21493   0.804   6.194   4.550
 6865SOL    HW121494   0.886   6.143   4.522
 6865SOL    HW221495   0.821   6.292   4.542
 6866SOL     OW21496   5.913   5.117   3.337
 6866SOL    HW121497   5.924   5.075   3.427
 6866SOL    HW221498   5.817   5.110   3.309
 6867SOL     OW21499   2.235   4.268   2.199
 6867SOL    HW121500   2.156   4.313   2.158
 6867SOL    HW221501   2.212   4.173   2.220
 6868SOL     OW21502   1.564   6.066   6.734
 6868SOL    HW121503   1.554   5.980   6.683
 6868SOL    HW221504   1.618   6.048   6.817
 6869SOL     OW21505   5.527   1.073   6.268
 6869SOL    HW121506   5.529   0.974   6.279
 6869SOL    HW221507   5.453   1.099   6.205
 6870SOL     OW21508   0.223   4.613   1.588
 6870SOL    HW121509   0.193   4.702   1.555
 6870SOL    HW221510   0.257   4.622   1.682
 6871SOL     OW21511   6.104   3.960   3.193
 6871SOL    HW121512   6.176   3.902   3.156
 6871SOL    HW221513   6.025   3.904   3.217
 6872SOL     OW21514   0.538   2.151   1.250
 6872SOL    HW121515   0.591   2.166   1.166
 6872SOL    HW221516   0.579   2.202   1.325
 6873SOL     OW21517   6.726   3.687   3.549
 6873SOL    HW121518   6.726   3.605   3.492
 6873SOL    HW221519   6.633   3.722   3.558
 6874SOL     OW21520   6.466   5.306   2.610
 6874SOL    HW121521   6.536   5.247   2.649
 6874SOL    HW221522   6.478   5.400   2.642
 6875SOL     OW21523   2.192   3.127   2.740
 6875SOL    HW121524   2.147   3.062   2.679
 6875SOL    HW221525   2.268   3.172   2.691
 6876SOL     OW21526   4.107   0.593   4.047
 6876SOL    HW121527   4.099   0.507   4.098
 6876SOL    HW221528   4.170   0.654   4.095
 6877SOL     OW21529   2.951   3.664   1.295
 6877SOL    HW121530   3.038   3.616   1.311
 6877SOL    HW221531   2.942   3.684   1.197
 6878SOL     OW21532   3.882   0.892   3.912
 6878SOL    HW121533   3.823   0.896   3.993
 6878SOL    HW221534   3.880   0.981   3.865
 6879SOL     OW21535   1.137   2.840   0.946
 6879SOL    HW121536   1.209   2.775   0.920
 6879SOL    HW221537   1.092   2.808   1.029
 6880SOL     OW21538   2.471   5.474   5.354
 6880SOL    HW121539   2.424   5.398   5.306
 6880SOL    HW221540   2.403   5.539   5.386
 6881SOL     OW21541   2.027   4.051   1.099
 6881SOL    HW121542   1.943   3.999   1.085
 6881SOL    HW221543   2.031   4.127   1.034
 6882SOL     OW21544   2.954   0.998   0.229
 6882SOL    HW121545   2.980   0.999   0.132
 6882SOL    HW221546   3.018   1.054   0.281
 6883SOL     OW21547   4.997   1.664   0.002
 6883SOL    HW121548   5.024   1.708   0.087
 6883SOL    HW221549   5.072   1.607   6.998
 6884SOL     OW21550   0.956   4.350   3.573
 6884SOL    HW121551   0.870   4.325   3.618
 6884SOL    HW221552   0.986   4.439   3.606
 6885SOL     OW21553   4.503   4.559   4.419
 6885SOL    HW121554   4.553   4.611   4.488
 6885SOL    HW221555   4.413   4.600   4.404
 6886SOL     OW21556   6.724   0.912   4.436
 6886SOL    HW121557   6.793   0.967   4.482
 6886SOL    HW221558   6.690   0.842   4.499
 6887SOL     OW21559   5.323   5.757   6.043
 6887SOL    HW121560   5.390   5.683   6.037
 6887SOL    HW221561   5.370   5.843   6.063
 6888SOL     OW21562   5.532   5.594   6.031
 6888SOL    HW121563   5.605   5.657   6.059
 6888SOL    HW221564   5.548   5.564   5.937
 6889SOL     OW21565   1.569   2.927   5.934
 6889SOL    HW121566   1.614   2.850   5.980
 6889SOL    HW221567   1.637   2.979   5.883
 6890SOL     OW21568   3.853   6.298   2.314
 6890SOL    HW121569   3.778   6.356   2.347
 6890SOL    HW221570   3.934   6.354   2.300
 6891SOL     OW21571   2.181   4.030   2.557
 6891SOL    HW121572   2.238   4.091   2.611
 6891SOL    HW221573   2.158   3.948   2.610
 6892SOL     OW21574   3.781   1.940   3.679
 6892SOL    HW121575   3.747   1.969   3.768
 6892SOL    HW221576   3.876   1.971   3.667
 6893SOL     OW21577   4.391   4.864   6.806
 6893SOL    HW121578   4.405   4.769   6.833
 6893SOL    HW221579   4.293   4.883   6.800
 6894SOL     OW21580   5.756   5.222   0.431
 6894SOL    HW121581   5.704   5.164   0.494
 6894SOL    HW221582   5.730   5.201   0.337
 6895SOL     OW21583   2.553   4.725   1.245
 6895SOL    HW121584   2.516   4.755   1.333
 6895SOL    HW221585   2.637   4.672   1.260
 6896SOL     OW21586   2.490   0.924   3.793
 6896SOL    HW121587   2.541   0.902   3.876
 6896SOL    HW221588   2.554   0.952   3.721
 6897SOL     OW21589   4.994   3.852   4.965
 6897SOL    HW121590   4.931   3.777   4.987
 6897SOL    HW221591   5.088   3.820   4.979
 6898SOL     OW21592   4.229   1.412   1.263
 6898SOL    HW121593   4.255   1.395   1.168
 6898SOL    HW221594   4.242   1.509   1.284
 6899SOL     OW21595   4.574   6.406   1.541
 6899SOL    HW121596   4.655   6.349   1.530
 6899SOL    HW221597   4.602   6.500   1.562
 6900SOL     OW21598   6.070   5.996   5.053
 6900SOL    HW121599   6.048   5.966   4.960
 6900SOL    HW221600   5.992   5.979   5.113
 6901SOL     OW21601   6.266   5.939   6.012
 6901SOL    HW121602   6.169   5.965   6.015
 6901SOL    HW221603   6.274   5.844   5.982
 6902SOL     OW21604   6.782   6.041   6.818
 6902SOL    HW121605   6.812   6.099   6.743
 6902SOL    HW221606   6.682   6.038   6.820
 6903SOL     OW21607   3.381   5.331   5.529
 6903SOL    HW121608   3.332   5.244   5.542
 6903SOL    HW221609   3.439   5.348   5.609
 6904SOL     OW21610   6.226   0.454   4.925
 6904SOL    HW121611   6.208   0.356   4.915
 6904SOL    HW221612   6.148   0.498   4.970
 6905SOL     OW21613   5.930   5.786   6.883
 6905SOL    HW121614   5.943   5.759   6.979
 6905SOL    HW221615   5.845   5.746   6.849
 6906SOL     OW21616   3.740   1.400   4.113
 6906SOL    HW121617   3.641   1.389   4.118
 6906SOL    HW221618   3.770   1.391   4.018
 6907SOL     OW21619   5.472   2.495   1.573
 6907SOL    HW121620   5.469   2.432   1.651
 6907SOL    HW221621   5.550   2.471   1.515
 6908SOL     OW21622   1.382   5.414   0.100
 6908SOL    HW121623   1.423   5.343   0.042
 6908SOL    HW221624   1.284   5.420   0.082
 6909SOL     OW21625   4.969   3.898   1.282
 6909SOL    HW121626   4.998   3.848   1.365
 6909SOL    HW221627   4.892   3.957   1.304
 6910SOL     OW21628   0.970   3.041   3.375
 6910SOL    HW121629   0.939   2.967   3.434
 6910SOL    HW221630   1.070   3.046   3.377
 6911SOL     OW21631   4.034   6.865   4.315
 6911SOL    HW121632   3.955   6.926   4.314
 6911SOL    HW221633   4.076   6.863   4.224
 6912SOL     OW21634   3.262   3.609   6.276
 6912SOL    HW121635   3.209   3.689   6.249
 6912SOL    HW221636   3.263   3.543   6.201
 6913SOL     OW21637   5.676   6.132   3.552
 6913SOL    HW121638   5.678   6.218   3.603
 6913SOL    HW221639   5.582   6.113   3.524
 6914SOL     OW21640   6.048   4.438   3.675
 6914SOL    HW121641   6.099   4.513   3.634
 6914SOL    HW221642   5.988   4.397   3.606
 6915SOL     OW21643   6.128   2.449   1.919
 6915SOL    HW121644   6.177   2.468   1.834
 6915SOL    HW221645   6.142   2.354   1.945
 6916SOL     OW21646   5.509   1.893   0.084
 6916SOL    HW121647   5.477   1.916   0.176
 6916SOL    HW221648   5.585   1.953   0.059
 6917SOL     OW21649   3.129   6.510   1.582
 6917SOL    HW121650   3.192   6.564   1.527
 6917SOL    HW221651   3.072   6.571   1.637
 6918SOL     OW21652   1.016   2.454   4.597
 6918SOL    HW121653   1.031   2.502   4.511
 6918SOL    HW221654   0.930   2.484   4.638
 6919SOL     OW21655   5.701   5.939   4.043
 6919SOL    HW121656   5.716   5.920   3.946
 6919SOL    HW221657   5.625   6.003   4.053
 6920SOL     OW21658   4.028   6.543   5.988
 6920SOL    HW121659   4.048   6.623   6.044
 6920SOL    HW221660   4.010   6.571   5.894
 6921SOL     OW21661   4.650   5.931   4.238
 6921SOL    HW121662   4.653   6.031   4.226
 6921SOL    HW221663   4.743   5.896   4.246
 6922SOL     OW21664   1.315   6.808   4.725
 6922SOL    HW121665   1.221   6.814   4.758
 6922SOL    HW221666   1.328   6.720   4.679
 6923SOL     OW21667   5.156   5.729   3.084
 6923SOL    HW121668   5.181   5.655   3.022
 6923SOL    HW221669   5.100   5.797   3.036
 6924SOL     OW21670   1.817   4.444   6.649
 6924SOL    HW121671   1.892   4.476   6.706
 6924SOL    HW221672   1.817   4.493   6.562
 6925SOL     OW21673   4.933   5.914   4.009
 6925SOL    HW121674   5.031   5.916   3.989
 6925SOL    HW221675   4.903   6.004   4.041
 6926SOL     OW21676   2.772   2.510   0.487
 6926SOL    HW121677   2.791   2.423   0.532
 6926SOL    HW221678   2.834   2.580   0.523
 6927SOL     OW21679   3.650   3.034   5.633
 6927SOL    HW121680   3.691   3.064   5.547
 6927SOL    HW221681   3.717   3.043   5.706
 6928SOL     OW21682   5.727   6.053   0.954
 6928SOL    HW121683   5.803   6.064   0.891
 6928SOL    HW221684   5.642   6.085   0.910
 6929SOL     OW21685   5.017   5.712   1.462
 6929SOL    HW121686   5.007   5.811   1.475
 6929SOL    HW221687   4.966   5.683   1.382
 6930SOL     OW21688   0.979   0.785   1.703
 6930SOL    HW121689   0.923   0.813   1.781
 6930SOL    HW221690   1.012   0.692   1.718
 6931SOL     OW21691   1.804   1.298   2.379
 6931SOL    HW121692   1.805   1.247   2.293
 6931SOL    HW221693   1.854   1.247   2.449
 6932SOL     OW21694   4.211   6.936   6.711
 6932SOL    HW121695   4.308   6.913   6.707
 6932SOL    HW221696   4.170   6.895   6.792
 6933SOL     OW21697   3.482   5.763   5.542
 6933SOL    HW121698   3.558   5.703   5.516
 6933SOL    HW221699   3.449   5.813   5.462
 6934SOL     OW21700   4.431   3.514   6.308
 6934SOL    HW121701   4.464   3.489   6.217
 6934SOL    HW221702   4.385   3.602   6.304
 6935SOL     OW21703   4.670   5.578   2.365
 6935SOL    HW121704   4.582   5.583   2.413
 6935SOL    HW221705   4.712   5.669   2.364
 6936SOL     OW21706   6.232   2.350   3.525
 6936SOL    HW121707   6.273   2.408   3.455
 6936SOL    HW221708   6.301   2.327   3.593
 6937SOL     OW21709   6.079   6.670   6.865
 6937SOL    HW121710   6.099   6.576   6.894
 6937SOL    HW221711   6.090   6.678   6.766
 6938SOL     OW21712   6.466   2.814   5.436
 6938SOL    HW121713   6.559   2.844   5.460
 6938SOL    HW221714   6.469   2.761   5.351
 6939SOL     OW21715   0.434   5.232   2.279
 6939SOL    HW121716   0.499   5.240   2.204
 6939SOL    HW221717   0.481   5.247   2.366
 6940SOL     OW21718   3.580   0.692   6.083
 6940SOL    HW121719   3.588   0.785   6.119
 6940SOL    HW221720   3.608   0.627   6.153
 6941SOL     OW21721   3.098   4.104   1.817
 6941SOL    HW121722   3.009   4.059   1.829
 6941SOL    HW221723   3.149   4.098   1.903
 6942SOL     OW21724   5.892   6.725   1.976
 6942SOL    HW121725   5.889   6.822   1.951
 6942SOL    HW221726   5.906   6.670   1.894
 6943SOL     OW21727   3.497   5.609   0.523
 6943SOL    HW121728   3.420   5.545   0.515
 6943SOL    HW221729   3.495   5.672   0.446
 6944SOL     OW21730   0.468   4.715   6.551
 6944SOL    HW121731   0.433   4.643   6.610
 6944SOL    HW221732   0.440   4.804   6.588
 6945SOL     OW21733   6.463   1.465   0.374
 6945SOL    HW121734   6.364   1.478   0.368
 6945SOL    HW221735   6.490   1.385   0.321
 6946SOL     OW21736   3.881   6.760   1.286
 6946SOL    HW121737   3.975   6.749   1.317
 6946SOL    HW221738   3.819   6.714   1.350
 6947SOL     OW21739   3.521   5.603   6.761
 6947SOL    HW121740   3.499   5.701   6.761
 6947SOL    HW221741   3.528   5.571   6.856
 6948SOL     OW21742   0.707   6.719   0.581
 6948SOL    HW121743   0.747   6.762   0.662
 6948SOL    HW221744   0.780   6.688   0.520
 6949SOL     OW21745   3.896   0.425   3.447
 6949SOL    HW121746   3.898   0.385   3.539
 6949SOL    HW221747   3.801   0.438   3.419
 6950SOL     OW21748   1.288   1.742   4.985
 6950SOL    HW121749   1.205   1.702   5.025
 6950SOL    HW221750   1.321   1.682   4.912
 6951SOL     OW21751   6.737   5.322   5.546
 6951SOL    HW121752   6.786   5.405   5.519
 6951SOL    HW221753   6.785   5.278   5.622
 6952SOL     OW21754   0.758   6.273   3.185
 6952SOL    HW121755   0.720   6.325   3.262
 6952SOL    HW221756   0.799   6.188   3.219
 6953SOL     OW21757   4.058   6.348   1.502
 6953SOL    HW121758   4.145   6.373   1.544
 6953SOL    HW221759   3.984   6.360   1.568
 6954SOL     OW21760   6.951   3.753   2.244
 6954SOL    HW121761   6.879   3.797   2.297
 6954SOL    HW221762   0.000   3.814   2.239
 6955SOL     OW21763   5.430   0.383   1.938
 6955SOL    HW121764   5.367   0.346   2.007
 6955SOL    HW221765   5.524   0.371   1.970
 6956SOL     OW21766   5.386   6.020   3.479
 6956SOL    HW121767   5.312   6.042   3.543
 6956SOL    HW221768   5.362   5.937   3.428
 6957SOL     OW21769   6.272   5.597   0.997
 6957SOL    HW121770   6.244   5.683   0.953
 6957SOL    HW221771   6.217   5.583   1.079
 6958SOL     OW21772   3.628   3.454   4.564
 6958SOL    HW121773   3.546   3.435   4.510
 6958SOL    HW221774   3.699   3.492   4.505
 6959SOL     OW21775   2.110   3.357   3.691
 6959SOL    HW121776   2.113   3.302   3.775
 6959SOL    HW221777   2.083   3.299   3.614
 6960SOL     OW21778   1.242   4.140   0.999
 6960SOL    HW121779   1.195   4.085   1.068
 6960SOL    HW221780   1.180   4.154   0.921
 6961SOL     OW21781   5.822   0.880   4.069
 6961SOL    HW121782   5.891   0.815   4.100
 6961SOL    HW221783   5.732   0.850   4.100
 6962SOL     OW21784   4.783   6.125   1.798
 6962SOL    HW121785   4.777   6.060   1.723
 6962SOL    HW221786   4.842   6.201   1.772
 6963SOL     OW21787   4.960   5.988   1.462
 6963SOL    HW121788   5.050   6.022   1.434
 6963SOL    HW221789   4.897   5.993   1.384
 6964SOL     OW21790   4.025   1.191   5.562
 6964SOL    HW121791   4.116   1.160   5.590
 6964SOL    HW221792   4.020   1.291   5.569
 6965SOL     OW21793   1.700   0.809   6.803
 6965SOL    HW121794   1.700   0.852   6.893
 6965SOL    HW221795   1.736   0.873   6.735
 6966SOL     OW21796   1.348   2.039   2.270
 6966SOL    HW121797   1.429   2.011   2.322
 6966SOL    HW221798   1.308   1.959   2.226
 6967SOL     OW21799   2.835   1.260   5.565
 6967SOL    HW121800   2.869   1.211   5.485
 6967SOL    HW221801   2.875   1.352   5.567
 6968SOL     OW21802   3.652   0.418   3.312
 6968SOL    HW121803   3.701   0.473   3.245
 6968SOL    HW221804   3.555   0.439   3.308
 6969SOL     OW21805   3.128   2.415   1.690
 6969SOL    HW121806   3.061   2.433   1.762
 6969SOL    HW221807   3.211   2.377   1.730
 6970SOL     OW21808   4.107   4.155   5.896
 6970SOL    HW121809   4.118   4.195   5.805
 6970SOL    HW221810   4.194   4.114   5.924
 6971SOL     OW21811   6.480   4.758   0.800
 6971SOL    HW121812   6.468   4.668   0.757
 6971SOL    HW221813   6.571   4.763   0.841
 6972SOL     OW21814   5.491   4.487   2.997
 6972SOL    HW121815   5.553   4.565   2.985
 6972SOL    HW221816   5.541   4.410   3.037
 6973SOL     OW21817   1.209   3.295   2.921
 6973SOL    HW121818   1.268   3.322   2.846
 6973SOL    HW221819   1.225   3.199   2.944
 6974SOL     OW21820   2.956   3.769   2.669
 6974SOL    HW121821   2.937   3.797   2.575
 6974SOL    HW221822   2.994   3.676   2.669
 6975SOL     OW21823   1.325   6.379   5.691
 6975SOL    HW121824   1.355   6.299   5.640
 6975SOL    HW221825   1.405   6.430   5.723
 6976SOL     OW21826   6.284   5.205   6.087
 6976SOL    HW121827   6.294   5.126   6.027
 6976SOL    HW221828   6.368   5.260   6.083
 6977SOL     OW21829   3.719   2.725   1.331
 6977SOL    HW121830   3.730   2.638   1.379
 6977SOL    HW221831   3.796   2.737   1.268
 6978SOL     OW21832   5.949   1.760   2.099
 6978SOL    HW121833   6.000   1.774   2.014
 6978SOL    HW221834   6.007   1.715   2.166
 6979SOL     OW21835   0.810   4.444   1.608
 6979SOL    HW121836   0.895   4.444   1.661
 6979SOL    HW221837   0.765   4.355   1.619
 6980SOL     OW21838   1.678   1.216   3.568
 6980SOL    HW121839   1.627   1.235   3.652
 6980SOL    HW221840   1.661   1.122   3.539
 6981SOL     OW21841   3.849   3.495   6.037
 6981SOL    HW121842   3.907   3.576   6.031
 6981SOL    HW221843   3.906   3.413   6.042
 6982SOL     OW21844   1.142   1.107   4.866
 6982SOL    HW121845   1.077   1.071   4.799
 6982SOL    HW221846   1.091   1.143   4.944
 6983SOL     OW21847   3.697   2.122   3.907
 6983SOL    HW121848   3.648   2.124   3.994
 6983SOL    HW221849   3.788   2.162   3.918
 6984SOL     OW21850   1.953   1.993   3.562
 6984SOL    HW121851   1.946   2.092   3.577
 6984SOL    HW221852   2.034   1.974   3.507
 6985SOL     OW21853   5.703   4.873   1.262
 6985SOL    HW121854   5.678   4.925   1.180
 6985SOL    HW221855   5.790   4.908   1.298
 6986SOL     OW21856   2.598   6.926   6.474
 6986SOL    HW121857   2.693   6.898   6.458
 6986SOL    HW221858   2.552   6.939   6.386
 6987SOL     OW21859   5.869   0.927   6.451
 6987SOL    HW121860   5.897   1.021   6.471
 6987SOL    HW221861   5.892   0.869   6.529
 6988SOL     OW21862   1.132   6.675   6.907
 6988SOL    HW121863   1.042   6.706   6.879
 6988SOL    HW221864   1.124   6.618   6.989
 6989SOL     OW21865   1.363   4.237   3.020
 6989SOL    HW121866   1.412   4.159   3.060
 6989SOL    HW221867   1.342   4.218   2.924
 6990SOL     OW21868   4.741   2.845   1.353
 6990SOL    HW121869   4.698   2.771   1.404
 6990SOL    HW221870   4.753   2.818   1.258
 6991SOL     OW21871   4.696   4.236   3.758
 6991SOL    HW121872   4.657   4.302   3.822
 6991SOL    HW221873   4.780   4.197   3.797
 6992SOL     OW21874   5.396   0.178   6.406
 6992SOL    HW121875   5.367   0.090   6.369
 6992SOL    HW221876   5.372   0.183   6.503
 6993SOL     OW21877   6.133   0.084   3.064
 6993SOL    HW121878   6.081   0.113   2.984
 6993SOL    HW221879   6.161   0.165   3.116
 6994SOL     OW21880   0.601   2.494   3.948
 6994SOL    HW121881   0.647   2.575   3.913
 6994SOL    HW221882   0.503   2.514   3.958
 6995SOL     OW21883   0.660   4.663   6.359
 6995SOL    HW121884   0.587   4.705   6.413
 6995SOL    HW221885   0.643   4.680   6.262
 6996SOL     OW21886   1.475   0.425   6.961
 6996SOL    HW121887   1.487   0.326   6.964
 6996SOL    HW221888   1.483   0.457   6.867
 6997SOL     OW21889   0.655   5.214   5.691
 6997SOL    HW121890   0.579   5.149   5.692
 6997SOL    HW221891   0.635   5.287   5.625
 6998SOL     OW21892   1.781   0.777   1.575
 6998SOL    HW121893   1.819   0.865   1.603
 6998SOL    HW221894   1.814   0.755   1.483
 6999SOL     OW21895   2.375   2.147   6.307
 6999SOL    HW121896   2.383   2.201   6.390
 6999SOL    HW221897   2.342   2.205   6.233
 7000SOL     OW21898   5.573   6.624   1.743
 7000SOL    HW121899   5.609   6.538   1.708
 7000SOL    HW221900   5.495   6.653   1.688
 7001SOL     OW21901   1.808   3.361   6.121
 7001SOL    HW121902   1.865   3.279   6.135
 7001SOL    HW221903   1.861   3.443   6.143
 7002SOL     OW21904   1.495   5.599   4.189
 7002SOL    HW121905   1.410   5.568   4.147
 7002SOL    HW221906   1.489   5.587   4.288
 7003SOL     OW21907   4.375   5.568   0.807
 7003SOL    HW121908   4.363   5.519   0.893
 7003SOL    HW221909   4.286   5.583   0.764
 7004SOL     OW21910   0.451   5.577   1.597
 7004SOL    HW121911   0.536   5.570   1.545
 7004SOL    HW221912   0.422   5.486   1.626
 7005SOL     OW21913   0.945   6.932   0.511
 7005SOL    HW121914   0.905   6.996   0.446
 7005SOL    HW221915   0.922   6.959   0.604
 7006SOL     OW21916   5.014   5.181   3.762
 7006SOL    HW121917   5.074   5.219   3.833
 7006SOL    HW221918   4.928   5.232   3.761
 7007SOL     OW21919   4.212   0.617   4.467
 7007SOL    HW121920   4.299   0.600   4.512
 7007SOL    HW221921   4.154   0.672   4.527
 7008SOL     OW21922   0.334   4.207   4.477
 7008SOL    HW121923   0.323   4.283   4.412
 7008SOL    HW221924   0.345   4.122   4.426
 7009SOL     OW21925   4.402   6.228   2.878
 7009SOL    HW121926   4.391   6.188   2.787
 7009SOL    HW221927   4.342   6.180   2.942
 7010SOL     OW21928   5.750   4.153   3.615
 7010SOL    HW121929   5.664   4.102   3.612
 7010SOL    HW221930   5.783   4.158   3.709
 7011SOL     OW21931   3.281   6.629   6.464
 7011SOL    HW121932   3.220   6.551   6.443
 7011SOL    HW221933   3.374   6.607   6.436
 7012SOL     OW21934   0.729   2.030   1.503
 7012SOL    HW121935   0.771   2.019   1.593
 7012SOL    HW221936   0.637   1.991   1.504
 7013SOL     OW21937   0.714   6.687   0.271
 7013SOL    HW121938   0.796   6.740   0.246
 7013SOL    HW221939   0.650   6.746   0.319
 7014SOL     OW21940   4.603   3.149   0.806
 7014SOL    HW121941   4.639   3.236   0.839
 7014SOL    HW221942   4.504   3.156   0.795
 7015SOL     OW21943   6.073   4.069   1.002
 7015SOL    HW121944   6.138   4.030   0.938
 7015SOL    HW221945   5.980   4.050   0.971
 7016SOL     OW21946   3.632   5.105   1.427
 7016SOL    HW121947   3.595   5.159   1.503
 7016SOL    HW221948   3.570   5.110   1.349
 7017SOL     OW21949   2.633   4.975   3.383
 7017SOL    HW121950   2.662   4.879   3.383
 7017SOL    HW221951   2.535   4.980   3.369
 7018SOL     OW21952   5.547   3.374   4.192
 7018SOL    HW121953   5.480   3.426   4.245
 7018SOL    HW221954   5.612   3.330   4.255
 7019SOL     OW21955   3.543   4.662   0.296
 7019SOL    HW121956   3.451   4.682   0.261
 7019SOL    HW221957   3.536   4.594   0.370
 7020SOL     OW21958   6.729   4.208   5.868
 7020SOL    HW121959   6.700   4.154   5.946
 7020SOL    HW221960   6.816   4.174   5.833
 7021SOL     OW21961   1.867   1.974   5.196
 7021SOL    HW121962   1.892   2.070   5.199
 7021SOL    HW221963   1.773   1.963   5.227
 7022SOL     OW21964   4.678   0.227   6.743
 7022SOL    HW121965   4.630   0.244   6.829
 7022SOL    HW221966   4.725   0.139   6.748
 7023SOL     OW21967   1.607   2.672   2.902
 7023SOL    HW121968   1.626   2.770   2.910
 7023SOL    HW221969   1.692   2.621   2.919
 7024SOL     OW21970   3.154   3.903   5.453
 7024SOL    HW121971   3.094   3.836   5.410
 7024SOL    HW221972   3.101   3.984   5.480
 7025SOL     OW21973   3.062   0.628   0.553
 7025SOL    HW121974   3.092   0.672   0.469
 7025SOL    HW221975   2.998   0.688   0.601
 7026SOL     OW21976   3.563   2.057   2.252
 7026SOL    HW121977   3.565   2.097   2.160
 7026SOL    HW221978   3.640   2.093   2.304
 7027SOL     OW21979   1.809   5.393   3.911
 7027SOL    HW121980   1.745   5.364   3.982
 7027SOL    HW221981   1.784   5.484   3.878
 7028SOL     OW21982   3.497   1.624   2.747
 7028SOL    HW121983   3.496   1.722   2.728
 7028SOL    HW221984   3.405   1.595   2.774
 7029SOL     OW21985   4.385   4.628   5.425
 7029SOL    HW121986   4.296   4.642   5.469
 7029SOL    HW221987   4.446   4.704   5.448
 7030SOL     OW21988   0.640   0.919   5.275
 7030SOL    HW121989   0.636   0.892   5.371
 7030SOL    HW221990   0.618   0.841   5.218
 7031SOL     OW21991   3.701   6.089   6.503
 7031SOL    HW121992   3.606   6.122   6.504
 7031SOL    HW221993   3.747   6.118   6.587
 7032SOL     OW21994   4.415   1.896   3.948
 7032SOL    HW121995   4.327   1.850   3.936
 7032SOL    HW221996   4.446   1.932   3.860
 7033SOL     OW21997   1.838   2.545   2.937
 7033SOL    HW121998   1.917   2.509   2.887
 7033SOL    HW221999   1.821   2.488   3.017
 7034SOL     OW22000   6.864   1.313   3.193
 7034SOL    HW122001   6.891   1.303   3.097
 7034SOL    HW222002   6.767   1.335   3.198
 7035SOL     OW22003   1.625   0.035   0.707
 7035SOL    HW122004   1.526   0.030   0.715
 7035SOL    HW222005   1.667   7.019   0.785
 7036SOL     OW22006   6.843   1.059   2.703
 7036SOL    HW122007   6.925   1.015   2.739
 7036SOL    HW222008   6.867   1.149   2.666
 7037SOL     OW22009   1.464   1.666   6.417
 7037SOL    HW122010   1.514   1.708   6.342
 7037SOL    HW222011   1.377   1.714   6.431
 7038SOL     OW22012   2.072   4.022   5.111
 7038SOL    HW122013   2.075   3.935   5.161
 7038SOL    HW222014   2.164   4.046   5.080
 7039SOL     OW22015   0.968   5.767   2.845
 7039SOL    HW122016   0.929   5.761   2.753
 7039SOL    HW222017   0.946   5.684   2.896
 7040SOL     OW22018   5.288   2.795   5.510
 7040SOL    HW122019   5.300   2.718   5.447
 7040SOL    HW222020   5.367   2.856   5.505
 7041SOL     OW22021   6.358   1.385   2.154
 7041SOL    HW122022   6.403   1.460   2.105
 7041SOL    HW222023   6.294   1.339   2.093
 7042SOL     OW22024   4.162   5.874   4.788
 7042SOL    HW122025   4.198   5.855   4.697
 7042SOL    HW222026   4.063   5.862   4.788
 7043SOL     OW22027   2.289   4.740   3.484
 7043SOL    HW122028   2.215   4.788   3.531
 7043SOL    HW222029   2.256   4.652   3.450
 7044SOL     OW22030   5.866   5.198   4.919
 7044SOL    HW122031   5.813   5.232   4.842
 7044SOL    HW222032   5.933   5.131   4.886
 7045SOL     OW22033   5.105   5.049   2.509
 7045SOL    HW122034   5.145   5.137   2.534
 7045SOL    HW222035   5.162   4.975   2.546
 7046SOL     OW22036   2.946   1.775   3.711
 7046SOL    HW122037   2.939   1.869   3.677
 7046SOL    HW222038   2.894   1.767   3.796
 7047SOL     OW22039   6.344   0.288   2.271
 7047SOL    HW122040   6.431   0.271   2.225
 7047SOL    HW222041   6.270   0.248   2.217
 7048SOL     OW22042   5.921   6.729   3.924
 7048SOL    HW122043   5.903   6.818   3.967
 7048SOL    HW222044   5.973   6.742   3.840
 7049SOL     OW22045   3.926   1.778   0.968
 7049SOL    HW122046   3.965   1.813   0.883
 7049SOL    HW222047   3.829   1.803   0.973
 7050SOL     OW22048   4.311   3.527   1.361
 7050SOL    HW122049   4.326   3.532   1.460
 7050SOL    HW222050   4.379   3.467   1.320
 7051SOL     OW22051   6.883   6.799   1.231
 7051SOL    HW122052   6.946   6.722   1.223
 7051SOL    HW222053   6.901   6.865   1.159
 7052SOL     OW22054   6.796   1.475   3.467
 7052SOL    HW122055   6.786   1.417   3.548
 7052SOL    HW222056   6.759   1.427   3.387
 7053SOL     OW22057   1.820   3.634   4.797
 7053SOL    HW122058   1.726   3.604   4.786
 7053SOL    HW222059   1.854   3.672   4.711
 7054SOL     OW22060   7.011   6.846   0.627
 7054SOL    HW122061   6.942   6.841   0.699
 7054SOL    HW222062   0.052   6.778   0.644
 7055SOL     OW22063   2.718   0.004   0.037
 7055SOL    HW122064   2.815   0.010   0.012
 7055SOL    HW222065   2.681   6.946   0.008
 7056SOL     OW22066   6.719   5.137   1.281
 7056SOL    HW122067   6.810   5.129   1.321
 7056SOL    HW222068   6.654   5.167   1.351
 7057SOL     OW22069   2.876   4.841   3.849
 7057SOL    HW122070   2.850   4.802   3.761
 7057SOL    HW222071   2.874   4.770   3.919
 7058SOL     OW22072   5.324   2.909   5.794
 7058SOL    HW122073   5.350   3.006   5.793
 7058SOL    HW222074   5.316   2.876   5.700
 7059SOL     OW22075   0.497   1.610   4.260
 7059SOL    HW122076   0.534   1.677   4.196
 7059SOL    HW222077   0.455   1.657   4.337
 7060SOL     OW22078   3.652   0.186   1.279
 7060SOL    HW122079   3.688   0.204   1.371
 7060SOL    HW222080   3.693   0.102   1.243
 7061SOL     OW22081   0.685   3.624   3.644
 7061SOL    HW122082   0.645   3.585   3.561
 7061SOL    HW222083   0.613   3.664   3.701
 7062SOL     OW22084   3.248   2.152   5.295
 7062SOL    HW122085   3.181   2.083   5.321
 7062SOL    HW222086   3.204   2.224   5.240
 7063SOL     OW22087   1.597   6.515   1.610
 7063SOL    HW122088   1.662   6.445   1.582
 7063SOL    HW222089   1.617   6.545   1.703
 7064SOL     OW22090   4.003   2.066   6.990
 7064SOL    HW122091   3.911   2.034   7.008
 7064SOL    HW222092   4.015   2.158   7.027
 7065SOL     OW22093   3.820   3.670   5.726
 7065SOL    HW122094   3.890   3.666   5.797
 7065SOL    HW222095   3.863   3.670   5.636
 7066SOL     OW22096   3.765   0.295   5.993
 7066SOL    HW122097   3.779   0.249   5.905
 7066SOL    HW222098   3.815   0.381   5.994
 7067SOL     OW22099   1.469   3.327   5.294
 7067SOL    HW122100   1.381   3.336   5.340
 7067SOL    HW222101   1.531   3.399   5.325
 7068SOL     OW22102   5.994   4.116   5.012
 7068SOL    HW122103   6.046   4.040   5.051
 7068SOL    HW222104   6.054   4.194   4.997
 7069SOL     OW22105   5.418   1.861   4.685
 7069SOL    HW122106   5.377   1.939   4.732
 7069SOL    HW222107   5.481   1.814   4.748
 7070SOL     OW22108   1.040   6.866   4.849
 7070SOL    HW122109   0.950   6.853   4.893
 7070SOL    HW222110   1.095   6.927   4.905
 7071SOL     OW22111   3.678   6.357   6.750
 7071SOL    HW122112   3.675   6.313   6.840
 7071SOL    HW222113   3.602   6.422   6.742
 7072SOL     OW22114   2.016   5.638   0.380
 7072SOL    HW122115   2.039   5.717   0.323
 7072SOL    HW222116   2.002   5.558   0.321
 7073SOL     OW22117   4.991   6.926   3.953
 7073SOL    HW122118   5.075   6.871   3.949
 7073SOL    HW222119   4.965   6.954   3.861
 7074SOL     OW22120   6.268   3.083   1.860
 7074SOL    HW122121   6.182   3.037   1.837
 7074SOL    HW222122   6.342   3.016   1.860
 7075SOL     OW22123   1.730   4.235   4.739
 7075SOL    HW122124   1.764   4.314   4.689
 7075SOL    HW222125   1.804   4.196   4.794
 7076SOL     OW22126   5.367   3.258   0.405
 7076SOL    HW122127   5.435   3.193   0.439
 7076SOL    HW222128   5.275   3.220   0.414
 7077SOL     OW22129   2.070   4.264   3.568
 7077SOL    HW122130   1.992   4.218   3.527
 7077SOL    HW222131   2.049   4.361   3.581
 7078SOL     OW22132   6.764   6.004   1.410
 7078SOL    HW122133   6.677   5.998   1.360
 7078SOL    HW222134   6.806   5.914   1.415
 7079SOL     OW22135   0.884   6.934   3.765
 7079SOL    HW122136   0.836   6.916   3.679
 7079SOL    HW222137   0.817   6.949   3.838
 7080SOL     OW22138   3.175   1.586   4.438
 7080SOL    HW122139   3.088   1.614   4.479
 7080SOL    HW222140   3.176   1.612   4.341
 7081SOL     OW22141   1.873   5.774   0.571
 7081SOL    HW122142   1.943   5.803   0.637
 7081SOL    HW222143   1.917   5.727   0.495
 7082SOL     OW22144   6.349   4.661   0.205
 7082SOL    HW122145   6.336   4.755   0.235
 7082SOL    HW222146   6.300   4.646   0.119
 7083SOL     OW22147   0.813   1.367   1.729
 7083SOL    HW122148   0.862   1.288   1.692
 7083SOL    HW222149   0.869   1.450   1.716
 7084SOL     OW22150   1.189   5.577   5.536
 7084SOL    HW122151   1.173   5.612   5.444
 7084SOL    HW222152   1.102   5.567   5.583
 7085SOL     OW22153   0.217   1.678   2.432
 7085SOL    HW122154   0.228   1.658   2.335
 7085SOL    HW222155   0.296   1.643   2.483
 7086SOL     OW22156   5.389   1.121   5.729
 7086SOL    HW122157   5.362   1.139   5.635
 7086SOL    HW222158   5.353   1.193   5.788
 7087SOL     OW22159   6.187   4.571   2.840
 7087SOL    HW122160   6.201   4.628   2.921
 7087SOL    HW222161   6.161   4.479   2.868
 7088SOL     OW22162   5.093   2.290   4.858
 7088SOL    HW122163   5.101   2.379   4.813
 7088SOL    HW222164   5.046   2.226   4.797
 7089SOL     OW22165   2.241   2.779   4.157
 7089SOL    HW122166   2.158   2.726   4.142
 7089SOL    HW222167   2.242   2.813   4.252
 7090SOL     OW22168   2.379   1.209   0.426
 7090SOL    HW122169   2.314   1.280   0.399
 7090SOL    HW222170   2.463   1.250   0.461
 7091SOL     OW22171   0.609   1.104   0.758
 7091SOL    HW122172   0.581   1.200   0.761
 7091SOL    HW222173   0.674   1.085   0.831
 7092SOL     OW22174   4.451   2.943   5.642
 7092SOL    HW122175   4.421   2.922   5.549
 7092SOL    HW222176   4.449   3.042   5.657
 7093SOL     OW22177   3.665   4.095   2.407
 7093SOL    HW122178   3.708   4.185   2.402
 7093SOL    HW222179   3.619   4.085   2.495
 7094SOL     OW22180   0.268   6.360   5.518
 7094SOL    HW122181   0.299   6.317   5.603
 7094SOL    HW222182   0.232   6.290   5.456
 7095SOL     OW22183   2.548   4.539   5.925
 7095SOL    HW122184   2.496   4.583   5.998
 7095SOL    HW222185   2.488   4.477   5.875
 7096SOL     OW22186   6.384   6.873   1.992
 7096SOL    HW122187   6.324   6.794   1.997
 7096SOL    HW222188   6.398   6.912   2.083
 7097SOL     OW22189   4.567   0.466   2.248
 7097SOL    HW122190   4.664   0.442   2.257
 7097SOL    HW222191   4.510   0.389   2.276
 7098SOL     OW22192   1.870   5.791   5.782
 7098SOL    HW122193   1.933   5.827   5.852
 7098SOL    HW222194   1.840   5.700   5.809
 7099SOL     OW22195   3.772   1.793   5.085
 7099SOL    HW122196   3.714   1.779   5.004
 7099SOL    HW222197   3.728   1.859   5.146
 7100SOL     OW22198   6.259   3.701   0.232
 7100SOL    HW122199   6.279   3.760   0.154
 7100SOL    HW222200   6.342   3.686   0.285
 7101SOL     OW22201   2.585   1.433   5.246
 7101SOL    HW122202   2.486   1.443   5.235
 7101SOL    HW222203   2.630   1.518   5.221
 7102SOL     OW22204   5.751   6.969   0.550
 7102SOL    HW122205   5.829   6.939   0.496
 7102SOL    HW222206   5.736   6.904   0.625
 7103SOL     OW22207   5.713   5.538   1.827
 7103SOL    HW122208   5.745   5.494   1.744
 7103SOL    HW222209   5.773   5.514   1.904
 7104SOL     OW22210   6.426   3.740   2.867
 7104SOL    HW122211   6.382   3.708   2.784
 7104SOL    HW222212   6.520   3.769   2.846
 7105SOL     OW22213   3.256   3.115   4.882
 7105SOL    HW122214   3.274   3.017   4.872
 7105SOL    HW222215   3.199   3.130   4.963
 7106SOL     OW22216   3.284   2.870   2.027
 7106SOL    HW122217   3.227   2.826   1.958
 7106SOL    HW222218   3.346   2.935   1.983
 7107SOL     OW22219   4.620   0.128   0.567
 7107SOL    HW122220   4.584   0.077   0.646
 7107SOL    HW222221   4.547   0.141   0.500
 7108SOL     OW22222   3.135   5.499   2.744
 7108SOL    HW122223   3.131   5.550   2.830
 7108SOL    HW222224   3.069   5.538   2.680
 7109SOL     OW22225   2.296   0.268   6.422
 7109SOL    HW122226   2.204   0.243   6.450
 7109SOL    HW222227   2.298   0.364   6.395
 7110SOL     OW22228   3.258   6.016   4.046
 7110SOL    HW122229   3.167   5.979   4.026
 7110SOL    HW222230   3.292   6.063   3.965
 7111SOL     OW22231   1.317   2.783   4.569
 7111SOL    HW122232   1.239   2.816   4.623
 7111SOL    HW222233   1.368   2.716   4.623
 7112SOL     OW22234   2.078   4.825   4.347
 7112SOL    HW122235   2.064   4.826   4.446
 7112SOL    HW222236   2.127   4.742   4.321
 7113SOL     OW22237   3.647   4.057   5.253
 7113SOL    HW122238   3.579   4.115   5.208
 7113SOL    HW222239   3.605   4.012   5.332
 7114SOL     OW22240   5.112   5.780   1.043
 7114SOL    HW122241   5.027   5.735   1.072
 7114SOL    HW222242   5.191   5.727   1.075
 7115SOL     OW22243   4.248   3.024   0.178
 7115SOL    HW122244   4.295   2.936   0.184
 7115SOL    HW222245   4.314   3.098   0.189
 7116SOL     OW22246   5.361   4.587   3.274
 7116SOL    HW122247   5.414   4.576   3.191
 7116SOL    HW222248   5.266   4.561   3.257
 7117SOL     OW22249   6.950   6.846   4.965
 7117SOL    HW122250   7.029   6.868   4.908
 7117SOL    HW222251   6.928   6.924   5.023
 7118SOL     OW22252   3.518   4.845   6.231
 7118SOL    HW122253   3.456   4.834   6.152
 7118SOL    HW222254   3.515   4.763   6.287
 7119SOL     OW22255   5.010   0.925   4.849
 7119SOL    HW122256   4.973   0.903   4.940
 7119SOL    HW222257   4.994   1.021   4.829
 7120SOL     OW22258   3.762   2.100   1.742
 7120SOL    HW122259   3.754   2.140   1.651
 7120SOL    HW222260   3.732   2.167   1.811
 7121SOL     OW22261   0.564   6.673   3.652
 7121SOL    HW122262   0.632   6.665   3.725
 7121SOL    HW222263   0.476   6.697   3.693
 7122SOL     OW22264   1.595   0.777   5.800
 7122SOL    HW122265   1.579   0.830   5.883
 7122SOL    HW222266   1.564   0.829   5.721
 7123SOL     OW22267   0.888   5.428   4.092
 7123SOL    HW122268   0.946   5.506   4.070
 7123SOL    HW222269   0.805   5.460   4.138
 7124SOL     OW22270   0.621   2.348   1.441
 7124SOL    HW122271   0.628   2.444   1.414
 7124SOL    HW222272   0.713   2.312   1.460
 7125SOL     OW22273   1.093   0.806   0.857
 7125SOL    HW122274   1.092   0.874   0.783
 7125SOL    HW222275   1.040   0.726   0.830
 7126SOL     OW22276   3.518   4.947   0.788
 7126SOL    HW122277   3.468   4.887   0.726
 7126SOL    HW222278   3.581   4.892   0.844
 7127SOL     OW22279   2.851   5.598   6.983
 7127SOL    HW122280   2.889   5.594   6.890
 7127SOL    HW222281   2.758   5.635   6.979
 7128SOL     OW22282   3.341   3.656   6.721
 7128SOL    HW122283   3.277   3.625   6.651
 7128SOL    HW222284   3.292   3.714   6.787
 7129SOL     OW22285   2.326   1.366   0.947
 7129SOL    HW122286   2.316   1.422   0.864
 7129SOL    HW222287   2.262   1.398   1.017
 7130SOL     OW22288   3.528   6.234   4.198
 7130SOL    HW122289   3.604   6.178   4.231
 7130SOL    HW222290   3.506   6.304   4.266
 7131SOL     OW22291   3.462   1.083   1.550
 7131SOL    HW122292   3.482   0.991   1.518
 7131SOL    HW222293   3.380   1.082   1.607
 7132SOL     OW22294   4.312   3.977   0.415
 7132SOL    HW122295   4.362   3.935   0.339
 7132SOL    HW222296   4.230   3.924   0.434
 7133SOL     OW22297   4.011   4.898   5.028
 7133SOL    HW122298   4.002   4.818   5.088
 7133SOL    HW222299   3.927   4.952   5.031
 7134SOL     OW22300   4.642   0.079   1.607
 7134SOL    HW122301   4.601   0.085   1.516
 7134SOL    HW222302   4.707   0.153   1.620
 7135SOL     OW22303   2.229   2.536   3.130
 7135SOL    HW122304   2.254   2.531   3.227
 7135SOL    HW222305   2.311   2.551   3.075
 7136SOL     OW22306   3.521   1.632   0.411
 7136SOL    HW122307   3.604   1.653   0.464
 7136SOL    HW222308   3.461   1.712   0.411
 7137SOL     OW22309   3.107   1.991   0.358
 7137SOL    HW122310   3.123   1.949   0.269
 7137SOL    HW222311   3.151   2.081   0.362
 7138SOL     OW22312   2.283   1.836   0.926
 7138SOL    HW122313   2.367   1.784   0.911
 7138SOL    HW222314   2.296   1.900   1.002
 7139SOL     OW22315   4.798   4.896   2.480
 7139SOL    HW122316   4.821   4.808   2.523
 7139SOL    HW222317   4.748   4.879   2.395
 7140SOL     OW22318   6.428   4.247   0.708
 7140SOL    HW122319   6.496   4.193   0.659
 7140SOL    HW222320   6.444   4.345   0.691
 7141SOL     OW22321   3.621   6.764   1.084
 7141SOL    HW122322   3.683   6.777   1.162
 7141SOL    HW222323   3.536   6.813   1.101
 7142SOL     OW22324   4.188   6.881   3.835
 7142SOL    HW122325   4.171   6.971   3.794
 7142SOL    HW222326   4.182   6.810   3.766
 7143SOL     OW22327   2.298   3.483   0.044
 7143SOL    HW122328   2.383   3.530   0.018
 7143SOL    HW222329   2.283   3.494   0.142
 7144SOL     OW22330   0.838   1.053   3.585
 7144SOL    HW122331   0.856   1.014   3.675
 7144SOL    HW222332   0.780   0.991   3.532
 7145SOL     OW22333   4.059   0.794   6.660
 7145SOL    HW122334   4.075   0.695   6.657
 7145SOL    HW222335   3.962   0.812   6.642
 7146SOL     OW22336   1.715   0.647   6.128
 7146SOL    HW122337   1.758   0.700   6.202
 7146SOL    HW222338   1.765   0.662   6.043
 7147SOL     OW22339   6.909   6.228   2.864
 7147SOL    HW122340   6.970   6.265   2.934
 7147SOL    HW222341   6.936   6.261   2.774
 7148SOL     OW22342   6.035   5.707   1.672
 7148SOL    HW122343   6.062   5.783   1.612
 7148SOL    HW222344   5.952   5.664   1.636
 7149SOL     OW22345   0.325   5.382   3.709
 7149SOL    HW122346   0.286   5.373   3.618
 7149SOL    HW222347   0.311   5.475   3.743
 7150SOL     OW22348   3.439   3.295   0.576
 7150SOL    HW122349   3.453   3.204   0.538
 7150SOL    HW222350   3.344   3.323   0.563
 7151SOL     OW22351   2.922   6.686   1.366
 7151SOL    HW122352   2.942   6.589   1.352
 7151SOL    HW222353   3.002   6.741   1.343
 7152SOL     OW22354   6.764   0.489   5.813
 7152SOL    HW122355   6.760   0.554   5.889
 7152SOL    HW222356   6.698   0.516   5.743
 7153SOL     OW22357   3.882   5.151   1.944
 7153SOL    HW122358   3.969   5.195   1.926
 7153SOL    HW222359   3.813   5.184   1.880
 7154SOL     OW22360   4.348   6.490   3.103
 7154SOL    HW122361   4.253   6.518   3.090
 7154SOL    HW222362   4.391   6.476   3.014
 7155SOL     OW22363   3.216   3.392   1.814
 7155SOL    HW122364   3.151   3.395   1.738
 7155SOL    HW222365   3.175   3.436   1.895
 7156SOL     OW22366   5.463   3.601   2.163
 7156SOL    HW122367   5.398   3.572   2.093
 7156SOL    HW222368   5.427   3.579   2.254
 7157SOL     OW22369   6.833   4.937   1.781
 7157SOL    HW122370   6.783   5.013   1.822
 7157SOL    HW222371   6.785   4.851   1.801
 7158SOL     OW22372   1.130   0.094   3.355
 7158SOL    HW122373   1.156   0.022   3.420
 7158SOL    HW222374   1.061   0.058   3.291
 7159SOL     OW22375   1.364   5.261   4.106
 7159SOL    HW122376   1.377   5.179   4.161
 7159SOL    HW222377   1.389   5.242   4.011
 7160SOL     OW22378   6.387   6.681   3.056
 7160SOL    HW122379   6.381   6.780   3.066
 7160SOL    HW222380   6.457   6.657   2.989
 7161SOL     OW22381   3.275   3.787   3.017
 7161SOL    HW122382   3.316   3.698   3.037
 7161SOL    HW222383   3.233   3.785   2.927
 7162SOL     OW22384   1.392   5.151   6.100
 7162SOL    HW122385   1.447   5.127   6.180
 7162SOL    HW222386   1.453   5.169   6.023
 7163SOL     OW22387   2.987   0.578   2.217
 7163SOL    HW122388   2.913   0.595   2.282
 7163SOL    HW222389   3.073   0.566   2.267
 7164SOL     OW22390   2.556   0.135   4.920
 7164SOL    HW122391   2.620   0.058   4.922
 7164SOL    HW222392   2.505   0.134   4.835
 7165SOL     OW22393   5.541   6.628   2.027
 7165SOL    HW122394   5.614   6.651   2.091
 7165SOL    HW222395   5.566   6.658   1.935
 7166SOL     OW22396   5.417   1.986   0.324
 7166SOL    HW122397   5.372   1.919   0.384
 7166SOL    HW222398   5.391   2.078   0.353
 7167SOL     OW22399   4.927   3.472   4.848
 7167SOL    HW122400   4.888   3.380   4.860
 7167SOL    HW222401   4.874   3.538   4.900
 7168SOL     OW22402   2.742   2.065   3.099
 7168SOL    HW122403   2.650   2.072   3.061
 7168SOL    HW222404   2.786   1.983   3.065
 7169SOL     OW22405   6.855   4.436   5.216
 7169SOL    HW122406   6.781   4.487   5.172
 7169SOL    HW222407   6.846   4.443   5.315
 7170SOL     OW22408   4.912   0.226   2.677
 7170SOL    HW122409   4.962   0.250   2.760
 7170SOL    HW222410   4.925   0.129   2.657
 7171SOL     OW22411   5.808   3.946   0.264
 7171SOL    HW122412   5.811   3.903   0.354
 7171SOL    HW222413   5.731   4.010   0.261
 7172SOL     OW22414   1.890   0.300   4.889
 7172SOL    HW122415   1.925   0.283   4.797
 7172SOL    HW222416   1.909   0.221   4.947
 7173SOL     OW22417   6.044   5.065   6.611
 7173SOL    HW122418   6.047   4.968   6.587
 7173SOL    HW222419   5.956   5.104   6.584
 7174SOL     OW22420   0.098   4.557   0.517
 7174SOL    HW122421   0.127   4.536   0.424
 7174SOL    HW222422   0.025   4.625   0.515
 7175SOL     OW22423   6.513   3.207   5.333
 7175SOL    HW122424   6.431   3.243   5.287
 7175SOL    HW222425   6.588   3.273   5.324
 7176SOL     OW22426   0.132   1.866   3.968
 7176SOL    HW122427   0.131   1.959   4.004
 7176SOL    HW222428   0.226   1.840   3.945
 7177SOL     OW22429   1.692   4.762   5.299
 7177SOL    HW122430   1.606   4.750   5.250
 7177SOL    HW222431   1.767   4.767   5.233
 7178SOL     OW22432   0.079   1.852   6.156
 7178SOL    HW122433   0.033   1.764   6.169
 7178SOL    HW222434   0.177   1.840   6.168
 7179SOL     OW22435   1.194   3.680   4.690
 7179SOL    HW122436   1.126   3.615   4.723
 7179SOL    HW222437   1.149   3.755   4.642
 7180SOL     OW22438   2.046   3.847   0.310
 7180SOL    HW122439   2.102   3.854   0.392
 7180SOL    HW222440   1.976   3.918   0.310
 7181SOL     OW22441   2.362   0.320   0.258
 7181SOL    HW122442   2.403   0.229   0.252
 7181SOL    HW222443   2.421   0.386   0.211
 7182SOL     OW22444   0.304   4.006   3.517
 7182SOL    HW122445   0.278   3.989   3.612
 7182SOL    HW222446   0.362   3.932   3.485
 7183SOL     OW22447   1.720   5.371   2.115
 7183SOL    HW122448   1.774   5.288   2.102
 7183SOL    HW222449   1.774   5.450   2.086
 7184SOL     OW22450   6.940   1.499   3.828
 7184SOL    HW122451   6.884   1.469   3.905
 7184SOL    HW222452   6.911   1.589   3.797
 7185SOL     OW22453   5.740   1.518   5.487
 7185SOL    HW122454   5.763   1.456   5.562
 7185SOL    HW222455   5.641   1.530   5.482
 7186SOL     OW22456   6.637   1.753   1.229
 7186SOL    HW122457   6.546   1.754   1.188
 7186SOL    HW222458   6.703   1.718   1.163
 7187SOL     OW22459   2.960   4.088   5.538
 7187SOL    HW122460   3.004   4.170   5.577
 7187SOL    HW222461   2.864   4.108   5.518
 7188SOL     OW22462   4.484   5.748   0.306
 7188SOL    HW122463   4.394   5.791   0.300
 7188SOL    HW222464   4.514   5.745   0.401
 7189SOL     OW22465   6.429   2.783   6.104
 7189SOL    HW122466   6.495   2.757   6.033
 7189SOL    HW222467   6.337   2.781   6.066
 7190SOL     OW22468   6.455   5.814   1.510
 7190SOL    HW122469   6.386   5.796   1.580
 7190SOL    HW222470   6.545   5.783   1.543
 7191SOL     OW22471   1.220   4.634   3.044
 7191SOL    HW122472   1.170   4.611   3.127
 7191SOL    HW222473   1.308   4.675   3.068
 7192SOL     OW22474   1.652   4.323   6.375
 7192SOL    HW122475   1.715   4.271   6.431
 7192SOL    HW222476   1.646   4.281   6.284
 7193SOL     OW22477   2.307   1.777   2.095
 7193SOL    HW122478   2.367   1.697   2.108
 7193SOL    HW222479   2.316   1.811   2.002
 7194SOL     OW22480   1.860   3.155   6.688
 7194SOL    HW122481   1.945   3.207   6.677
 7194SOL    HW222482   1.871   3.064   6.647
 7195SOL     OW22483   6.824   4.388   0.366
 7195SOL    HW122484   6.828   4.473   0.419
 7195SOL    HW222485   6.729   4.364   0.349
 7196SOL     OW22486   2.350   3.948   1.800
 7196SOL    HW122487   2.447   3.936   1.822
 7196SOL    HW222488   2.309   3.858   1.786
 7197SOL     OW22489   1.309   3.506   6.189
 7197SOL    HW122490   1.315   3.413   6.152
 7197SOL    HW222491   1.218   3.542   6.173
 7198SOL     OW22492   0.280   1.053   0.476
 7198SOL    HW122493   0.279   1.037   0.575
 7198SOL    HW222494   0.218   0.988   0.431
 7199SOL     OW22495   0.706   0.209   2.478
 7199SOL    HW122496   0.768   0.133   2.500
 7199SOL    HW222497   0.626   0.205   2.539
 7200SOL     OW22498   2.278   2.884   6.536
 7200SOL    HW122499   2.312   2.803   6.489
 7200SOL    HW222500   2.287   2.871   6.635
 7201SOL     OW22501   0.860   6.093   4.222
 7201SOL    HW122502   0.846   6.020   4.288
 7201SOL    HW222503   0.958   6.112   4.212
 7202SOL     OW22504   4.537   6.444   6.708
 7202SOL    HW122505   4.516   6.399   6.621
 7202SOL    HW222506   4.636   6.453   6.718
 7203SOL     OW22507   6.879   1.009   1.384
 7203SOL    HW122508   6.806   1.035   1.321
 7203SOL    HW222509   6.842   1.001   1.477
 7204SOL     OW22510   0.284   1.224   6.395
 7204SOL    HW122511   0.384   1.235   6.400
 7204SOL    HW222512   0.257   1.146   6.451
 7205SOL     OW22513   1.718   4.461   5.652
 7205SOL    HW122514   1.675   4.438   5.564
 7205SOL    HW222515   1.666   4.533   5.696
 7206SOL     OW22516   1.545   1.242   2.375
 7206SOL    HW122517   1.638   1.275   2.365
 7206SOL    HW222518   1.547   1.146   2.403
 7207SOL     OW22519   4.003   0.414   4.440
 7207SOL    HW122520   4.057   0.496   4.463
 7207SOL    HW222521   3.910   0.442   4.414
 7208SOL     OW22522   4.685   0.244   3.476
 7208SOL    HW122523   4.689   0.244   3.576
 7208SOL    HW222524   4.607   0.190   3.446
 7209SOL     OW22525   2.441   3.079   1.559
 7209SOL    HW122526   2.417   3.021   1.481
 7209SOL    HW222527   2.368   3.145   1.576
 7210SOL     OW22528   4.102   1.800   3.583
 7210SOL    HW122529   4.047   1.781   3.664
 7210SOL    HW222530   4.054   1.769   3.501
 7211SOL     OW22531   1.707   6.231   5.051
 7211SOL    HW122532   1.766   6.265   4.978
 7211SOL    HW222533   1.764   6.189   5.122
 7212SOL     OW22534   0.569   6.248   5.412
 7212SOL    HW122535   0.650   6.213   5.365
 7212SOL    HW222536   0.590   6.337   5.453
 7213SOL     OW22537   3.588   6.957   6.636
 7213SOL    HW122538   3.623   6.881   6.692
 7213SOL    HW222539   3.621   6.946   6.542
 7214SOL     OW22540   6.572   0.505   5.497
 7214SOL    HW122541   6.569   0.410   5.465
 7214SOL    HW222542   6.663   0.542   5.483
 7215SOL     OW22543   6.316   3.017   4.099
 7215SOL    HW122544   6.281   2.928   4.067
 7215SOL    HW222545   6.249   3.058   4.162
 7216SOL     OW22546   3.118   6.986   1.910
 7216SOL    HW122547   3.060   0.027   1.949
 7216SOL    HW222548   3.099   6.899   1.955
 7217SOL     OW22549   1.953   3.603   3.324
 7217SOL    HW122550   2.033   3.543   3.319
 7217SOL    HW222551   1.908   3.605   3.235
 7218SOL     OW22552   6.433   3.005   4.513
 7218SOL    HW122553   6.430   3.086   4.571
 7218SOL    HW222554   6.340   2.975   4.492
 7219SOL     OW22555   3.476   0.897   2.725
 7219SOL    HW122556   3.379   0.898   2.750
 7219SOL    HW222557   3.526   0.837   2.789
 7220SOL     OW22558   6.627   4.239   4.123
 7220SOL    HW122559   6.609   4.319   4.065
 7220SOL    HW222560   6.556   4.232   4.193
 7221SOL     OW22561   3.831   6.066   4.990
 7221SOL    HW122562   3.813   6.061   5.088
 7221SOL    HW222563   3.897   6.138   4.971
 7222SOL     OW22564   6.630   6.569   3.608
 7222SOL    HW122565   6.585   6.504   3.546
 7222SOL    HW222566   6.615   6.662   3.573
 7223SOL     OW22567   3.561   1.490   0.996
 7223SOL    HW122568   3.522   1.403   0.965
 7223SOL    HW222569   3.645   1.509   0.945
 7224SOL     OW22570   5.212   2.498   4.148
 7224SOL    HW122571   5.226   2.525   4.243
 7224SOL    HW222572   5.210   2.399   4.141
 7225SOL     OW22573   1.318   6.438   0.539
 7225SOL    HW122574   1.298   6.406   0.446
 7225SOL    HW222575   1.259   6.391   0.604
 7226SOL     OW22576   5.509   0.002   1.027
 7226SOL    HW122577   5.417   7.014   0.992
 7226SOL    HW222578   5.519   6.990   1.118
 7227SOL     OW22579   2.539   1.956   1.024
 7227SOL    HW122580   2.597   1.976   0.946
 7227SOL    HW222581   2.580   1.994   1.107
 7228SOL     OW22582   1.353   1.601   2.424
 7228SOL    HW122583   1.288   1.525   2.428
 7228SOL    HW222584   1.352   1.640   2.332
 7229SOL     OW22585   1.349   5.992   5.776
 7229SOL    HW122586   1.424   6.021   5.716
 7229SOL    HW222587   1.301   6.073   5.810
 7230SOL     OW22588   3.767   5.706   4.573
 7230SOL    HW122589   3.676   5.667   4.586
 7230SOL    HW222590   3.831   5.634   4.545
 7231SOL     OW22591   3.650   0.325   6.669
 7231SOL    HW122592   3.593   0.274   6.734
 7231SOL    HW222593   3.660   0.272   6.586
 7232SOL     OW22594   4.727   5.707   2.956
 7232SOL    HW122595   4.649   5.723   3.016
 7232SOL    HW222596   4.698   5.654   2.877
 7233SOL     OW22597   1.637   1.556   3.901
 7233SOL    HW122598   1.614   1.566   3.998
 7233SOL    HW222599   1.658   1.646   3.862
 7234SOL     OW22600   6.125   2.873   3.027
 7234SOL    HW122601   6.063   2.868   2.949
 7234SOL    HW222602   6.200   2.936   3.006
 7235SOL     OW22603   6.951   4.406   2.226
 7235SOL    HW122604   6.861   4.368   2.248
 7235SOL    HW222605   6.974   4.478   2.291
 7236SOL     OW22606   2.993   1.998   2.307
 7236SOL    HW122607   2.970   1.954   2.220
 7236SOL    HW222608   2.956   2.090   2.308
 7237SOL     OW22609   4.003   0.024   5.081
 7237SOL    HW122610   3.963   0.094   5.022
 7237SOL    HW222611   4.099   0.046   5.098
 7238SOL     OW22612   4.477   2.322   6.217
 7238SOL    HW122613   4.430   2.235   6.234
 7238SOL    HW222614   4.531   2.314   6.133
 7239SOL     OW22615   0.558   1.974   1.815
 7239SOL    HW122616   0.654   1.951   1.829
 7239SOL    HW222617   0.546   2.073   1.829
 7240SOL     OW22618   0.332   1.210   5.758
 7240SOL    HW122619   0.339   1.296   5.809
 7240SOL    HW222620   0.398   1.144   5.794
 7241SOL     OW22621   2.430   0.387   1.061
 7241SOL    HW122622   2.528   0.398   1.045
 7241SOL    HW222623   2.393   0.319   0.999
 7242SOL     OW22624   6.184   6.010   6.574
 7242SOL    HW122625   6.220   5.917   6.578
 7242SOL    HW222626   6.096   6.010   6.527
 7243SOL     OW22627   6.294   4.289   6.723
 7243SOL    HW122628   6.217   4.274   6.785
 7243SOL    HW222629   6.265   4.346   6.646
 7244SOL     OW22630   0.047   0.839   1.752
 7244SOL    HW122631   6.978   0.832   1.766
 7244SOL    HW222632   0.068   0.921   1.699
 7245SOL     OW22633   1.750   3.008   4.653
 7245SOL    HW122634   1.756   2.936   4.584
 7245SOL    HW222635   1.653   3.023   4.675
 7246SOL     OW22636   0.992   0.535   3.445
 7246SOL    HW122637   1.001   0.437   3.460
 7246SOL    HW222638   0.943   0.551   3.359
 7247SOL     OW22639   2.271   1.859   5.217
 7247SOL    HW122640   2.279   1.796   5.139
 7247SOL    HW222641   2.245   1.949   5.184
 7248SOL     OW22642   3.282   1.578   3.083
 7248SOL    HW122643   3.275   1.663   3.030
 7248SOL    HW222644   3.257   1.597   3.178
 7249SOL     OW22645   4.887   4.997   1.998
 7249SOL    HW122646   4.839   5.051   2.067
 7249SOL    HW222647   4.900   5.052   1.915
 7250SOL     OW22648   5.878   6.230   5.922
 7250SOL    HW122649   5.944   6.222   5.847
 7250SOL    HW222650   5.800   6.283   5.891
 7251SOL     OW22651   0.325   6.903   5.928
 7251SOL    HW122652   0.276   6.877   5.844
 7251SOL    HW222653   0.414   6.941   5.903
 7252SOL     OW22654   3.692   3.077   2.072
 7252SOL    HW122655   3.750   3.053   2.150
 7252SOL    HW222656   3.632   3.152   2.096
 7253SOL     OW22657   2.084   6.047   6.959
 7253SOL    HW122658   2.015   6.103   7.004
 7253SOL    HW222659   2.174   6.070   6.997
 7254SOL     OW22660   5.377   5.218   4.525
 7254SOL    HW122661   5.312   5.188   4.594
 7254SOL    HW222662   5.420   5.138   4.482
 7255SOL     OW22663   3.972   3.831   0.194
 7255SOL    HW122664   3.984   3.779   0.278
 7255SOL    HW222665   3.932   3.920   0.214
 7256SOL     OW22666   3.001   6.036   4.688
 7256SOL    HW122667   2.906   6.029   4.658
 7256SOL    HW222668   3.058   5.974   4.634
 7257SOL     OW22669   6.634   1.971   3.108
 7257SOL    HW122670   6.670   1.879   3.126
 7257SOL    HW222671   6.616   2.017   3.196
 7258SOL     OW22672   4.966   1.867   2.634
 7258SOL    HW122673   4.918   1.860   2.722
 7258SOL    HW222674   5.045   1.927   2.643
 7259SOL     OW22675   1.887   3.602   1.672
 7259SOL    HW122676   1.803   3.555   1.643
 7259SOL    HW222677   1.868   3.699   1.685
 7260SOL     OW22678   5.026   1.662   1.518
 7260SOL    HW122679   5.076   1.578   1.537
 7260SOL    HW222680   4.984   1.696   1.602
 7261SOL     OW22681   1.599   3.973   1.473
 7261SOL    HW122682   1.551   4.061   1.478
 7261SOL    HW222683   1.533   3.899   1.481
 7262SOL     OW22684   5.249   2.941   6.251
 7262SOL    HW122685   5.234   2.936   6.349
 7262SOL    HW222686   5.171   2.902   6.202
 7263SOL     OW22687   0.873   6.403   0.017
 7263SOL    HW122688   0.834   6.416   6.956
 7263SOL    HW222689   0.812   6.345   0.072
 7264SOL     OW22690   4.871   1.870   6.903
 7264SOL    HW122691   4.915   1.790   6.945
 7264SOL    HW222692   4.772   1.862   6.909
 7265SOL     OW22693   5.743   5.123   6.073
 7265SOL    HW122694   5.773   5.213   6.102
 7265SOL    HW222695   5.764   5.056   6.144
 7266SOL     OW22696   5.628   0.296   2.481
 7266SOL    HW122697   5.549   0.236   2.474
 7266SOL    HW222698   5.622   0.368   2.412
 7267SOL     OW22699   6.319   6.746   5.155
 7267SOL    HW122700   6.347   6.650   5.147
 7267SOL    HW222701   6.231   6.759   5.109
 7268SOL     OW22702   7.004   5.399   4.054
 7268SOL    HW122703   6.906   5.380   4.057
 7268SOL    HW222704   0.019   5.355   4.132
 7269SOL     OW22705   0.938   6.079   6.239
 7269SOL    HW122706   0.911   6.141   6.165
 7269SOL    HW222707   1.036   6.063   6.235
 7270SOL     OW22708   0.994   3.480   4.708
 7270SOL    HW122709   1.024   3.388   4.731
 7270SOL    HW222710   0.964   3.483   4.613
 7271SOL     OW22711   1.090   5.531   4.579
 7271SOL    HW122712   1.080   5.433   4.595
 7271SOL    HW222713   1.162   5.567   4.639
 7272SOL     OW22714   6.067   5.273   2.416
 7272SOL    HW122715   6.076   5.230   2.505
 7272SOL    HW222716   6.153   5.268   2.367
 7273SOL     OW22717   6.246   4.208   1.446
 7273SOL    HW122718   6.232   4.113   1.418
 7273SOL    HW222719   6.173   4.265   1.407
 7274SOL     OW22720   0.203   5.564   6.531
 7274SOL    HW122721   0.211   5.487   6.469
 7274SOL    HW222722   0.294   5.601   6.551
 7275SOL     OW22723   0.620   6.506   2.822
 7275SOL    HW122724   0.699   6.456   2.858
 7275SOL    HW222725   0.651   6.580   2.763
 7276SOL     OW22726   4.786   0.966   3.158
 7276SOL    HW122727   4.878   0.983   3.121
 7276SOL    HW222728   4.722   1.030   3.115
 7277SOL     OW22729   4.803   0.967   4.347
 7277SOL    HW122730   4.734   1.032   4.379
 7277SOL    HW222731   4.772   0.874   4.366
 7278SOL     OW22732   4.010   2.372   1.686
 7278SOL    HW122733   3.995   2.309   1.763
 7278SOL    HW222734   3.926   2.426   1.671
 7279SOL     OW22735   3.882   4.939   5.495
 7279SOL    HW122736   3.928   5.027   5.499
 7279SOL    HW222737   3.821   4.929   5.573
 7280SOL     OW22738   0.583   1.808   4.072
 7280SOL    HW122739   0.678   1.794   4.043
 7280SOL    HW222740   0.521   1.785   3.997
 7281SOL     OW22741   2.362   1.483   6.818
 7281SOL    HW122742   2.452   1.501   6.858
 7281SOL    HW222743   2.293   1.485   6.891
 7282SOL     OW22744   6.055   5.123   2.633
 7282SOL    HW122745   6.115   5.160   2.704
 7282SOL    HW222746   6.063   5.024   2.630
 7283SOL     OW22747   5.031   0.829   2.809
 7283SOL    HW122748   4.935   0.856   2.811
 7283SOL    HW222749   5.080   0.883   2.740
 7284SOL     OW22750   0.247   2.519   6.153
 7284SOL    HW122751   0.290   2.607   6.134
 7284SOL    HW222752   0.157   2.534   6.193
 7285SOL     OW22753   5.597   3.012   2.381
 7285SOL    HW122754   5.627   3.086   2.440
 7285SOL    HW222755   5.611   3.037   2.286
 7286SOL     OW22756   2.447   1.110   0.675
 7286SOL    HW122757   2.410   1.021   0.703
 7286SOL    HW222758   2.415   1.132   0.583
 7287SOL     OW22759   0.662   2.677   5.786
 7287SOL    HW122760   0.653   2.579   5.769
 7287SOL    HW222761   0.744   2.694   5.840
 7288SOL     OW22762   1.713   1.134   0.991
 7288SOL    HW122763   1.785   1.187   1.035
 7288SOL    HW222764   1.754   1.061   0.936
 7289SOL     OW22765   5.582   2.293   4.124
 7289SOL    HW122766   5.582   2.358   4.048
 7289SOL    HW222767   5.676   2.265   4.144
 7290SOL     OW22768   3.918   1.326   4.917
 7290SOL    HW122769   3.921   1.308   4.819
 7290SOL    HW222770   3.852   1.398   4.936
 7291SOL     OW22771   1.739   6.387   0.680
 7291SOL    HW122772   1.815   6.338   0.722
 7291SOL    HW222773   1.672   6.321   0.645
 7292SOL     OW22774   3.642   1.356   3.857
 7292SOL    HW122775   3.629   1.454   3.868
 7292SOL    HW222776   3.570   1.306   3.907
 7293SOL     OW22777   1.188   2.243   4.432
 7293SOL    HW122778   1.104   2.244   4.378
 7293SOL    HW222779   1.166   2.223   4.528
 7294SOL     OW22780   2.818   4.936   6.932
 7294SOL    HW122781   2.881   5.004   6.970
 7294SOL    HW222782   2.760   4.979   6.863
 7295SOL     OW22783   6.041   3.036   1.516
 7295SOL    HW122784   5.967   3.068   1.457
 7295SOL    HW222785   6.004   3.012   1.606
 7296SOL     OW22786   3.139   5.788   2.488
 7296SOL    HW122787   3.106   5.738   2.407
 7296SOL    HW222788   3.087   5.759   2.568
 7297SOL     OW22789   4.249   0.215   1.502
 7297SOL    HW122790   4.184   0.289   1.490
 7297SOL    HW222791   4.244   0.180   1.595
 7298SOL     OW22792   5.064   5.675   5.765
 7298SOL    HW122793   5.055   5.642   5.859
 7298SOL    HW222794   5.037   5.771   5.761
 7299SOL     OW22795   1.159   2.323   0.758
 7299SOL    HW122796   1.259   2.330   0.756
 7299SOL    HW222797   1.128   2.321   0.853
 7300SOL     OW22798   0.806   0.125   2.862
 7300SOL    HW122799   0.782   0.100   2.768
 7300SOL    HW222800   0.880   0.192   2.861
 7301SOL     OW22801   5.931   1.458   4.313
 7301SOL    HW122802   5.876   1.397   4.370
 7301SOL    HW222803   6.022   1.419   4.302
 7302SOL     OW22804   0.971   2.254   5.227
 7302SOL    HW122805   0.894   2.216   5.278
 7302SOL    HW222806   0.968   2.354   5.229
 7303SOL     OW22807   3.892   0.650   6.995
 7303SOL    HW122808   3.812   0.707   7.011
 7303SOL    HW222809   3.865   0.569   6.943
 7304SOL     OW22810   3.331   5.468   1.892
 7304SOL    HW122811   3.392   5.470   1.971
 7304SOL    HW222812   3.244   5.426   1.919
 7305SOL     OW22813   4.534   0.672   0.608
 7305SOL    HW122814   4.596   0.751   0.605
 7305SOL    HW222815   4.471   0.677   0.530
 7306SOL     OW22816   5.088   1.376   0.836
 7306SOL    HW122817   5.038   1.451   0.879
 7306SOL    HW222818   5.118   1.404   0.745
 7307SOL     OW22819   2.538   6.681   2.400
 7307SOL    HW122820   2.518   6.585   2.417
 7307SOL    HW222821   2.629   6.702   2.436
 7308SOL     OW22822   6.909   3.034   5.417
 7308SOL    HW122823   6.984   3.041   5.482
 7308SOL    HW222824   6.852   2.954   5.439
 7309SOL     OW22825   4.114   5.019   1.083
 7309SOL    HW122826   4.093   4.966   1.001
 7309SOL    HW222827   4.052   5.098   1.089
 7310SOL     OW22828   2.363   3.897   0.981
 7310SOL    HW122829   2.326   3.882   1.073
 7310SOL    HW222830   2.287   3.913   0.918
 7311SOL     OW22831   2.335   2.009   1.408
 7311SOL    HW122832   2.394   2.079   1.449
 7311SOL    HW222833   2.293   2.046   1.325
 7312SOL     OW22834   1.032   3.726   4.992
 7312SOL    HW122835   0.963   3.694   5.057
 7312SOL    HW222836   1.077   3.647   4.949
 7313SOL     OW22837   2.023   0.697   0.399
 7313SOL    HW122838   1.928   0.669   0.411
 7313SOL    HW222839   2.037   0.727   0.304
 7314SOL     OW22840   0.312   5.107   5.896
 7314SOL    HW122841   0.250   5.064   5.962
 7314SOL    HW222842   0.317   5.205   5.915
 7315SOL     OW22843   6.374   6.859   2.275
 7315SOL    HW122844   6.333   6.918   2.344
 7315SOL    HW222845   6.438   6.796   2.318
 7316SOL     OW22846   3.780   3.549   6.961
 7316SOL    HW122847   3.789   3.450   6.956
 7316SOL    HW222848   3.734   3.574   0.016
 7317SOL     OW22849   5.134   1.257   3.057
 7317SOL    HW122850   5.159   1.257   3.153
 7317SOL    HW222851   5.173   1.337   3.011
 7318SOL     OW22852   2.018   0.630   2.433
 7318SOL    HW122853   2.069   0.715   2.419
 7318SOL    HW222854   2.066   0.555   2.388
 7319SOL     OW22855   0.187   3.208   6.657
 7319SOL    HW122856   0.165   3.123   6.609
 7319SOL    HW222857   0.102   3.253   6.686
 7320SOL     OW22858   0.576   3.802   2.862
 7320SOL    HW122859   0.496   3.859   2.880
 7320SOL    HW222860   0.579   3.727   2.927
 7321SOL     OW22861   2.000   0.901   6.061
 7321SOL    HW122862   1.974   0.814   6.020
 7321SOL    HW222863   2.098   0.917   6.047
 7322SOL     OW22864   6.744   2.841   3.730
 7322SOL    HW122865   6.654   2.805   3.753
 7322SOL    HW222866   6.812   2.768   3.734
 7323SOL     OW22867   1.988   2.556   1.949
 7323SOL    HW122868   2.047   2.513   2.018
 7323SOL    HW222869   1.901   2.507   1.946
 7324SOL     OW22870   4.602   5.889   1.901
 7324SOL    HW122871   4.533   5.936   1.846
 7324SOL    HW222872   4.687   5.942   1.900
 7325SOL     OW22873   2.997   0.198   0.242
 7325SOL    HW122874   3.035   0.228   0.329
 7325SOL    HW222875   2.901   0.171   0.255
 7326SOL     OW22876   2.749   5.918   6.418
 7326SOL    HW122877   2.701   6.005   6.432
 7326SOL    HW222878   2.696   5.861   6.356
 7327SOL     OW22879   6.598   1.862   6.025
 7327SOL    HW122880   6.587   1.923   5.947
 7327SOL    HW222881   6.621   1.914   6.106
 7328SOL     OW22882   3.101   0.635   5.341
 7328SOL    HW122883   3.185   0.611   5.291
 7328SOL    HW222884   3.118   0.629   5.439
 7329SOL     OW22885   6.588   4.505   1.396
 7329SOL    HW122886   6.549   4.586   1.441
 7329SOL    HW222887   6.666   4.472   1.449
 7330SOL     OW22888   2.374   2.673   6.370
 7330SOL    HW122889   2.444   2.602   6.374
 7330SOL    HW222890   2.339   2.680   6.277
 7331SOL     OW22891   4.951   6.526   1.548
 7331SOL    HW122892   4.967   6.485   1.638
 7331SOL    HW222893   5.021   6.595   1.531
 7332SOL     OW22894   2.973   5.786   0.246
 7332SOL    HW122895   3.048   5.721   0.234
 7332SOL    HW222896   3.009   5.879   0.244
 7333SOL     OW22897   7.030   2.907   2.018
 7333SOL    HW122898   6.992   2.994   2.050
 7333SOL    HW222899   7.014   2.898   1.919
 7334SOL     OW22900   2.703   5.772   6.650
 7334SOL    HW122901   2.725   5.821   6.565
 7334SOL    HW222902   2.676   5.837   6.720
 7335SOL     OW22903   2.013   2.288   3.319
 7335SOL    HW122904   1.951   2.272   3.242
 7335SOL    HW222905   2.000   2.380   3.353
 7336SOL     OW22906   1.852   6.758   2.904
 7336SOL    HW122907   1.950   6.756   2.886
 7336SOL    HW222908   1.826   6.848   2.939
 7337SOL     OW22909   0.871   3.332   1.405
 7337SOL    HW122910   0.802   3.259   1.400
 7337SOL    HW222911   0.828   3.421   1.391
 7338SOL     OW22912   5.565   1.958   1.694
 7338SOL    HW122913   5.619   1.911   1.625
 7338SOL    HW222914   5.543   2.050   1.663
 7339SOL     OW22915   6.178   0.324   3.691
 7339SOL    HW122916   6.154   0.404   3.746
 7339SOL    HW222917   6.111   0.313   3.618
 7340SOL     OW22918   3.448   1.462   0.176
 7340SOL    HW122919   3.469   1.514   0.258
 7340SOL    HW222920   3.467   1.518   0.095
 7341SOL     OW22921   0.879   3.974   6.042
 7341SOL    HW122922   0.920   3.956   6.131
 7341SOL    HW222923   0.885   4.072   6.022
 7342SOL     OW22924   0.515   1.727   0.307
 7342SOL    HW122925   0.543   1.649   0.362
 7342SOL    HW222926   0.573   1.806   0.329
 7343SOL     OW22927   6.253   3.933   1.465
 7343SOL    HW122928   6.218   3.984   1.544
 7343SOL    HW222929   6.194   3.855   1.446
 7344SOL     OW22930   1.388   1.328   6.154
 7344SOL    HW122931   1.437   1.340   6.240
 7344SOL    HW222932   1.322   1.403   6.142
 7345SOL     OW22933   4.249   4.784   5.118
 7345SOL    HW122934   4.174   4.839   5.083
 7345SOL    HW222935   4.259   4.800   5.217
 7346SOL     OW22936   4.381   4.737   1.813
 7346SOL    HW122937   4.448   4.663   1.825
 7346SOL    HW222938   4.426   4.825   1.830
 7347SOL     OW22939   0.391   2.382   0.279
 7347SOL    HW122940   0.479   2.418   0.248
 7347SOL    HW222941   0.346   2.334   0.203
 7348SOL     OW22942   1.824   3.815   4.565
 7348SOL    HW122943   1.748   3.879   4.579
 7348SOL    HW222944   1.797   3.746   4.499
 7349SOL     OW22945   4.806   1.450   1.565
 7349SOL    HW122946   4.828   1.379   1.499
 7349SOL    HW222947   4.866   1.528   1.552
 7350SOL     OW22948   2.264   3.120   5.519
 7350SOL    HW122949   2.348   3.138   5.569
 7350SOL    HW222950   2.201   3.197   5.529
 7351SOL     OW22951   5.731   6.003   5.130
 7351SOL    HW122952   5.753   5.910   5.160
 7351SOL    HW222953   5.652   6.036   5.181
 7352SOL     OW22954   2.233   0.954   3.236
 7352SOL    HW122955   2.237   0.855   3.248
 7352SOL    HW222956   2.252   0.999   3.323
 7353SOL     OW22957   0.741   6.789   6.432
 7353SOL    HW122958   0.761   6.882   6.462
 7353SOL    HW222959   0.642   6.777   6.425
 7354SOL     OW22960   0.815   2.489   5.018
 7354SOL    HW122961   0.741   2.450   5.073
 7354SOL    HW222962   0.881   2.534   5.078
 7355SOL     OW22963   1.471   0.389   0.911
 7355SOL    HW122964   1.481   0.295   0.942
 7355SOL    HW222965   1.539   0.447   0.958
 7356SOL     OW22966   3.935   3.889   6.248
 7356SOL    HW122967   3.859   3.929   6.299
 7356SOL    HW222968   3.954   3.797   6.283
 7357SOL     OW22969   3.649   6.914   1.764
 7357SOL    HW122970   3.621   7.005   1.734
 7357SOL    HW222971   3.636   6.849   1.689
 7358SOL     OW22972   5.781   3.446   2.681
 7358SOL    HW122973   5.852   3.375   2.677
 7358SOL    HW222974   5.795   3.511   2.606
 7359SOL     OW22975   3.849   1.935   5.892
 7359SOL    HW122976   3.885   1.847   5.923
 7359SOL    HW222977   3.897   2.009   5.939
 7360SOL     OW22978   3.163   3.511   5.861
 7360SOL    HW122979   3.220   3.588   5.887
 7360SOL    HW222980   3.169   3.497   5.762
 7361SOL     OW22981   4.303   0.348   2.038
 7361SOL    HW122982   4.395   0.309   2.028
 7361SOL    HW222983   4.288   0.377   2.132
 7362SOL     OW22984   1.793   4.775   5.566
 7362SOL    HW122985   1.880   4.804   5.526
 7362SOL    HW222986   1.731   4.746   5.493
 7363SOL     OW22987   4.503   1.663   1.488
 7363SOL    HW122988   4.497   1.583   1.549
 7363SOL    HW222989   4.549   1.738   1.536
 7364SOL     OW22990   4.684   0.518   1.592
 7364SOL    HW122991   4.698   0.613   1.620
 7364SOL    HW222992   4.589   0.492   1.608
 7365SOL     OW22993   0.215   5.904   1.821
 7365SOL    HW122994   0.287   5.845   1.784
 7365SOL    HW222995   0.126   5.870   1.792
 7366SOL     OW22996   2.879   5.968   6.876
 7366SOL    HW122997   2.793   6.010   6.904
 7366SOL    HW222998   2.902   5.998   6.783
 7367SOL     OW22999   5.495   2.803   1.255
 7367SOL    HW123000   5.524   2.719   1.208
 7367SOL    HW223001   5.399   2.794   1.283
 7368SOL     OW23002   3.457   2.955   2.594
 7368SOL    HW123003   3.519   3.015   2.544
 7368SOL    HW223004   3.506   2.915   2.672
 7369SOL     OW23005   3.608   2.090   0.333
 7369SOL    HW123006   3.692   2.102   0.280
 7369SOL    HW223007   3.533   2.138   0.286
 7370SOL     OW23008   2.368   0.704   4.334
 7370SOL    HW123009   2.460   0.668   4.350
 7370SOL    HW223010   2.338   0.753   4.416
 7371SOL     OW23011   2.665   6.258   3.236
 7371SOL    HW123012   2.703   6.169   3.210
 7371SOL    HW223013   2.607   6.247   3.316
 7372SOL     OW23014   4.542   1.386   4.339
 7372SOL    HW123015   4.460   1.357   4.388
 7372SOL    HW223016   4.623   1.352   4.386
 7373SOL     OW23017   6.209   1.554   3.431
 7373SOL    HW123018   6.215   1.620   3.507
 7373SOL    HW223019   6.172   1.468   3.465
 7374SOL     OW23020   2.861   1.516   5.077
 7374SOL    HW123021   2.824   1.587   5.137
 7374SOL    HW223022   2.788   1.479   5.020
 7375SOL     OW23023   2.801   2.322   3.012
 7375SOL    HW123024   2.858   2.289   2.936
 7375SOL    HW223025   2.776   2.244   3.070
 7376SOL     OW23026   2.203   2.398   0.506
 7376SOL    HW123027   2.132   2.327   0.504
 7376SOL    HW223028   2.192   2.459   0.428
 7377SOL     OW23029   5.598   4.619   0.927
 7377SOL    HW123030   5.635   4.537   0.884
 7377SOL    HW223031   5.533   4.593   0.998
 7378SOL     OW23032   0.611   0.735   5.831
 7378SOL    HW123033   0.681   0.742   5.902
 7378SOL    HW223034   0.596   0.639   5.809
 7379SOL     OW23035   3.061   1.829   2.767
 7379SOL    HW123036   3.051   1.835   2.668
 7379SOL    HW223037   3.123   1.755   2.791
 7380SOL     OW23038   7.027   4.515   3.821
 7380SOL    HW123039   0.061   4.452   3.777
 7380SOL    HW223040   6.956   4.462   3.869
 7381SOL     OW23041   3.981   3.196   0.639
 7381SOL    HW123042   3.939   3.107   0.657
 7381SOL    HW223043   4.063   3.184   0.583
 7382SOL     OW23044   0.547   6.932   5.531
 7382SOL    HW123045   0.504   6.979   5.608
 7382SOL    HW223046   0.575   6.841   5.559
 7383SOL     OW23047   2.408   6.535   0.932
 7383SOL    HW123048   2.325   6.507   0.979
 7383SOL    HW223049   2.480   6.467   0.949
 7384SOL     OW23050   6.125   6.593   2.999
 7384SOL    HW123051   6.223   6.603   3.012
 7384SOL    HW223052   6.087   6.538   3.074
 7385SOL     OW23053   3.587   5.691   2.576
 7385SOL    HW123054   3.516   5.622   2.561
 7385SOL    HW223055   3.586   5.720   2.671
 7386SOL     OW23056   0.079   2.552   6.967
 7386SOL    HW123057   0.024   2.558   0.020
 7386SOL    HW223058   0.020   2.537   6.888
 7387SOL     OW23059   6.051   6.480   5.573
 7387SOL    HW123060   6.014   6.413   5.510
 7387SOL    HW223061   6.094   6.433   5.651
 7388SOL     OW23062   0.947   5.563   2.260
 7388SOL    HW123063   0.864   5.597   2.215
 7388SOL    HW223064   0.969   5.622   2.337
 7389SOL     OW23065   6.103   4.092   6.292
 7389SOL    HW123066   6.073   4.078   6.197
 7389SOL    HW223067   6.188   4.144   6.293
 7390SOL     OW23068   1.618   1.988   0.954
 7390SOL    HW123069   1.658   1.957   0.868
 7390SOL    HW223070   1.571   2.075   0.940
 7391SOL     OW23071   3.899   3.515   3.898
 7391SOL    HW123072   3.917   3.575   3.976
 7391SOL    HW223073   3.880   3.423   3.932
 7392SOL     OW23074   2.843   6.578   6.534
 7392SOL    HW123075   2.815   6.662   6.582
 7392SOL    HW223076   2.843   6.594   6.436
 7393SOL     OW23077   6.112   4.876   2.752
 7393SOL    HW123078   6.083   4.800   2.694
 7393SOL    HW223079   6.212   4.880   2.755
 7394SOL     OW23080   2.404   2.858   5.826
 7394SOL    HW123081   2.386   2.917   5.905
 7394SOL    HW223082   2.414   2.764   5.857
 7395SOL     OW23083   1.906   3.032   1.346
 7395SOL    HW123084   1.808   3.019   1.358
 7395SOL    HW223085   1.953   3.019   1.433
 7396SOL     OW23086   1.400   6.402   1.405
 7396SOL    HW123087   1.438   6.479   1.456
 7396SOL    HW223088   1.440   6.400   1.313
 7397SOL     OW23089   4.326   5.460   4.334
 7397SOL    HW123090   4.415   5.496   4.362
 7397SOL    HW223091   4.336   5.364   4.308
 7398SOL     OW23092   1.522   4.985   3.978
 7398SOL    HW123093   1.503   5.064   3.920
 7398SOL    HW223094   1.441   4.927   3.983
 7399SOL     OW23095   0.821   3.172   4.565
 7399SOL    HW123096   0.722   3.182   4.576
 7399SOL    HW223097   0.844   3.075   4.562
 7400SOL     OW23098   4.300   2.949   5.977
 7400SOL    HW123099   4.284   3.016   6.049
 7400SOL    HW223100   4.367   2.985   5.912
 7401SOL     OW23101   1.141   2.618   3.767
 7401SOL    HW123102   1.098   2.702   3.801
 7401SOL    HW223103   1.237   2.636   3.745
 7402SOL     OW23104   3.047   5.589   6.388
 7402SOL    HW123105   3.062   5.660   6.457
 7402SOL    HW223106   3.124   5.526   6.389
 7403SOL     OW23107   2.029   3.659   2.454
 7403SOL    HW123108   2.104   3.673   2.390
 7403SOL    HW223109   1.945   3.638   2.403
 7404SOL     OW23110   2.365   4.999   1.709
 7404SOL    HW123111   2.390   4.973   1.803
 7404SOL    HW223112   2.399   5.091   1.689
 7405SOL     OW23113   3.426   5.272   4.821
 7405SOL    HW123114   3.390   5.365   4.820
 7405SOL    HW223115   3.398   5.226   4.905
 7406SOL     OW23116   0.258   3.020   3.498
 7406SOL    HW123117   0.218   3.111   3.511
 7406SOL    HW223118   0.348   3.029   3.456
 7407SOL     OW23119   0.862   6.786   5.419
 7407SOL    HW123120   0.818   6.745   5.339
 7407SOL    HW223121   0.961   6.791   5.403
 7408SOL     OW23122   3.323   4.099   6.880
 7408SOL    HW123123   3.395   4.109   6.811
 7408SOL    HW223124   3.346   4.154   6.960
 7409SOL     OW23125   5.161   3.089   0.156
 7409SOL    HW123126   5.084   3.076   0.094
 7409SOL    HW223127   5.233   3.023   0.134
 7410SOL     OW23128   0.293   0.306   0.444
 7410SOL    HW123129   0.268   0.275   0.352
 7410SOL    HW223130   0.279   0.231   0.509
 7411SOL     OW23131   2.020   0.677   6.656
 7411SOL    HW123132   2.061   0.768   6.649
 7411SOL    HW223133   2.022   0.647   6.752
 7412SOL     OW23134   5.112   0.575   1.976
 7412SOL    HW123135   5.048   0.650   1.988
 7412SOL    HW223136   5.131   0.533   2.065
 7413SOL     OW23137   4.761   5.248   3.869
 7413SOL    HW123138   4.685   5.300   3.908
 7413SOL    HW223139   4.732   5.153   3.854
 7414SOL     OW23140   0.813   1.297   3.472
 7414SOL    HW123141   0.730   1.334   3.513
 7414SOL    HW223142   0.819   1.199   3.491
 7415SOL     OW23143   1.543   4.785   4.235
 7415SOL    HW123144   1.529   4.691   4.203
 7415SOL    HW223145   1.638   4.796   4.263
 7416SOL     OW23146   1.899   1.603   2.632
 7416SOL    HW123147   1.901   1.703   2.626
 7416SOL    HW223148   1.989   1.567   2.610
 7417SOL     OW23149   2.163   2.103   1.231
 7417SOL    HW123150   2.209   2.080   1.145
 7417SOL    HW223151   2.071   2.064   1.230
 7418SOL     OW23152   2.236   5.836   0.333
 7418SOL    HW123153   2.289   5.757   0.364
 7418SOL    HW223154   2.211   5.893   0.411
 7419SOL     OW23155   0.163   3.201   3.997
 7419SOL    HW123156   0.165   3.246   4.086
 7419SOL    HW223157   0.248   3.149   3.983
 7420SOL     OW23158   0.744   6.216   1.642
 7420SOL    HW123159   0.691   6.208   1.558
 7420SOL    HW223160   0.684   6.201   1.721
 7421SOL     OW23161   4.149   3.888   1.379
 7421SOL    HW123162   4.117   3.898   1.285
 7421SOL    HW223163   4.235   3.837   1.380
 7422SOL     OW23164   0.007   4.028   2.096
 7422SOL    HW123165   0.022   4.127   2.096
 7422SOL    HW223166   0.088   3.982   2.060
 7423SOL     OW23167   6.325   2.699   5.629
 7423SOL    HW123168   6.318   2.764   5.705
 7423SOL    HW223169   6.363   2.746   5.549
 7424SOL     OW23170   6.921   0.279   5.576
 7424SOL    HW123171   6.921   0.287   5.476
 7424SOL    HW223172   7.006   0.317   5.613
 7425SOL     OW23173   4.208   6.566   0.195
 7425SOL    HW123174   4.165   6.636   0.253
 7425SOL    HW223175   4.257   6.611   0.120
 7426SOL     OW23176   3.173   2.130   5.611
 7426SOL    HW123177   3.229   2.157   5.534
 7426SOL    HW223178   3.183   2.196   5.686
 7427SOL     OW23179   4.983   0.860   3.321
 7427SOL    HW123180   5.020   0.914   3.245
 7427SOL    HW223181   4.887   0.886   3.336
 7428SOL     OW23182   4.973   1.892   5.187
 7428SOL    HW123183   4.940   1.848   5.103
 7428SOL    HW223184   4.898   1.944   5.229
 7429SOL     OW23185   0.133   6.464   4.260
 7429SOL    HW123186   0.104   6.462   4.164
 7429SOL    HW223187   0.085   6.391   4.310
 7430SOL     OW23188   1.216   3.306   0.873
 7430SOL    HW123189   1.287   3.267   0.814
 7430SOL    HW223190   1.175   3.385   0.827
 7431SOL     OW23191   1.453   2.561   2.674
 7431SOL    HW123192   1.409   2.471   2.662
 7431SOL    HW223193   1.429   2.597   2.765
 7432SOL     OW23194   0.825   0.781   3.007
 7432SOL    HW123195   0.858   0.868   3.044
 7432SOL    HW223196   0.725   0.784   2.998
 7433SOL     OW23197   4.479   5.565   6.086
 7433SOL    HW123198   4.573   5.563   6.053
 7433SOL    HW223199   4.428   5.489   6.045
 7434SOL     OW23200   4.797   5.059   5.236
 7434SOL    HW123201   4.860   4.982   5.224
 7434SOL    HW223202   4.841   5.143   5.203
 7435SOL     OW23203   4.190   5.792   1.407
 7435SOL    HW123204   4.094   5.765   1.412
 7435SOL    HW223205   4.208   5.862   1.477
 7436SOL     OW23206   4.232   4.238   6.294
 7436SOL    HW123207   4.256   4.227   6.390
 7436SOL    HW223208   4.135   4.259   6.286
 7437SOL     OW23209   2.125   5.660   0.057
 7437SOL    HW123210   2.055   5.661   7.016
 7437SOL    HW223211   2.109   5.736   0.121
 7438SOL     OW23212   1.044   5.968   0.593
 7438SOL    HW123213   1.124   6.012   0.552
 7438SOL    HW223214   1.023   5.884   0.544
 7439SOL     OW23215   1.666   6.800   5.846
 7439SOL    HW123216   1.587   6.794   5.908
 7439SOL    HW223217   1.723   6.878   5.872
 7440SOL     OW23218   0.421   3.114   4.015
 7440SOL    HW123219   0.520   3.106   4.025
 7440SOL    HW223220   0.379   3.025   4.032
 7441SOL     OW23221   5.112   6.860   4.521
 7441SOL    HW123222   5.210   6.854   4.537
 7441SOL    HW223223   5.095   6.882   4.425
 7442SOL     OW23224   6.204   1.615   6.149
 7442SOL    HW123225   6.266   1.676   6.100
 7442SOL    HW223226   6.237   1.602   6.242
 7443SOL     OW23227   6.346   6.397   1.726
 7443SOL    HW123228   6.281   6.332   1.686
 7443SOL    HW223229   6.312   6.430   1.814
 7444SOL     OW23230   5.644   2.306   6.702
 7444SOL    HW123231   5.643   2.214   6.661
 7444SOL    HW223232   5.608   2.372   6.637
 7445SOL     OW23233   4.011   0.409   1.525
 7445SOL    HW123234   4.007   0.508   1.543
 7445SOL    HW223235   4.017   0.393   1.427
 7446SOL     OW23236   5.573   3.044   0.437
 7446SOL    HW123237   5.550   2.951   0.410
 7446SOL    HW223238   5.658   3.044   0.489
 7447SOL     OW23239   6.571   3.807   0.009
 7447SOL    HW123240   6.562   3.812   0.108
 7447SOL    HW223241   6.637   3.875   7.007
 7448SOL     OW23242   6.648   0.013   5.176
 7448SOL    HW123243   6.653   6.948   5.206
 7448SOL    HW223244   6.740   0.052   5.171
 7449SOL     OW23245   0.455   4.136   2.020
 7449SOL    HW123246   0.503   4.088   1.947
 7449SOL    HW223247   0.484   4.231   2.022
 7450SOL     OW23248   5.624   2.716   5.358
 7450SOL    HW123249   5.585   2.699   5.268
 7450SOL    HW223250   5.721   2.739   5.348
 7451SOL     OW23251   6.581   5.759   2.700
 7451SOL    HW123252   6.593   5.855   2.728
 7451SOL    HW223253   6.597   5.751   2.601
 7452SOL     OW23254   6.247   5.915   4.046
 7452SOL    HW123255   6.232   5.987   3.978
 7452SOL    HW223256   6.161   5.869   4.066
 7453SOL     OW23257   5.510   5.282   4.853
 7453SOL    HW123258   5.522   5.234   4.940
 7453SOL    HW223259   5.490   5.378   4.870
 7454SOL     OW23260   1.149   2.118   1.179
 7454SOL    HW123261   1.058   2.094   1.213
 7454SOL    HW223262   1.213   2.121   1.255
 7455SOL     OW23263   6.787   2.634   1.431
 7455SOL    HW123264   6.751   2.665   1.343
 7455SOL    HW223265   6.839   2.707   1.474
 7456SOL     OW23266   1.369   0.972   4.872
 7456SOL    HW123267   1.277   1.008   4.859
 7456SOL    HW223268   1.436   1.044   4.853
 7457SOL     OW23269   3.457   1.026   5.059
 7457SOL    HW123270   3.361   1.009   5.082
 7457SOL    HW223271   3.505   0.939   5.047
 7458SOL     OW23272   1.934   6.683   6.246
 7458SOL    HW123273   2.027   6.701   6.214
 7458SOL    HW223274   1.917   6.732   6.331
 7459SOL     OW23275   5.253   0.271   2.110
 7459SOL    HW123276   5.226   0.182   2.075
 7459SOL    HW223277   5.177   0.311   2.161
 7460SOL     OW23278   0.776   5.096   0.647
 7460SOL    HW123279   0.756   5.169   0.712
 7460SOL    HW223280   0.744   5.009   0.685
 7461SOL     OW23281   5.967   6.910   6.922
 7461SOL    HW123282   6.026   6.840   6.881
 7461SOL    HW223283   6.006   7.000   6.903
 7462SOL     OW23284   1.345   4.371   2.159
 7462SOL    HW123285   1.443   4.350   2.155
 7462SOL    HW223286   1.334   4.469   2.178
 7463SOL     OW23287   2.670   4.716   0.874
 7463SOL    HW123288   2.749   4.690   0.930
 7463SOL    HW223289   2.653   4.814   0.884
 7464SOL     OW23290   5.489   6.907   6.428
 7464SOL    HW123291   5.585   6.889   6.449
 7464SOL    HW223292   5.443   6.822   6.406
 7465SOL     OW23293   2.806   5.446   6.433
 7465SOL    HW123294   2.752   5.483   6.509
 7465SOL    HW223295   2.899   5.479   6.439
 7466SOL     OW23296   0.320   0.144   4.939
 7466SOL    HW123297   0.280   0.214   4.998
 7466SOL    HW223298   0.251   0.111   4.875
 7467SOL     OW23299   0.397   1.261   0.130
 7467SOL    HW123300   0.307   1.293   0.101
 7467SOL    HW223301   0.467   1.301   0.070
 7468SOL     OW23302   5.975   2.615   3.687
 7468SOL    HW123303   5.930   2.630   3.600
 7468SOL    HW223304   5.977   2.700   3.739
 7469SOL     OW23305   6.671   0.722   0.005
 7469SOL    HW123306   6.676   0.703   6.938
 7469SOL    HW223307   6.722   0.806   0.026
 7470SOL     OW23308   5.907   3.793   3.288
 7470SOL    HW123309   5.863   3.714   3.245
 7470SOL    HW223310   5.840   3.843   3.343
 7471SOL     OW23311   5.193   6.851   5.564
 7471SOL    HW123312   5.230   6.759   5.575
 7471SOL    HW223313   5.158   6.862   5.471
 7472SOL     OW23314   6.021   0.879   6.203
 7472SOL    HW123315   5.965   0.844   6.278
 7472SOL    HW223316   6.110   0.909   6.239
 7473SOL     OW23317   5.574   5.317   4.171
 7473SOL    HW123318   5.496   5.256   4.158
 7473SOL    HW223319   5.571   5.355   4.264
 7474SOL     OW23320   0.074   2.161   5.698
 7474SOL    HW123321   0.160   2.127   5.736
 7474SOL    HW223322   0.000   2.146   5.764
 7475SOL     OW23323   5.030   2.547   2.426
 7475SOL    HW123324   5.016   2.588   2.336
 7475SOL    HW223325   4.978   2.462   2.432
 7476SOL     OW23326   3.398   1.164   3.544
 7476SOL    HW123327   3.404   1.168   3.445
 7476SOL    HW223328   3.376   1.254   3.581
 7477SOL     OW23329   6.993   2.184   5.454
 7477SOL    HW123330   0.019   2.201   5.535
 7477SOL    HW223331   6.952   2.271   5.425
 7478SOL     OW23332   5.961   3.785   5.436
 7478SOL    HW123333   5.938   3.846   5.360
 7478SOL    HW223334   5.931   3.826   5.522
 7479SOL     OW23335   4.219   2.162   2.447
 7479SOL    HW123336   4.164   2.097   2.394
 7479SOL    HW223337   4.304   2.181   2.398
 7480SOL     OW23338   1.461   4.571   2.578
 7480SOL    HW123339   1.432   4.479   2.550
 7480SOL    HW223340   1.430   4.638   2.511
 7481SOL     OW23341   5.553   5.706   0.927
 7481SOL    HW123342   5.493   5.780   0.898
 7481SOL    HW223343   5.644   5.719   0.886
 7482SOL     OW23344   4.150   2.289   2.941
 7482SOL    HW123345   4.181   2.291   2.846
 7482SOL    HW223346   4.050   2.293   2.944
 7483SOL     OW23347   4.964   3.392   4.294
 7483SOL    HW123348   5.025   3.313   4.305
 7483SOL    HW223349   4.926   3.392   4.202
 7484SOL     OW23350   1.292   6.298   3.759
 7484SOL    HW123351   1.329   6.249   3.680
 7484SOL    HW223352   1.241   6.378   3.728
 7485SOL     OW23353   3.321   0.314   4.719
 7485SOL    HW123354   3.357   0.221   4.715
 7485SOL    HW223355   3.223   0.312   4.698
 7486SOL     OW23356   1.540   5.571   0.719
 7486SOL    HW123357   1.464   5.508   0.702
 7486SOL    HW223358   1.613   5.524   0.767
 7487SOL     OW23359   2.578   0.431   2.746
 7487SOL    HW123360   2.509   0.459   2.812
 7487SOL    HW223361   2.601   0.335   2.762
 7488SOL     OW23362   2.645   5.768   4.637
 7488SOL    HW123363   2.561   5.767   4.691
 7488SOL    HW223364   2.683   5.676   4.633
 7489SOL     OW23365   6.209   2.516   6.096
 7489SOL    HW123366   6.204   2.609   6.060
 7489SOL    HW223367   6.118   2.486   6.123
 7490SOL     OW23368   1.148   0.532   3.086
 7490SOL    HW123369   1.079   0.469   3.053
 7490SOL    HW223370   1.174   0.508   3.180
 7491SOL     OW23371   4.280   3.231   6.572
 7491SOL    HW123372   4.321   3.217   6.482
 7491SOL    HW223373   4.227   3.150   6.598
 7492SOL     OW23374   1.608   0.618   3.420
 7492SOL    HW123375   1.531   0.583   3.473
 7492SOL    HW223376   1.590   0.713   3.395
 7493SOL     OW23377   0.567   3.179   6.404
 7493SOL    HW123378   0.644   3.115   6.399
 7493SOL    HW223379   0.533   3.198   6.312
 7494SOL     OW23380   5.680   1.859   2.788
 7494SOL    HW123381   5.731   1.801   2.726
 7494SOL    HW223382   5.743   1.912   2.844
 7495SOL     OW23383   1.734   2.488   6.847
 7495SOL    HW123384   1.827   2.474   6.883
 7495SOL    HW223385   1.709   2.584   6.859
 7496SOL     OW23386   6.770   3.108   3.657
 7496SOL    HW123387   6.776   3.010   3.638
 7496SOL    HW223388   6.851   3.137   3.709
 7497SOL     OW23389   2.131   4.645   1.220
 7497SOL    HW123390   2.059   4.578   1.204
 7497SOL    HW223391   2.180   4.663   1.135
 7498SOL     OW23392   3.195   0.980   5.114
 7498SOL    HW123393   3.121   0.913   5.105
 7498SOL    HW223394   3.185   1.051   5.044
 7499SOL     OW23395   4.251   1.895   3.271
 7499SOL    HW123396   4.285   1.868   3.361
 7499SOL    HW223397   4.326   1.935   3.218
 7500SOL     OW23398   3.207   5.794   3.417
 7500SOL    HW123399   3.288   5.847   3.441
 7500SOL    HW223400   3.139   5.801   3.491
 7501SOL     OW23401   5.067   4.131   4.944
 7501SOL    HW123402   5.039   4.036   4.957
 7501SOL    HW223403   5.057   4.155   4.847
 7502SOL     OW23404   3.035   1.164   4.233
 7502SOL    HW123405   3.052   1.084   4.175
 7502SOL    HW223406   3.110   1.174   4.298
 7503SOL     OW23407   2.057   6.855   1.277
 7503SOL    HW123408   2.013   6.778   1.231
 7503SOL    HW223409   2.155   6.855   1.257
 7504SOL     OW23410   0.736   6.276   3.752
 7504SOL    HW123411   0.765   6.303   3.844
 7504SOL    HW223412   0.649   6.320   3.730
 7505SOL     OW23413   1.772   3.089   5.779
 7505SOL    HW123414   1.782   3.099   5.680
 7505SOL    HW223415   1.743   3.176   5.818
 7506SOL     OW23416   5.630   1.889   3.556
 7506SOL    HW123417   5.559   1.954   3.531
 7506SOL    HW223418   5.701   1.888   3.486
 7507SOL     OW23419   6.886   1.584   2.170
 7507SOL    HW123420   6.825   1.509   2.197
 7507SOL    HW223421   6.833   1.669   2.164
 7508SOL     OW23422   1.476   6.144   1.483
 7508SOL    HW123423   1.430   6.232   1.472
 7508SOL    HW223424   1.560   6.157   1.536
 7509SOL     OW23425   6.075   3.958   0.480
 7509SOL    HW123426   6.058   3.872   0.432
 7509SOL    HW223427   6.118   4.024   0.419
 7510SOL     OW23428   3.003   3.688   5.321
 7510SOL    HW123429   3.021   3.656   5.228
 7510SOL    HW223430   2.940   3.626   5.366
 7511SOL     OW23431   2.689   5.954   3.461
 7511SOL    HW123432   2.606   5.900   3.449
 7511SOL    HW223433   2.752   5.906   3.522
 7512SOL     OW23434   2.783   0.667   6.522
 7512SOL    HW123435   2.850   0.740   6.507
 7512SOL    HW223436   2.821   0.601   6.588
 7513SOL     OW23437   1.261   1.189   1.659
 7513SOL    HW123438   1.353   1.152   1.647
 7513SOL    HW223439   1.194   1.122   1.626
 7514SOL     OW23440   2.230   4.955   2.717
 7514SOL    HW123441   2.275   5.030   2.766
 7514SOL    HW223442   2.260   4.955   2.622
 7515SOL     OW23443   6.885   5.238   4.717
 7515SOL    HW123444   6.801   5.278   4.681
 7515SOL    HW223445   6.864   5.154   4.766
 7516SOL     OW23446   6.732   5.478   6.156
 7516SOL    HW123447   6.748   5.481   6.255
 7516SOL    HW223448   6.753   5.386   6.122
 7517SOL     OW23449   6.854   1.677   0.472
 7517SOL    HW123450   6.850   1.659   0.570
 7517SOL    HW223451   6.762   1.671   0.433
 7518SOL     OW23452   4.948   3.916   4.258
 7518SOL    HW123453   5.001   3.917   4.174
 7518SOL    HW223454   4.923   3.822   4.281
 7519SOL     OW23455   0.038   6.501   4.638
 7519SOL    HW123456   0.108   6.560   4.599
 7519SOL    HW223457   6.983   6.552   4.647
 7520SOL     OW23458   2.210   0.302   2.694
 7520SOL    HW123459   2.294   0.256   2.721
 7520SOL    HW223460   2.156   0.242   2.634
 7521SOL     OW23461   4.842   2.693   5.280
 7521SOL    HW123462   4.883   2.627   5.217
 7521SOL    HW223463   4.863   2.668   5.374
 7522SOL     OW23464   1.326   1.065   6.186
 7522SOL    HW123465   1.334   1.054   6.285
 7522SOL    HW223466   1.362   1.154   6.159
 7523SOL     OW23467   4.875   0.366   6.325
 7523SOL    HW123468   4.778   0.391   6.324
 7523SOL    HW223469   4.903   0.343   6.418
 7524SOL     OW23470   1.191   2.698   5.016
 7524SOL    HW123471   1.193   2.637   4.937
 7524SOL    HW223472   1.261   2.769   5.006
 7525SOL     OW23473   3.464   0.842   6.955
 7525SOL    HW123474   3.443   0.799   6.868
 7525SOL    HW223475   3.559   0.874   6.955
 7526SOL     OW23476   2.828   3.032   1.280
 7526SOL    HW123477   2.788   3.005   1.367
 7526SOL    HW223478   2.883   3.114   1.293
 7527SOL     OW23479   3.070   6.356   3.900
 7527SOL    HW123480   3.144   6.331   3.963
 7527SOL    HW223481   3.077   6.453   3.877
 7528SOL     OW23482   6.217   2.217   0.010
 7528SOL    HW123483   6.253   2.189   0.099
 7528SOL    HW223484   6.238   2.314   7.024
 7529SOL     OW23485   5.672   1.554   4.614
 7529SOL    HW123486   5.698   1.478   4.554
 7529SOL    HW223487   5.663   1.522   4.708
 7530SOL     OW23488   0.012   2.677   2.569
 7530SOL    HW123489   0.076   2.718   2.505
 7530SOL    HW223490   7.021   2.584   2.541
 7531SOL     OW23491   5.630   2.979   4.512
 7531SOL    HW123492   5.570   2.993   4.590
 7531SOL    HW223493   5.652   2.881   4.503
 7532SOL     OW23494   4.209   6.261   0.526
 7532SOL    HW123495   4.205   6.173   0.573
 7532SOL    HW223496   4.116   6.292   0.504
 7533SOL     OW23497   3.419   1.731   1.626
 7533SOL    HW123498   3.463   1.681   1.700
 7533SOL    HW223499   3.428   1.830   1.642
 7534SOL     OW23500   4.816   6.080   5.262
 7534SOL    HW123501   4.860   6.033   5.186
 7534SOL    HW223502   4.759   6.015   5.313
 7535SOL     OW23503   1.777   0.054   4.553
 7535SOL    HW123504   1.732   0.142   4.569
 7535SOL    HW223505   1.823   0.025   4.637
 7536SOL     OW23506   5.566   4.180   4.238
 7536SOL    HW123507   5.599   4.099   4.190
 7536SOL    HW223508   5.479   4.160   4.282
 7537SOL     OW23509   1.914   5.016   2.406
 7537SOL    HW123510   1.897   5.073   2.486
 7537SOL    HW223511   2.006   5.032   2.372
 7538SOL     OW23512   1.992   2.294   1.609
 7538SOL    HW123513   2.057   2.220   1.591
 7538SOL    HW223514   2.023   2.349   1.686
 7539SOL     OW23515   1.607   3.577   4.523
 7539SOL    HW123516   1.548   3.624   4.588
 7539SOL    HW223517   1.558   3.562   4.437
 7540SOL     OW23518   4.319   0.760   4.864
 7540SOL    HW123519   4.411   0.747   4.902
 7540SOL    HW223520   4.309   0.854   4.833
 7541SOL     OW23521   0.628   3.996   5.019
 7541SOL    HW123522   0.626   3.896   5.014
 7541SOL    HW223523   0.551   4.034   4.968
 7542SOL     OW23524   0.778   5.498   6.876
 7542SOL    HW123525   0.850   5.554   6.916
 7542SOL    HW223526   0.748   5.430   6.943
 7543SOL     OW23527   3.909   1.072   5.293
 7543SOL    HW123528   3.934   1.168   5.305
 7543SOL    HW223529   3.848   1.063   5.214
 7544SOL     OW23530   6.334   2.357   3.888
 7544SOL    HW123531   6.292   2.438   3.847
 7544SOL    HW223532   6.262   2.293   3.916
 7545SOL     OW23533   0.963   6.133   6.768
 7545SOL    HW123534   0.904   6.204   6.808
 7545SOL    HW223535   0.948   6.128   6.670
 7546SOL     OW23536   4.260   1.694   1.363
 7546SOL    HW123537   4.223   1.786   1.377
 7546SOL    HW223538   4.349   1.687   1.409
 7547SOL     OW23539   5.451   1.414   0.577
 7547SOL    HW123540   5.501   1.478   0.518
 7547SOL    HW223541   5.372   1.461   0.615
 7548SOL     OW23542   4.254   2.246   6.704
 7548SOL    HW123543   4.186   2.310   6.740
 7548SOL    HW223544   4.260   2.256   6.604
 7549SOL     OW23545   3.506   3.417   6.980
 7549SOL    HW123546   3.523   3.398   6.884
 7549SOL    HW223547   3.409   3.439   6.993
 7550SOL     OW23548   1.830   4.733   4.178
 7550SOL    HW123549   1.892   4.811   4.174
 7550SOL    HW223550   1.753   4.747   4.116
 7551SOL     OW23551   6.329   3.035   5.462
 7551SOL    HW123552   6.362   2.945   5.432
 7551SOL    HW223553   6.394   3.106   5.434
 7552SOL     OW23554   1.566   6.181   3.625
 7552SOL    HW123555   1.663   6.188   3.605
 7552SOL    HW223556   1.514   6.184   3.540
 7553SOL     OW23557   3.973   6.998   5.721
 7553SOL    HW123558   3.912   0.043   5.694
 7553SOL    HW223559   4.014   7.020   5.810
 7554SOL     OW23560   5.217   0.835   6.597
 7554SOL    HW123561   5.233   0.759   6.661
 7554SOL    HW223562   5.228   0.922   6.646
 7555SOL     OW23563   3.215   5.392   6.510
 7555SOL    HW123564   3.211   5.453   6.589
 7555SOL    HW223565   3.211   5.297   6.541
 7556SOL     OW23566   2.483   2.873   0.006
 7556SOL    HW123567   2.430   2.789   7.024
 7556SOL    HW223568   2.486   2.896   0.103
 7557SOL     OW23569   5.227   0.799   6.294
 7557SOL    HW123570   5.219   0.794   6.393
 7557SOL    HW223571   5.229   0.895   6.266
 7558SOL     OW23572   1.959   2.592   4.421
 7558SOL    HW123573   1.972   2.680   4.466
 7558SOL    HW223574   1.862   2.578   4.402
 7559SOL     OW23575   4.271   2.926   6.449
 7559SOL    HW123576   4.197   2.887   6.502
 7559SOL    HW223577   4.267   2.893   6.355
 7560SOL     OW23578   4.612   6.838   0.441
 7560SOL    HW123579   4.640   6.850   0.345
 7560SOL    HW223580   4.555   6.915   0.469
 7561SOL     OW23581   7.030   3.293   6.134
 7561SOL    HW123582   7.004   3.230   6.207
 7561SOL    HW223583   7.006   3.253   6.045
 7562SOL     OW23584   0.353   5.507   5.459
 7562SOL    HW123585   0.403   5.586   5.424
 7562SOL    HW223586   0.404   5.423   5.438
 7563SOL     OW23587   3.050   6.942   1.641
 7563SOL    HW123588   3.044   6.843   1.632
 7563SOL    HW223589   2.972   6.975   1.695
 7564SOL     OW23590   4.305   0.879   3.823
 7564SOL    HW123591   4.224   0.937   3.818
 7564SOL    HW223592   4.384   0.935   3.850
 7565SOL     OW23593   6.058   3.737   6.674
 7565SOL    HW123594   6.097   3.789   6.598
 7565SOL    HW223595   5.984   3.679   6.640
 7566SOL     OW23596   5.843   5.463   2.615
 7566SOL    HW123597   5.814   5.482   2.709
 7566SOL    HW223598   5.796   5.381   2.582
 7567SOL     OW23599   1.929   1.417   5.679
 7567SOL    HW123600   1.900   1.478   5.605
 7567SOL    HW223601   1.854   1.354   5.700
 7568SOL     OW23602   5.584   4.746   2.893
 7568SOL    HW123603   5.562   4.772   2.987
 7568SOL    HW223604   5.503   4.754   2.836
 7569SOL     OW23605   3.522   4.499   6.177
 7569SOL    HW123606   3.549   4.549   6.095
 7569SOL    HW223607   3.430   4.526   6.204
 7570SOL     OW23608   5.718   4.109   4.533
 7570SOL    HW123609   5.696   4.185   4.472
 7570SOL    HW223610   5.656   4.033   4.515
 7571SOL     OW23611   4.540   4.492   3.538
 7571SOL    HW123612   4.525   4.472   3.634
 7571SOL    HW223613   4.598   4.422   3.498
 7572SOL     OW23614   4.881   0.640   2.305
 7572SOL    HW123615   4.867   0.726   2.355
 7572SOL    HW223616   4.862   0.655   2.208
 7573SOL     OW23617   0.234   6.974   5.157
 7573SOL    HW123618   0.165   0.008   5.191
 7573SOL    HW223619   0.275   7.009   5.073
 7574SOL     OW23620   5.072   0.751   5.639
 7574SOL    HW123621   5.074   0.748   5.739
 7574SOL    HW223622   5.103   0.841   5.608
 7575SOL     OW23623   5.480   0.312   6.803
 7575SOL    HW123624   5.569   0.286   6.840
 7575SOL    HW223625   5.408   0.259   6.848
 7576SOL     OW23626   5.139   3.119   0.427
 7576SOL    HW123627   5.136   3.121   0.327
 7576SOL    HW223628   5.110   3.029   0.459
 7577SOL     OW23629   0.513   6.660   7.024
 7577SOL    HW123630   0.497   6.583   6.962
 7577SOL    HW223631   0.608   6.659   0.025
 7578SOL     OW23632   3.291   5.121   2.568
 7578SOL    HW123633   3.355   5.062   2.618
 7578SOL    HW223634   3.342   5.186   2.512
 7579SOL     OW23635   0.190   1.093   1.618
 7579SOL    HW123636   0.184   1.107   1.717
 7579SOL    HW223637   0.161   1.176   1.571
 7580SOL     OW23638   0.561   4.179   4.014
 7580SOL    HW123639   0.636   4.212   4.070
 7580SOL    HW223640   0.597   4.124   3.938
 7581SOL     OW23641   0.522   1.886   1.377
 7581SOL    HW123642   0.435   1.852   1.413
 7581SOL    HW223643   0.506   1.971   1.325
 7582SOL     OW23644   3.969   1.687   3.367
 7582SOL    HW123645   4.009   1.660   3.279
 7582SOL    HW223646   3.870   1.700   3.356
 7583SOL     OW23647   5.147   2.733   2.175
 7583SOL    HW123648   5.211   2.671   2.222
 7583SOL    HW223649   5.148   2.714   2.077
 7584SOL     OW23650   2.511   0.797   3.093
 7584SOL    HW123651   2.546   0.839   3.176
 7584SOL    HW223652   2.435   0.736   3.115
 7585SOL     OW23653   1.866   2.866   6.330
 7585SOL    HW123654   1.915   2.938   6.280
 7585SOL    HW223655   1.782   2.844   6.281
 7586SOL     OW23656   2.344   6.593   3.711
 7586SOL    HW123657   2.368   6.629   3.621
 7586SOL    HW223658   2.303   6.666   3.767
 7587SOL     OW23659   1.934   1.313   6.363
 7587SOL    HW123660   1.928   1.360   6.451
 7587SOL    HW223661   2.027   1.320   6.328
 7588SOL     OW23662   2.038   2.483   3.622
 7588SOL    HW123663   1.977   2.404   3.618
 7588SOL    HW223664   2.132   2.453   3.606
 7589SOL     OW23665   0.218   0.737   2.608
 7589SOL    HW123666   0.302   0.777   2.570
 7589SOL    HW223667   0.176   0.676   2.541
 7590SOL     OW23668   4.274   1.706   6.577
 7590SOL    HW123669   4.291   1.738   6.483
 7590SOL    HW223670   4.270   1.785   6.638
 7591SOL     OW23671   5.379   4.499   0.729
 7591SOL    HW123672   5.362   4.410   0.773
 7591SOL    HW223673   5.458   4.491   0.669
 7592SOL     OW23674   6.327   5.723   4.795
 7592SOL    HW123675   6.292   5.762   4.710
 7592SOL    HW223676   6.354   5.798   4.857
 7593SOL     OW23677   6.423   3.438   6.846
 7593SOL    HW123678   6.428   3.375   6.924
 7593SOL    HW223679   6.332   3.479   6.842
 7594SOL     OW23680   1.407   4.649   2.053
 7594SOL    HW123681   1.403   4.697   2.140
 7594SOL    HW223682   1.325   4.671   1.999
 7595SOL     OW23683   5.841   3.267   6.147
 7595SOL    HW123684   5.860   3.276   6.245
 7595SOL    HW223685   5.882   3.182   6.113
 7596SOL     OW23686   3.482   6.501   4.311
 7596SOL    HW123687   3.567   6.551   4.291
 7596SOL    HW223688   3.425   6.557   4.371
 7597SOL     OW23689   1.708   6.665   3.120
 7597SOL    HW123690   1.693   6.566   3.123
 7597SOL    HW223691   1.772   6.687   3.047
 7598SOL     OW23692   0.073   0.853   3.264
 7598SOL    HW123693   0.080   0.784   3.192
 7598SOL    HW223694   0.095   0.811   3.352
 7599SOL     OW23695   5.602   2.310   2.249
 7599SOL    HW123696   5.524   2.343   2.197
 7599SOL    HW223697   5.632   2.381   2.313
 7600SOL     OW23698   0.875   1.734   3.960
 7600SOL    HW123699   0.830   1.782   3.885
 7600SOL    HW223700   0.973   1.749   3.956
 7601SOL     OW23701   2.848   4.937   2.372
 7601SOL    HW123702   2.944   4.939   2.399
 7601SOL    HW223703   2.805   5.024   2.398
 7602SOL     OW23704   1.531   3.643   0.065
 7602SOL    HW123705   1.490   3.696   0.139
 7602SOL    HW223706   1.539   3.548   0.093
 7603SOL     OW23707   1.965   6.095   6.539
 7603SOL    HW123708   1.877   6.101   6.585
 7603SOL    HW223709   1.953   6.060   6.446
 7604SOL     OW23710   1.256   3.002   4.289
 7604SOL    HW123711   1.317   3.061   4.341
 7604SOL    HW223712   1.310   2.930   4.244
 7605SOL     OW23713   1.168   0.140   0.680
 7605SOL    HW123714   1.135   0.231   0.655
 7605SOL    HW223715   1.257   0.147   0.723
 7606SOL     OW23716   5.957   2.895   4.165
 7606SOL    HW123717   5.862   2.914   4.191
 7606SOL    HW223718   5.990   2.968   4.106
 7607SOL     OW23719   3.702   4.797   0.567
 7607SOL    HW123720   3.734   4.704   0.585
 7607SOL    HW223721   3.718   4.854   0.648
 7608SOL     OW23722   4.381   3.454   0.909
 7608SOL    HW123723   4.340   3.386   0.849
 7608SOL    HW223724   4.477   3.433   0.924
 7609SOL     OW23725   1.663   3.137   4.153
 7609SOL    HW123726   1.731   3.065   4.138
 7609SOL    HW223727   1.612   3.118   4.237
 7610SOL     OW23728   4.205   4.879   6.000
 7610SOL    HW123729   4.286   4.831   6.032
 7610SOL    HW223730   4.124   4.839   6.043
 7611SOL     OW23731   5.470   3.944   1.466
 7611SOL    HW123732   5.457   4.034   1.506
 7611SOL    HW223733   5.396   3.924   1.402
 7612SOL     OW23734   4.899   3.123   2.463
 7612SOL    HW123735   4.877   3.168   2.377
 7612SOL    HW223736   4.982   3.068   2.452
 7613SOL     OW23737   0.671   1.613   0.809
 7613SOL    HW123738   0.651   1.519   0.835
 7613SOL    HW223739   0.586   1.666   0.806
 7614SOL     OW23740   5.593   3.055   1.068
 7614SOL    HW123741   5.543   2.980   1.112
 7614SOL    HW223742   5.672   3.019   1.019
 7615SOL     OW23743   4.008   4.815   6.630
 7615SOL    HW123744   4.055   4.745   6.685
 7615SOL    HW223745   4.062   4.833   6.548
 7616SOL     OW23746   6.703   6.204   4.756
 7616SOL    HW123747   6.661   6.137   4.818
 7616SOL    HW223748   6.756   6.269   4.809
 7617SOL     OW23749   3.554   6.169   3.712
 7617SOL    HW123750   3.638   6.160   3.658
 7617SOL    HW223751   3.570   6.232   3.788
 7618SOL     OW23752   0.399   2.738   6.144
 7618SOL    HW123753   0.377   2.834   6.125
 7618SOL    HW223754   0.497   2.729   6.160
 7619SOL     OW23755   6.879   2.873   4.735
 7619SOL    HW123756   6.812   2.928   4.685
 7619SOL    HW223757   6.859   2.878   4.833
 7620SOL     OW23758   3.812   5.823   1.654
 7620SOL    HW123759   3.782   5.746   1.710
 7620SOL    HW223760   3.835   5.791   1.562
 7621SOL     OW23761   6.534   0.998   0.757
 7621SOL    HW123762   6.442   1.009   0.795
 7621SOL    HW223763   6.576   0.915   0.793
 7622SOL     OW23764   4.410   4.441   5.725
 7622SOL    HW123765   4.332   4.473   5.672
 7622SOL    HW223766   4.398   4.467   5.821
 7623SOL     OW23767   4.672   4.446   6.748
 7623SOL    HW123768   4.707   4.365   6.701
 7623SOL    HW223769   4.638   4.420   6.838
 7624SOL     OW23770   6.504   3.868   4.905
 7624SOL    HW123771   6.599   3.838   4.900
 7624SOL    HW223772   6.453   3.830   4.828
 7625SOL     OW23773   5.306   1.293   0.354
 7625SOL    HW123774   5.378   1.327   0.414
 7625SOL    HW223775   5.282   1.199   0.378
 7626SOL     OW23776   6.278   0.669   5.344
 7626SOL    HW123777   6.316   0.716   5.424
 7626SOL    HW223778   6.264   0.573   5.366
 7627SOL     OW23779   3.379   2.950   0.686
 7627SOL    HW123780   3.435   2.994   0.616
 7627SOL    HW223781   3.400   2.990   0.775
 7628SOL     OW23782   3.251   2.907   2.298
 7628SOL    HW123783   3.253   2.878   2.202
 7628SOL    HW223784   3.338   2.886   2.342
 7629SOL     OW23785   0.187   4.473   3.328
 7629SOL    HW123786   0.205   4.390   3.382
 7629SOL    HW223787   0.090   4.477   3.304
 7630SOL     OW23788   0.693   0.997   0.404
 7630SOL    HW123789   0.618   0.980   0.467
 7630SOL    HW223790   0.714   1.095   0.401
 7631SOL     OW23791   1.317   2.291   5.711
 7631SOL    HW123792   1.251   2.237   5.660
 7631SOL    HW223793   1.379   2.230   5.760
 7632SOL     OW23794   5.057   4.422   0.804
 7632SOL    HW123795   5.129   4.485   0.833
 7632SOL    HW223796   5.007   4.390   0.884
 7633SOL     OW23797   5.274   0.835   1.685
 7633SOL    HW123798   5.185   0.792   1.701
 7633SOL    HW223799   5.328   0.830   1.770
 7634SOL     OW23800   2.287   1.023   1.792
 7634SOL    HW123801   2.364   1.051   1.734
 7634SOL    HW223802   2.278   0.923   1.787
 7635SOL     OW23803   3.535   4.971   5.080
 7635SOL    HW123804   3.507   5.047   5.138
 7635SOL    HW223805   3.548   4.889   5.137
 7636SOL     OW23806   0.976   3.436   4.231
 7636SOL    HW123807   0.996   3.339   4.214
 7636SOL    HW223808   0.923   3.473   4.155
 7637SOL     OW23809   2.677   6.133   2.424
 7637SOL    HW123810   2.640   6.153   2.333
 7637SOL    HW223811   2.680   6.035   2.439
 7638SOL     OW23812   2.017   5.396   2.087
 7638SOL    HW123813   2.115   5.394   2.069
 7638SOL    HW223814   2.001   5.373   2.183
 7639SOL     OW23815   0.049   1.277   0.776
 7639SOL    HW123816   0.036   1.281   0.677
 7639SOL    HW223817   7.007   1.221   0.816
 7640SOL     OW23818   2.799   1.724   5.868
 7640SOL    HW123819   2.790   1.626   5.887
 7640SOL    HW223820   2.872   1.762   5.924
 7641SOL     OW23821   0.967   3.388   2.532
 7641SOL    HW123822   0.922   3.333   2.603
 7641SOL    HW223823   0.898   3.439   2.481
 7642SOL     OW23824   3.914   1.825   2.494
 7642SOL    HW123825   3.841   1.788   2.435
 7642SOL    HW223826   3.876   1.849   2.583
 7643SOL     OW23827   5.504   2.056   3.063
 7643SOL    HW123828   5.579   1.997   3.032
 7643SOL    HW223829   5.537   2.119   3.132
 7644SOL     OW23830   4.836   2.896   2.275
 7644SOL    HW123831   4.804   2.951   2.197
 7644SOL    HW223832   4.805   2.938   2.360
 7645SOL     OW23833   4.815   3.850   5.441
 7645SOL    HW123834   4.866   3.832   5.526
 7645SOL    HW223835   4.717   3.860   5.463
 7646SOL     OW23836   1.071   3.202   4.354
 7646SOL    HW123837   1.122   3.116   4.350
 7646SOL    HW223838   0.973   3.183   4.360
 7647SOL     OW23839   7.016   2.436   3.867
 7647SOL    HW123840   6.990   2.349   3.909
 7647SOL    HW223841   0.081   2.430   3.835
 7648SOL     OW23842   2.611   1.796   2.267
 7648SOL    HW123843   2.704   1.829   2.249
 7648SOL    HW223844   2.605   1.761   2.360
 7649SOL     OW23845   1.663   0.225   3.721
 7649SOL    HW123846   1.611   0.189   3.799
 7649SOL    HW223847   1.686   0.321   3.739
 7650SOL     OW23848   5.552   0.773   0.815
 7650SOL    HW123849   5.613   0.756   0.892
 7650SOL    HW223850   5.470   0.717   0.824
 7651SOL     OW23851   2.204   0.233   4.159
 7651SOL    HW123852   2.238   0.307   4.216
 7651SOL    HW223853   2.247   0.147   4.186
 7652SOL     OW23854   5.426   2.000   4.440
 7652SOL    HW123855   5.448   1.931   4.510
 7652SOL    HW223856   5.492   1.993   4.365
 7653SOL     OW23857   0.862   1.637   0.111
 7653SOL    HW123858   0.928   1.563   0.123
 7653SOL    HW223859   0.845   1.682   0.198
 7654SOL     OW23860   4.896   3.354   4.026
 7654SOL    HW123861   4.855   3.382   3.939
 7654SOL    HW223862   4.909   3.255   4.026
 7655SOL     OW23863   4.216   6.444   3.790
 7655SOL    HW123864   4.189   6.461   3.885
 7655SOL    HW223865   4.306   6.400   3.788
 7656SOL     OW23866   3.935   3.972   6.807
 7656SOL    HW123867   3.958   3.897   6.869
 7656SOL    HW223868   3.918   3.936   6.715
 7657SOL     OW23869   1.634   2.138   3.047
 7657SOL    HW123870   1.583   2.185   3.119
 7657SOL    HW223871   1.571   2.107   2.976
 7658SOL     OW23872   2.703   0.332   0.546
 7658SOL    HW123873   2.645   0.409   0.519
 7658SOL    HW223874   2.646   0.252   0.566
 7659SOL     OW23875   5.235   4.767   6.882
 7659SOL    HW123876   5.288   4.683   6.871
 7659SOL    HW223877   5.242   4.822   6.799
 7660SOL     OW23878   6.789   6.125   4.078
 7660SOL    HW123879   6.845   6.077   4.011
 7660SOL    HW223880   6.827   6.216   4.095
 7661SOL     OW23881   5.568   2.450   5.398
 7661SOL    HW123882   5.546   2.547   5.397
 7661SOL    HW223883   5.606   2.425   5.487
 7662SOL     OW23884   1.061   2.584   4.331
 7662SOL    HW123885   1.027   2.666   4.286
 7662SOL    HW223886   1.159   2.593   4.348
 7663SOL     OW23887   5.802   4.893   6.524
 7663SOL    HW123888   5.714   4.846   6.509
 7663SOL    HW223889   5.830   4.938   6.440
 7664SOL     OW23890   4.186   1.101   2.374
 7664SOL    HW123891   4.275   1.147   2.371
 7664SOL    HW223892   4.200   1.002   2.370
 7665SOL     OW23893   6.177   0.913   4.991
 7665SOL    HW123894   6.248   0.970   4.949
 7665SOL    HW223895   6.191   0.909   5.090
 7666SOL     OW23896   0.524   4.263   2.984
 7666SOL    HW123897   0.427   4.287   2.986
 7666SOL    HW223898   0.560   4.277   2.891
 7667SOL     OW23899   4.209   0.423   2.282
 7667SOL    HW123900   4.176   0.459   2.369
 7667SOL    HW223901   4.140   0.439   2.211
 7668SOL     OW23902   2.690   4.986   0.911
 7668SOL    HW123903   2.766   5.048   0.891
 7668SOL    HW223904   2.652   5.009   1.001
 7669SOL     OW23905   5.015   1.308   5.583
 7669SOL    HW123906   5.080   1.282   5.512
 7669SOL    HW223907   4.936   1.354   5.541
 7670SOL     OW23908   1.003   5.332   0.938
 7670SOL    HW123909   1.018   5.263   0.867
 7670SOL    HW223910   1.044   5.301   1.024
 7671SOL     OW23911   3.668   0.797   2.533
 7671SOL    HW123912   3.750   0.810   2.588
 7671SOL    HW223913   3.593   0.849   2.573
 7672SOL     OW23914   0.509   5.644   2.771
 7672SOL    HW123915   0.529   5.741   2.766
 7672SOL    HW223916   0.594   5.591   2.772
 7673SOL     OW23917   2.009   5.657   1.963
 7673SOL    HW123918   1.985   5.740   2.015
 7673SOL    HW223919   2.022   5.581   2.027
 7674SOL     OW23920   4.880   1.052   4.088
 7674SOL    HW123921   4.968   1.012   4.064
 7674SOL    HW223922   4.846   1.008   4.172
 7675SOL     OW23923   6.000   6.422   3.169
 7675SOL    HW123924   6.022   6.353   3.100
 7675SOL    HW223925   5.907   6.455   3.154
 7676SOL     OW23926   2.978   2.276   7.010
 7676SOL    HW123927   2.930   2.224   6.939
 7676SOL    HW223928   3.076   2.260   7.003
 7677SOL     OW23929   0.248   3.957   1.950
 7677SOL    HW123930   0.218   3.932   1.858
 7677SOL    HW223931   0.305   4.038   1.945
 7678SOL     OW23932   2.440   2.652   5.149
 7678SOL    HW123933   2.437   2.752   5.144
 7678SOL    HW223934   2.358   2.614   5.106
 7679SOL     OW23935   2.672   6.418   5.651
 7679SOL    HW123936   2.687   6.399   5.748
 7679SOL    HW223937   2.638   6.335   5.605
 7680SOL     OW23938   1.649   0.620   0.937
 7680SOL    HW123939   1.635   0.701   0.880
 7680SOL    HW223940   1.747   0.602   0.946
 7681SOL     OW23941   2.760   0.951   1.311
 7681SOL    HW123942   2.844   0.899   1.303
 7681SOL    HW223943   2.735   0.989   1.221
 7682SOL     OW23944   4.397   0.002   2.227
 7682SOL    HW123945   4.312   6.989   2.196
 7682SOL    HW223946   4.375   0.083   2.281
 7683SOL     OW23947   0.131   1.576   5.071
 7683SOL    HW123948   0.033   1.568   5.089
 7683SOL    HW223949   0.169   1.649   5.127
 7684SOL     OW23950   4.413   1.435   0.843
 7684SOL    HW123951   4.430   1.446   0.745
 7684SOL    HW223952   4.501   1.427   0.891
 7685SOL     OW23953   2.575   1.600   5.535
 7685SOL    HW123954   2.512   1.668   5.497
 7685SOL    HW223955   2.523   1.519   5.564
 7686SOL     OW23956   6.616   6.801   3.462
 7686SOL    HW123957   6.520   6.790   3.437
 7686SOL    HW223958   6.674   6.774   3.384
 7687SOL     OW23959   5.875   5.577   4.720
 7687SOL    HW123960   5.964   5.536   4.703
 7687SOL    HW223961   5.805   5.505   4.725
 7688SOL     OW23962   0.182   6.018   5.638
 7688SOL    HW123963   0.247   6.041   5.565
 7688SOL    HW223964   0.112   5.957   5.602
 7689SOL     OW23965   5.500   6.318   2.766
 7689SOL    HW123966   5.431   6.290   2.833
 7689SOL    HW223967   5.580   6.355   2.814
 7690SOL     OW23968   5.492   5.340   0.186
 7690SOL    HW123969   5.473   5.244   0.204
 7690SOL    HW223970   5.492   5.355   0.087
 7691SOL     OW23971   5.544   4.318   2.765
 7691SOL    HW123972   5.533   4.243   2.830
 7691SOL    HW223973   5.505   4.402   2.803
 7692SOL     OW23974   0.700   6.044   2.000
 7692SOL    HW123975   0.661   6.124   2.044
 7692SOL    HW223976   0.649   6.024   1.916
 7693SOL     OW23977   3.256   0.702   1.452
 7693SOL    HW123978   3.354   0.710   1.437
 7693SOL    HW223979   3.234   0.723   1.547
 7694SOL     OW23980   5.613   3.214   3.473
 7694SOL    HW123981   5.524   3.243   3.506
 7694SOL    HW223982   5.656   3.289   3.423
 7695SOL     OW23983   5.039   0.504   1.515
 7695SOL    HW123984   5.011   0.409   1.527
 7695SOL    HW223985   5.139   0.511   1.526
 7696SOL     OW23986   6.999   1.609   6.187
 7696SOL    HW123987   7.003   1.598   6.088
 7696SOL    HW223988   6.992   1.518   6.230
 7697SOL     OW23989   2.498   0.180   3.466
 7697SOL    HW123990   2.520   0.212   3.558
 7697SOL    HW223991   2.574   0.124   3.431
 7698SOL     OW23992   5.774   1.212   4.050
 7698SOL    HW123993   5.796   1.120   4.084
 7698SOL    HW223994   5.676   1.219   4.032
 7699SOL     OW23995   2.682   5.549   6.166
 7699SOL    HW123996   2.717   5.518   6.254
 7699SOL    HW223997   2.640   5.472   6.118
 7700SOL     OW23998   4.060   5.751   3.726
 7700SOL    HW123999   4.087   5.659   3.753
 7700SOL    HW224000   4.017   5.749   3.635
 7701SOL     OW24001   6.998   2.894   6.657
 7701SOL    HW124002   0.039   2.847   6.709
 7701SOL    HW224003   6.934   2.938   6.720
 7702SOL     OW24004   4.732   5.866   5.407
 7702SOL    HW124005   4.761   5.770   5.409
 7702SOL    HW224006   4.640   5.874   5.444
 7703SOL     OW24007   5.998   6.025   6.253
 7703SOL    HW124008   5.968   6.026   6.157
 7703SOL    HW224009   5.952   6.098   6.302
 7704SOL     OW24010   5.744   0.565   3.417
 7704SOL    HW124011   5.811   0.606   3.355
 7704SOL    HW224012   5.660   0.545   3.367
 7705SOL     OW24013   2.139   6.096   0.951
 7705SOL    HW124014   2.235   6.118   0.967
 7705SOL    HW224015   2.086   6.113   1.034
 7706SOL     OW24016   3.460   3.223   3.897
 7706SOL    HW124017   3.401   3.298   3.927
 7706SOL    HW224018   3.463   3.221   3.797
 7707SOL     OW24019   6.917   4.326   6.051
 7707SOL    HW124020   6.828   4.283   6.032
 7707SOL    HW224021   6.903   4.406   6.109
 7708SOL     OW24022   1.311   6.345   4.833
 7708SOL    HW124023   1.288   6.332   4.737
 7708SOL    HW224024   1.229   6.371   4.884
 7709SOL     OW24025   6.688   4.704   1.845
 7709SOL    HW124026   6.716   4.646   1.769
 7709SOL    HW224027   6.700   4.654   1.931
 7710SOL     OW24028   2.340   2.355   0.223
 7710SOL    HW124029   2.379   2.374   0.314
 7710SOL    HW224030   2.248   2.393   0.219
 7711SOL     OW24031   5.783   5.861   5.829
 7711SOL    HW124032   5.774   5.803   5.748
 7711SOL    HW224033   5.720   5.939   5.822
 7712SOL     OW24034   6.067   5.434   0.509
 7712SOL    HW124035   6.071   5.334   0.499
 7712SOL    HW224036   5.973   5.462   0.528
 7713SOL     OW24037   1.331   3.933   0.625
 7713SOL    HW124038   1.413   3.898   0.578
 7713SOL    HW224039   1.329   3.897   0.718
 7714SOL     OW24040   0.195   5.025   5.381
 7714SOL    HW124041   0.225   4.985   5.295
 7714SOL    HW224042   0.184   4.954   5.450
 7715SOL     OW24043   2.903   2.481   6.490
 7715SOL    HW124044   2.952   2.443   6.412
 7715SOL    HW224045   2.857   2.565   6.462
 7716SOL     OW24046   6.533   4.331   0.272
 7716SOL    HW124047   6.520   4.340   0.173
 7716SOL    HW224048   6.455   4.371   0.320
 7717SOL     OW24049   1.193   1.398   5.611
 7717SOL    HW124050   1.176   1.319   5.669
 7717SOL    HW224051   1.285   1.393   5.573
 7718SOL     OW24052   6.761   3.583   2.949
 7718SOL    HW124053   6.782   3.629   3.034
 7718SOL    HW224054   6.801   3.491   2.950
 7719SOL     OW24055   0.410   4.083   4.873
 7719SOL    HW124056   0.325   4.040   4.842
 7719SOL    HW224057   0.417   4.174   4.831
 7720SOL     OW24058   6.629   2.521   6.444
 7720SOL    HW124059   6.561   2.553   6.378
 7720SOL    HW224060   6.606   2.429   6.473
 7721SOL     OW24061   0.572   5.708   2.197
 7721SOL    HW124062   0.590   5.646   2.274
 7721SOL    HW224063   0.659   5.741   2.161
 7722SOL     OW24064   1.789   4.323   3.676
 7722SOL    HW124065   1.755   4.416   3.665
 7722SOL    HW224066   1.737   4.261   3.618
 7723SOL     OW24067   3.769   3.214   0.122
 7723SOL    HW124068   3.802   3.237   0.030
 7723SOL    HW224069   3.669   3.215   0.122
 7724SOL     OW24070   3.458   4.386   0.792
 7724SOL    HW124071   3.359   4.373   0.788
 7724SOL    HW224072   3.503   4.297   0.798
 7725SOL     OW24073   6.522   1.870   2.877
 7725SOL    HW124074   6.571   1.804   2.821
 7725SOL    HW224075   6.583   1.908   2.947
 7726SOL     OW24076   1.775   4.577   6.423
 7726SOL    HW124077   1.722   4.500   6.389
 7726SOL    HW224078   1.864   4.579   6.379
 7727SOL     OW24079   6.683   2.362   2.276
 7727SOL    HW124080   6.743   2.440   2.259
 7727SOL    HW224081   6.675   2.346   2.374
 7728SOL     OW24082   2.150   2.877   5.136
 7728SOL    HW124083   2.115   2.958   5.183
 7728SOL    HW224084   2.245   2.893   5.110
 7729SOL     OW24085   5.966   0.965   1.824
 7729SOL    HW124086   5.962   0.911   1.740
 7729SOL    HW224087   5.942   0.908   1.902
 7730SOL     OW24088   6.896   4.939   6.139
 7730SOL    HW124089   6.799   4.950   6.120
 7730SOL    HW224090   6.908   4.901   6.231
 7731SOL     OW24091   5.913   0.086   0.284
 7731SOL    HW124092   5.994   0.133   0.248
 7731SOL    HW224093   5.935   7.020   0.300
 7732SOL     OW24094   3.601   0.032   0.367
 7732SOL    HW124095   3.520   0.015   0.311
 7732SOL    HW224096   3.676   0.061   0.308
 7733SOL     OW24097   5.282   6.010   2.162
 7733SOL    HW124098   5.273   6.028   2.260
 7733SOL    HW224099   5.233   5.926   2.139
 7734SOL     OW24100   1.944   4.787   5.110
 7734SOL    HW124101   1.966   4.872   5.063
 7734SOL    HW224102   2.027   4.732   5.122
 7735SOL     OW24103   5.625   5.899   6.332
 7735SOL    HW124104   5.661   5.853   6.251
 7735SOL    HW224105   5.643   5.997   6.325
 7736SOL     OW24106   2.793   2.719   6.395
 7736SOL    HW124107   2.764   2.796   6.339
 7736SOL    HW224108   2.859   2.750   6.464
 7737SOL     OW24109   3.657   0.394   2.417
 7737SOL    HW124110   3.625   0.447   2.495
 7737SOL    HW224111   3.610   0.424   2.334
 7738SOL     OW24112   2.981   5.128   0.502
 7738SOL    HW124113   2.914   5.056   0.522
 7738SOL    HW224114   2.953   5.213   0.547
 7739SOL     OW24115   1.359   2.304   2.140
 7739SOL    HW124116   1.353   2.211   2.177
 7739SOL    HW224117   1.285   2.360   2.177
 7740SOL     OW24118   2.711   0.999   3.663
 7740SOL    HW124119   2.768   1.036   3.737
 7740SOL    HW224120   2.746   0.909   3.636
 7741SOL     OW24121   0.415   4.072   5.259
 7741SOL    HW124122   0.434   4.146   5.325
 7741SOL    HW224123   0.478   4.081   5.182
 7742SOL     OW24124   4.573   2.425   3.699
 7742SOL    HW124125   4.491   2.387   3.655
 7742SOL    HW224126   4.651   2.416   3.637
 7743SOL     OW24127   4.620   1.625   0.182
 7743SOL    HW124128   4.675   1.595   0.104
 7743SOL    HW224129   4.525   1.638   0.152
 7744SOL     OW24130   0.917   0.241   3.764
 7744SOL    HW124131   0.913   0.328   3.814
 7744SOL    HW224132   0.830   0.192   3.777
 7745SOL     OW24133   3.304   0.489   0.461
 7745SOL    HW124134   3.235   0.551   0.498
 7745SOL    HW224135   3.395   0.526   0.480
 7746SOL     OW24136   0.752   0.387   0.468
 7746SOL    HW124137   0.842   0.400   0.509
 7746SOL    HW224138   0.742   0.451   0.391
 7747SOL     OW24139   6.796   6.275   1.093
 7747SOL    HW124140   6.828   6.190   1.050
 7747SOL    HW224141   6.812   6.271   1.191
 7748SOL     OW24142   3.409   4.136   4.452
 7748SOL    HW124143   3.323   4.116   4.498
 7748SOL    HW224144   3.396   4.128   4.353
 7749SOL     OW24145   3.114   3.492   4.767
 7749SOL    HW124146   3.155   3.458   4.682
 7749SOL    HW224147   3.019   3.460   4.773
 7750SOL     OW24148   6.525   5.725   6.998
 7750SOL    HW124149   6.582   5.736   6.917
 7750SOL    HW224150   6.492   5.815   7.027
 7751SOL     OW24151   0.947   3.064   2.608
 7751SOL    HW124152   0.922   3.062   2.511
 7751SOL    HW224153   0.891   3.131   2.655
 7752SOL     OW24154   5.554   6.138   5.288
 7752SOL    HW124155   5.463   6.180   5.282
 7752SOL    HW224156   5.590   6.151   5.380
 7753SOL     OW24157   2.223   0.606   3.968
 7753SOL    HW124158   2.299   0.580   3.908
 7753SOL    HW224159   2.140   0.618   3.912
 7754SOL     OW24160   5.315   6.440   2.027
 7754SOL    HW124161   5.403   6.484   2.014
 7754SOL    HW224162   5.245   6.509   2.048
 7755SOL     OW24163   1.285   1.954   5.808
 7755SOL    HW124164   1.280   1.933   5.710
 7755SOL    HW224165   1.370   2.002   5.827
 7756SOL     OW24166   3.874   5.179   2.898
 7756SOL    HW124167   3.801   5.178   2.966
 7756SOL    HW224168   3.843   5.228   2.816
 7757SOL     OW24169   5.307   5.662   4.723
 7757SOL    HW124170   5.305   5.632   4.628
 7757SOL    HW224171   5.371   5.605   4.775
 7758SOL     OW24172   1.380   1.907   0.506
 7758SOL    HW124173   1.434   1.970   0.451
 7758SOL    HW224174   1.289   1.896   0.465
 7759SOL     OW24175   0.852   2.023   5.032
 7759SOL    HW124176   0.932   1.970   5.060
 7759SOL    HW224177   0.880   2.115   5.005
 7760SOL     OW24178   5.612   3.361   2.876
 7760SOL    HW124179   5.688   3.371   2.810
 7760SOL    HW224180   5.565   3.448   2.886
 7761SOL     OW24181   1.219   0.086   6.232
 7761SOL    HW124182   1.308   0.082   6.185
 7761SOL    HW224183   1.229   0.046   6.323
 7762SOL     OW24184   4.512   0.716   4.065
 7762SOL    HW124185   4.587   0.672   4.115
 7762SOL    HW224186   4.431   0.720   4.124
 7763SOL     OW24187   1.179   1.334   0.478
 7763SOL    HW124188   1.251   1.266   0.465
 7763SOL    HW224189   1.204   1.394   0.554
 7764SOL     OW24190   3.706   2.949   3.106
 7764SOL    HW124191   3.610   2.937   3.133
 7764SOL    HW224192   3.763   2.959   3.187
 7765SOL     OW24193   6.167   2.162   3.940
 7765SOL    HW124194   6.189   2.083   3.998
 7765SOL    HW224195   6.069   2.161   3.919
 7766SOL     OW24196   5.626   2.140   6.928
 7766SOL    HW124197   5.559   2.115   6.857
 7766SOL    HW224198   5.701   2.074   6.926
 7767SOL     OW24199   4.584   6.565   3.958
 7767SOL    HW124200   4.649   6.631   3.996
 7767SOL    HW224201   4.558   6.592   3.866
 7768SOL     OW24202   4.224   4.785   2.611
 7768SOL    HW124203   4.208   4.813   2.705
 7768SOL    HW224204   4.178   4.698   2.593
 7769SOL     OW24205   5.012   2.733   2.608
 7769SOL    HW124206   4.918   2.716   2.637
 7769SOL    HW224207   5.042   2.661   2.546
 7770SOL     OW24208   1.167   3.915   1.938
 7770SOL    HW124209   1.130   3.960   2.020
 7770SOL    HW224210   1.162   3.816   1.950
 7771SOL     OW24211   2.939   1.997   4.903
 7771SOL    HW124212   2.981   2.085   4.883
 7771SOL    HW224213   2.903   1.996   4.996
 7772SOL     OW24214   5.653   0.608   2.592
 7772SOL    HW124215   5.624   0.618   2.496
 7772SOL    HW224216   5.578   0.635   2.652
 7773SOL     OW24217   3.082   5.662   4.642
 7773SOL    HW124218   3.074   5.679   4.741
 7773SOL    HW224219   3.154   5.721   4.604
 7774SOL     OW24220   5.781   2.110   6.032
 7774SOL    HW124221   5.820   2.187   6.082
 7774SOL    HW224222   5.697   2.138   5.986
 7775SOL     OW24223   4.058   6.475   2.316
 7775SOL    HW124224   4.120   6.484   2.394
 7775SOL    HW224225   4.078   6.546   2.249
 7776SOL     OW24226   2.445   4.597   6.887
 7776SOL    HW124227   2.384   4.669   6.853
 7776SOL    HW224228   2.535   4.636   6.906
 7777SOL     OW24229   0.568   0.717   5.124
 7777SOL    HW124230   0.473   0.691   5.143
 7777SOL    HW224231   0.584   0.714   5.025
 7778SOL     OW24232   4.909   5.169   0.400
 7778SOL    HW124233   4.837   5.100   0.415
 7778SOL    HW224234   4.960   5.146   0.317
 7779SOL     OW24235   2.740   2.348   1.089
 7779SOL    HW124236   2.789   2.266   1.118
 7779SOL    HW224237   2.645   2.342   1.119
 7780SOL     OW24238   0.912   5.288   5.681
 7780SOL    HW124239   0.815   5.278   5.657
 7780SOL    HW224240   0.944   5.204   5.724
 7781SOL     OW24241   1.115   4.683   0.025
 7781SOL    HW124242   1.197   4.715   7.008
 7781SOL    HW224243   1.141   4.610   0.089
 7782SOL     OW24244   1.021   4.921   4.683
 7782SOL    HW124245   1.031   4.824   4.663
 7782SOL    HW224246   0.966   4.932   4.766
 7783SOL     OW24247   1.049   6.144   4.433
 7783SOL    HW124248   1.113   6.072   4.458
 7783SOL    HW224249   1.090   6.203   4.364
 7784SOL     OW24250   3.060   2.730   0.766
 7784SOL    HW124251   3.063   2.744   0.865
 7784SOL    HW224252   3.148   2.695   0.735
 7785SOL     OW24253   1.561   6.531   4.108
 7785SOL    HW124254   1.613   6.612   4.136
 7785SOL    HW224255   1.544   6.535   4.010
 7786SOL     OW24256   3.271   6.242   7.023
 7786SOL    HW124257   3.359   6.220   0.034
 7786SOL    HW224258   3.209   6.164   0.003
 7787SOL     OW24259   2.717   2.939   6.267
 7787SOL    HW124260   2.623   2.970   6.280
 7787SOL    HW224261   2.777   2.985   6.332
 7788SOL     OW24262   1.420   5.469   1.946
 7788SOL    HW124263   1.429   5.387   2.004
 7788SOL    HW224264   1.474   5.543   1.985
 7789SOL     OW24265   2.791   6.816   6.673
 7789SOL    HW124266   2.712   6.874   6.652
 7789SOL    HW224267   2.775   6.767   6.759
 7790SOL     OW24268   5.196   5.486   2.968
 7790SOL    HW124269   5.112   5.477   2.914
 7790SOL    HW224270   5.195   5.419   3.042
 7791SOL     OW24271   2.334   6.048   3.274
 7791SOL    HW124272   2.391   6.108   3.217
 7791SOL    HW224273   2.250   6.096   3.298
 7792SOL     OW24274   1.899   5.487   5.465
 7792SOL    HW124275   1.851   5.562   5.512
 7792SOL    HW224276   1.833   5.418   5.437
 7793SOL     OW24277   3.086   0.996   6.995
 7793SOL    HW124278   3.139   1.081   6.990
 7793SOL    HW224279   3.011   1.000   6.930
 7794SOL     OW24280   5.745   4.834   3.315
 7794SOL    HW124281   5.733   4.932   3.295
 7794SOL    HW224282   5.795   4.791   3.241
 7795SOL     OW24283   2.244   4.077   5.389
 7795SOL    HW124284   2.293   4.065   5.303
 7795SOL    HW224285   2.185   4.158   5.382
 7796SOL     OW24286   3.370   3.940   3.481
 7796SOL    HW124287   3.368   3.840   3.477
 7796SOL    HW224288   3.438   3.975   3.417
 7797SOL     OW24289   1.531   0.117   2.601
 7797SOL    HW124290   1.539   0.172   2.518
 7797SOL    HW224291   1.575   0.165   2.677
 7798SOL     OW24292   1.863   4.346   5.890
 7798SOL    HW124293   1.909   4.422   5.936
 7798SOL    HW224294   1.791   4.382   5.830
 7799SOL     OW24295   1.163   5.921   2.361
 7799SOL    HW124296   1.259   5.892   2.371
 7799SOL    HW224297   1.160   6.021   2.351
 7800SOL     OW24298   1.307   5.433   0.965
 7800SOL    HW124299   1.303   5.425   0.866
 7800SOL    HW224300   1.253   5.512   0.995
 7801SOL     OW24301   2.415   1.693   1.695
 7801SOL    HW124302   2.379   1.766   1.753
 7801SOL    HW224303   2.385   1.707   1.601
 7802SOL     OW24304   5.783   2.420   1.119
 7802SOL    HW124305   5.839   2.481   1.064
 7802SOL    HW224306   5.842   2.351   1.162
 7803SOL     OW24307   4.382   1.982   6.168
 7803SOL    HW124308   4.333   2.069   6.158
 7803SOL    HW224309   4.467   1.997   6.218
 7804SOL     OW24310   4.839   2.168   4.333
 7804SOL    HW124311   4.895   2.085   4.336
 7804SOL    HW224312   4.880   2.233   4.270
 7805SOL     OW24313   5.330   2.133   0.657
 7805SOL    HW124314   5.397   2.190   0.705
 7805SOL    HW224315   5.368   2.042   0.641
 7806SOL     OW24316   5.787   1.765   6.555
 7806SOL    HW124317   5.742   1.699   6.616
 7806SOL    HW224318   5.874   1.727   6.524
 7807SOL     OW24319   0.653   4.498   5.585
 7807SOL    HW124320   0.699   4.433   5.524
 7807SOL    HW224321   0.711   4.579   5.596
 7808SOL     OW24322   6.600   3.029   4.133
 7808SOL    HW124323   6.626   3.125   4.129
 7808SOL    HW224324   6.506   3.019   4.103
 7809SOL     OW24325   1.964   5.875   3.987
 7809SOL    HW124326   1.879   5.881   3.935
 7809SOL    HW224327   2.037   5.920   3.936
 7810SOL     OW24328   3.575   0.757   4.803
 7810SOL    HW124329   3.550   0.667   4.768
 7810SOL    HW224330   3.572   0.824   4.728
 7811SOL     OW24331   1.159   5.471   2.728
 7811SOL    HW124332   1.167   5.565   2.695
 7811SOL    HW224333   1.216   5.459   2.809
 7812SOL     OW24334   1.040   2.113   3.672
 7812SOL    HW124335   0.987   2.182   3.623
 7812SOL    HW224336   1.078   2.047   3.607
 7813SOL     OW24337   4.521   2.287   6.511
 7813SOL    HW124338   4.503   2.379   6.545
 7813SOL    HW224339   4.497   2.282   6.414
 7814SOL     OW24340   0.179   2.830   3.309
 7814SOL    HW124341   0.149   2.741   3.341
 7814SOL    HW224342   0.231   2.876   3.381
 7815SOL     OW24343   5.220   0.418   5.813
 7815SOL    HW124344   5.215   0.504   5.863
 7815SOL    HW224345   5.299   0.366   5.844
 7816SOL     OW24346   1.677   2.274   6.636
 7816SOL    HW124347   1.683   2.349   6.703
 7816SOL    HW224348   1.762   2.221   6.638
 7817SOL     OW24349   5.499   4.782   3.146
 7817SOL    HW124350   5.428   4.753   3.210
 7817SOL    HW224351   5.560   4.847   3.191
 7818SOL     OW24352   4.538   0.778   3.069
 7818SOL    HW124353   4.587   0.695   3.095
 7818SOL    HW224354   4.599   0.857   3.075
 7819SOL     OW24355   6.996   3.245   1.794
 7819SOL    HW124356   6.996   3.290   1.883
 7819SOL    HW224357   6.965   3.310   1.724
 7820SOL     OW24358   1.417   2.459   4.697
 7820SOL    HW124359   1.490   2.458   4.765
 7820SOL    HW224360   1.330   2.480   4.741
 7821SOL     OW24361   5.342   6.377   0.884
 7821SOL    HW124362   5.308   6.446   0.820
 7821SOL    HW224363   5.286   6.379   0.967
 7822SOL     OW24364   0.906   1.864   5.709
 7822SOL    HW124365   0.988   1.818   5.674
 7822SOL    HW224366   0.833   1.797   5.721
 7823SOL     OW24367   2.655   3.989   5.324
 7823SOL    HW124368   2.629   3.911   5.380
 7823SOL    HW224369   2.576   4.022   5.273
 7824SOL     OW24370   5.478   0.890   3.924
 7824SOL    HW124371   5.452   0.809   3.977
 7824SOL    HW224372   5.506   0.963   3.986
 7825SOL     OW24373   1.656   2.732   1.345
 7825SOL    HW124374   1.635   2.673   1.267
 7825SOL    HW224375   1.594   2.810   1.346
 7826SOL     OW24376   6.221   1.661   1.300
 7826SOL    HW124377   6.294   1.693   1.360
 7826SOL    HW224378   6.260   1.601   1.230
 7827SOL     OW24379   1.945   5.303   0.963
 7827SOL    HW124380   2.035   5.346   0.962
 7827SOL    HW224381   1.935   5.249   1.047
 7828SOL     OW24382   0.672   4.237   6.598
 7828SOL    HW124383   0.596   4.203   6.652
 7828SOL    HW224384   0.756   4.188   6.623
 7829SOL     OW24385   2.226   3.902   1.496
 7829SOL    HW124386   2.220   3.887   1.398
 7829SOL    HW224387   2.322   3.907   1.524
 7830SOL     OW24388   2.614   4.741   5.098
 7830SOL    HW124389   2.684   4.760   5.030
 7830SOL    HW224390   2.647   4.671   5.162
 7831SOL     OW24391   2.198   6.674   2.102
 7831SOL    HW124392   2.207   6.708   2.196
 7831SOL    HW224393   2.287   6.680   2.056
 7832SOL     OW24394   5.898   0.998   3.479
 7832SOL    HW124395   5.870   0.906   3.505
 7832SOL    HW224396   5.984   1.021   3.525
 7833SOL     OW24397   0.549   1.213   6.087
 7833SOL    HW124398   0.648   1.209   6.101
 7833SOL    HW224399   0.523   1.147   6.017
 7834SOL     OW24400   6.764   1.943   3.588
 7834SOL    HW124401   6.714   2.002   3.652
 7834SOL    HW224402   6.799   1.998   3.513
 7835SOL     OW24403   3.495   2.176   5.201
 7835SOL    HW124404   3.400   2.156   5.224
 7835SOL    HW224405   3.524   2.258   5.249
 7836SOL     OW24406   3.189   2.876   5.147
 7836SOL    HW124407   3.264   2.864   5.082
 7836SOL    HW224408   3.139   2.960   5.125
 7837SOL     OW24409   5.201   5.374   6.858
 7837SOL    HW124410   5.161   5.433   6.928
 7837SOL    HW224411   5.180   5.410   6.767
 7838SOL     OW24412   4.121   6.903   0.861
 7838SOL    HW124413   4.118   6.905   0.961
 7838SOL    HW224414   4.038   6.859   0.826
 7839SOL     OW24415   5.756   4.172   5.147
 7839SOL    HW124416   5.787   4.190   5.240
 7839SOL    HW224417   5.834   4.166   5.085
 7840SOL     OW24418   5.997   2.916   3.842
 7840SOL    HW124419   5.972   2.917   3.745
 7840SOL    HW224420   5.935   2.977   3.893
 7841SOL     OW24421   3.387   1.855   6.223
 7841SOL    HW124422   3.363   1.886   6.315
 7841SOL    HW224423   3.486   1.847   6.215
 7842SOL     OW24424   2.921   2.129   2.803
 7842SOL    HW124425   2.955   2.166   2.717
 7842SOL    HW224426   2.871   2.045   2.786
 7843SOL     OW24427   0.396   5.999   3.470
 7843SOL    HW124428   0.351   5.913   3.496
 7843SOL    HW224429   0.448   6.034   3.548
 7844SOL     OW24430   3.753   0.360   2.886
 7844SOL    HW124431   3.832   0.369   2.946
 7844SOL    HW224432   3.669   0.364   2.940
 7845SOL     OW24433   5.819   2.040   2.964
 7845SOL    HW124434   5.804   2.135   2.939
 7845SOL    HW224435   5.917   2.023   2.974
 7846SOL     OW24436   0.594   1.598   1.943
 7846SOL    HW124437   0.607   1.541   1.862
 7846SOL    HW224438   0.503   1.640   1.939
 7847SOL     OW24439   0.035   1.514   3.363
 7847SOL    HW124440   6.981   1.512   3.416
 7847SOL    HW224441   0.025   1.459   3.281
 7848SOL     OW24442   2.864   4.311   0.712
 7848SOL    HW124443   2.833   4.303   0.617
 7848SOL    HW224444   2.790   4.283   0.773
 7849SOL     OW24445   6.649   4.381   4.454
 7849SOL    HW124446   6.671   4.441   4.530
 7849SOL    HW224447   6.579   4.424   4.397
 7850SOL     OW24448   0.173   1.699   4.369
 7850SOL    HW124449   0.242   1.653   4.425
 7850SOL    HW224450   0.191   1.680   4.272
 7851SOL     OW24451   6.382   1.263   1.688
 7851SOL    HW124452   6.430   1.176   1.693
 7851SOL    HW224453   6.448   1.337   1.680
 7852SOL     OW24454   3.227   1.597   6.295
 7852SOL    HW124455   3.288   1.658   6.243
 7852SOL    HW224456   3.281   1.543   6.359
 7853SOL     OW24457   5.151   2.652   1.915
 7853SOL    HW124458   5.066   2.694   1.884
 7853SOL    HW224459   5.218   2.653   1.840
 7854SOL     OW24460   3.558   3.207   6.718
 7854SOL    HW124461   3.521   3.271   6.651
 7854SOL    HW224462   3.554   3.114   6.681
 7855SOL     OW24463   4.685   6.805   4.494
 7855SOL    HW124464   4.762   6.780   4.554
 7855SOL    HW224465   4.689   6.903   4.474
 7856SOL     OW24466   6.743   5.386   5.209
 7856SOL    HW124467   6.720   5.403   5.113
 7856SOL    HW224468   6.776   5.471   5.251
 7857SOL     OW24469   5.023   2.280   6.917
 7857SOL    HW124470   4.939   2.319   6.879
 7857SOL    HW224471   5.033   2.186   6.884
 7858SOL     OW24472   6.137   6.544   3.988
 7858SOL    HW124473   6.159   6.537   3.891
 7858SOL    HW224474   6.046   6.584   3.998
 7859SOL     OW24475   4.233   3.090   6.168
 7859SOL    HW124476   4.307   3.132   6.222
 7859SOL    HW224477   4.158   3.066   6.229
 7860SOL     OW24478   3.579   0.799   3.567
 7860SOL    HW124479   3.544   0.811   3.474
 7860SOL    HW224480   3.600   0.888   3.607
 7861SOL     OW24481   3.706   4.679   1.637
 7861SOL    HW124482   3.635   4.669   1.707
 7861SOL    HW224483   3.669   4.731   1.560
 7862SOL     OW24484   2.107   4.901   1.950
 7862SOL    HW124485   2.122   4.851   1.865
 7862SOL    HW224486   2.054   4.844   2.013
 7863SOL     OW24487   0.318   4.312   4.723
 7863SOL    HW124488   0.383   4.387   4.737
 7863SOL    HW224489   0.333   4.271   4.633
 7864SOL     OW24490   0.515   5.734   5.443
 7864SOL    HW124491   0.610   5.752   5.468
 7864SOL    HW224492   0.464   5.820   5.442
 7865SOL     OW24493   6.631   6.285   3.880
 7865SOL    HW124494   6.670   6.219   3.943
 7865SOL    HW224495   6.608   6.369   3.929
 7866SOL     OW24496   0.953   2.014   5.960
 7866SOL    HW124497   0.964   1.969   5.872
 7866SOL    HW224498   1.024   2.084   5.970
 7867SOL     OW24499   6.054   6.247   3.383
 7867SOL    HW124500   6.154   6.242   3.383
 7867SOL    HW224501   6.024   6.316   3.317
 7868SOL     OW24502   4.957   6.412   1.788
 7868SOL    HW124503   5.050   6.375   1.785
 7868SOL    HW224504   4.952   6.487   1.853
 7869SOL     OW24505   5.196   3.797   6.988
 7869SOL    HW124506   5.201   3.888   0.001
 7869SOL    HW224507   5.270   3.740   7.024
 7870SOL     OW24508   4.361   5.250   3.917
 7870SOL    HW124509   4.313   5.168   3.949
 7870SOL    HW224510   4.303   5.300   3.854
 7871SOL     OW24511   4.739   1.834   1.966
 7871SOL    HW124512   4.711   1.752   1.917
 7871SOL    HW224513   4.691   1.838   2.054
 7872SOL     OW24514   1.863   3.842   3.054
 7872SOL    HW124515   1.767   3.864   3.069
 7872SOL    HW224516   1.872   3.743   3.037
 7873SOL     OW24517   5.696   6.750   6.199
 7873SOL    HW124518   5.707   6.773   6.296
 7873SOL    HW224519   5.717   6.830   6.143
 7874SOL     OW24520   4.853   2.456   0.263
 7874SOL    HW124521   4.754   2.458   0.254
 7874SOL    HW224522   4.881   2.517   0.337
 7875SOL     OW24523   4.368   3.009   6.859
 7875SOL    HW124524   4.296   2.992   6.792
 7875SOL    HW224525   4.401   3.103   6.849
 7876SOL     OW24526   1.716   6.681   3.387
 7876SOL    HW124527   1.622   6.706   3.410
 7876SOL    HW224528   1.725   6.673   3.288
 7877SOL     OW24529   1.270   1.892   2.810
 7877SOL    HW124530   1.251   1.858   2.902
 7877SOL    HW224531   1.236   1.826   2.743
 7878SOL     OW24532   4.681   4.404   4.670
 7878SOL    HW124533   4.658   4.362   4.758
 7878SOL    HW224534   4.683   4.334   4.599
 7879SOL     OW24535   4.027   5.450   3.433
 7879SOL    HW124536   4.015   5.549   3.442
 7879SOL    HW224537   3.977   5.417   3.353
 7880SOL     OW24538   1.949   4.456   1.163
 7880SOL    HW124539   1.971   4.399   1.084
 7880SOL    HW224540   1.870   4.417   1.211
 7881SOL     OW24541   6.057   5.055   4.773
 7881SOL    HW124542   6.047   5.092   4.681
 7881SOL    HW224543   6.126   5.108   4.823
 7882SOL     OW24544   1.461   3.353   2.164
 7882SOL    HW124545   1.488   3.359   2.261
 7882SOL    HW224546   1.429   3.442   2.133
 7883SOL     OW24547   1.202   0.591   0.429
 7883SOL    HW124548   1.224   0.528   0.355
 7883SOL    HW224549   1.286   0.628   0.468
 7884SOL     OW24550   2.166   3.653   4.635
 7884SOL    HW124551   2.223   3.573   4.619
 7884SOL    HW224552   2.191   3.695   4.722
 7885SOL     OW24553   5.919   5.665   1.124
 7885SOL    HW124554   5.946   5.686   1.030
 7885SOL    HW224555   6.001   5.660   1.182
 7886SOL     OW24556   3.849   4.847   0.085
 7886SOL    HW124557   3.860   4.754   0.120
 7886SOL    HW224558   3.752   4.864   0.068
 7887SOL     OW24559   3.243   2.384   5.479
 7887SOL    HW124560   3.173   2.444   5.518
 7887SOL    HW224561   3.237   2.388   5.379
 7888SOL     OW24562   6.560   0.306   5.298
 7888SOL    HW124563   6.604   0.231   5.348
 7888SOL    HW224564   6.464   0.285   5.283
 7889SOL     OW24565   1.384   4.439   1.325
 7889SOL    HW124566   1.472   4.471   1.288
 7889SOL    HW224567   1.311   4.459   1.260
 7890SOL     OW24568   1.952   2.956   2.712
 7890SOL    HW124569   1.912   2.917   2.795
 7890SOL    HW224570   1.940   2.891   2.637
 7891SOL     OW24571   1.749   3.453   3.761
 7891SOL    HW124572   1.823   3.516   3.737
 7891SOL    HW224573   1.684   3.448   3.685
 7892SOL     OW24574   2.090   1.012   4.312
 7892SOL    HW124575   2.036   0.927   4.315
 7892SOL    HW224576   2.084   1.052   4.220
 7893SOL     OW24577   6.984   6.295   2.584
 7893SOL    HW124578   7.026   6.211   2.548
 7893SOL    HW224579   0.013   6.372   2.564
 7894SOL     OW24580   3.415   6.956   1.145
 7894SOL    HW124581   3.369   6.905   1.073
 7894SOL    HW224582   3.351   7.022   1.185
 7895SOL     OW24583   6.330   0.698   5.651
 7895SOL    HW124584   6.379   0.778   5.617
 7895SOL    HW224585   6.288   0.720   5.739
 7896SOL     OW24586   4.766   3.940   0.204
 7896SOL    HW124587   4.823   4.022   0.195
 7896SOL    HW224588   4.821   3.866   0.244
 7897SOL     OW24589   2.400   4.066   0.409
 7897SOL    HW124590   2.440   4.062   0.501
 7897SOL    HW224591   2.386   3.974   0.375
 7898SOL     OW24592   4.738   2.111   4.034
 7898SOL    HW124593   4.740   2.060   3.948
 7898SOL    HW224594   4.789   2.061   4.104
 7899SOL     OW24595   5.727   0.865   1.112
 7899SOL    HW124596   5.667   0.795   1.150
 7899SOL    HW224597   5.814   0.824   1.085
 7900SOL     OW24598   1.507   5.313   1.368
 7900SOL    HW124599   1.449   5.233   1.354
 7900SOL    HW224600   1.450   5.393   1.384
 7901SOL     OW24601   5.077   1.464   6.815
 7901SOL    HW124602   4.981   1.445   6.794
 7901SOL    HW224603   5.129   1.467   6.730
 7902SOL     OW24604   5.224   6.066   1.336
 7902SOL    HW124605   5.221   6.101   1.243
 7902SOL    HW224606   5.241   5.968   1.334
 7903SOL     OW24607   5.782   1.138   1.083
 7903SOL    HW124608   5.756   1.047   1.049
 7903SOL    HW224609   5.844   1.128   1.161
 7904SOL     OW24610   5.921   6.407   3.599
 7904SOL    HW124611   5.920   6.376   3.694
 7904SOL    HW224612   5.912   6.328   3.538
 7905SOL     OW24613   4.558   2.526   0.234
 7905SOL    HW124614   4.585   2.560   0.325
 7905SOL    HW224615   4.511   2.439   0.244
 7906SOL     OW24616   0.217   5.732   0.622
 7906SOL    HW124617   0.138   5.716   0.681
 7906SOL    HW224618   0.269   5.810   0.655
 7907SOL     OW24619   5.459   2.395   3.439
 7907SOL    HW124620   5.530   2.464   3.432
 7907SOL    HW224621   5.425   2.390   3.533
 7908SOL     OW24622   0.590   1.921   5.691
 7908SOL    HW124623   0.618   1.882   5.778
 7908SOL    HW224624   0.539   1.853   5.638
 7909SOL     OW24625   5.529   3.729   4.955
 7909SOL    HW124626   5.532   3.810   5.015
 7909SOL    HW224627   5.585   3.657   4.994
 7910SOL     OW24628   2.992   3.555   6.051
 7910SOL    HW124629   3.030   3.635   6.098
 7910SOL    HW224630   3.055   3.525   5.980
 7911SOL     OW24631   1.449   3.071   6.978
 7911SOL    HW124632   1.448   3.082   0.047
 7911SOL    HW224633   1.535   3.105   6.941
 7912SOL     OW24634   6.684   5.099   0.359
 7912SOL    HW124635   6.697   5.118   0.456
 7912SOL    HW224636   6.754   5.147   0.306
 7913SOL     OW24637   1.294   5.090   1.268
 7913SOL    HW124638   1.213   5.144   1.244
 7913SOL    HW224639   1.319   5.032   1.192
 7914SOL     OW24640   6.774   4.345   6.834
 7914SOL    HW124641   6.854   4.400   6.860
 7914SOL    HW224642   6.790   4.305   6.744
 7915SOL     OW24643   4.892   3.281   2.236
 7915SOL    HW124644   4.973   3.326   2.200
 7915SOL    HW224645   4.838   3.245   2.160
 7916SOL     OW24646   0.310   3.834   5.396
 7916SOL    HW124647   0.242   3.854   5.467
 7916SOL    HW224648   0.334   3.919   5.348
 7917SOL     OW24649   3.741   3.924   3.789
 7917SOL    HW124650   3.687   3.977   3.725
 7917SOL    HW224651   3.681   3.858   3.836
 7918SOL     OW24652   0.519   1.404   6.966
 7918SOL    HW124653   0.605   1.441   6.929
 7918SOL    HW224654   0.449   1.475   6.963
 7919SOL     OW24655   1.587   4.348   2.839
 7919SOL    HW124656   1.499   4.300   2.832
 7919SOL    HW224657   1.661   4.281   2.840
 7920SOL     OW24658   0.253   5.504   0.844
 7920SOL    HW124659   0.342   5.546   0.827
 7920SOL    HW224660   0.181   5.565   0.810
 7921SOL     OW24661   4.475   6.232   0.595
 7921SOL    HW124662   4.525   6.316   0.615
 7921SOL    HW224663   4.377   6.248   0.601
 7922SOL     OW24664   6.787   6.632   6.715
 7922SOL    HW124665   6.745   6.598   6.799
 7922SOL    HW224666   6.886   6.638   6.728
 7923SOL     OW24667   3.349   0.527   2.193
 7923SOL    HW124668   3.322   0.493   2.283
 7923SOL    HW224669   3.448   0.515   2.182
 7924SOL     OW24670   4.175   6.622   2.071
 7924SOL    HW124671   4.245   6.566   2.115
 7924SOL    HW224672   4.207   6.717   2.066
 7925SOL     OW24673   0.319   1.733   6.268
 7925SOL    HW124674   0.414   1.700   6.265
 7925SOL    HW224675   0.288   1.735   6.363
 7926SOL     OW24676   5.291   1.702   5.518
 7926SOL    HW124677   5.333   1.631   5.575
 7926SOL    HW224678   5.199   1.722   5.553
 7927SOL     OW24679   3.923   5.236   4.234
 7927SOL    HW124680   4.002   5.182   4.204
 7927SOL    HW224681   3.856   5.242   4.160
 7928SOL     OW24682   1.330   2.605   4.379
 7928SOL    HW124683   1.333   2.684   4.440
 7928SOL    HW224684   1.394   2.535   4.412
 7929SOL     OW24685   3.896   3.958   5.964
 7929SOL    HW124686   3.900   3.937   6.062
 7929SOL    HW224687   3.955   4.036   5.944
 7930SOL     OW24688   4.559   5.426   3.971
 7930SOL    HW124689   4.609   5.405   4.055
 7930SOL    HW224690   4.490   5.355   3.955
 7931SOL     OW24691   1.350   1.809   6.025
 7931SOL    HW124692   1.294   1.834   5.946
 7931SOL    HW224693   1.424   1.748   5.996
 7932SOL     OW24694   2.535   6.458   6.722
 7932SOL    HW124695   2.500   6.538   6.671
 7932SOL    HW224696   2.634   6.464   6.728
 7933SOL     OW24697   0.257   6.017   6.909
 7933SOL    HW124698   0.333   5.990   6.850
 7933SOL    HW224699   0.176   6.036   6.853
 7934SOL     OW24700   2.353   4.655   0.274
 7934SOL    HW124701   2.369   4.728   0.208
 7934SOL    HW224702   2.407   4.671   0.356
 7935SOL     OW24703   5.292   6.479   0.394
 7935SOL    HW124704   5.256   6.405   0.450
 7935SOL    HW224705   5.392   6.483   0.403
 7936SOL     OW24706   3.719   5.318   2.419
 7936SOL    HW124707   3.743   5.259   2.341
 7936SOL    HW224708   3.622   5.339   2.416
 7937SOL     OW24709   6.453   0.377   3.686
 7937SOL    HW124710   6.527   0.309   3.682
 7937SOL    HW224711   6.366   0.330   3.700
 7938SOL     OW24712   6.266   5.274   5.131
 7938SOL    HW124713   6.357   5.306   5.153
 7938SOL    HW224714   6.228   5.223   5.209
 7939SOL     OW24715   1.236   2.809   5.605
 7939SOL    HW124716   1.243   2.714   5.637
 7939SOL    HW224717   1.269   2.816   5.512
 7940SOL     OW24718   1.938   4.151   2.536
 7940SOL    HW124719   1.867   4.100   2.584
 7940SOL    HW224720   2.025   4.101   2.540
 7941SOL     OW24721   6.490   6.485   0.767
 7941SOL    HW124722   6.555   6.462   0.695
 7941SOL    HW224723   6.538   6.495   0.854
 7942SOL     OW24724   6.476   5.530   2.739
 7942SOL    HW124725   6.427   5.533   2.826
 7942SOL    HW224726   6.525   5.616   2.726
 7943SOL     OW24727   5.733   3.498   0.250
 7943SOL    HW124728   5.805   3.515   0.317
 7943SOL    HW224729   5.676   3.579   0.241
 7944SOL     OW24730   0.470   2.928   1.519
 7944SOL    HW124731   0.482   3.020   1.482
 7944SOL    HW224732   0.557   2.893   1.552
 7945SOL     OW24733   5.199   6.305   1.767
 7945SOL    HW124734   5.256   6.375   1.809
 7945SOL    HW224735   5.229   6.289   1.673
 7946SOL     OW24736   2.260   1.470   5.450
 7946SOL    HW124737   2.242   1.448   5.355
 7946SOL    HW224738   2.267   1.569   5.461
 7947SOL     OW24739   3.650   2.138   6.146
 7947SOL    HW124740   3.730   2.179   6.189
 7947SOL    HW224741   3.645   2.167   6.050
 7948SOL     OW24742   0.498   6.255   0.998
 7948SOL    HW124743   0.598   6.266   0.996
 7948SOL    HW224744   0.458   6.324   1.058
 7949SOL     OW24745   4.878   4.423   4.403
 7949SOL    HW124746   4.941   4.494   4.370
 7949SOL    HW224747   4.823   4.460   4.478
 7950SOL     OW24748   5.685   4.919   4.493
 7950SOL    HW124749   5.592   4.914   4.456
 7950SOL    HW224750   5.687   4.987   4.566
 7951SOL     OW24751   1.738   3.894   1.010
 7951SOL    HW124752   1.677   3.894   1.089
 7951SOL    HW224753   1.769   3.801   0.992
 7952SOL     OW24754   0.804   3.339   6.524
 7952SOL    HW124755   0.708   3.313   6.536
 7952SOL    HW224756   0.814   3.393   6.440
 7953SOL     OW24757   1.864   3.157   3.077
 7953SOL    HW124758   1.951   3.196   3.045
 7953SOL    HW224759   1.790   3.188   3.019
 7954SOL     OW24760   4.545   4.215   5.335
 7954SOL    HW124761   4.577   4.218   5.430
 7954SOL    HW224762   4.618   4.182   5.276
 7955SOL     OW24763   1.321   6.640   6.617
 7955SOL    HW124764   1.346   6.710   6.684
 7955SOL    HW224765   1.247   6.675   6.559
 7956SOL     OW24766   3.095   5.904   2.828
 7956SOL    HW124767   3.097   6.000   2.800
 7956SOL    HW224768   3.086   5.899   2.928
 7957SOL     OW24769   1.570   1.277   0.822
 7957SOL    HW124770   1.547   1.371   0.846
 7957SOL    HW224771   1.611   1.232   0.901
 7958SOL     OW24772   3.770   5.154   4.469
 7958SOL    HW124773   3.732   5.243   4.495
 7958SOL    HW224774   3.809   5.160   4.377
 7959SOL     OW24775   4.095   5.667   1.044
 7959SOL    HW124776   4.167   5.599   1.056
 7959SOL    HW224777   4.125   5.755   1.079
 7960SOL     OW24778   3.936   1.994   0.531
 7960SOL    HW124779   3.953   1.965   0.625
 7960SOL    HW224780   3.954   1.918   0.468
 7961SOL     OW24781   0.906   6.497   0.891
 7961SOL    HW124782   0.843   6.574   0.907
 7961SOL    HW224783   0.988   6.531   0.846
 7962SOL     OW24784   2.089   0.293   0.237
 7962SOL    HW124785   2.180   0.322   0.210
 7962SOL    HW224786   2.065   0.209   0.189
 7963SOL     OW24787   0.052   0.998   3.842
 7963SOL    HW124788   0.101   1.042   3.766
 7963SOL    HW224789   7.023   1.065   3.887
 7964SOL     OW24790   0.233   4.979   3.398
 7964SOL    HW124791   0.200   5.023   3.481
 7964SOL    HW224792   0.170   4.998   3.322
 7965SOL     OW24793   3.762   3.101   0.380
 7965SOL    HW124794   3.861   3.101   0.365
 7965SOL    HW224795   3.717   3.146   0.302
 7966SOL     OW24796   0.788   3.365   5.517
 7966SOL    HW124797   0.692   3.378   5.491
 7966SOL    HW224798   0.847   3.399   5.444
 7967SOL     OW24799   2.734   5.947   4.054
 7967SOL    HW124800   2.707   6.016   4.121
 7967SOL    HW224801   2.829   5.964   4.027
 7968SOL     OW24802   2.642   2.417   3.227
 7968SOL    HW124803   2.567   2.351   3.228
 7968SOL    HW224804   2.688   2.414   3.138
 7969SOL     OW24805   4.563   6.999   2.027
 7969SOL    HW124806   4.574   6.904   1.999
 7969SOL    HW224807   4.498   7.004   2.103
 7970SOL     OW24808   0.720   3.289   3.141
 7970SOL    HW124809   0.646   3.237   3.100
 7970SOL    HW224810   0.800   3.289   3.080
 7971SOL     OW24811   4.861   1.260   1.078
 7971SOL    HW124812   4.914   1.336   1.113
 7971SOL    HW224813   4.875   1.180   1.137
 7972SOL     OW24814   1.640   3.489   1.591
 7972SOL    HW124815   1.575   3.478   1.666
 7972SOL    HW224816   1.655   3.401   1.546
 7973SOL     OW24817   4.658   4.242   3.260
 7973SOL    HW124818   4.688   4.196   3.177
 7973SOL    HW224819   4.698   4.197   3.340
 7974SOL     OW24820   5.893   0.957   5.131
 7974SOL    HW124821   5.943   0.905   5.062
 7974SOL    HW224822   5.938   1.045   5.147
 7975SOL     OW24823   5.987   0.191   2.840
 7975SOL    HW124824   5.960   0.136   2.761
 7975SOL    HW224825   5.952   0.284   2.830
 7976SOL     OW24826   0.713   0.666   6.369
 7976SOL    HW124827   0.750   0.575   6.352
 7976SOL    HW224828   0.639   0.685   6.304
 7977SOL     OW24829   5.060   5.377   1.391
 7977SOL    HW124830   5.039   5.339   1.480
 7977SOL    HW224831   4.978   5.377   1.334
 7978SOL     OW24832   5.509   3.690   6.324
 7978SOL    HW124833   5.480   3.778   6.287
 7978SOL    HW224834   5.538   3.630   6.250
 7979SOL     OW24835   3.360   0.081   5.061
 7979SOL    HW124836   3.451   0.121   5.053
 7979SOL    HW224837   3.348   0.042   5.153
 7980SOL     OW24838   2.795   5.426   0.187
 7980SOL    HW124839   2.792   5.508   0.129
 7980SOL    HW224840   2.757   5.349   0.136
 7981SOL     OW24841   0.455   5.614   1.966
 7981SOL    HW124842   0.478   5.690   2.027
 7981SOL    HW224843   0.358   5.621   1.941
 7982SOL     OW24844   0.463   1.458   0.585
 7982SOL    HW124845   0.452   1.387   0.516
 7982SOL    HW224846   0.539   1.519   0.559
 7983SOL     OW24847   5.855   1.686   2.573
 7983SOL    HW124848   5.820   1.719   2.485
 7983SOL    HW224849   5.903   1.760   2.620
 7984SOL     OW24850   1.851   1.775   1.940
 7984SOL    HW124851   1.844   1.823   2.027
 7984SOL    HW224852   1.880   1.680   1.956
 7985SOL     OW24853   2.355   6.132   4.153
 7985SOL    HW124854   2.404   6.062   4.102
 7985SOL    HW224855   2.259   6.104   4.165
 7986SOL     OW24856   2.792   0.644   6.863
 7986SOL    HW124857   2.842   0.590   6.931
 7986SOL    HW224858   2.731   0.708   6.910
 7987SOL     OW24859   1.307   3.068   6.740
 7987SOL    HW124860   1.230   3.126   6.768
 7987SOL    HW224861   1.367   3.053   6.818
 7988SOL     OW24862   1.673   1.811   3.805
 7988SOL    HW124863   1.597   1.836   3.864
 7988SOL    HW224864   1.736   1.887   3.798
 7989SOL     OW24865   3.308   2.652   5.253
 7989SOL    HW124866   3.255   2.720   5.201
 7989SOL    HW224867   3.269   2.561   5.236
 7990SOL     OW24868   6.530   3.945   3.549
 7990SOL    HW124869   6.499   3.901   3.465
 7990SOL    HW224870   6.454   3.952   3.614
 7991SOL     OW24871   6.642   0.697   4.563
 7991SOL    HW124872   6.718   0.661   4.619
 7991SOL    HW224873   6.569   0.728   4.623
 7992SOL     OW24874   1.321   6.450   1.038
 7992SOL    HW124875   1.384   6.372   1.044
 7992SOL    HW224876   1.265   6.441   0.956
 7993SOL     OW24877   1.266   6.105   6.698
 7993SOL    HW124878   1.222   6.194   6.690
 7993SOL    HW224879   1.363   6.114   6.675
 7994SOL     OW24880   5.135   6.914   3.007
 7994SOL    HW124881   5.170   6.825   3.036
 7994SOL    HW224882   5.211   6.978   2.999
 7995SOL     OW24883   4.592   5.131   3.616
 7995SOL    HW124884   4.634   5.099   3.701
 7995SOL    HW224885   4.571   5.229   3.625
 7996SOL     OW24886   2.625   0.044   4.455
 7996SOL    HW124887   2.684   0.067   4.378
 7996SOL    HW224888   2.682   0.017   4.533
 7997SOL     OW24889   6.858   1.125   0.816
 7997SOL    HW124890   6.897   1.071   0.742
 7997SOL    HW224891   6.804   1.066   0.876
 7998SOL     OW24892   3.623   5.464   1.286
 7998SOL    HW124893   3.721   5.459   1.268
 7998SOL    HW224894   3.607   5.520   1.368
 7999SOL     OW24895   1.357   7.021   5.880
 7999SOL    HW124896   1.403   6.938   5.911
 7999SOL    HW224897   1.263   6.999   5.853
 8000SOL     OW24898   5.171   0.335   0.605
 8000SOL    HW124899   5.224   0.289   0.676
 8000SOL    HW224900   5.175   0.283   0.520
 8001SOL     OW24901   3.444   5.603   1.130
 8001SOL    HW124902   3.514   5.561   1.187
 8001SOL    HW224903   3.455   5.573   1.035
 8002SOL     OW24904   0.972   2.352   6.039
 8002SOL    HW124905   0.915   2.382   5.962
 8002SOL    HW224906   1.029   2.275   6.010
 8003SOL     OW24907   2.580   4.648   2.699
 8003SOL    HW124908   2.491   4.608   2.718
 8003SOL    HW224909   2.638   4.640   2.780
 8004SOL     OW24910   1.894   3.867   3.620
 8004SOL    HW124911   1.951   3.906   3.547
 8004SOL    HW224912   1.946   3.798   3.670
 8005SOL     OW24913   3.204   1.372   2.634
 8005SOL    HW124914   3.139   1.309   2.591
 8005SOL    HW224915   3.288   1.374   2.580
 8006SOL     OW24916   2.575   6.819   6.946
 8006SOL    HW124917   2.653   6.758   6.935
 8006SOL    HW224918   2.535   6.837   6.856
 8007SOL     OW24919   0.363   0.430   4.305
 8007SOL    HW124920   0.407   0.384   4.229
 8007SOL    HW224921   0.391   0.526   4.308
 8008SOL     OW24922   4.043   6.634   5.725
 8008SOL    HW124923   4.129   6.670   5.760
 8008SOL    HW224924   4.036   6.650   5.627
 8009SOL     OW24925   5.878   0.459   2.808
 8009SOL    HW124926   5.795   0.410   2.785
 8009SOL    HW224927   5.899   0.526   2.737
 8010SOL     OW24928   1.418   1.054   0.698
 8010SOL    HW124929   1.458   1.141   0.729
 8010SOL    HW224930   1.410   1.055   0.598
 8011SOL     OW24931   3.364   2.496   1.288
 8011SOL    HW124932   3.437   2.460   1.345
 8011SOL    HW224933   3.279   2.502   1.341
 8012SOL     OW24934   2.033   5.732   1.544
 8012SOL    HW124935   1.987   5.687   1.467
 8012SOL    HW224936   2.122   5.766   1.514
 8013SOL     OW24937   1.213   4.643   3.865
 8013SOL    HW124938   1.150   4.606   3.796
 8013SOL    HW224939   1.243   4.569   3.926
 8014SOL     OW24940   0.999   6.081   5.453
 8014SOL    HW124941   1.021   5.987   5.477
 8014SOL    HW224942   0.932   6.118   5.517
 8015SOL     OW24943   3.121   1.385   0.197
 8015SOL    HW124944   3.113   1.349   0.290
 8015SOL    HW224945   3.218   1.396   0.174
 8016SOL     OW24946   4.821   7.014   6.780
 8016SOL    HW124947   4.806   6.918   6.805
 8016SOL    HW224948   4.881   0.026   6.848
 8017SOL     OW24949   6.499   6.403   0.301
 8017SOL    HW124950   6.582   6.458   0.292
 8017SOL    HW224951   6.421   6.452   0.262
 8018SOL     OW24952   3.421   2.570   6.083
 8018SOL    HW124953   3.490   2.639   6.100
 8018SOL    HW224954   3.407   2.558   5.985
 8019SOL     OW24955   2.194   3.785   6.950
 8019SOL    HW124956   2.276   3.827   6.988
 8019SOL    HW224957   2.168   3.833   6.866
 8020SOL     OW24958   6.683   5.818   0.846
 8020SOL    HW124959   6.604   5.876   0.826
 8020SOL    HW224960   6.714   5.774   0.761
 8021SOL     OW24961   1.118   1.872   1.424
 8021SOL    HW124962   1.193   1.860   1.359
 8021SOL    HW224963   1.036   1.827   1.390
 8022SOL     OW24964   4.276   0.153   2.886
 8022SOL    HW124965   4.334   0.072   2.882
 8022SOL    HW224966   4.321   0.230   2.840
 8023SOL     OW24967   5.662   5.058   3.209
 8023SOL    HW124968   5.595   5.075   3.282
 8023SOL    HW224969   5.627   5.094   3.123
 8024SOL     OW24970   3.004   4.879   0.230
 8024SOL    HW124971   2.987   4.806   0.296
 8024SOL    HW224972   3.079   4.853   0.169
 8025SOL     OW24973   2.489   6.192   6.654
 8025SOL    HW124974   2.403   6.167   6.609
 8025SOL    HW224975   2.479   6.281   6.698
 8026SOL     OW24976   0.810   4.612   6.577
 8026SOL    HW124977   0.846   4.520   6.596
 8026SOL    HW224978   0.759   4.611   6.491
 8027SOL     OW24979   4.092   2.109   5.264
 8027SOL    HW124980   4.170   2.078   5.319
 8027SOL    HW224981   4.125   2.148   5.178
 8028SOL     OW24982   2.505   5.096   5.138
 8028SOL    HW124983   2.485   5.119   5.043
 8028SOL    HW224984   2.596   5.130   5.162
 8029SOL     OW24985   4.907   3.259   0.490
 8029SOL    HW124986   4.993   3.219   0.460
 8029SOL    HW224987   4.869   3.317   0.418
 8030SOL     OW24988   4.587   4.364   0.257
 8030SOL    HW124989   4.673   4.325   0.290
 8030SOL    HW224990   4.512   4.302   0.280
 8031SOL     OW24991   4.556   6.020   2.974
 8031SOL    HW124992   4.528   6.109   2.937
 8031SOL    HW224993   4.627   5.981   2.916
 8032SOL     OW24994   5.706   4.315   6.188
 8032SOL    HW124995   5.753   4.260   6.257
 8032SOL    HW224996   5.770   4.341   6.117
 8033SOL     OW24997   5.049   3.623   6.362
 8033SOL    HW124998   4.993   3.682   6.421
 8033SOL    HW224999   5.016   3.529   6.369
 8034SOL     OW25000   6.763   0.818   5.236
 8034SOL    HW125001   6.746   0.905   5.284
 8034SOL    HW225002   6.745   0.742   5.299
 8035SOL     OW25003   5.144   0.940   5.205
 8035SOL    HW125004   5.216   1.003   5.177
 8035SOL    HW225005   5.072   0.990   5.253
 8036SOL     OW25006   0.472   4.459   2.560
 8036SOL    HW125007   0.418   4.467   2.645
 8036SOL    HW225008   0.419   4.410   2.492
 8037SOL     OW25009   2.067   3.055   1.566
 8037SOL    HW125010   2.113   3.142   1.546
 8037SOL    HW225011   2.032   3.057   1.659
 8038SOL     OW25012   4.558   1.089   3.080
 8038SOL    HW125013   4.462   1.061   3.075
 8038SOL    HW225014   4.565   1.179   3.124
 8039SOL     OW25015   1.078   0.790   4.096
 8039SOL    HW125016   1.118   0.699   4.083
 8039SOL    HW225017   1.083   0.841   4.009
 8040SOL     OW25018   1.211   6.066   0.933
 8040SOL    HW125019   1.145   5.991   0.935
 8040SOL    HW225020   1.265   6.062   0.849
 8041SOL     OW25021   3.052   1.525   1.957
 8041SOL    HW125022   3.031   1.552   2.051
 8041SOL    HW225023   3.124   1.584   1.920
 8042SOL     OW25024   3.681   2.971   3.588
 8042SOL    HW125025   3.658   2.927   3.674
 8042SOL    HW225026   3.741   3.049   3.605
 8043SOL     OW25027   3.631   0.197   2.129
 8043SOL    HW125028   3.624   0.274   2.067
 8043SOL    HW225029   3.636   0.112   2.077
 8044SOL     OW25030   3.800   3.385   0.591
 8044SOL    HW125031   3.872   3.328   0.630
 8044SOL    HW225032   3.794   3.367   0.493
 8045SOL     OW25033   5.442   0.333   1.575
 8045SOL    HW125034   5.425   0.395   1.651
 8045SOL    HW225035   5.356   0.315   1.527
 8046SOL     OW25036   6.459   5.282   0.321
 8046SOL    HW125037   6.520   5.207   0.293
 8046SOL    HW225038   6.489   5.367   0.278
 8047SOL     OW25039   4.179   5.147   4.483
 8047SOL    HW125040   4.146   5.225   4.536
 8047SOL    HW225041   4.260   5.173   4.432
 8048SOL     OW25042   5.639   0.989   5.749
 8048SOL    HW125043   5.570   1.061   5.765
 8048SOL    HW225044   5.708   1.023   5.685
 8049SOL     OW25045   1.726   0.292   0.655
 8049SOL    HW125046   1.783   0.305   0.574
 8049SOL    HW225047   1.692   0.198   0.657
 8050SOL     OW25048   1.403   3.753   1.973
 8050SOL    HW125049   1.496   3.778   2.002
 8050SOL    HW225050   1.355   3.835   1.941
 8051SOL     OW25051   4.519   5.701   3.187
 8051SOL    HW125052   4.458   5.760   3.239
 8051SOL    HW225053   4.476   5.612   3.172
 8052SOL     OW25054   4.412   1.748   1.972
 8052SOL    HW125055   4.382   1.745   1.877
 8052SOL    HW225056   4.333   1.751   2.032
 8053SOL     OW25057   3.635   3.690   3.677
 8053SOL    HW125058   3.693   3.634   3.618
 8053SOL    HW225059   3.659   3.673   3.773
 8054SOL     OW25060   5.080   0.057   4.692
 8054SOL    HW125061   5.104   7.008   4.635
 8054SOL    HW225062   4.981   0.066   4.697
 8055SOL     OW25063   6.962   0.144   6.085
 8055SOL    HW125064   7.022   0.070   6.055
 8055SOL    HW225065   6.924   0.191   6.005
 8056SOL     OW25066   4.329   2.079   4.155
 8056SOL    HW125067   4.425   2.057   4.135
 8056SOL    HW225068   4.280   1.996   4.181
 8057SOL     OW25069   3.014   2.096   3.197
 8057SOL    HW125070   2.947   2.151   3.247
 8057SOL    HW225071   2.973   2.009   3.170
 8058SOL     OW25072   4.710   0.537   3.045
 8058SOL    HW125073   4.790   0.533   2.986
 8058SOL    HW225074   4.739   0.542   3.141
 8059SOL     OW25075   4.628   2.372   4.756
 8059SOL    HW125076   4.639   2.342   4.661
 8059SOL    HW225077   4.531   2.380   4.777
 8060SOL     OW25078   0.565   2.352   4.364
 8060SOL    HW125079   0.494   2.283   4.348
 8060SOL    HW225080   0.653   2.317   4.331
 8061SOL     OW25081   6.589   0.052   1.663
 8061SOL    HW125082   6.566   0.093   1.752
 8061SOL    HW225083   6.599   6.983   1.674
 8062SOL     OW25084   2.888   4.891   4.306
 8062SOL    HW125085   2.888   4.861   4.401
 8062SOL    HW225086   2.861   4.816   4.247
 8063SOL     OW25087   0.923   2.635   0.583
 8063SOL    HW125088   0.877   2.561   0.632
 8063SOL    HW225089   0.860   2.712   0.575
 8064SOL     OW25090   0.023   5.336   0.772
 8064SOL    HW125091   0.116   5.370   0.768
 8064SOL    HW225092   7.019   5.345   0.866
 8065SOL     OW25093   4.075   6.351   4.355
 8065SOL    HW125094   4.026   6.339   4.442
 8065SOL    HW225095   4.105   6.446   4.347
 8066SOL     OW25096   0.903   2.107   6.234
 8066SOL    HW125097   0.978   2.169   6.210
 8066SOL    HW225098   0.912   2.023   6.179
 8067SOL     OW25099   4.834   3.218   1.744
 8067SOL    HW125100   4.765   3.157   1.783
 8067SOL    HW225101   4.795   3.310   1.735
 8068SOL     OW25102   5.829   4.629   0.555
 8068SOL    HW125103   5.831   4.717   0.506
 8068SOL    HW225104   5.910   4.576   0.532
 8069SOL     OW25105   1.990   5.845   1.205
 8069SOL    HW125106   2.031   5.757   1.228
 8069SOL    HW225107   1.892   5.833   1.188
 8070SOL     OW25108   2.962   2.826   6.951
 8070SOL    HW125109   2.912   2.739   6.961
 8070SOL    HW225110   2.902   2.902   6.972
 8071SOL     OW25111   2.700   6.314   4.868
 8071SOL    HW125112   2.681   6.412   4.860
 8071SOL    HW225113   2.616   6.262   4.850
 8072SOL     OW25114   3.343   0.739   6.723
 8072SOL    HW125115   3.261   0.705   6.768
 8072SOL    HW225116   3.330   0.739   6.624
 8073SOL     OW25117   4.309   5.753   5.969
 8073SOL    HW125118   4.348   5.705   6.047
 8073SOL    HW225119   4.212   5.771   5.986
 8074SOL     OW25120   3.233   2.563   0.316
 8074SOL    HW125121   3.148   2.605   0.284
 8074SOL    HW225122   3.270   2.616   0.392
 8075SOL     OW25123   6.434   1.097   1.174
 8075SOL    HW125124   6.339   1.109   1.149
 8075SOL    HW225125   6.442   1.091   1.274
 8076SOL     OW25126   5.230   2.642   5.737
 8076SOL    HW125127   5.272   2.672   5.823
 8076SOL    HW225128   5.265   2.698   5.662
 8077SOL     OW25129   1.287   5.499   1.713
 8077SOL    HW125130   1.229   5.421   1.692
 8077SOL    HW225131   1.342   5.478   1.794
 8078SOL     OW25132   5.928   1.088   0.770
 8078SOL    HW125133   5.880   1.175   0.765
 8078SOL    HW225134   5.867   1.014   0.739
 8079SOL     OW25135   5.266   1.753   3.502
 8079SOL    HW125136   5.299   1.707   3.420
 8079SOL    HW225137   5.338   1.752   3.572
 8080SOL     OW25138   0.098   3.669   0.393
 8080SOL    HW125139   0.169   3.606   0.424
 8080SOL    HW225140   0.125   3.709   0.305
 8081SOL     OW25141   4.813   0.029   4.707
 8081SOL    HW125142   4.773   6.979   4.751
 8081SOL    HW225143   4.767   0.044   4.619
 8082SOL     OW25144   6.179   0.614   1.693
 8082SOL    HW125145   6.109   0.588   1.759
 8082SOL    HW225146   6.231   0.534   1.665
 8083SOL     OW25147   5.398   3.800   2.828
 8083SOL    HW125148   5.432   3.813   2.735
 8083SOL    HW225149   5.358   3.709   2.836
 8084SOL     OW25150   5.305   6.921   0.476
 8084SOL    HW125151   5.397   6.948   0.448
 8084SOL    HW225152   5.309   6.881   0.568
 8085SOL     OW25153   6.229   0.222   2.675
 8085SOL    HW125154   6.150   0.194   2.730
 8085SOL    HW225155   6.288   0.282   2.729
 8086SOL     OW25156   4.642   1.245   4.097
 8086SOL    HW125157   4.598   1.288   4.176
 8086SOL    HW225158   4.734   1.215   4.122
 8087SOL     OW25159   2.750   1.982   0.836
 8087SOL    HW125160   2.796   2.071   0.837
 8087SOL    HW225161   2.813   1.912   0.802
 8088SOL     OW25162   5.751   2.147   1.439
 8088SOL    HW125163   5.762   2.162   1.537
 8088SOL    HW225164   5.791   2.224   1.389
 8089SOL     OW25165   4.997   2.889   0.555
 8089SOL    HW125166   5.076   2.860   0.609
 8089SOL    HW225167   4.944   2.956   0.607
 8090SOL     OW25168   4.087   2.397   6.873
 8090SOL    HW125169   4.040   2.390   6.961
 8090SOL    HW225170   4.115   2.492   6.858
 8091SOL     OW25171   2.438   3.926   7.025
 8091SOL    HW125172   2.436   3.999   0.064
 8091SOL    HW225173   2.517   3.939   6.964
 8092SOL     OW25174   1.306   2.403   4.972
 8092SOL    HW125175   1.243   2.456   4.915
 8092SOL    HW225176   1.346   2.461   5.042
 8093SOL     OW25177   4.820   5.616   1.690
 8093SOL    HW125178   4.788   5.532   1.644
 8093SOL    HW225179   4.815   5.603   1.789
 8094SOL     OW25180   1.429   4.014   4.339
 8094SOL    HW125181   1.468   3.966   4.260
 8094SOL    HW225182   1.483   3.992   4.421
 8095SOL     OW25183   6.022   4.247   4.259
 8095SOL    HW125184   6.080   4.303   4.201
 8095SOL    HW225185   6.057   4.153   4.261
 8096SOL     OW25186   3.026   5.647   3.693
 8096SOL    HW125187   3.045   5.601   3.607
 8096SOL    HW225188   2.929   5.641   3.713
 8097SOL     OW25189   4.860   6.545   3.321
 8097SOL    HW125190   4.827   6.567   3.229
 8097SOL    HW225191   4.843   6.448   3.340
 8098SOL     OW25192   2.219   6.824   3.806
 8098SOL    HW125193   2.226   6.924   3.801
 8098SOL    HW225194   2.138   6.800   3.859
 8099SOL     OW25195   5.426   0.089   4.014
 8099SOL    HW125196   5.522   0.106   4.036
 8099SOL    HW225197   5.417   7.029   3.971
 8100SOL     OW25198   6.805   6.900   6.819
 8100SOL    HW125199   6.891   6.862   6.785
 8100SOL    HW225200   6.735   6.828   6.819
 8101SOL     OW25201   1.999   0.207   3.648
 8101SOL    HW125202   1.913   0.221   3.698
 8101SOL    HW225203   2.023   0.110   3.649
 8102SOL     OW25204   1.285   4.967   4.626
 8102SOL    HW125205   1.188   4.953   4.644
 8102SOL    HW225206   1.315   4.908   4.551
 8103SOL     OW25207   4.290   0.699   0.816
 8103SOL    HW125208   4.214   0.717   0.753
 8103SOL    HW225209   4.370   0.752   0.787
 8104SOL     OW25210   2.485   6.637   6.041
 8104SOL    HW125211   2.423   6.615   5.966
 8104SOL    HW225212   2.571   6.672   6.004
 8105SOL     OW25213   1.904   2.203   3.063
 8105SOL    HW125214   1.960   2.121   3.076
 8105SOL    HW225215   1.808   2.177   3.054
 8106SOL     OW25216   2.860   5.728   3.366
 8106SOL    HW125217   2.787   5.689   3.422
 8106SOL    HW225218   2.942   5.673   3.376
 8107SOL     OW25219   1.396   5.863   4.850
 8107SOL    HW125220   1.432   5.869   4.757
 8107SOL    HW225221   1.453   5.919   4.911
 8108SOL     OW25222   5.748   3.166   4.985
 8108SOL    HW125223   5.845   3.162   4.957
 8108SOL    HW225224   5.738   3.127   5.076
 8109SOL     OW25225   0.853   3.795   4.072
 8109SOL    HW125226   0.951   3.817   4.068
 8109SOL    HW225227   0.840   3.699   4.050
 8110SOL     OW25228   3.447   6.265   0.958
 8110SOL    HW125229   3.482   6.220   1.040
 8110SOL    HW225230   3.493   6.353   0.946
 8111SOL     OW25231   4.365   0.994   5.101
 8111SOL    HW125232   4.407   0.941   5.175
 8111SOL    HW225233   4.265   0.980   5.103
 8112SOL     OW25234   1.508   1.639   4.220
 8112SOL    HW125235   1.532   1.710   4.286
 8112SOL    HW225236   1.463   1.563   4.268
 8113SOL     OW25237   2.982   3.318   0.401
 8113SOL    HW125238   2.923   3.393   0.431
 8113SOL    HW225239   2.943   3.231   0.429
 8114SOL     OW25240   2.113   3.558   1.526
 8114SOL    HW125241   2.036   3.593   1.578
 8114SOL    HW225242   2.083   3.480   1.470
 8115SOL     OW25243   4.146   1.253   1.652
 8115SOL    HW125244   4.185   1.208   1.732
 8115SOL    HW225245   4.055   1.289   1.675
 8116SOL     OW25246   4.981   0.381   4.897
 8116SOL    HW125247   4.907   0.330   4.854
 8116SOL    HW225248   4.984   0.360   4.995
 8117SOL     OW25249   2.184   1.152   4.521
 8117SOL    HW125250   2.283   1.160   4.533
 8117SOL    HW225251   2.164   1.096   4.441
 8118SOL     OW25252   6.576   2.999   5.864
 8118SOL    HW125253   6.643   2.933   5.899
 8118SOL    HW225254   6.614   3.048   5.786
 8119SOL     OW25255   6.256   5.797   5.144
 8119SOL    HW125256   6.184   5.853   5.101
 8119SOL    HW225257   6.215   5.737   5.212
 8120SOL     OW25258   3.290   4.460   6.768
 8120SOL    HW125259   3.317   4.371   6.730
 8120SOL    HW225260   3.312   4.532   6.703
 8121SOL     OW25261   7.018   5.509   2.364
 8121SOL    HW125262   7.028   5.500   2.265
 8121SOL    HW225263   6.995   5.420   2.404
 8122SOL     OW25264   1.057   5.669   2.503
 8122SOL    HW125265   1.142   5.715   2.531
 8122SOL    HW225266   0.979   5.723   2.534
 8123SOL     OW25267   0.290   0.054   6.880
 8123SOL    HW125268   0.267   0.147   6.852
 8123SOL    HW225269   0.277   0.045   6.979
 8124SOL     OW25270   0.160   6.566   1.356
 8124SOL    HW125271   0.185   6.549   1.452
 8124SOL    HW225272   0.229   6.626   1.314
 8125SOL     OW25273   0.814   6.848   3.292
 8125SOL    HW125274   0.808   6.800   3.205
 8125SOL    HW225275   0.846   6.942   3.276
 8126SOL     OW25276   6.135   3.833   2.232
 8126SOL    HW125277   6.190   3.750   2.233
 8126SOL    HW225278   6.121   3.863   2.138
 8127SOL     OW25279   2.402   6.077   0.740
 8127SOL    HW125280   2.466   6.126   0.681
 8127SOL    HW225281   2.342   6.019   0.684
 8128SOL     OW25282   2.666   3.317   0.783
 8128SOL    HW125283   2.715   3.239   0.744
 8128SOL    HW225284   2.676   3.315   0.882
 8129SOL     OW25285   4.351   1.262   5.818
 8129SOL    HW125286   4.279   1.313   5.772
 8129SOL    HW225287   4.395   1.321   5.886
 8130SOL     OW25288   0.378   4.808   6.154
 8130SOL    HW125289   0.464   4.769   6.120
 8130SOL    HW225290   0.315   4.735   6.177
 8131SOL     OW25291   2.842   0.807   1.031
 8131SOL    HW125292   2.920   0.818   1.093
 8131SOL    HW225293   2.875   0.812   0.936
 8132SOL     OW25294   5.842   6.479   6.226
 8132SOL    HW125295   5.834   6.578   6.237
 8132SOL    HW225296   5.847   6.456   6.129
 8133SOL     OW25297   3.669   4.950   1.747
 8133SOL    HW125298   3.643   4.873   1.806
 8133SOL    HW225299   3.677   4.919   1.653
 8134SOL     OW25300   0.847   1.565   4.531
 8134SOL    HW125301   0.936   1.520   4.542
 8134SOL    HW225302   0.847   1.618   4.447
 8135SOL     OW25303   2.346   5.430   1.238
 8135SOL    HW125304   2.408   5.354   1.220
 8135SOL    HW225305   2.356   5.458   1.334
 8136SOL     OW25306   4.651   4.346   2.822
 8136SOL    HW125307   4.591   4.365   2.744
 8136SOL    HW225308   4.600   4.354   2.907
 8137SOL     OW25309   2.217   1.497   4.188
 8137SOL    HW125310   2.140   1.434   4.193
 8137SOL    HW225311   2.303   1.446   4.199
 8138SOL     OW25312   5.668   2.075   0.671
 8138SOL    HW125313   5.669   2.079   0.771
 8138SOL    HW225314   5.609   2.001   0.641
 8139SOL     OW25315   1.893   2.651   3.456
 8139SOL    HW125316   1.949   2.600   3.522
 8139SOL    HW225317   1.802   2.610   3.450
 8140SOL     OW25318   3.674   6.891   0.784
 8140SOL    HW125319   3.726   6.897   0.869
 8140SOL    HW225320   3.582   6.857   0.803
 8141SOL     OW25321   4.281   0.087   5.770
 8141SOL    HW125322   4.231   0.068   5.854
 8141SOL    HW225323   4.379   0.072   5.785
 8142SOL     OW25324   1.628   5.056   0.267
 8142SOL    HW125325   1.542   5.024   0.227
 8142SOL    HW225326   1.705   5.026   0.211
 8143SOL     OW25327   5.620   5.048   0.567
 8143SOL    HW125328   5.522   5.065   0.558
 8143SOL    HW225329   5.634   4.958   0.609
 8144SOL     OW25330   0.761   5.539   5.897
 8144SOL    HW125331   0.743   5.442   5.912
 8144SOL    HW225332   0.720   5.593   5.971
 8145SOL     OW25333   5.325   5.580   1.051
 8145SOL    HW125334   5.303   5.502   0.993
 8145SOL    HW225335   5.421   5.607   1.037
 8146SOL     OW25336   5.883   0.596   5.512
 8146SOL    HW125337   5.931   0.618   5.427
 8146SOL    HW225338   5.946   0.549   5.574
 8147SOL     OW25339   6.400   0.696   0.836
 8147SOL    HW125340   6.365   0.662   0.749
 8147SOL    HW225341   6.364   0.639   0.910
 8148SOL     OW25342   4.323   5.141   6.785
 8148SOL    HW125343   4.347   5.054   6.829
 8148SOL    HW225344   4.274   5.199   6.850
 8149SOL     OW25345   1.461   6.806   3.134
 8149SOL    HW125346   1.399   6.753   3.076
 8149SOL    HW225347   1.551   6.764   3.135
 8150SOL     OW25348   0.746   3.998   0.739
 8150SOL    HW125349   0.806   3.941   0.683
 8150SOL    HW225350   0.656   3.956   0.745
 8151SOL     OW25351   5.653   5.206   3.621
 8151SOL    HW125352   5.706   5.182   3.702
 8151SOL    HW225353   5.704   5.272   3.566
 8152SOL     OW25354   6.450   3.473   2.991
 8152SOL    HW125355   6.520   3.416   2.947
 8152SOL    HW225356   6.446   3.562   2.946
 8153SOL     OW25357   0.998   1.383   3.260
 8153SOL    HW125358   1.081   1.328   3.271
 8153SOL    HW225359   0.938   1.368   3.338
 8154SOL     OW25360   3.807   6.585   2.914
 8154SOL    HW125361   3.858   6.663   2.876
 8154SOL    HW225362   3.867   6.531   2.973
 8155SOL     OW25363   1.687   3.851   1.980
 8155SOL    HW125364   1.728   3.771   2.025
 8155SOL    HW225365   1.731   3.866   1.891
 8156SOL     OW25366   4.624   6.074   0.778
 8156SOL    HW125367   4.567   6.125   0.714
 8156SOL    HW225368   4.592   5.979   0.782
 8157SOL     OW25369   6.360   4.849   6.342
 8157SOL    HW125370   6.335   4.933   6.391
 8157SOL    HW225371   6.278   4.811   6.298
 8158SOL     OW25372   4.963   4.210   0.172
 8158SOL    HW125373   4.959   4.241   0.076
 8158SOL    HW225374   4.927   4.281   0.231
 8159SOL     OW25375   3.145   5.550   4.395
 8159SOL    HW125376   3.109   5.589   4.480
 8159SOL    HW225377   3.209   5.614   4.353
 8160SOL     OW25378   4.674   0.286   3.733
 8160SOL    HW125379   4.772   0.308   3.732
 8160SOL    HW225380   4.626   0.350   3.793
 8161SOL     OW25381   5.734   3.731   6.440
 8161SOL    HW125382   5.774   3.651   6.484
 8161SOL    HW225383   5.644   3.708   6.403
 8162SOL     OW25384   6.678   5.731   6.758
 8162SOL    HW125385   6.704   5.804   6.694
 8162SOL    HW225386   6.680   5.643   6.711
 8163SOL     OW25387   2.210   4.416   5.415
 8163SOL    HW125388   2.185   4.377   5.327
 8163SOL    HW225389   2.144   4.486   5.441
 8164SOL     OW25390   4.398   1.491   0.557
 8164SOL    HW125391   4.404   1.392   0.541
 8164SOL    HW225392   4.481   1.535   0.523
 8165SOL     OW25393   6.688   4.095   6.125
 8165SOL    HW125394   6.730   4.058   6.208
 8165SOL    HW225395   6.624   4.028   6.088
 8166SOL     OW25396   1.173   0.799   2.984
 8166SOL    HW125397   1.158   0.704   3.012
 8166SOL    HW225398   1.264   0.808   2.943
 8167SOL     OW25399   0.151   0.738   3.521
 8167SOL    HW125400   0.181   0.694   3.606
 8167SOL    HW225401   0.184   0.832   3.518
 8168SOL     OW25402   2.734   0.548   1.483
 8168SOL    HW125403   2.817   0.604   1.486
 8168SOL    HW225404   2.753   0.457   1.519
 8169SOL     OW25405   4.505   2.270   0.322
 8169SOL    HW125406   4.580   2.214   0.355
 8169SOL    HW225407   4.419   2.221   0.333
 8170SOL     OW25408   6.927   4.680   1.377
 8170SOL    HW125409   6.952   4.630   1.294
 8170SOL    HW225410   6.962   4.773   1.372
 8171SOL     OW25411   2.191   1.357   6.285
 8171SOL    HW125412   2.236   1.430   6.337
 8171SOL    HW225413   2.236   1.348   6.196
 8172SOL     OW25414   6.882   2.147   1.986
 8172SOL    HW125415   6.906   2.243   1.975
 8172SOL    HW225416   6.964   2.091   1.978
 8173SOL     OW25417   5.442   1.953   2.125
 8173SOL    HW125418   5.459   1.867   2.077
 8173SOL    HW225419   5.447   1.939   2.223
 8174SOL     OW25420   0.901   0.005   2.540
 8174SOL    HW125421   0.996   7.026   2.569
 8174SOL    HW225422   0.863   6.944   2.523
 8175SOL     OW25423   0.149   2.909   4.875
 8175SOL    HW125424   0.095   2.976   4.823
 8175SOL    HW225425   0.245   2.938   4.877
 8176SOL     OW25426   2.450   4.807   1.479
 8176SOL    HW125427   2.536   4.769   1.514
 8176SOL    HW225428   2.390   4.829   1.555
 8177SOL     OW25429   4.934   0.973   3.575
 8177SOL    HW125430   4.936   0.905   3.502
 8177SOL    HW225431   5.027   0.997   3.600
 8178SOL     OW25432   2.845   6.732   0.971
 8178SOL    HW125433   2.849   6.678   0.887
 8178SOL    HW225434   2.933   6.728   1.017
 8179SOL     OW25435   5.565   1.359   5.149
 8179SOL    HW125436   5.482   1.344   5.202
 8179SOL    HW225437   5.553   1.439   5.091
 8180SOL     OW25438   6.344   0.771   6.241
 8180SOL    HW125439   6.300   0.721   6.315
 8180SOL    HW225440   6.384   0.707   6.176
 8181SOL     OW25441   1.495   1.483   0.571
 8181SOL    HW125442   1.493   1.570   0.620
 8181SOL    HW225443   1.537   1.413   0.629
 8182SOL     OW25444   3.062   3.375   5.590
 8182SOL    HW125445   3.076   3.278   5.609
 8182SOL    HW225446   3.105   3.398   5.503
 8183SOL     OW25447   6.777   2.299   4.762
 8183SOL    HW125448   6.772   2.387   4.809
 8183SOL    HW225449   6.796   2.315   4.665
 8184SOL     OW25450   0.277   0.095   0.603
 8184SOL    HW125451   0.177   0.095   0.601
 8184SOL    HW225452   0.310   0.009   0.643
 8185SOL     OW25453   1.604   0.535   0.140
 8185SOL    HW125454   1.569   0.540   0.047
 8185SOL    HW225455   1.619   0.439   0.165
 8186SOL     OW25456   2.753   4.592   5.735
 8186SOL    HW125457   2.830   4.629   5.788
 8186SOL    HW225458   2.672   4.586   5.794
 8187SOL     OW25459   2.172   0.859   4.808
 8187SOL    HW125460   2.261   0.831   4.841
 8187SOL    HW225461   2.104   0.849   4.880
 8188SOL     OW25462   4.865   3.527   3.764
 8188SOL    HW125463   4.823   3.596   3.706
 8188SOL    HW225464   4.853   3.436   3.723
 8189SOL     OW25465   5.351   5.014   2.917
 8189SOL    HW125466   5.388   5.043   2.829
 8189SOL    HW225467   5.309   4.924   2.907
 8190SOL     OW25468   5.066   3.898   4.018
 8190SOL    HW125469   5.095   3.806   3.991
 8190SOL    HW225470   5.144   3.960   4.011
 8191SOL     OW25471   3.438   5.351   2.419
 8191SOL    HW125472   3.392   5.396   2.342
 8191SOL    HW225473   3.411   5.397   2.504
 8192SOL     OW25474   1.995   5.427   1.573
 8192SOL    HW125475   2.018   5.513   1.617
 8192SOL    HW225476   1.912   5.439   1.517
 8193SOL     OW25477   6.537   5.416   5.802
 8193SOL    HW125478   6.558   5.503   5.758
 8193SOL    HW225479   6.510   5.349   5.734
 8194SOL     OW25480   4.879   0.631   1.316
 8194SOL    HW125481   4.900   0.583   1.402
 8194SOL    HW225482   4.961   0.632   1.258
 8195SOL     OW25483   0.109   0.022   2.844
 8195SOL    HW125484   0.010   0.021   2.854
 8195SOL    HW225485   0.134   7.001   2.761
 8196SOL     OW25486   3.953   6.242   6.792
 8196SOL    HW125487   3.873   6.283   6.834
 8196SOL    HW225488   3.930   6.150   6.759
 8197SOL     OW25489   3.259   1.009   0.372
 8197SOL    HW125490   3.319   0.985   0.296
 8197SOL    HW225491   3.269   0.942   0.445
 8198SOL     OW25492   3.426   6.350   2.635
 8198SOL    HW125493   3.443   6.262   2.678
 8198SOL    HW225494   3.511   6.403   2.632
 8199SOL     OW25495   5.903   3.092   5.914
 8199SOL    HW125496   5.829   3.091   5.847
 8199SOL    HW225497   5.885   3.023   5.984
 8200SOL     OW25498   5.728   4.636   1.794
 8200SOL    HW125499   5.746   4.719   1.741
 8200SOL    HW225500   5.698   4.661   1.886
 8201SOL     OW25501   6.042   0.748   4.790
 8201SOL    HW125502   6.114   0.770   4.855
 8201SOL    HW225503   5.976   0.824   4.785
 8202SOL     OW25504   0.385   5.660   3.751
 8202SOL    HW125505   0.445   5.642   3.672
 8202SOL    HW225506   0.307   5.716   3.721
 8203SOL     OW25507   3.101   2.457   6.714
 8203SOL    HW125508   3.082   2.369   6.671
 8203SOL    HW225509   3.076   2.531   6.651
 8204SOL     OW25510   3.871   4.601   0.179
 8204SOL    HW125511   3.842   4.560   0.265
 8204SOL    HW225512   3.911   4.531   0.120
 8205SOL     OW25513   0.339   4.573   6.720
 8205SOL    HW125514   0.264   4.582   6.655
 8205SOL    HW225515   0.326   4.491   6.776
 8206SOL     OW25516   5.261   1.825   6.915
 8206SOL    HW125517   5.350   1.860   6.944
 8206SOL    HW225518   5.195   1.900   6.911
 8207SOL     OW25519   2.992   3.212   4.488
 8207SOL    HW125520   2.929   3.143   4.451
 8207SOL    HW225521   3.085   3.192   4.456
 8208SOL     OW25522   0.891   0.617   1.142
 8208SOL    HW125523   0.971   0.617   1.203
 8208SOL    HW225524   0.835   0.536   1.161
 8209SOL     OW25525   0.451   1.562   5.151
 8209SOL    HW125526   0.466   1.652   5.111
 8209SOL    HW225527   0.357   1.532   5.131
 8210SOL     OW25528   2.589   1.644   0.423
 8210SOL    HW125529   2.511   1.582   0.413
 8210SOL    HW225530   2.564   1.735   0.393
 8211SOL     OW25531   3.805   4.435   1.563
 8211SOL    HW125532   3.725   4.374   1.563
 8211SOL    HW225533   3.780   4.524   1.601
 8212SOL     OW25534   2.378   2.638   2.255
 8212SOL    HW125535   2.459   2.673   2.207
 8212SOL    HW225536   2.335   2.567   2.199
 8213SOL     OW25537   6.396   4.328   1.655
 8213SOL    HW125538   6.331   4.295   1.587
 8213SOL    HW225539   6.387   4.427   1.665
 8214SOL     OW25540   5.964   5.685   3.867
 8214SOL    HW125541   5.889   5.715   3.808
 8214SOL    HW225542   5.972   5.585   3.862
 8215SOL     OW25543   2.967   5.377   5.959
 8215SOL    HW125544   3.065   5.392   5.945
 8215SOL    HW225545   2.917   5.459   5.929
 8216SOL     OW25546   5.182   5.282   3.980
 8216SOL    HW125547   5.204   5.226   4.061
 8216SOL    HW225548   5.209   5.377   3.997
 8217SOL     OW25549   1.383   4.602   0.525
 8217SOL    HW125550   1.394   4.658   0.608
 8217SOL    HW225551   1.367   4.662   0.447
 8218SOL     OW25552   0.065   6.921   6.755
 8218SOL    HW125553   0.073   6.952   6.850
 8218SOL    HW225554   0.057   7.000   6.694
 8219SOL     OW25555   4.467   2.722   0.863
 8219SOL    HW125556   4.435   2.629   0.881
 8219SOL    HW225557   4.418   2.759   0.784
 8220SOL     OW25558   3.818   2.971   3.366
 8220SOL    HW125559   3.755   2.955   3.442
 8220SOL    HW225560   3.907   2.930   3.389
 8221SOL     OW25561   5.389   6.671   3.885
 8221SOL    HW125562   5.361   6.592   3.830
 8221SOL    HW225563   5.468   6.715   3.842
 8222SOL     OW25564   5.684   1.032   1.535
 8222SOL    HW125565   5.709   1.095   1.608
 8222SOL    HW225566   5.717   1.067   1.448
 8223SOL     OW25567   1.137   4.884   5.597
 8223SOL    HW125568   1.104   4.964   5.545
 8223SOL    HW225569   1.169   4.814   5.533
 8224SOL     OW25570   6.110   1.002   2.701
 8224SOL    HW125571   6.106   1.066   2.625
 8224SOL    HW225572   6.194   1.019   2.754
 8225SOL     OW25573   3.262   1.540   0.716
 8225SOL    HW125574   3.320   1.513   0.639
 8225SOL    HW225575   3.316   1.594   0.781
 8226SOL     OW25576   4.177   6.946   1.143
 8226SOL    HW125577   4.173   6.880   1.219
 8226SOL    HW225578   4.100   7.009   1.150
 8227SOL     OW25579   6.998   1.629   2.960
 8227SOL    HW125580   6.988   1.683   2.877
 8227SOL    HW225581   6.967   1.535   2.943
 8228SOL     OW25582   6.456   2.262   5.661
 8228SOL    HW125583   6.455   2.339   5.725
 8228SOL    HW225584   6.396   2.282   5.584
 8229SOL     OW25585   4.218   3.152   0.500
 8229SOL    HW125586   4.307   3.111   0.481
 8229SOL    HW225587   4.162   3.151   0.417
 8230SOL     OW25588   4.173   0.260   5.598
 8230SOL    HW125589   4.194   0.174   5.645
 8230SOL    HW225590   4.212   0.336   5.650
 8231SOL     OW25591   3.379   4.662   0.911
 8231SOL    HW125592   3.431   4.589   0.866
 8231SOL    HW225593   3.438   4.712   0.974
 8232SOL     OW25594   5.003   1.309   2.214
 8232SOL    HW125595   5.003   1.225   2.160
 8232SOL    HW225596   5.093   1.324   2.254
 8233SOL     OW25597   1.370   6.084   6.365
 8233SOL    HW125598   1.292   6.147   6.360
 8233SOL    HW225599   1.388   6.045   6.275
 8234SOL     OW25600   2.762   4.342   6.714
 8234SOL    HW125601   2.767   4.285   6.796
 8234SOL    HW225602   2.761   4.283   6.633
 8235SOL     OW25603   0.678   3.284   0.320
 8235SOL    HW125604   0.714   3.359   0.264
 8235SOL    HW225605   0.591   3.311   0.360
 8236SOL     OW25606   0.573   4.638   0.680
 8236SOL    HW125607   0.477   4.659   0.665
 8236SOL    HW225608   0.590   4.627   0.777
 8237SOL     OW25609   3.971   6.821   4.565
 8237SOL    HW125610   3.917   6.738   4.577
 8237SOL    HW225611   3.991   6.835   4.468
 8238SOL     OW25612   0.574   5.164   6.396
 8238SOL    HW125613   0.649   5.177   6.330
 8238SOL    HW225614   0.590   5.081   6.449
 8239SOL     OW25615   6.660   1.518   6.088
 8239SOL    HW125616   6.745   1.520   6.140
 8239SOL    HW225617   6.655   1.599   6.029
 8240SOL     OW25618   3.591   4.075   2.689
 8240SOL    HW125619   3.545   4.100   2.774
 8240SOL    HW225620   3.670   4.018   2.710
 8241SOL     OW25621   4.026   0.204   6.185
 8241SOL    HW125622   4.066   0.139   6.250
 8241SOL    HW225623   4.042   0.298   6.217
 8242SOL     OW25624   0.558   4.826   5.803
 8242SOL    HW125625   0.524   4.735   5.778
 8242SOL    HW225626   0.500   4.895   5.760
 8243SOL     OW25627   0.486   2.502   0.585
 8243SOL    HW125628   0.509   2.590   0.544
 8243SOL    HW225629   0.475   2.434   0.513
 8244SOL     OW25630   0.339   0.905   4.858
 8244SOL    HW125631   0.325   1.004   4.852
 8244SOL    HW225632   0.429   0.882   4.823
 8245SOL     OW25633   4.243   1.985   2.907
 8245SOL    HW125634   4.262   1.896   2.864
 8245SOL    HW225635   4.300   1.995   2.988
 8246SOL     OW25636   1.312   2.910   5.879
 8246SOL    HW125637   1.271   2.874   5.795
 8246SOL    HW225638   1.411   2.894   5.878
 8247SOL     OW25639   1.572   0.284   2.363
 8247SOL    HW125640   1.522   0.272   2.277
 8247SOL    HW225641   1.667   0.254   2.350
 8248SOL     OW25642   6.125   5.448   4.737
 8248SOL    HW125643   6.089   5.456   4.830
 8248SOL    HW225644   6.180   5.365   4.730
 8249SOL     OW25645   1.894   2.804   5.633
 8249SOL    HW125646   1.973   2.811   5.692
 8249SOL    HW225647   1.904   2.865   5.555
 8250SOL     OW25648   3.258   4.037   2.041
 8250SOL    HW125649   3.353   4.029   2.008
 8250SOL    HW225650   3.258   4.060   2.138
 8251SOL     OW25651   5.396   3.742   4.426
 8251SOL    HW125652   5.475   3.682   4.412
 8251SOL    HW225653   5.396   3.775   4.521
 8252SOL     OW25654   3.030   1.599   5.403
 8252SOL    HW125655   3.062   1.650   5.324
 8252SOL    HW225656   3.100   1.535   5.433
 8253SOL     OW25657   4.125   5.070   5.493
 8253SOL    HW125658   4.058   5.143   5.485
 8253SOL    HW225659   4.215   5.104   5.464
 8254SOL     OW25660   4.723   4.430   5.240
 8254SOL    HW125661   4.752   4.520   5.274
 8254SOL    HW225662   4.804   4.376   5.217
 8255SOL     OW25663   2.138   0.145   5.250
 8255SOL    HW125664   2.079   0.128   5.170
 8255SOL    HW225665   2.234   0.140   5.222
 8256SOL     OW25666   0.102   6.927   2.197
 8256SOL    HW125667   0.164   6.882   2.132
 8256SOL    HW225668   0.023   6.868   2.213
 8257SOL     OW25669   5.510   4.016   2.953
 8257SOL    HW125670   5.471   3.936   2.909
 8257SOL    HW225671   5.438   4.067   3.000
 8258SOL     OW25672   5.767   1.819   0.748
 8258SOL    HW125673   5.806   1.851   0.662
 8258SOL    HW225674   5.777   1.889   0.818
 8259SOL     OW25675   3.568   1.630   3.914
 8259SOL    HW125676   3.472   1.649   3.893
 8259SOL    HW225677   3.593   1.677   3.999
 8260SOL     OW25678   2.587   6.473   1.558
 8260SOL    HW125679   2.667   6.430   1.515
 8260SOL    HW225680   2.516   6.487   1.489
 8261SOL     OW25681   6.188   0.025   1.933
 8261SOL    HW125682   6.102   7.005   1.924
 8261SOL    HW225683   6.265   6.992   1.920
 8262SOL     OW25684   0.521   3.425   0.548
 8262SOL    HW125685   0.540   3.327   0.544
 8262SOL    HW225686   0.520   3.455   0.643
 8263SOL     OW25687   0.591   2.529   6.554
 8263SOL    HW125688   0.500   2.504   6.520
 8263SOL    HW225689   0.586   2.617   6.600
 8264SOL     OW25690   2.812   6.488   2.360
 8264SOL    HW125691   2.812   6.458   2.264
 8264SOL    HW225692   2.863   6.421   2.415
 8265SOL     OW25693   6.774   0.499   1.211
 8265SOL    HW125694   6.832   0.576   1.235
 8265SOL    HW225695   6.804   0.418   1.261
 8266SOL     OW25696   2.252   1.021   3.499
 8266SOL    HW125697   2.338   1.072   3.502
 8266SOL    HW225698   2.178   1.076   3.537
 8267SOL     OW25699   2.065   2.628   1.606
 8267SOL    HW125700   2.104   2.541   1.638
 8267SOL    HW225701   2.053   2.689   1.684
 8268SOL     OW25702   1.653   6.388   6.133
 8268SOL    HW125703   1.710   6.457   6.088
 8268SOL    HW225704   1.695   6.362   6.220
 8269SOL     OW25705   4.411   1.287   2.424
 8269SOL    HW125706   4.490   1.347   2.439
 8269SOL    HW225707   4.399   1.273   2.326
 8270SOL     OW25708   2.755   6.654   5.275
 8270SOL    HW125709   2.671   6.605   5.250
 8270SOL    HW225710   2.777   6.720   5.204
 8271SOL     OW25711   0.413   0.279   3.333
 8271SOL    HW125712   0.455   0.188   3.339
 8271SOL    HW225713   0.314   0.270   3.333
 8272SOL     OW25714   5.907   2.183   2.366
 8272SOL    HW125715   5.832   2.117   2.362
 8272SOL    HW225716   5.897   2.249   2.292
 8273SOL     OW25717   2.518   0.595   6.552
 8273SOL    HW125718   2.535   0.531   6.626
 8273SOL    HW225719   2.605   0.633   6.520
 8274SOL     OW25720   5.244   4.853   4.239
 8274SOL    HW125721   5.151   4.839   4.203
 8274SOL    HW225722   5.309   4.800   4.184
 8275SOL     OW25723   5.610   1.361   5.764
 8275SOL    HW125724   5.623   1.328   5.857
 8275SOL    HW225725   5.689   1.335   5.708
 8276SOL     OW25726   0.693   2.747   3.573
 8276SOL    HW125727   0.656   2.769   3.482
 8276SOL    HW225728   0.792   2.741   3.568
 8277SOL     OW25729   0.256   5.968   6.145
 8277SOL    HW125730   0.274   6.064   6.121
 8277SOL    HW225731   0.231   5.963   6.242
 8278SOL     OW25732   2.968   1.810   6.104
 8278SOL    HW125733   2.974   1.904   6.069
 8278SOL    HW225734   3.057   1.782   6.140
 8279SOL     OW25735   1.141   6.908   4.133
 8279SOL    HW125736   1.099   6.817   4.134
 8279SOL    HW225737   1.078   6.974   4.093
 8280SOL     OW25738   2.393   3.400   0.758
 8280SOL    HW125739   2.432   3.309   0.749
 8280SOL    HW225740   2.452   3.457   0.816
 8281SOL     OW25741   3.090   4.366   1.707
 8281SOL    HW125742   3.102   4.267   1.713
 8281SOL    HW225743   3.010   4.393   1.761
 8282SOL     OW25744   4.815   3.483   6.893
 8282SOL    HW125745   4.878   3.561   6.895
 8282SOL    HW225746   4.803   3.452   6.799
 8283SOL     OW25747   1.932   5.405   6.097
 8283SOL    HW125748   1.906   5.495   6.133
 8283SOL    HW225749   2.001   5.365   6.157
 8284SOL     OW25750   1.185   3.581   1.060
 8284SOL    HW125751   1.281   3.573   1.089
 8284SOL    HW225752   1.130   3.512   1.108
 8285SOL     OW25753   3.052   3.903   4.962
 8285SOL    HW125754   3.097   3.826   5.008
 8285SOL    HW225755   2.970   3.928   5.013
 8286SOL     OW25756   5.600   2.144   6.484
 8286SOL    HW125757   5.698   2.163   6.480
 8286SOL    HW225758   5.548   2.222   6.449
 8287SOL     OW25759   1.681   5.796   4.176
 8287SOL    HW125760   1.758   5.737   4.201
 8287SOL    HW225761   1.599   5.741   4.166
 8288SOL     OW25762   3.232   1.972   2.076
 8288SOL    HW125763   3.306   2.008   2.018
 8288SOL    HW225764   3.147   2.020   2.054
 8289SOL     OW25765   0.710   5.885   0.521
 8289SOL    HW125766   0.700   5.969   0.575
 8289SOL    HW225767   0.665   5.898   0.432
 8290SOL     OW25768   5.478   1.305   1.478
 8290SOL    HW125769   5.431   1.236   1.533
 8290SOL    HW225770   5.482   1.391   1.528
 8291SOL     OW25771   5.240   6.313   4.802
 8291SOL    HW125772   5.177   6.383   4.769
 8291SOL    HW225773   5.317   6.357   4.847
 8292SOL     OW25774   2.788   6.654   6.900
 8292SOL    HW125775   2.783   6.554   6.901
 8292SOL    HW225776   2.878   6.683   6.933
 8293SOL     OW25777   2.883   5.353   0.608
 8293SOL    HW125778   2.889   5.417   0.532
 8293SOL    HW225779   2.887   5.402   0.695
 8294SOL     OW25780   5.930   3.501   5.284
 8294SOL    HW125781   5.842   3.468   5.319
 8294SOL    HW225782   5.934   3.600   5.293
 8295SOL     OW25783   5.093   5.822   2.113
 8295SOL    HW125784   5.148   5.757   2.165
 8295SOL    HW225785   5.046   5.774   2.039
 8296SOL     OW25786   1.186   4.253   6.615
 8296SOL    HW125787   1.236   4.258   6.528
 8296SOL    HW225788   1.216   4.174   6.667
 8297SOL     OW25789   6.867   2.994   2.805
 8297SOL    HW125790   6.962   3.013   2.830
 8297SOL    HW225791   6.865   2.936   2.724
 8298SOL     OW25792   6.227   1.310   1.918
 8298SOL    HW125793   6.272   1.399   1.908
 8298SOL    HW225794   6.250   1.252   1.840
 8299SOL     OW25795   6.603   2.215   1.879
 8299SOL    HW125796   6.682   2.192   1.936
 8299SOL    HW225797   6.626   2.201   1.783
 8300SOL     OW25798   0.405   5.988   4.783
 8300SOL    HW125799   0.357   5.906   4.815
 8300SOL    HW225800   0.429   5.977   4.686
 8301SOL     OW25801   3.651   1.905   1.110
 8301SOL    HW125802   3.608   1.980   1.160
 8301SOL    HW225803   3.651   1.823   1.168
 8302SOL     OW25804   5.720   0.250   6.893
 8302SOL    HW125805   5.714   0.201   6.980
 8302SOL    HW225806   5.740   0.185   6.819
 8303SOL     OW25807   6.599   1.086   3.550
 8303SOL    HW125808   6.512   1.099   3.503
 8303SOL    HW225809   6.674   1.113   3.490
 8304SOL     OW25810   7.020   3.175   0.918
 8304SOL    HW125811   0.087   3.171   0.893
 8304SOL    HW225812   6.988   3.269   0.906
 8305SOL     OW25813   4.979   5.102   4.124
 8305SOL    HW125814   5.009   5.160   4.199
 8305SOL    HW225815   4.966   5.157   4.042
 8306SOL     OW25816   5.929   2.250   5.716
 8306SOL    HW125817   5.916   2.154   5.740
 8306SOL    HW225818   5.996   2.291   5.777
 8307SOL     OW25819   3.599   5.628   1.542
 8307SOL    HW125820   3.631   5.708   1.493
 8307SOL    HW225821   3.653   5.616   1.626
 8308SOL     OW25822   3.375   5.481   1.628
 8308SOL    HW125823   3.357   5.495   1.726
 8308SOL    HW225824   3.446   5.544   1.598
 8309SOL     OW25825   6.542   5.099   3.665
 8309SOL    HW125826   6.460   5.156   3.669
 8309SOL    HW225827   6.566   5.069   3.757
 8310SOL     OW25828   6.853   5.483   0.604
 8310SOL    HW125829   6.921   5.424   0.648
 8310SOL    HW225830   6.761   5.450   0.625
 8311SOL     OW25831   0.854   1.798   4.683
 8311SOL    HW125832   0.877   1.882   4.634
 8311SOL    HW225833   0.829   1.727   4.618
 8312SOL     OW25834   4.775   0.304   0.126
 8312SOL    HW125835   4.726   0.383   0.163
 8312SOL    HW225836   4.869   0.305   0.158
 8313SOL     OW25837   5.246   0.023   0.910
 8313SOL    HW125838   5.269   0.099   0.849
 8313SOL    HW225839   5.183   0.054   0.981
 8314SOL     OW25840   4.931   0.762   0.619
 8314SOL    HW125841   4.867   0.691   0.591
 8314SOL    HW225842   4.911   0.789   0.714
 8315SOL     OW25843   4.301   2.857   1.664
 8315SOL    HW125844   4.383   2.826   1.714
 8315SOL    HW225845   4.329   2.920   1.591
 8316SOL     OW25846   1.633   2.307   1.358
 8316SOL    HW125847   1.685   2.222   1.357
 8316SOL    HW225848   1.685   2.377   1.407
 8317SOL     OW25849   1.912   2.760   2.519
 8317SOL    HW125850   1.813   2.745   2.506
 8317SOL    HW225851   1.962   2.720   2.442
 8318SOL     OW25852   4.549   1.563   5.196
 8318SOL    HW125853   4.560   1.468   5.168
 8318SOL    HW225854   4.635   1.596   5.236
 8319SOL     OW25855   1.950   1.960   0.443
 8319SOL    HW125856   2.008   1.929   0.519
 8319SOL    HW225857   1.933   1.884   0.380
 8320SOL     OW25858   3.407   3.715   2.348
 8320SOL    HW125859   3.362   3.625   2.355
 8320SOL    HW225860   3.370   3.776   2.417
 8321SOL     OW25861   6.540   0.014   6.471
 8321SOL    HW125862   6.596   6.997   6.539
 8321SOL    HW225863   6.541   0.112   6.490
 8322SOL     OW25864   6.502   6.970   1.141
 8322SOL    HW125865   6.512   6.986   1.239
 8322SOL    HW225866   6.451   0.015   1.101
 8323SOL     OW25867   5.177   5.585   2.464
 8323SOL    HW125868   5.118   5.508   2.442
 8323SOL    HW225869   5.122   5.662   2.497
 8324SOL     OW25870   5.623   6.718   1.417
 8324SOL    HW125871   5.597   6.661   1.339
 8324SOL    HW225872   5.557   6.706   1.491
 8325SOL     OW25873   2.632   3.822   5.736
 8325SOL    HW125874   2.610   3.755   5.807
 8325SOL    HW225875   2.730   3.841   5.738
 8326SOL     OW25876   5.248   3.732   5.590
 8326SOL    HW125877   5.161   3.778   5.570
 8326SOL    HW225878   5.254   3.647   5.536
 8327SOL     OW25879   6.109   1.261   6.208
 8327SOL    HW125880   6.155   1.172   6.214
 8327SOL    HW225881   6.145   1.322   6.278
 8328SOL     OW25882   2.681   6.098   6.154
 8328SOL    HW125883   2.650   6.191   6.173
 8328SOL    HW225884   2.778   6.090   6.179
 8329SOL     OW25885   1.324   3.122   5.603
 8329SOL    HW125886   1.393   3.150   5.670
 8329SOL    HW225887   1.269   3.047   5.641
 8330SOL     OW25888   2.615   1.034   6.750
 8330SOL    HW125889   2.598   0.967   6.823
 8330SOL    HW225890   2.713   1.049   6.740
 8331SOL     OW25891   3.330   1.079   1.176
 8331SOL    HW125892   3.290   1.113   1.091
 8331SOL    HW225893   3.324   1.149   1.246
 8332SOL     OW25894   4.511   5.162   2.377
 8332SOL    HW125895   4.464   5.207   2.301
 8332SOL    HW225896   4.444   5.118   2.436
 8333SOL     OW25897   0.266   6.235   6.160
 8333SOL    HW125898   0.309   6.311   6.110
 8333SOL    HW225899   0.179   6.265   6.198
 8334SOL     OW25900   4.114   1.080   3.751
 8334SOL    HW125901   4.025   1.109   3.787
 8334SOL    HW225902   4.166   1.160   3.723
 8335SOL     OW25903   5.113   6.552   0.190
 8335SOL    HW125904   5.171   6.547   0.271
 8335SOL    HW225905   5.129   6.471   0.133
 8336SOL     OW25906   6.751   4.968   3.158
 8336SOL    HW125907   6.667   4.925   3.124
 8336SOL    HW225908   6.763   5.057   3.113
 8337SOL     OW25909   2.454   6.064   2.632
 8337SOL    HW125910   2.525   6.080   2.563
 8337SOL    HW225911   2.405   5.980   2.610
 8338SOL     OW25912   3.735   5.397   2.048
 8338SOL    HW125913   3.739   5.326   1.978
 8338SOL    HW225914   3.790   5.370   2.127
 8339SOL     OW25915   5.935   0.249   1.320
 8339SOL    HW125916   6.021   0.288   1.354
 8339SOL    HW225917   5.953   0.192   1.240
 8340SOL     OW25918   5.007   2.982   1.349
 8340SOL    HW125919   5.022   3.044   1.426
 8340SOL    HW225920   4.914   2.945   1.353
 8341SOL     OW25921   2.853   6.230   0.298
 8341SOL    HW125922   2.771   6.174   0.291
 8341SOL    HW225923   2.832   6.314   0.347
 8342SOL     OW25924   4.185   6.080   1.416
 8342SOL    HW125925   4.239   6.162   1.398
 8342SOL    HW225926   4.102   6.106   1.466
 8343SOL     OW25927   1.805   6.071   5.603
 8343SOL    HW125928   1.800   5.991   5.663
 8343SOL    HW225929   1.802   6.154   5.657
 8344SOL     OW25930   4.368   6.358   4.569
 8344SOL    HW125931   4.352   6.309   4.483
 8344SOL    HW225932   4.466   6.377   4.579
 8345SOL     OW25933   4.583   1.772   2.541
 8345SOL    HW125934   4.511   1.782   2.473
 8345SOL    HW225935   4.651   1.844   2.529
 8346SOL     OW25936   3.167   4.762   1.035
 8346SOL    HW125937   3.229   4.701   0.987
 8346SOL    HW225938   3.217   4.842   1.068
 8347SOL     OW25939   3.443   5.338   4.414
 8347SOL    HW125940   3.391   5.423   4.423
 8347SOL    HW225941   3.436   5.304   4.320
 8348SOL     OW25942   2.515   0.244   2.347
 8348SOL    HW125943   2.463   0.282   2.270
 8348SOL    HW225944   2.541   0.317   2.410
 8349SOL     OW25945   6.028   6.364   1.749
 8349SOL    HW125946   5.994   6.293   1.687
 8349SOL    HW225947   5.994   6.346   1.842
 8350SOL     OW25948   3.830   6.792   5.629
 8350SOL    HW125949   3.856   6.880   5.669
 8350SOL    HW225950   3.855   6.718   5.691
 8351SOL     OW25951   4.890   5.097   4.529
 8351SOL    HW125952   4.920   5.119   4.622
 8351SOL    HW225953   4.821   5.025   4.533
 8352SOL     OW25954   0.969   0.299   3.154
 8352SOL    HW125955   1.045   0.333   3.209
 8352SOL    HW225956   0.888   0.355   3.170
 8353SOL     OW25957   7.013   2.993   1.727
 8353SOL    HW125958   0.078   2.971   1.707
 8353SOL    HW225959   7.009   3.080   1.777
 8354SOL     OW25960   4.214   6.925   6.297
 8354SOL    HW125961   4.207   6.834   6.256
 8354SOL    HW225962   4.133   6.943   6.352
 8355SOL     OW25963   2.639   1.128   6.144
 8355SOL    HW125964   2.582   1.199   6.102
 8355SOL    HW225965   2.605   1.038   6.115
 8356SOL     OW25966   0.787   6.242   0.949
 8356SOL    HW125967   0.825   6.323   0.907
 8356SOL    HW225968   0.835   6.161   0.916
 8357SOL     OW25969   4.172   0.177   4.883
 8357SOL    HW125970   4.249   0.181   4.819
 8357SOL    HW225971   4.206   0.149   4.973
 8358SOL     OW25972   1.301   4.426   5.183
 8358SOL    HW125973   1.342   4.505   5.139
 8358SOL    HW225974   1.354   4.344   5.161
 8359SOL     OW25975   2.972   0.828   5.045
 8359SOL    HW125976   2.955   0.735   5.078
 8359SOL    HW225977   2.886   0.880   5.046
 8360SOL     OW25978   3.525   6.147   1.203
 8360SOL    HW125979   3.464   6.070   1.184
 8360SOL    HW225980   3.496   6.194   1.286
 8361SOL     OW25981   3.606   0.539   2.637
 8361SOL    HW125982   3.615   0.495   2.726
 8361SOL    HW225983   3.667   0.618   2.632
 8362SOL     OW25984   4.122   2.216   0.574
 8362SOL    HW125985   4.069   2.296   0.602
 8362SOL    HW225986   4.062   2.136   0.575
 8363SOL     OW25987   6.906   2.698   6.480
 8363SOL    HW125988   6.815   2.659   6.467
 8363SOL    HW225989   6.904   2.767   6.552
 8364SOL     OW25990   1.177   2.941   2.968
 8364SOL    HW125991   1.083   2.940   3.004
 8364SOL    HW225992   1.174   2.952   2.869
 8365SOL     OW25993   2.097   3.959   1.889
 8365SOL    HW125994   2.065   4.051   1.911
 8365SOL    HW225995   2.195   3.961   1.871
 8366SOL     OW25996   1.883   5.801   2.127
 8366SOL    HW125997   1.904   5.863   2.203
 8366SOL    HW225998   1.810   5.841   2.072
 8367SOL     OW25999   4.082   6.236   3.753
 8367SOL    HW126000   4.123   6.327   3.757
 8367SOL    HW226001   4.120   6.180   3.827
 8368SOL     OW26002   2.255   6.151   6.514
 8368SOL    HW126003   2.277   6.064   6.470
 8368SOL    HW226004   2.159   6.149   6.544
 8369SOL     OW26005   1.648   6.581   6.782
 8369SOL    HW126006   1.731   6.593   6.837
 8369SOL    HW226007   1.568   6.587   6.840
 8370SOL     OW26008   2.929   1.870   5.659
 8370SOL    HW126009   2.907   1.833   5.569
 8370SOL    HW226010   2.864   1.836   5.726
 8371SOL     OW26011   2.147   3.949   0.812
 8371SOL    HW126012   2.127   4.040   0.774
 8371SOL    HW226013   2.120   3.879   0.747
 8372SOL     OW26014   0.661   5.174   2.082
 8372SOL    HW126015   0.600   5.187   2.004
 8372SOL    HW226016   0.745   5.226   2.068
 8373SOL     OW26017   1.568   6.931   3.711
 8373SOL    HW126018   1.547   6.911   3.615
 8373SOL    HW226019   1.666   6.947   3.722
 8374SOL     OW26020   0.129   0.809   5.694
 8374SOL    HW126021   0.182   0.887   5.658
 8374SOL    HW226022   0.032   0.829   5.688
 8375SOL     OW26023   3.425   6.624   4.900
 8375SOL    HW126024   3.512   6.590   4.865
 8375SOL    HW226025   3.358   6.628   4.825
 8376SOL     OW26026   1.364   0.708   4.088
 8376SOL    HW126027   1.437   0.746   4.031
 8376SOL    HW226028   1.395   0.623   4.131
 8377SOL     OW26029   4.753   6.006   1.299
 8377SOL    HW126030   4.661   6.045   1.294
 8377SOL    HW226031   4.809   6.042   1.225
 8378SOL     OW26032   4.506   4.990   2.808
 8378SOL    HW126033   4.594   5.031   2.831
 8378SOL    HW226034   4.434   5.059   2.815
 8379SOL     OW26035   6.043   2.556   1.405
 8379SOL    HW126036   5.992   2.569   1.490
 8379SOL    HW226037   6.018   2.628   1.340
 8380SOL     OW26038   0.033   0.582   2.452
 8380SOL    HW126039   6.986   0.643   2.474
 8380SOL    HW226040   0.031   0.561   2.355
 8381SOL     OW26041   0.123   2.768   5.187
 8381SOL    HW126042   0.103   2.866   5.187
 8381SOL    HW226043   0.185   2.747   5.111
 8382SOL     OW26044   2.578   0.878   2.849
 8382SOL    HW126045   2.558   0.832   2.936
 8382SOL    HW226046   2.499   0.872   2.789
 8383SOL     OW26047   2.215   6.986   5.839
 8383SOL    HW126048   2.145   6.921   5.869
 8383SOL    HW226049   2.186   0.048   5.862
 8384SOL     OW26050   6.701   1.054   1.148
 8384SOL    HW126051   6.602   1.056   1.157
 8384SOL    HW226052   6.727   0.993   1.072
 8385SOL     OW26053   6.385   1.542   1.131
 8385SOL    HW126054   6.340   1.582   1.050
 8385SOL    HW226055   6.472   1.502   1.104
 8386SOL     OW26056   1.125   4.965   2.125
 8386SOL    HW126057   1.109   4.917   2.211
 8386SOL    HW226058   1.055   4.939   2.059
 8387SOL     OW26059   1.547   1.452   2.580
 8387SOL    HW126060   1.476   1.487   2.519
 8387SOL    HW226061   1.598   1.379   2.534
 8388SOL     OW26062   2.572   6.221   0.582
 8388SOL    HW126063   2.652   6.219   0.642
 8388SOL    HW226064   2.602   6.203   0.488
 8389SOL     OW26065   0.093   2.984   2.899
 8389SOL    HW126066   0.089   2.907   2.962
 8389SOL    HW226067   0.188   3.003   2.875
 8390SOL     OW26068   4.640   1.204   6.231
 8390SOL    HW126069   4.672   1.110   6.246
 8390SOL    HW226070   4.585   1.233   6.309
 8391SOL     OW26071   6.342   4.989   0.933
 8391SOL    HW126072   6.261   5.027   0.888
 8391SOL    HW226073   6.355   4.895   0.903
 8392SOL     OW26074   6.317   3.697   4.795
 8392SOL    HW126075   6.234   3.712   4.742
 8392SOL    HW226076   6.310   3.610   4.844
 8393SOL     OW26077   0.333   0.096   2.985
 8393SOL    HW126078   0.274   0.040   2.927
 8393SOL    HW226079   0.282   0.175   3.019
 8394SOL     OW26080   6.174   2.118   1.405
 8394SOL    HW126081   6.146   2.022   1.408
 8394SOL    HW226082   6.267   2.125   1.369
 8395SOL     OW26083   2.877   6.956   5.356
 8395SOL    HW126084   2.816   6.926   5.283
 8395SOL    HW226085   2.874   0.026   5.362
 8396SOL     OW26086   4.922   5.513   2.865
 8396SOL    HW126087   4.845   5.452   2.844
 8396SOL    HW226088   4.887   5.597   2.906
 8397SOL     OW26089   1.425   0.961   2.447
 8397SOL    HW126090   1.405   1.030   2.516
 8397SOL    HW226091   1.355   0.889   2.451
 8398SOL     OW26092   4.611   1.721   6.098
 8398SOL    HW126093   4.702   1.704   6.136
 8398SOL    HW226094   4.551   1.643   6.118
 8399SOL     OW26095   5.530   7.012   6.817
 8399SOL    HW126096   5.530   0.062   6.876
 8399SOL    HW226097   5.598   7.024   6.744
 8400SOL     OW26098   1.774   0.965   4.423
 8400SOL    HW126099   1.694   0.911   4.395
 8400SOL    HW226100   1.778   1.048   4.368
 8401SOL     OW26101   2.066   0.930   5.244
 8401SOL    HW126102   2.073   1.028   5.224
 8401SOL    HW226103   2.157   0.894   5.267
 8402SOL     OW26104   4.834   1.588   6.209
 8402SOL    HW126105   4.880   1.613   6.294
 8402SOL    HW226106   4.821   1.489   6.206
 8403SOL     OW26107   6.924   3.380   4.597
 8403SOL    HW126108   6.938   3.471   4.637
 8403SOL    HW226109   7.010   3.346   4.560
 8404SOL     OW26110   3.685   6.898   5.932
 8404SOL    HW126111   3.626   6.946   5.867
 8404SOL    HW226112   3.665   6.800   5.929
 8405SOL     OW26113   2.062   1.471   5.258
 8405SOL    HW126114   2.055   1.554   5.203
 8405SOL    HW226115   2.031   1.490   5.351
 8406SOL     OW26116   4.131   0.719   0.590
 8406SOL    HW126117   4.209   0.714   0.527
 8406SOL    HW226118   4.052   0.675   0.548
 8407SOL     OW26119   3.470   6.488   3.205
 8407SOL    HW126120   3.378   6.527   3.207
 8407SOL    HW226121   3.492   6.448   3.294
 8408SOL     OW26122   5.758   3.862   1.385
 8408SOL    HW126123   5.707   3.948   1.377
 8408SOL    HW226124   5.834   3.863   1.319
 8409SOL     OW26125   5.249   1.853   2.759
 8409SOL    HW126126   5.340   1.812   2.762
 8409SOL    HW226127   5.179   1.781   2.762
 8410SOL     OW26128   5.779   0.346   1.590
 8410SOL    HW126129   5.706   0.394   1.542
 8410SOL    HW226130   5.798   0.259   1.544
 8411SOL     OW26131   0.877   5.096   0.117
 8411SOL    HW126132   0.865   5.075   0.214
 8411SOL    HW226133   0.968   5.135   0.102
 8412SOL     OW26134   3.640   2.134   1.471
 8412SOL    HW126135   3.724   2.101   1.428
 8412SOL    HW226136   3.604   2.211   1.419
 8413SOL     OW26137   4.318   5.944   6.995
 8413SOL    HW126138   4.385   5.870   6.985
 8413SOL    HW226139   4.357   6.016   0.022
 8414SOL     OW26140   4.136   6.498   4.044
 8414SOL    HW126141   4.143   6.526   4.140
 8414SOL    HW226142   4.058   6.436   4.033
 8415SOL     OW26143   0.750   6.017   3.960
 8415SOL    HW126144   0.739   5.918   3.947
 8415SOL    HW226145   0.788   6.034   4.051
 8416SOL     OW26146   6.115   2.935   2.579
 8416SOL    HW126147   6.022   2.939   2.614
 8416SOL    HW226148   6.176   2.987   2.639
 8417SOL     OW26149   1.592   3.397   5.641
 8417SOL    HW126150   1.504   3.422   5.681
 8417SOL    HW226151   1.659   3.384   5.714
 8418SOL     OW26152   5.590   5.303   0.917
 8418SOL    HW126153   5.653   5.242   0.869
 8418SOL    HW226154   5.640   5.382   0.951
 8419SOL     OW26155   5.562   0.047   1.579
 8419SOL    HW126156   5.646   0.040   1.524
 8419SOL    HW226157   5.549   0.142   1.607
 8420SOL     OW26158   4.263   6.596   0.572
 8420SOL    HW126159   4.201   6.532   0.617
 8420SOL    HW226160   4.295   6.664   0.638
 8421SOL     OW26161   3.186   5.833   6.862
 8421SOL    HW126162   3.189   5.762   6.932
 8421SOL    HW226163   3.137   5.912   6.897
 8422SOL     OW26164   4.213   1.235   1.916
 8422SOL    HW126165   4.179   1.329   1.921
 8422SOL    HW226166   4.286   1.222   1.983
 8423SOL     OW26167   3.190   5.173   6.028
 8423SOL    HW126168   3.194   5.126   6.116
 8423SOL    HW226169   3.111   5.234   6.026
 8424SOL     OW26170   2.198   2.278   2.413
 8424SOL    HW126171   2.284   2.228   2.410
 8424SOL    HW226172   2.194   2.333   2.497
 8425SOL     OW26173   4.421   4.698   6.140
 8425SOL    HW126174   4.392   4.603   6.130
 8425SOL    HW226175   4.466   4.728   6.056
 8426SOL     OW26176   3.825   3.264   3.328
 8426SOL    HW126177   3.824   3.165   3.311
 8426SOL    HW226178   3.741   3.305   3.291
 8427SOL     OW26179   3.856   3.978   4.026
 8427SOL    HW126180   3.842   3.999   3.929
 8427SOL    HW226181   3.907   4.052   4.069
 8428SOL     OW26182   0.366   6.116   1.347
 8428SOL    HW126183   0.397   6.087   1.437
 8428SOL    HW226184   0.419   6.069   1.276
 8429SOL     OW26185   1.507   6.364   4.458
 8429SOL    HW126186   1.499   6.311   4.542
 8429SOL    HW226187   1.417   6.376   4.417
 8430SOL     OW26188   3.750   5.370   3.587
 8430SOL    HW126189   3.691   5.427   3.644
 8430SOL    HW226190   3.845   5.382   3.616
 8431SOL     OW26191   3.572   3.759   1.159
 8431SOL    HW126192   3.626   3.805   1.089
 8431SOL    HW226193   3.515   3.689   1.116
 8432SOL     OW26194   5.783   6.378   5.591
 8432SOL    HW126195   5.751   6.385   5.686
 8432SOL    HW226196   5.753   6.292   5.552
 8433SOL     OW26197   4.748   2.740   0.883
 8433SOL    HW126198   4.648   2.741   0.883
 8433SOL    HW226199   4.783   2.828   0.916
 8434SOL     OW26200   2.930   0.067   4.724
 8434SOL    HW126201   2.938   0.166   4.714
 8434SOL    HW226202   2.972   0.039   4.810
 8435SOL     OW26203   6.077   0.551   1.289
 8435SOL    HW126204   6.020   0.631   1.307
 8435SOL    HW226205   6.063   0.484   1.361
 8436SOL     OW26206   3.073   6.305   3.183
 8436SOL    HW126207   3.073   6.402   3.208
 8436SOL    HW226208   3.003   6.289   3.113
 8437SOL     OW26209   2.074   1.135   4.047
 8437SOL    HW126210   2.095   1.065   3.979
 8437SOL    HW226211   2.023   1.210   4.005
 8438SOL     OW26212   2.068   4.456   2.787
 8438SOL    HW126213   2.033   4.450   2.880
 8438SOL    HW226214   2.168   4.449   2.789
 8439SOL     OW26215   5.650   5.245   2.835
 8439SOL    HW126216   5.608   5.323   2.879
 8439SOL    HW226217   5.748   5.242   2.857
 8440SOL     OW26218   2.290   1.474   3.850
 8440SOL    HW126219   2.376   1.522   3.834
 8440SOL    HW226220   2.284   1.448   3.947
 8441SOL     OW26221   5.248   0.142   0.271
 8441SOL    HW126222   5.286   0.052   0.293
 8441SOL    HW226223   5.322   0.203   0.242
 8442SOL     OW26224   3.561   2.572   5.413
 8442SOL    HW126225   3.482   2.612   5.366
 8442SOL    HW226226   3.572   2.477   5.385
 8443SOL     OW26227   2.565   4.540   3.627
 8443SOL    HW126228   2.488   4.479   3.647
 8443SOL    HW226229   2.541   4.634   3.653
 8444SOL     OW26230   3.124   6.509   4.514
 8444SOL    HW126231   3.192   6.437   4.527
 8444SOL    HW226232   3.036   6.479   4.551
 8445SOL     OW26233   3.130   0.127   1.446
 8445SOL    HW126234   3.189   0.198   1.486
 8445SOL    HW226235   3.105   0.062   1.518
 8446SOL     OW26236   5.718   5.774   6.093
 8446SOL    HW126237   5.745   5.805   6.002
 8446SOL    HW226238   5.793   5.719   6.132
 8447SOL     OW26239   4.953   1.751   2.139
 8447SOL    HW126240   5.018   1.711   2.076
 8447SOL    HW226241   4.861   1.747   2.101
 8448SOL     OW26242   4.273   6.190   4.268
 8448SOL    HW126243   4.245   6.279   4.303
 8448SOL    HW226244   4.194   6.129   4.266
 8449SOL     OW26245   0.188   3.283   3.448
 8449SOL    HW126246   0.093   3.263   3.421
 8449SOL    HW226247   0.190   3.314   3.543
 8450SOL     OW26248   0.801   0.036   0.980
 8450SOL    HW126249   0.868   0.077   1.042
 8450SOL    HW226250   0.818   0.068   0.887
 8451SOL     OW26251   3.678   1.792   0.190
 8451SOL    HW126252   3.724   1.704   0.180
 8451SOL    HW226253   3.583   1.777   0.216
 8452SOL     OW26254   6.205   2.044   3.233
 8452SOL    HW126255   6.248   1.959   3.202
 8452SOL    HW226256   6.171   2.033   3.326
 8453SOL     OW26257   0.419   4.892   6.820
 8453SOL    HW126258   0.416   4.798   6.853
 8453SOL    HW226259   0.329   4.934   6.829
 8454SOL     OW26260   6.816   6.024   1.869
 8454SOL    HW126261   6.866   6.111   1.873
 8454SOL    HW226262   6.738   6.028   1.932
 8455SOL     OW26263   6.577   1.478   1.711
 8455SOL    HW126264   6.675   1.489   1.730
 8455SOL    HW226265   6.555   1.520   1.623
 8456SOL     OW26266   3.801   5.865   3.630
 8456SOL    HW126267   3.732   5.846   3.560
 8456SOL    HW226268   3.873   5.923   3.591
 8457SOL     OW26269   0.189   6.962   4.594
 8457SOL    HW126270   0.255   7.017   4.542
 8457SOL    HW226271   0.155   7.016   4.672
 8458SOL     OW26272   2.826   0.766   0.707
 8458SOL    HW126273   2.759   0.770   0.633
 8458SOL    HW226274   2.896   0.836   0.693
 8459SOL     OW26275   2.833   5.614   2.053
 8459SOL    HW126276   2.832   5.704   2.007
 8459SOL    HW226277   2.749   5.604   2.107
 8460SOL     OW26278   4.079   4.220   5.259
 8460SOL    HW126279   4.128   4.290   5.206
 8460SOL    HW226280   4.131   4.135   5.258
 8461SOL     OW26281   1.048   3.959   5.148
 8461SOL    HW126282   1.061   4.035   5.085
 8461SOL    HW226283   1.059   3.873   5.098
 8462SOL     OW26284   2.413   2.302   6.506
 8462SOL    HW126285   2.490   2.365   6.495
 8462SOL    HW226286   2.352   2.336   6.577
 8463SOL     OW26287   0.134   0.246   1.164
 8463SOL    HW126288   0.140   0.292   1.253
 8463SOL    HW226289   0.046   0.266   1.122
 8464SOL     OW26290   6.072   4.254   3.869
 8464SOL    HW126291   6.071   4.317   3.792
 8464SOL    HW226292   6.154   4.197   3.864
 8465SOL     OW26293   0.848   3.155   0.490
 8465SOL    HW126294   0.920   3.102   0.446
 8465SOL    HW226295   0.785   3.190   0.421
 8466SOL     OW26296   0.681   6.967   3.980
 8466SOL    HW126297   0.582   6.977   3.970
 8466SOL    HW226298   0.718   0.020   4.023
 8467SOL     OW26299   3.228   6.463   0.201
 8467SOL    HW126300   3.189   6.477   0.110
 8467SOL    HW226301   3.233   6.366   0.220
 8468SOL     OW26302   4.174   1.858   6.941
 8468SOL    HW126303   4.109   1.928   6.974
 8468SOL    HW226304   4.231   1.897   6.869
 8469SOL     OW26305   3.698   1.893   6.466
 8469SOL    HW126306   3.685   1.986   6.499
 8469SOL    HW226307   3.777   1.851   6.511
 8470SOL     OW26308   0.860   3.455   6.770
 8470SOL    HW126309   0.857   3.405   6.684
 8470SOL    HW226310   0.817   3.545   6.757
 8471SOL     OW26311   3.129   1.082   3.554
 8471SOL    HW126312   3.218   1.121   3.531
 8471SOL    HW226313   3.143   0.999   3.609
 8472SOL     OW26314   0.128   0.414   4.868
 8472SOL    HW126315   0.185   0.437   4.947
 8472SOL    HW226316   0.147   0.477   4.793
 8473SOL     OW26317   6.100   5.337   6.576
 8473SOL    HW126318   6.084   5.239   6.588
 8473SOL    HW226319   6.142   5.354   6.487
 8474SOL     OW26320   3.002   3.248   2.482
 8474SOL    HW126321   3.005   3.324   2.547
 8474SOL    HW226322   3.042   3.167   2.524
 8475SOL     OW26323   0.602   2.175   3.302
 8475SOL    HW126324   0.646   2.116   3.370
 8475SOL    HW226325   0.642   2.157   3.212
 8476SOL     OW26326   6.617   1.397   1.141
 8476SOL    HW126327   6.695   1.441   1.096
 8476SOL    HW226328   6.584   1.321   1.084
 8477SOL     OW26329   4.388   6.441   2.080
 8477SOL    HW126330   4.391   6.374   2.155
 8477SOL    HW226331   4.470   6.430   2.023
 8478SOL     OW26332   1.270   0.577   6.124
 8478SOL    HW126333   1.259   0.626   6.037
 8478SOL    HW226334   1.350   0.517   6.118
 8479SOL     OW26335   6.339   2.586   1.311
 8479SOL    HW126336   6.376   2.550   1.397
 8479SOL    HW226337   6.239   2.575   1.311
 8480SOL     OW26338   4.221   1.340   0.153
 8480SOL    HW126339   4.236   1.410   0.083
 8480SOL    HW226340   4.305   1.328   0.207
 8481SOL     OW26341   5.062   2.390   3.636
 8481SOL    HW126342   5.048   2.361   3.731
 8481SOL    HW226343   4.973   2.402   3.592
 8482SOL     OW26344   4.253   6.759   2.928
 8482SOL    HW126345   4.310   6.707   2.865
 8482SOL    HW226346   4.309   6.831   2.970
 8483SOL     OW26347   3.917   5.827   2.389
 8483SOL    HW126348   3.871   5.762   2.450
 8483SOL    HW226349   3.985   5.879   2.441
 8484SOL     OW26350   0.704   5.462   2.820
 8484SOL    HW126351   0.671   5.368   2.831
 8484SOL    HW226352   0.772   5.466   2.747
 8485SOL     OW26353   3.241   3.130   6.811
 8485SOL    HW126354   3.330   3.095   6.783
 8485SOL    HW226355   3.178   3.053   6.826
 8486SOL     OW26356   4.813   1.140   2.746
 8486SOL    HW126357   4.817   1.041   2.756
 8486SOL    HW226358   4.724   1.173   2.779
 8487SOL     OW26359   5.678   1.213   6.464
 8487SOL    HW126360   5.635   1.156   6.394
 8487SOL    HW226361   5.684   1.163   6.550
 8488SOL     OW26362   5.690   4.761   5.230
 8488SOL    HW126363   5.779   4.800   5.254
 8488SOL    HW226364   5.628   4.769   5.307
 8489SOL     OW26365   6.079   0.640   0.838
 8489SOL    HW126366   6.042   0.553   0.806
 8489SOL    HW226367   6.105   0.696   0.760
 8490SOL     OW26368   3.943   6.565   4.647
 8490SOL    HW126369   4.041   6.587   4.650
 8490SOL    HW226370   3.902   6.583   4.736
 8491SOL     OW26371   2.012   0.039   0.753
 8491SOL    HW126372   2.005   0.136   0.731
 8491SOL    HW226373   1.992   0.026   0.850
 8492SOL     OW26374   4.197   4.266   6.588
 8492SOL    HW126375   4.224   4.170   6.578
 8492SOL    HW226376   4.274   4.325   6.564
 8493SOL     OW26377   2.586   1.964   6.337
 8493SOL    HW126378   2.507   2.021   6.313
 8493SOL    HW226379   2.623   1.992   6.425
 8494SOL     OW26380   2.902   4.698   1.023
 8494SOL    HW126381   2.869   4.651   1.106
 8494SOL    HW226382   2.995   4.731   1.039
 8495SOL     OW26383   6.505   4.458   0.977
 8495SOL    HW126384   6.441   4.412   0.915
 8495SOL    HW226385   6.530   4.396   1.051
 8496SOL     OW26386   0.791   1.771   1.743
 8496SOL    HW126387   0.766   1.722   1.660
 8496SOL    HW226388   0.806   1.868   1.722
 8497SOL     OW26389   6.740   1.286   3.687
 8497SOL    HW126390   6.827   1.255   3.724
 8497SOL    HW226391   6.684   1.206   3.663
 8498SOL     OW26392   0.215   6.151   2.722
 8498SOL    HW126393   0.187   6.066   2.768
 8498SOL    HW226394   0.214   6.226   2.788
 8499SOL     OW26395   2.454   5.177   6.830
 8499SOL    HW126396   2.442   5.187   6.929
 8499SOL    HW226397   2.533   5.120   6.811
 8500SOL     OW26398   2.198   6.756   5.639
 8500SOL    HW126399   2.230   6.769   5.545
 8500SOL    HW226400   2.118   6.813   5.656
 8501SOL     OW26401   0.376   2.442   6.855
 8501SOL    HW126402   0.343   2.517   6.912
 8501SOL    HW226403   0.302   2.407   6.799
 8502SOL     OW26404   1.215   4.740   1.547
 8502SOL    HW126405   1.282   4.764   1.476
 8502SOL    HW226406   1.214   4.641   1.559
 8503SOL     OW26407   1.504   6.467   3.532
 8503SOL    HW126408   1.493   6.373   3.566
 8503SOL    HW226409   1.470   6.531   3.602
 8504SOL     OW26410   2.270   5.558   3.198
 8504SOL    HW126411   2.252   5.645   3.151
 8504SOL    HW226412   2.343   5.510   3.152
 8505SOL     OW26413   4.872   3.875   3.799
 8505SOL    HW126414   4.786   3.925   3.813
 8505SOL    HW226415   4.938   3.900   3.870
 8506SOL     OW26416   6.382   0.891   6.906
 8506SOL    HW126417   6.444   0.868   6.831
 8506SOL    HW226418   6.380   0.990   6.920
 8507SOL     OW26419   3.760   0.919   5.555
 8507SOL    HW126420   3.671   0.872   5.560
 8507SOL    HW226421   3.780   0.939   5.459
 8508SOL     OW26422   6.796   2.578   4.927
 8508SOL    HW126423   6.822   2.657   4.983
 8508SOL    HW226424   6.705   2.593   4.889
 8509SOL     OW26425   4.865   2.154   3.664
 8509SOL    HW126426   4.825   2.099   3.738
 8509SOL    HW226427   4.824   2.245   3.665
 8510SOL     OW26428   5.268   4.308   3.636
 8510SOL    HW126429   5.229   4.275   3.550
 8510SOL    HW226430   5.298   4.403   3.624
 8511SOL     OW26431   5.833   4.074   1.900
 8511SOL    HW126432   5.761   4.035   1.842
 8511SOL    HW226433   5.816   4.172   1.912
 8512SOL     OW26434   3.315   2.158   0.868
 8512SOL    HW126435   3.305   2.189   0.774
 8512SOL    HW226436   3.410   2.129   0.883
 8513SOL     OW26437   4.957   4.039   1.683
 8513SOL    HW126438   4.959   4.061   1.781
 8513SOL    HW226439   5.048   4.050   1.644
 8514SOL     OW26440   2.898   2.222   3.872
 8514SOL    HW126441   2.843   2.288   3.924
 8514SOL    HW226442   2.971   2.187   3.930
 8515SOL     OW26443   6.063   1.583   0.030
 8515SOL    HW126444   5.992   1.602   6.992
 8515SOL    HW226445   6.020   1.562   0.118
 8516SOL     OW26446   6.572   1.434   1.407
 8516SOL    HW126447   6.504   1.507   1.417
 8516SOL    HW226448   6.600   1.427   1.311
 8517SOL     OW26449   1.663   3.200   6.872
 8517SOL    HW126450   1.702   3.266   6.936
 8517SOL    HW226451   1.730   3.181   6.800
 8518SOL     OW26452   4.757   4.611   6.394
 8518SOL    HW126453   4.666   4.652   6.383
 8518SOL    HW226454   4.782   4.612   6.491
 8519SOL     OW26455   1.435   4.194   1.477
 8519SOL    HW126456   1.385   4.258   1.418
 8519SOL    HW226457   1.463   4.241   1.560
 8520SOL     OW26458   3.490   3.207   0.203
 8520SOL    HW126459   3.422   3.242   0.138
 8520SOL    HW226460   3.471   3.244   0.294
 8521SOL     OW26461   2.430   4.967   5.799
 8521SOL    HW126462   2.402   4.910   5.722
 8521SOL    HW226463   2.516   4.933   5.836
 8522SOL     OW26464   1.405   6.134   1.132
 8522SOL    HW126465   1.418   6.064   1.203
 8522SOL    HW226466   1.323   6.112   1.079
 8523SOL     OW26467   2.063   6.463   6.984
 8523SOL    HW126468   2.051   6.425   6.892
 8523SOL    HW226469   2.048   6.562   6.981
 8524SOL     OW26470   0.681   2.878   5.599
 8524SOL    HW126471   0.698   2.973   5.627
 8524SOL    HW226472   0.683   2.819   5.679
 8525SOL     OW26473   6.088   4.595   1.706
 8525SOL    HW126474   6.030   4.513   1.710
 8525SOL    HW226475   6.039   4.672   1.747
 8526SOL     OW26476   4.289   6.488   6.790
 8526SOL    HW126477   4.385   6.462   6.778
 8526SOL    HW226478   4.230   6.415   6.758
 8527SOL     OW26479   2.719   1.063   6.395
 8527SOL    HW126480   2.637   1.021   6.434
 8527SOL    HW226481   2.703   1.083   6.298
 8528SOL     OW26482   3.916   0.941   0.100
 8528SOL    HW126483   3.950   1.032   0.125
 8528SOL    HW226484   3.988   0.891   0.052
 8529SOL     OW26485   1.294   6.966   0.514
 8529SOL    HW126486   1.235   7.018   0.576
 8529SOL    HW226487   1.257   6.874   0.503
 8530SOL     OW26488   3.710   4.404   5.558
 8530SOL    HW126489   3.751   4.326   5.509
 8530SOL    HW226490   3.762   4.421   5.641
 8531SOL     OW26491   6.447   5.000   2.344
 8531SOL    HW126492   6.392   4.917   2.352
 8531SOL    HW226493   6.395   5.078   2.378
 8532SOL     OW26494   4.283   4.760   4.596
 8532SOL    HW126495   4.345   4.711   4.658
 8532SOL    HW226496   4.219   4.815   4.649
 8533SOL     OW26497   1.558   6.616   0.412
 8533SOL    HW126498   1.556   6.615   0.511
 8533SOL    HW226499   1.552   6.711   0.379
 8534SOL     OW26500   6.330   2.617   4.240
 8534SOL    HW126501   6.412   2.638   4.187
 8534SOL    HW226502   6.280   2.701   4.259
 8535SOL     OW26503   6.185   0.992   3.543
 8535SOL    HW126504   6.187   0.899   3.580
 8535SOL    HW226505   6.255   1.047   3.589
 8536SOL     OW26506   0.031   2.422   4.608
 8536SOL    HW126507   0.002   2.328   4.592
 8536SOL    HW226508   6.991   2.485   4.574
 8537SOL     OW26509   5.620   0.692   3.176
 8537SOL    HW126510   5.713   0.726   3.170
 8537SOL    HW226511   5.559   0.766   3.203
 8538SOL     OW26512   0.899   1.056   0.065
 8538SOL    HW126513   0.992   1.023   0.047
 8538SOL    HW226514   0.867   1.016   0.151
 8539SOL     OW26515   5.873   1.017   2.940
 8539SOL    HW126516   5.965   0.991   2.910
 8539SOL    HW226517   5.874   1.036   3.038
 8540SOL     OW26518   5.054   0.494   6.130
 8540SOL    HW126519   5.016   0.429   6.196
 8540SOL    HW226520   5.152   0.507   6.148
 8541SOL     OW26521   2.497   1.420   4.312
 8541SOL    HW126522   2.483   1.336   4.365
 8541SOL    HW226523   2.587   1.457   4.332
 8542SOL     OW26524   3.921   5.050   6.760
 8542SOL    HW126525   3.929   4.958   6.720
 8542SOL    HW226526   3.981   5.058   6.839
 8543SOL     OW26527   2.613   1.683   1.071
 8543SOL    HW126528   2.607   1.627   0.989
 8543SOL    HW226529   2.587   1.777   1.049
 8544SOL     OW26530   5.629   2.774   4.102
 8544SOL    HW126531   5.677   2.690   4.128
 8544SOL    HW226532   5.662   2.850   4.157
 8545SOL     OW26533   4.968   0.106   5.372
 8545SOL    HW126534   4.965   0.099   5.472
 8545SOL    HW226535   4.948   0.201   5.345
 8546SOL     OW26536   6.461   2.252   4.102
 8546SOL    HW126537   6.405   2.170   4.104
 8546SOL    HW226538   6.418   2.320   4.041
 8547SOL     OW26539   1.852   6.813   6.472
 8547SOL    HW126540   1.872   6.880   6.544
 8547SOL    HW226541   1.760   6.777   6.485
 8548SOL     OW26542   5.668   2.420   5.675
 8548SOL    HW126543   5.735   2.347   5.688
 8548SOL    HW226544   5.582   2.395   5.718
 8549SOL     OW26545   1.151   2.919   3.699
 8549SOL    HW126546   1.250   2.907   3.691
 8549SOL    HW226547   1.130   2.953   3.791
 8550SOL     OW26548   1.874   4.289   0.054
 8550SOL    HW126549   1.929   4.343   0.118
 8550SOL    HW226550   1.933   4.224   0.005
 8551SOL     OW26551   3.457   3.841   6.542
 8551SOL    HW126552   3.418   3.763   6.589
 8551SOL    HW226553   3.481   3.816   6.448
 8552SOL     OW26554   2.357   0.133   3.923
 8552SOL    HW126555   2.329   0.194   3.849
 8552SOL    HW226556   2.300   0.150   4.003
 8553SOL     OW26557   4.259   4.643   6.510
 8553SOL    HW126558   4.209   4.640   6.597
 8553SOL    HW226559   4.195   4.667   6.436
 8554SOL     OW26560   0.768   5.002   0.379
 8554SOL    HW126561   0.675   5.025   0.352
 8554SOL    HW226562   0.793   5.053   0.461
 8555SOL     OW26563   1.431   0.985   1.878
 8555SOL    HW126564   1.421   0.887   1.860
 8555SOL    HW226565   1.402   1.005   1.972
 8556SOL     OW26566   1.208   6.546   5.191
 8556SOL    HW126567   1.163   6.522   5.277
 8556SOL    HW226568   1.228   6.644   5.191
 8557SOL     OW26569   5.765   0.377   3.131
 8557SOL    HW126570   5.726   0.437   3.062
 8557SOL    HW226571   5.733   0.283   3.115
 8558SOL     OW26572   3.001   5.287   3.318
 8558SOL    HW126573   2.918   5.255   3.365
 8558SOL    HW226574   3.070   5.215   3.320
 8559SOL     OW26575   6.736   0.494   2.329
 8559SOL    HW126576   6.706   0.474   2.422
 8559SOL    HW226577   6.732   0.592   2.313
 8560SOL     OW26578   6.665   6.182   2.278
 8560SOL    HW126579   6.605   6.146   2.349
 8560SOL    HW226580   6.712   6.263   2.313
 8561SOL     OW26581   3.364   0.483   1.761
 8561SOL    HW126582   3.317   0.541   1.828
 8561SOL    HW226583   3.455   0.520   1.743
 8562SOL     OW26584   3.371   5.829   5.271
 8562SOL    HW126585   3.447   5.827   5.206
 8562SOL    HW226586   3.323   5.742   5.270
 8563SOL     OW26587   2.430   4.306   6.917
 8563SOL    HW126588   2.420   4.404   6.936
 8563SOL    HW226589   2.432   4.256   7.003
 8564SOL     OW26590   3.525   1.241   4.363
 8564SOL    HW126591   3.506   1.338   4.352
 8564SOL    HW226592   3.445   1.188   4.334
 8565SOL     OW26593   4.279   5.468   1.063
 8565SOL    HW126594   4.202   5.411   1.094
 8565SOL    HW226595   4.339   5.488   1.141
 8566SOL     OW26596   1.281   0.408   1.226
 8566SOL    HW126597   1.231   0.478   1.174
 8566SOL    HW226598   1.375   0.439   1.241
 8567SOL     OW26599   0.132   2.015   2.615
 8567SOL    HW126600   0.228   2.003   2.640
 8567SOL    HW226601   0.117   1.983   2.522
 8568SOL     OW26602   5.666   1.231   6.026
 8568SOL    HW126603   5.747   1.173   6.016
 8568SOL    HW226604   5.609   1.195   6.100
 8569SOL     OW26605   5.171   1.630   5.882
 8569SOL    HW126606   5.095   1.693   5.898
 8569SOL    HW226607   5.136   1.548   5.836
 8570SOL     OW26608   1.330   2.756   5.360
 8570SOL    HW126609   1.309   2.701   5.279
 8570SOL    HW226610   1.419   2.728   5.397
 8571SOL     OW26611   1.747   5.254   5.443
 8571SOL    HW126612   1.653   5.232   5.417
 8571SOL    HW226613   1.789   5.176   5.489
 8572SOL     OW26614   3.254   5.099   6.937
 8572SOL    HW126615   3.294   5.187   6.962
 8572SOL    HW226616   3.156   5.100   6.955
 8573SOL     OW26617   3.452   6.298   5.827
 8573SOL    HW126618   3.414   6.290   5.920
 8573SOL    HW226619   3.386   6.344   5.769
 8574SOL     OW26620   6.836   5.545   5.429
 8574SOL    HW126621   6.926   5.571   5.465
 8574SOL    HW226622   6.787   5.627   5.402
 8575SOL     OW26623   2.796   2.582   5.334
 8575SOL    HW126624   2.713   2.592   5.390
 8575SOL    HW226625   2.858   2.658   5.353
 8576SOL     OW26626   1.885   5.831   0.132
 8576SOL    HW126627   1.910   5.810   0.038
 8576SOL    HW226628   1.839   5.752   0.173
 8577SOL     OW26629   0.202   6.022   4.275
 8577SOL    HW126630   0.196   5.972   4.189
 8577SOL    HW226631   0.193   5.958   4.352
 8578SOL     OW26632   5.531   0.893   4.870
 8578SOL    HW126633   5.512   0.798   4.896
 8578SOL    HW226634   5.458   0.926   4.809
 8579SOL     OW26635   1.268   0.465   2.794
 8579SOL    HW126636   1.349   0.461   2.853
 8579SOL    HW226637   1.187   0.473   2.851
 8580SOL     OW26638   2.665   6.293   2.768
 8580SOL    HW126639   2.748   6.344   2.746
 8580SOL    HW226640   2.620   6.337   2.846
 8581SOL     OW26641   3.288   3.144   1.932
 8581SOL    HW126642   3.195   3.131   1.968
 8581SOL    HW226643   3.290   3.224   1.873
 8582SOL     OW26644   4.536   4.483   2.582
 8582SOL    HW126645   4.539   4.547   2.506
 8582SOL    HW226646   4.483   4.523   2.657
 8583SOL     OW26647   5.460   0.334   4.826
 8583SOL    HW126648   5.498   0.422   4.797
 8583SOL    HW226649   5.360   0.337   4.820
 8584SOL     OW26650   0.531   3.791   5.872
 8584SOL    HW126651   0.483   3.779   5.785
 8584SOL    HW226652   0.607   3.855   5.858
 8585SOL     OW26653   0.516   5.944   5.766
 8585SOL    HW126654   0.457   5.902   5.834
 8585SOL    HW226655   0.612   5.931   5.791
 8586SOL     OW26656   3.338   0.135   3.115
 8586SOL    HW126657   3.336   0.056   3.177
 8586SOL    HW226658   3.245   0.152   3.080
 8587SOL     OW26659   1.969   0.313   2.852
 8587SOL    HW126660   2.031   0.381   2.811
 8587SOL    HW226661   2.020   0.229   2.871
 8588SOL     OW26662   2.424   0.653   6.873
 8588SOL    HW126663   2.356   0.596   6.919
 8588SOL    HW226664   2.484   0.595   6.818
 8589SOL     OW26665   5.346   2.284   4.567
 8589SOL    HW126666   5.369   2.188   4.554
 8589SOL    HW226667   5.249   2.298   4.545
 8590SOL     OW26668   0.018   6.462   4.002
 8590SOL    HW126669   0.021   6.413   3.914
 8590SOL    HW226670   6.960   6.443   4.047
 8591SOL     OW26671   0.186   4.895   6.541
 8591SOL    HW126672   0.255   4.941   6.485
 8591SOL    HW226673   0.155   4.957   6.613
 8592SOL     OW26674   0.174   3.002   6.466
 8592SOL    HW126675   0.265   2.963   6.481
 8592SOL    HW226676   0.104   2.935   6.492
 8593SOL     OW26677   2.387   0.374   1.787
 8593SOL    HW126678   2.430   0.435   1.854
 8593SOL    HW226679   2.287   0.379   1.798
 8594SOL     OW26680   3.361   2.978   5.355
 8594SOL    HW126681   3.341   2.896   5.408
 8594SOL    HW226682   3.277   3.009   5.310
 8595SOL     OW26683   1.758   2.398   2.616
 8595SOL    HW126684   1.691   2.330   2.647
 8595SOL    HW226685   1.804   2.437   2.696
 8596SOL     OW26686   6.317   5.177   3.832
 8596SOL    HW126687   6.360   5.262   3.863
 8596SOL    HW226688   6.228   5.198   3.792
 8597SOL     OW26689   4.656   0.892   0.964
 8597SOL    HW126690   4.697   0.947   0.891
 8597SOL    HW226691   4.612   0.953   1.030
 8598SOL     OW26692   6.927   6.222   0.719
 8598SOL    HW126693   6.909   6.124   0.708
 8598SOL    HW226694   6.979   6.237   0.803
 8599SOL     OW26695   1.109   2.429   3.963
 8599SOL    HW126696   1.107   2.491   3.885
 8599SOL    HW226697   1.022   2.434   4.012
 8600SOL     OW26698   5.421   5.060   5.603
 8600SOL    HW126699   5.441   5.151   5.639
 8600SOL    HW226700   5.370   5.008   5.672
 8601SOL     OW26701   0.416   0.459   4.892
 8601SOL    HW126702   0.374   0.546   4.917
 8601SOL    HW226703   0.399   0.440   4.796
 8602SOL     OW26704   3.309   5.644   3.218
 8602SOL    HW126705   3.327   5.686   3.307
 8602SOL    HW226706   3.333   5.547   3.222
 8603SOL     OW26707   3.975   5.083   0.308
 8603SOL    HW126708   3.879   5.059   0.296
 8603SOL    HW226709   4.016   5.021   0.376
 8604SOL     OW26710   1.047   3.346   3.670
 8604SOL    HW126711   1.069   3.304   3.758
 8604SOL    HW226712   1.010   3.438   3.686
 8605SOL     OW26713   3.287   5.508   4.813
 8605SOL    HW126714   3.272   5.606   4.807
 8605SOL    HW226715   3.201   5.462   4.833
 8606SOL     OW26716   1.577   3.634   6.153
 8606SOL    HW126717   1.610   3.605   6.063
 8606SOL    HW226718   1.498   3.579   6.179
 8607SOL     OW26719   3.509   5.888   0.889
 8607SOL    HW126720   3.536   5.794   0.869
 8607SOL    HW226721   3.584   5.950   0.866
 8608SOL     OW26722   4.561   4.681   3.146
 8608SOL    HW126723   4.619   4.724   3.077
 8608SOL    HW226724   4.496   4.747   3.182
 8609SOL     OW26725   5.400   1.324   3.267
 8609SOL    HW126726   5.462   1.360   3.337
 8609SOL    HW226727   5.453   1.296   3.187
 8610SOL     OW26728   2.020   2.096   2.278
 8610SOL    HW126729   2.055   2.005   2.296
 8610SOL    HW226730   2.063   2.161   2.341
 8611SOL     OW26731   2.025   2.157   4.281
 8611SOL    HW126732   2.104   2.128   4.227
 8611SOL    HW226733   1.962   2.081   4.293
 8612SOL     OW26734   3.660   3.206   0.810
 8612SOL    HW126735   3.593   3.171   0.875
 8612SOL    HW226736   3.700   3.131   0.758
 8613SOL     OW26737   2.325   2.119   1.011
 8613SOL    HW126738   2.284   2.119   0.919
 8613SOL    HW226739   2.407   2.062   1.010
 8614SOL     OW26740   0.968   3.647   2.311
 8614SOL    HW126741   0.897   3.692   2.366
 8614SOL    HW226742   1.040   3.612   2.372
 8615SOL     OW26743   5.197   2.317   5.437
 8615SOL    HW126744   5.124   2.249   5.432
 8615SOL    HW226745   5.203   2.353   5.530
 8616SOL     OW26746   2.902   4.834   1.503
 8616SOL    HW126747   2.988   4.859   1.459
 8616SOL    HW226748   2.917   4.823   1.601
 8617SOL     OW26749   6.864   0.952   6.145
 8617SOL    HW126750   6.805   1.008   6.203
 8617SOL    HW226751   6.809   0.879   6.103
 8618SOL     OW26752   6.000   6.213   1.136
 8618SOL    HW126753   6.059   6.135   1.117
 8618SOL    HW226754   5.913   6.202   1.089
 8619SOL     OW26755   3.887   4.881   1.965
 8619SOL    HW126756   3.810   4.837   2.010
 8619SOL    HW226757   3.872   4.980   1.964
 8620SOL     OW26758   0.963   0.263   3.473
 8620SOL    HW126759   0.927   0.243   3.564
 8620SOL    HW226760   1.020   0.187   3.443
 8621SOL     OW26761   6.211   1.268   2.886
 8621SOL    HW126762   6.130   1.318   2.856
 8621SOL    HW226763   6.293   1.319   2.861
 8622SOL     OW26764   4.733   3.000   0.020
 8622SOL    HW126765   4.728   3.066   0.095
 8622SOL    HW226766   4.799   2.928   0.043
 8623SOL     OW26767   0.838   3.969   3.352
 8623SOL    HW126768   0.825   4.066   3.331
 8623SOL    HW226769   0.836   3.915   3.268
 8624SOL     OW26770   0.964   3.931   4.824
 8624SOL    HW126771   0.900   3.923   4.748
 8624SOL    HW226772   0.987   3.840   4.858
 8625SOL     OW26773   4.661   0.135   5.151
 8625SOL    HW126774   4.647   0.047   5.196
 8625SOL    HW226775   4.641   0.209   5.216
 8626SOL     OW26776   3.770   2.916   5.248
 8626SOL    HW126777   3.795   2.846   5.316
 8626SOL    HW226778   3.799   3.006   5.281
 8627SOL     OW26779   0.578   1.338   3.215
 8627SOL    HW126780   0.646   1.399   3.174
 8627SOL    HW226781   0.539   1.381   3.297
 8628SOL     OW26782   6.259   6.719   1.630
 8628SOL    HW126783   6.299   6.647   1.687
 8628SOL    HW226784   6.167   6.740   1.662
 8629SOL     OW26785   1.491   5.180   5.380
 8629SOL    HW126786   1.417   5.196   5.314
 8629SOL    HW226787   1.461   5.114   5.449
 8630SOL     OW26788   5.520   4.485   3.558
 8630SOL    HW126789   5.586   4.492   3.483
 8630SOL    HW226790   5.475   4.574   3.571
 8631SOL     OW26791   2.525   5.887   6.236
 8631SOL    HW126792   2.576   5.954   6.183
 8631SOL    HW226793   2.560   5.796   6.217
 8632SOL     OW26794   3.564   6.565   3.836
 8632SOL    HW126795   3.601   6.477   3.866
 8632SOL    HW226796   3.472   6.577   3.873
 8633SOL     OW26797   5.930   1.640   4.566
 8633SOL    HW126798   5.835   1.652   4.596
 8633SOL    HW226799   5.932   1.583   4.484
 8634SOL     OW26800   5.396   3.413   0.198
 8634SOL    HW126801   5.370   3.357   0.277
 8634SOL    HW226802   5.493   3.437   0.205
 8635SOL     OW26803   6.027   4.488   6.283
 8635SOL    HW126804   5.934   4.522   6.296
 8635SOL    HW226805   6.042   4.466   6.187
 8636SOL     OW26806   4.983   6.125   0.712
 8636SOL    HW126807   4.915   6.159   0.777
 8636SOL    HW226808   5.044   6.060   0.758
 8637SOL     OW26809   2.087   0.951   7.028
 8637SOL    HW126810   2.145   0.929   6.950
 8637SOL    HW226811   1.992   0.958   6.998
 8638SOL     OW26812   3.428   2.945   6.694
 8638SOL    HW126813   3.345   2.899   6.723
 8638SOL    HW226814   3.500   2.878   6.678
 8639SOL     OW26815   5.307   2.141   1.794
 8639SOL    HW126816   5.346   2.229   1.821
 8639SOL    HW226817   5.335   2.070   1.859
 8640SOL     OW26818   4.767   3.841   0.757
 8640SOL    HW126819   4.716   3.789   0.689
 8640SOL    HW226820   4.854   3.796   0.776
 8641SOL     OW26821   6.112   4.864   3.921
 8641SOL    HW126822   6.039   4.797   3.913
 8641SOL    HW226823   6.077   4.945   3.969
 8642SOL     OW26824   3.241   0.845   3.233
 8642SOL    HW126825   3.278   0.938   3.236
 8642SOL    HW226826   3.156   0.841   3.285
 8643SOL     OW26827   3.475   0.955   6.619
 8643SOL    HW126828   3.441   1.038   6.664
 8643SOL    HW226829   3.447   0.875   6.671
 8644SOL     OW26830   4.817   2.352   5.597
 8644SOL    HW126831   4.720   2.328   5.600
 8644SOL    HW226832   4.827   2.451   5.607
 8645SOL     OW26833   4.466   4.384   1.087
 8645SOL    HW126834   4.558   4.395   1.049
 8645SOL    HW226835   4.465   4.414   1.182
 8646SOL     OW26836   6.362   0.777   2.290
 8646SOL    HW126837   6.427   0.808   2.221
 8646SOL    HW226838   6.356   0.845   2.363
 8647SOL     OW26839   2.579   5.316   6.030
 8647SOL    HW126840   2.668   5.273   6.044
 8647SOL    HW226841   2.510   5.245   6.016
 8648SOL     OW26842   6.369   0.559   3.452
 8648SOL    HW126843   6.376   0.512   3.540
 8648SOL    HW226844   6.424   0.510   3.385
 8649SOL     OW26845   5.386   4.521   6.376
 8649SOL    HW126846   5.369   4.612   6.339
 8649SOL    HW226847   5.400   4.456   6.301
 8650SOL     OW26848   1.976   4.538   6.240
 8650SOL    HW126849   2.034   4.458   6.225
 8650SOL    HW226850   1.935   4.565   6.153
 8651SOL     OW26851   3.297   0.891   0.614
 8651SOL    HW126852   3.390   0.859   0.595
 8651SOL    HW226853   3.262   0.845   0.695
 8652SOL     OW26854   1.886   3.944   3.915
 8652SOL    HW126855   1.886   3.976   3.820
 8652SOL    HW226856   1.978   3.914   3.940
 8653SOL     OW26857   6.150   1.053   6.699
 8653SOL    HW126858   6.120   0.958   6.695
 8653SOL    HW226859   6.082   1.112   6.655
 8654SOL     OW26860   1.180   4.908   0.996
 8654SOL    HW126861   1.256   4.964   0.964
 8654SOL    HW226862   1.114   4.893   0.922
 8655SOL     OW26863   6.512   1.472   3.884
 8655SOL    HW126864   6.592   1.429   3.840
 8655SOL    HW226865   6.543   1.542   3.948
 8656SOL     OW26866   6.124   0.789   0.604
 8656SOL    HW126867   6.171   0.877   0.616
 8656SOL    HW226868   6.152   0.749   0.517
 8657SOL     OW26869   5.025   4.811   0.397
 8657SOL    HW126870   5.119   4.809   0.364
 8657SOL    HW226871   5.024   4.848   0.490
 8658SOL     OW26872   4.280   6.676   6.983
 8658SOL    HW126873   4.191   6.722   6.976
 8658SOL    HW226874   4.296   6.621   6.901
 8659SOL     OW26875   4.671   1.953   3.235
 8659SOL    HW126876   4.766   1.983   3.227
 8659SOL    HW226877   4.667   1.873   3.296
 8660SOL     OW26878   5.800   3.745   0.491
 8660SOL    HW126879   5.888   3.716   0.453
 8660SOL    HW226880   5.813   3.829   0.543
 8661SOL     OW26881   5.798   4.005   0.867
 8661SOL    HW126882   5.787   3.919   0.918
 8661SOL    HW226883   5.795   3.986   0.769
 8662SOL     OW26884   4.353   5.905   0.785
 8662SOL    HW126885   4.355   5.830   0.719
 8662SOL    HW226886   4.389   5.873   0.873
 8663SOL     OW26887   2.901   5.600   1.565
 8663SOL    HW126888   2.901   5.507   1.603
 8663SOL    HW226889   2.991   5.622   1.529
 8664SOL     OW26890   2.864   6.129   1.366
 8664SOL    HW126891   2.952   6.082   1.360
 8664SOL    HW226892   2.806   6.083   1.434
 8665SOL     OW26893   5.619   6.147   4.754
 8665SOL    HW126894   5.674   6.102   4.684
 8665SOL    HW226895   5.568   6.078   4.806
 8666SOL     OW26896   4.704   1.514   3.891
 8666SOL    HW126897   4.644   1.491   3.968
 8666SOL    HW226898   4.650   1.553   3.817
 8667SOL     OW26899   5.086   2.778   3.029
 8667SOL    HW126900   5.037   2.841   2.969
 8667SOL    HW226901   5.054   2.789   3.123
 8668SOL     OW26902   5.691   3.610   2.970
 8668SOL    HW126903   5.628   3.683   2.996
 8668SOL    HW226904   5.750   3.642   2.896
 8669SOL     OW26905   2.208   6.366   0.470
 8669SOL    HW126906   2.271   6.333   0.400
 8669SOL    HW226907   2.116   6.332   0.451
 8670SOL     OW26908   3.536   4.623   5.518
 8670SOL    HW126909   3.601   4.547   5.520
 8670SOL    HW226910   3.465   4.604   5.450
 8671SOL     OW26911   5.416   2.050   3.508
 8671SOL    HW126912   5.421   2.144   3.473
 8671SOL    HW226913   5.399   1.987   3.433
 8672SOL     OW26914   1.977   4.918   4.012
 8672SOL    HW126915   2.028   4.944   3.930
 8672SOL    HW226916   2.038   4.922   4.092
 8673SOL     OW26917   6.644   2.767   0.118
 8673SOL    HW126918   6.546   2.757   0.102
 8673SOL    HW226919   6.694   2.740   0.036
 8674SOL     OW26920   5.410   5.369   3.303
 8674SOL    HW126921   5.361   5.314   3.236
 8674SOL    HW226922   5.404   5.327   3.393
 8675SOL     OW26923   2.962   2.117   4.181
 8675SOL    HW126924   2.891   2.187   4.188
 8675SOL    HW226925   2.981   2.079   4.271
 8676SOL     OW26926   4.228   0.417   2.663
 8676SOL    HW126927   4.278   0.470   2.731
 8676SOL    HW226928   4.138   0.459   2.647
 8677SOL     OW26929   2.422   6.065   5.703
 8677SOL    HW126930   2.483   6.067   5.782
 8677SOL    HW226931   2.427   5.976   5.659
 8678SOL     OW26932   6.541   0.431   1.092
 8678SOL    HW126933   6.466   0.393   1.146
 8678SOL    HW226934   6.617   0.454   1.152
 8679SOL     OW26935   6.835   2.365   3.660
 8679SOL    HW126936   6.898   2.381   3.736
 8679SOL    HW226937   6.819   2.451   3.611
 8680SOL     OW26938   1.302   3.959   1.473
 8680SOL    HW126939   1.352   4.045   1.471
 8680SOL    HW226940   1.237   3.959   1.549
 8681SOL     OW26941   4.815   5.413   6.958
 8681SOL    HW126942   4.811   5.480   0.001
 8681SOL    HW226943   4.783   5.455   6.873
 8682SOL     OW26944   4.993   6.880   1.168
 8682SOL    HW126945   4.929   6.934   1.113
 8682SOL    HW226946   4.944   6.838   1.245
 8683SOL     OW26947   1.927   2.427   2.397
 8683SOL    HW126948   1.867   2.421   2.477
 8683SOL    HW226949   1.888   2.492   2.331
 8684SOL     OW26950   0.823   2.582   4.760
 8684SOL    HW126951   0.789   2.675   4.774
 8684SOL    HW226952   0.818   2.531   4.846
 8685SOL     OW26953   0.287   2.133   5.868
 8685SOL    HW126954   0.320   2.050   5.914
 8685SOL    HW226955   0.344   2.152   5.788
 8686SOL     OW26956   6.683   1.074   1.630
 8686SOL    HW126957   6.695   1.032   1.720
 8686SOL    HW226958   6.737   1.157   1.624
 8687SOL     OW26959   4.230   5.559   2.218
 8687SOL    HW126960   4.132   5.577   2.213
 8687SOL    HW226961   4.276   5.637   2.260
 8688SOL     OW26962   3.101   6.038   0.030
 8688SOL    HW126963   3.088   6.041   0.129
 8688SOL    HW226964   3.013   6.018   7.016
 8689SOL     OW26965   3.502   3.920   1.825
 8689SOL    HW126966   3.526   3.950   1.917
 8689SOL    HW226967   3.493   3.820   1.823
 8690SOL     OW26968   1.568   3.216   3.082
 8690SOL    HW126969   1.469   3.208   3.078
 8690SOL    HW226970   1.605   3.222   2.989
 8691SOL     OW26971   3.339   1.981   6.450
 8691SOL    HW126972   3.341   2.079   6.431
 8691SOL    HW226973   3.336   1.967   6.549
 8692SOL     OW26974   1.651   1.285   3.874
 8692SOL    HW126975   1.642   1.236   3.960
 8692SOL    HW226976   1.634   1.382   3.889
 8693SOL     OW26977   6.971   1.224   6.947
 8693SOL    HW126978   6.875   1.219   6.974
 8693SOL    HW226979   7.010   1.132   6.943
 8694SOL     OW26980   4.221   1.390   5.011
 8694SOL    HW126981   4.192   1.485   4.997
 8694SOL    HW226982   4.141   1.331   5.014
 8695SOL     OW26983   3.817   2.472   6.099
 8695SOL    HW126984   3.789   2.420   6.019
 8695SOL    HW226985   3.763   2.556   6.106
 8696SOL     OW26986   2.269   5.546   0.525
 8696SOL    HW126987   2.331   5.509   0.455
 8696SOL    HW226988   2.179   5.561   0.485
 8697SOL     OW26989   6.671   2.765   0.368
 8697SOL    HW126990   6.680   2.670   0.397
 8697SOL    HW226991   6.681   2.772   0.269
 8698SOL     OW26992   5.675   5.960   4.538
 8698SOL    HW126993   5.580   5.941   4.511
 8698SOL    HW226994   5.729   5.877   4.529
 8699SOL     OW26995   2.169   2.310   5.489
 8699SOL    HW126996   2.176   2.376   5.414
 8699SOL    HW226997   2.224   2.229   5.466
 8700SOL     OW26998   0.796   0.472   4.272
 8700SOL    HW126999   0.782   0.375   4.253
 8700SOL    HW227000   0.878   0.504   4.224
 8701SOL     OW27001   1.078   0.819   0.363
 8701SOL    HW127002   1.078   0.867   0.451
 8701SOL    HW227003   1.111   0.725   0.377
 8702SOL     OW27004   5.357   4.879   1.203
 8702SOL    HW127005   5.434   4.874   1.266
 8702SOL    HW227006   5.391   4.888   1.110
 8703SOL     OW27007   3.290   5.204   0.562
 8703SOL    HW127008   3.264   5.154   0.645
 8703SOL    HW227009   3.242   5.164   0.484
 8704SOL     OW27010   6.894   3.615   2.578
 8704SOL    HW127011   6.812   3.590   2.527
 8704SOL    HW227012   6.926   3.705   2.546
 8705SOL     OW27013   5.123   1.056   6.760
 8705SOL    HW127014   5.050   1.114   6.724
 8705SOL    HW227015   5.136   1.075   6.858
 8706SOL     OW27016   4.790   2.509   6.180
 8706SOL    HW127017   4.772   2.495   6.083
 8706SOL    HW227018   4.802   2.421   6.225
 8707SOL     OW27019   7.018   2.828   0.034
 8707SOL    HW127020   6.953   2.883   0.087
 8707SOL    HW227021   6.968   2.778   6.993
 8708SOL     OW27022   4.709   2.263   2.241
 8708SOL    HW127023   4.724   2.340   2.178
 8708SOL    HW227024   4.783   2.260   2.308
 8709SOL     OW27025   6.798   5.945   0.199
 8709SOL    HW127026   6.745   6.007   0.142
 8709SOL    HW227027   6.813   5.987   0.288
 8710SOL     OW27028   2.225   3.077   4.123
 8710SOL    HW127029   2.184   3.084   4.214
 8710SOL    HW227030   2.294   3.004   4.124
 8711SOL     OW27031   1.088   6.360   3.389
 8711SOL    HW127032   1.081   6.293   3.314
 8711SOL    HW227033   1.023   6.335   3.461
 8712SOL     OW27034   3.793   2.148   5.064
 8712SOL    HW127035   3.746   2.075   5.113
 8712SOL    HW227036   3.822   2.218   5.129
 8713SOL     OW27037   0.598   3.747   3.993
 8713SOL    HW127038   0.682   3.800   4.002
 8713SOL    HW227039   0.581   3.697   4.078
 8714SOL     OW27040   1.096   1.204   5.798
 8714SOL    HW127041   1.007   1.231   5.764
 8714SOL    HW227042   1.086   1.160   5.888
 8715SOL     OW27043   4.117   0.624   1.151
 8715SOL    HW127044   4.095   0.539   1.200
 8715SOL    HW227045   4.075   0.701   1.198
 8716SOL     OW27046   0.465   0.244   0.878
 8716SOL    HW127047   0.405   0.316   0.845
 8716SOL    HW227048   0.410   0.169   0.917
 8717SOL     OW27049   3.239   3.532   3.591
 8717SOL    HW127050   3.277   3.508   3.501
 8717SOL    HW227051   3.182   3.614   3.581
 8718SOL     OW27052   0.849   4.068   4.610
 8718SOL    HW127053   0.922   4.136   4.601
 8718SOL    HW227054   0.832   4.026   4.520
 8719SOL     OW27055   3.173   0.997   6.336
 8719SOL    HW127056   3.197   1.094   6.339
 8719SOL    HW227057   3.178   0.964   6.241
 8720SOL     OW27058   6.415   5.249   5.619
 8720SOL    HW127059   6.340   5.204   5.668
 8720SOL    HW227060   6.453   5.185   5.552
 8721SOL     OW27061   0.383   2.202   2.555
 8721SOL    HW127062   0.346   2.294   2.549
 8721SOL    HW227063   0.363   2.152   2.471
 8722SOL     OW27064   4.232   1.443   6.941
 8722SOL    HW127065   4.258   1.425   6.846
 8722SOL    HW227066   4.176   1.526   6.945
 8723SOL     OW27067   4.692   5.557   1.007
 8723SOL    HW127068   4.661   5.622   0.937
 8723SOL    HW227069   4.737   5.480   0.963
 8724SOL     OW27070   5.660   0.356   5.872
 8724SOL    HW127071   5.569   0.323   5.845
 8724SOL    HW227072   5.653   0.452   5.901
 8725SOL     OW27073   2.111   6.917   6.734
 8725SOL    HW127074   2.019   6.952   6.711
 8725SOL    HW227075   2.161   6.988   6.783
 8726SOL     OW27076   6.525   0.077   1.929
 8726SOL    HW127077   6.595   0.082   1.999
 8726SOL    HW227078   6.474   7.021   1.938
 8727SOL     OW27079   0.360   6.170   2.284
 8727SOL    HW127080   0.367   6.070   2.291
 8727SOL    HW227081   0.338   6.207   2.374
 8728SOL     OW27082   4.686   0.368   4.019
 8728SOL    HW127083   4.708   0.457   4.059
 8728SOL    HW227084   4.770   0.321   3.992
 8729SOL     OW27085   4.822   6.172   4.126
 8729SOL    HW127086   4.728   6.203   4.122
 8729SOL    HW227087   4.871   6.220   4.199
 8730SOL     OW27088   6.371   4.147   2.370
 8730SOL    HW127089   6.350   4.074   2.305
 8730SOL    HW227090   6.462   4.183   2.350
 8731SOL     OW27091   2.300   2.829   2.638
 8731SOL    HW127092   2.380   2.770   2.630
 8731SOL    HW227093   2.239   2.794   2.709
 8732SOL     OW27094   5.344   4.625   1.776
 8732SOL    HW127095   5.370   4.539   1.732
 8732SOL    HW227096   5.265   4.664   1.729
 8733SOL     OW27097   1.630   5.690   1.345
 8733SOL    HW127098   1.662   5.746   1.421
 8733SOL    HW227099   1.659   5.596   1.357
 8734SOL     OW27100   1.674   4.951   2.287
 8734SOL    HW127101   1.684   5.022   2.217
 8734SOL    HW227102   1.758   4.945   2.341
 8735SOL     OW27103   0.997   2.135   0.637
 8735SOL    HW127104   1.038   2.099   0.552
 8735SOL    HW227105   1.062   2.195   0.683
 8736SOL     OW27106   0.778   6.214   5.996
 8736SOL    HW127107   0.784   6.153   5.917
 8736SOL    HW227108   0.694   6.197   6.046
 8737SOL     OW27109   2.204   6.740   6.224
 8737SOL    HW127110   2.260   6.746   6.307
 8737SOL    HW227111   2.237   6.806   6.157
 8738SOL     OW27112   2.210   5.403   4.439
 8738SOL    HW127113   2.222   5.376   4.344
 8738SOL    HW227114   2.298   5.398   4.486
 8739SOL     OW27115   5.948   5.620   6.116
 8739SOL    HW127116   6.009   5.670   6.178
 8739SOL    HW227117   5.983   5.627   6.023
 8740SOL     OW27118   5.332   1.117   5.466
 8740SOL    HW127119   5.244   1.072   5.482
 8740SOL    HW227120   5.406   1.052   5.479
 8741SOL     OW27121   2.707   1.318   1.537
 8741SOL    HW127122   2.771   1.341   1.464
 8741SOL    HW227123   2.635   1.387   1.542
 8742SOL     OW27124   5.908   6.375   1.399
 8742SOL    HW127125   5.928   6.473   1.402
 8742SOL    HW227126   5.940   6.338   1.312
 8743SOL     OW27127   1.464   0.665   2.180
 8743SOL    HW127128   1.398   0.740   2.187
 8743SOL    HW227129   1.555   0.703   2.160
 8744SOL     OW27130   3.347   2.535   6.612
 8744SOL    HW127131   3.318   2.530   6.516
 8744SOL    HW227132   3.279   2.489   6.669
 8745SOL     OW27133   5.981   2.933   6.176
 8745SOL    HW127134   5.945   2.861   6.236
 8745SOL    HW227135   6.053   2.983   6.224
 8746SOL     OW27136   5.253   3.728   4.987
 8746SOL    HW127137   5.349   3.720   4.959
 8746SOL    HW227138   5.248   3.760   5.081
 8747SOL     OW27139   0.815   2.556   2.399
 8747SOL    HW127140   0.894   2.515   2.446
 8747SOL    HW227141   0.799   2.508   2.313
 8748SOL     OW27142   6.891   1.575   5.185
 8748SOL    HW127143   6.884   1.647   5.254
 8748SOL    HW227144   6.881   1.486   5.229
 8749SOL     OW27145   2.737   0.614   6.236
 8749SOL    HW127146   2.767   0.633   6.330
 8749SOL    HW227147   2.817   0.612   6.176
 8750SOL     OW27148   3.469   3.448   5.729
 8750SOL    HW127149   3.470   3.371   5.665
 8750SOL    HW227150   3.484   3.533   5.678
 8751SOL     OW27151   6.355   0.996   2.847
 8751SOL    HW127152   6.310   1.068   2.902
 8751SOL    HW227153   6.318   0.907   2.874
 8752SOL     OW27154   2.406   3.930   0.677
 8752SOL    HW127155   2.487   3.893   0.721
 8752SOL    HW227156   2.342   3.962   0.746
 8753SOL     OW27157   4.468   2.042   5.136
 8753SOL    HW127158   4.383   2.091   5.116
 8753SOL    HW227159   4.471   1.957   5.083
 8754SOL     OW27160   1.524   3.069   5.196
 8754SOL    HW127161   1.506   3.148   5.255
 8754SOL    HW227162   1.580   3.098   5.118
 8755SOL     OW27163   2.431   0.289   0.791
 8755SOL    HW127164   2.438   0.193   0.819
 8755SOL    HW227165   2.407   0.294   0.694
 8756SOL     OW27166   1.645   3.174   3.375
 8756SOL    HW127167   1.636   3.153   3.277
 8756SOL    HW227168   1.691   3.098   3.421
 8757SOL     OW27169   4.176   6.165   5.845
 8757SOL    HW127170   4.222   6.253   5.836
 8757SOL    HW227171   4.226   6.107   5.910
 8758SOL     OW27172   4.838   6.441   2.659
 8758SOL    HW127173   4.795   6.492   2.733
 8758SOL    HW227174   4.880   6.505   2.594
 8759SOL     OW27175   4.374   2.284   0.675
 8759SOL    HW127176   4.377   2.328   0.764
 8759SOL    HW227177   4.286   2.238   0.663
 8760SOL     OW27178   1.099   1.431   4.927
 8760SOL    HW127179   1.044   1.357   4.889
 8760SOL    HW227180   1.183   1.441   4.873
 8761SOL     OW27181   5.353   2.374   2.509
 8761SOL    HW127182   5.420   2.330   2.569
 8761SOL    HW227183   5.335   2.315   2.431
 8762SOL     OW27184   0.663   4.051   2.260
 8762SOL    HW127185   0.741   4.030   2.319
 8762SOL    HW227186   0.656   4.150   2.249
 8763SOL     OW27187   6.554   6.242   6.053
 8763SOL    HW127188   6.506   6.283   6.130
 8763SOL    HW227189   6.491   6.229   5.977
 8764SOL     OW27190   4.729   1.113   4.726
 8764SOL    HW127191   4.769   1.114   4.818
 8764SOL    HW227192   4.740   1.022   4.686
 8765SOL     OW27193   5.587   6.847   5.595
 8765SOL    HW127194   5.583   6.777   5.523
 8765SOL    HW227195   5.554   6.934   5.559
 8766SOL     OW27196   4.525   4.446   3.819
 8766SOL    HW127197   4.446   4.507   3.806
 8766SOL    HW227198   4.562   4.459   3.911
 8767SOL     OW27199   4.346   6.967   3.128
 8767SOL    HW127200   4.404   7.003   3.055
 8767SOL    HW227201   4.370   7.011   3.215
 8768SOL     OW27202   1.089   3.320   0.558
 8768SOL    HW127203   1.003   3.272   0.543
 8768SOL    HW227204   1.075   3.399   0.617
 8769SOL     OW27205   0.879   0.448   3.925
 8769SOL    HW127206   0.952   0.473   3.988
 8769SOL    HW227207   0.829   0.531   3.898
 8770SOL     OW27208   5.261   4.162   2.328
 8770SOL    HW127209   5.306   4.185   2.414
 8770SOL    HW227210   5.167   4.196   2.329
 8771SOL     OW27211   1.333   0.253   6.477
 8771SOL    HW127212   1.275   0.276   6.556
 8771SOL    HW227213   1.291   0.287   6.393
 8772SOL     OW27214   4.699   6.736   6.869
 8772SOL    HW127215   4.674   6.786   6.952
 8772SOL    HW227216   4.758   6.659   6.893
 8773SOL     OW27217   4.662   2.753   3.747
 8773SOL    HW127218   4.709   2.698   3.817
 8773SOL    HW227219   4.569   2.720   3.736
 8774SOL     OW27220   1.637   1.666   6.610
 8774SOL    HW127221   1.715   1.627   6.561
 8774SOL    HW227222   1.554   1.650   6.558
 8775SOL     OW27223   6.238   0.031   5.524
 8775SOL    HW127224   6.283   6.981   5.486
 8775SOL    HW227225   6.141   0.031   5.500
 8776SOL     OW27226   4.017   3.692   5.961
 8776SOL    HW127227   4.083   3.641   6.015
 8776SOL    HW227228   4.013   3.787   5.993
 8777SOL     OW27229   6.795   3.951   1.659
 8777SOL    HW127230   6.741   4.032   1.681
 8777SOL    HW227231   6.756   3.905   1.579
 8778SOL     OW27232   6.560   2.550   4.775
 8778SOL    HW127233   6.527   2.588   4.689
 8778SOL    HW227234   6.538   2.452   4.780
 8779SOL     OW27235   3.065   5.359   2.286
 8779SOL    HW127236   3.055   5.301   2.366
 8779SOL    HW227237   3.122   5.312   2.218
 8780SOL     OW27238   0.921   6.028   2.931
 8780SOL    HW127239   0.956   6.072   2.849
 8780SOL    HW227240   0.905   5.931   2.913
 8781SOL     OW27241   6.396   1.678   3.297
 8781SOL    HW127242   6.471   1.693   3.361
 8781SOL    HW227243   6.315   1.647   3.347
 8782SOL     OW27244   5.072   6.796   1.933
 8782SOL    HW127245   5.001   6.853   1.973
 8782SOL    HW227246   5.085   6.821   1.837
 8783SOL     OW27247   6.957   3.862   3.545
 8783SOL    HW127248   6.872   3.846   3.495
 8783SOL    HW227249   6.939   3.864   3.643
 8784SOL     OW27250   5.682   4.287   6.750
 8784SOL    HW127251   5.661   4.191   6.733
 8784SOL    HW227252   5.781   4.299   6.753
 8785SOL     OW27253   6.586   3.877   6.641
 8785SOL    HW127254   6.671   3.860   6.692
 8785SOL    HW227255   6.510   3.834   6.690
 8786SOL     OW27256   1.671   0.116   0.246
 8786SOL    HW127257   1.742   0.118   0.175
 8786SOL    HW227258   1.713   0.093   0.334
 8787SOL     OW27259   2.691   2.507   1.771
 8787SOL    HW127260   2.687   2.426   1.713
 8787SOL    HW227261   2.775   2.505   1.825
 8788SOL     OW27262   0.254   2.225   6.131
 8788SOL    HW127263   0.295   2.199   6.044
 8788SOL    HW227264   0.212   2.315   6.123
 8789SOL     OW27265   5.974   6.968   5.455
 8789SOL    HW127266   5.927   7.014   5.531
 8789SOL    HW227267   6.024   6.889   5.490
 8790SOL     OW27268   0.179   0.734   6.773
 8790SOL    HW127269   0.166   0.647   6.821
 8790SOL    HW227270   0.277   0.752   6.762
 8791SOL     OW27271   6.037   6.759   5.162
 8791SOL    HW127272   5.986   6.704   5.096
 8791SOL    HW227273   6.006   6.854   5.157
 8792SOL     OW27274   3.691   6.650   3.176
 8792SOL    HW127275   3.594   6.627   3.181
 8792SOL    HW227276   3.722   6.643   3.081
 8793SOL     OW27277   1.798   4.816   3.189
 8793SOL    HW127278   1.699   4.827   3.206
 8793SOL    HW227279   1.812   4.774   3.099
 8794SOL     OW27280   4.307   6.375   1.625
 8794SOL    HW127281   4.273   6.363   1.719
 8794SOL    HW227282   4.403   6.348   1.621
 8795SOL     OW27283   1.513   6.047   5.560
 8795SOL    HW127284   1.475   6.031   5.469
 8795SOL    HW227285   1.612   6.054   5.554
 8796SOL     OW27286   4.540   2.017   4.346
 8796SOL    HW127287   4.484   2.098   4.360
 8796SOL    HW227288   4.637   2.042   4.351
 8797SOL     OW27289   0.893   6.792   5.704
 8797SOL    HW127290   0.945   6.709   5.722
 8797SOL    HW227291   0.873   6.799   5.606
 8798SOL     OW27292   5.361   5.902   5.789
 8798SOL    HW127293   5.365   5.831   5.860
 8798SOL    HW227294   5.294   5.971   5.815
 8799SOL     OW27295   2.117   4.633   3.944
 8799SOL    HW127296   2.052   4.681   4.003
 8799SOL    HW227297   2.207   4.632   3.988
 8800SOL     OW27298   6.028   4.397   5.514
 8800SOL    HW127299   6.107   4.390   5.453
 8800SOL    HW227300   5.947   4.424   5.462
 8801SOL     OW27301   0.696   1.842   4.888
 8801SOL    HW127302   0.748   1.917   4.928
 8801SOL    HW227303   0.749   1.800   4.814
 8802SOL     OW27304   1.999   0.027   1.008
 8802SOL    HW127305   2.096   0.024   1.035
 8802SOL    HW227306   1.953   0.102   1.056
 8803SOL     OW27307   0.083   5.306   6.425
 8803SOL    HW127308   0.080   5.344   6.332
 8803SOL    HW227309   0.176   5.275   6.444
 8804SOL     OW27310   3.207   0.454   2.453
 8804SOL    HW127311   3.115   0.491   2.463
 8804SOL    HW227312   3.201   0.356   2.432
 8805SOL     OW27313   2.804   6.916   3.954
 8805SOL    HW127314   2.801   6.819   3.979
 8805SOL    HW227315   2.886   6.933   3.899
 8806SOL     OW27316   2.592   4.957   2.241
 8806SOL    HW127317   2.560   4.993   2.328
 8806SOL    HW227318   2.659   4.885   2.258
 8807SOL     OW27319   5.267   0.297   6.977
 8807SOL    HW127320   5.224   0.256   6.896
 8807SOL    HW227321   5.220   0.266   0.029
 8808SOL     OW27322   5.824   2.321   6.903
 8808SOL    HW127323   5.737   2.290   6.865
 8808SOL    HW227324   5.839   2.278   6.992
 8809SOL     OW27325   4.342   5.535   3.722
 8809SOL    HW127326   4.259   5.521   3.777
 8809SOL    HW227327   4.374   5.629   3.733
 8810SOL     OW27328   5.162   0.673   5.918
 8810SOL    HW127329   5.125   0.633   6.002
 8810SOL    HW227330   5.231   0.741   5.941
 8811SOL     OW27331   2.803   1.443   3.953
 8811SOL    HW127332   2.772   1.443   3.858
 8811SOL    HW227333   2.725   1.422   4.013
 8812SOL     OW27334   2.298   0.146   1.252
 8812SOL    HW127335   2.365   0.085   1.293
 8812SOL    HW227336   2.261   0.207   1.323
 8813SOL     OW27337   1.065   4.700   1.974
 8813SOL    HW127338   1.012   4.782   1.953
 8813SOL    HW227339   1.072   4.643   1.893
 8814SOL     OW27340   5.661   6.788   0.986
 8814SOL    HW127341   5.608   6.872   0.979
 8814SOL    HW227342   5.742   6.794   0.927
 8815SOL     OW27343   6.716   6.396   0.634
 8815SOL    HW127344   6.775   6.334   0.684
 8815SOL    HW227345   6.739   6.393   0.537
 8816SOL     OW27346   1.263   0.590   6.997
 8816SOL    HW127347   1.187   0.526   6.992
 8816SOL    HW227348   1.349   0.540   7.006
 8817SOL     OW27349   1.135   5.923   4.583
 8817SOL    HW127350   1.167   5.925   4.678
 8817SOL    HW227351   1.050   5.872   4.578
 8818SOL     OW27352   0.379   3.694   4.635
 8818SOL    HW127353   0.405   3.784   4.602
 8818SOL    HW227354   0.382   3.692   4.735
 8819SOL     OW27355   5.495   4.891   4.987
 8819SOL    HW127356   5.496   4.970   5.049
 8819SOL    HW227357   5.589   4.869   4.962
 8820SOL     OW27358   1.797   0.591   5.280
 8820SOL    HW127359   1.850   0.534   5.218
 8820SOL    HW227360   1.830   0.685   5.276
 8821SOL     OW27361   3.070   6.068   0.279
 8821SOL    HW127362   3.154   6.087   0.329
 8821SOL    HW227363   2.997   6.126   0.314
 8822SOL     OW27364   0.772   6.884   4.885
 8822SOL    HW127365   0.717   6.838   4.814
 8822SOL    HW227366   0.711   6.936   4.945
 8823SOL     OW27367   2.541   0.786   1.260
 8823SOL    HW127368   2.462   0.780   1.321
 8823SOL    HW227369   2.613   0.840   1.303
 8824SOL     OW27370   0.826   3.131   1.177
 8824SOL    HW127371   0.729   3.150   1.167
 8824SOL    HW227372   0.859   3.082   1.096
 8825SOL     OW27373   1.538   0.684   2.704
 8825SOL    HW127374   1.512   0.634   2.787
 8825SOL    HW227375   1.504   0.636   2.623
 8826SOL     OW27376   6.432   3.385   0.832
 8826SOL    HW127377   6.371   3.437   0.892
 8826SOL    HW227378   6.524   3.424   0.836
 8827SOL     OW27379   3.702   1.265   3.206
 8827SOL    HW127380   3.730   1.359   3.187
 8827SOL    HW227381   3.735   1.238   3.297
 8828SOL     OW27382   4.560   5.178   5.592
 8828SOL    HW127383   4.484   5.130   5.549
 8828SOL    HW227384   4.625   5.208   5.522
 8829SOL     OW27385   6.448   2.402   0.585
 8829SOL    HW127386   6.370   2.381   0.643
 8829SOL    HW227387   6.445   2.346   0.503
 8830SOL     OW27388   1.198   1.835   2.193
 8830SOL    HW127389   1.235   1.758   2.140
 8830SOL    HW227390   1.098   1.838   2.181
 8831SOL     OW27391   4.909   1.628   4.011
 8831SOL    HW127392   4.840   1.599   3.945
 8831SOL    HW227393   4.870   1.628   4.103
 8832SOL     OW27394   6.869   5.758   3.024
 8832SOL    HW127395   6.843   5.833   2.963
 8832SOL    HW227396   6.856   5.670   2.976
 8833SOL     OW27397   2.199   6.084   5.876
 8833SOL    HW127398   2.250   6.075   5.961
 8833SOL    HW227399   2.263   6.088   5.799
 8834SOL     OW27400   5.179   3.539   4.782
 8834SOL    HW127401   5.204   3.593   4.862
 8834SOL    HW227402   5.088   3.499   4.796
 8835SOL     OW27403   5.582   0.857   6.038
 8835SOL    HW127404   5.633   0.911   5.971
 8835SOL    HW227405   5.484   0.863   6.018
 8836SOL     OW27406   4.796   2.427   6.860
 8836SOL    HW127407   4.711   2.456   6.903
 8836SOL    HW227408   4.786   2.428   6.761
 8837SOL     OW27409   7.021   5.725   3.240
 8837SOL    HW127410   6.988   5.705   3.147
 8837SOL    HW227411   6.997   5.649   3.301
 8838SOL     OW27412   2.284   4.763   2.901
 8838SOL    HW127413   2.241   4.816   2.828
 8838SOL    HW227414   2.237   4.781   2.988
 8839SOL     OW27415   4.866   4.746   3.257
 8839SOL    HW127416   4.836   4.652   3.245
 8839SOL    HW227417   4.894   4.784   3.169
 8840SOL     OW27418   6.473   2.037   2.105
 8840SOL    HW127419   6.410   2.023   2.181
 8840SOL    HW227420   6.565   2.052   2.141
 8841SOL     OW27421   0.378   0.835   5.441
 8841SOL    HW127422   0.338   0.926   5.429
 8841SOL    HW227423   0.474   0.844   5.465
 8842SOL     OW27424   3.494   3.151   2.315
 8842SOL    HW127425   3.567   3.139   2.383
 8842SOL    HW227426   3.452   3.063   2.295
 8843SOL     OW27427   2.143   3.399   5.553
 8843SOL    HW127428   2.221   3.432   5.501
 8843SOL    HW227429   2.064   3.391   5.492
 8844SOL     OW27430   6.810   2.701   6.919
 8844SOL    HW127431   6.826   2.607   6.950
 8844SOL    HW227432   6.773   2.700   6.826
 8845SOL     OW27433   3.673   3.551   0.177
 8845SOL    HW127434   3.718   3.499   0.250
 8845SOL    HW227435   3.574   3.542   0.186
 8846SOL     OW27436   3.151   6.036   3.596
 8846SOL    HW127437   3.205   6.081   3.524
 8846SOL    HW227438   3.200   6.042   3.682
 8847SOL     OW27439   2.721   1.423   3.696
 8847SOL    HW127440   2.799   1.398   3.639
 8847SOL    HW227441   2.644   1.451   3.638
 8848SOL     OW27442   2.326   0.821   1.466
 8848SOL    HW127443   2.393   0.749   1.486
 8848SOL    HW227444   2.240   0.800   1.514
 8849SOL     OW27445   3.574   6.545   3.495
 8849SOL    HW127446   3.509   6.471   3.508
 8849SOL    HW227447   3.667   6.507   3.489
 8850SOL     OW27448   1.011   2.519   0.153
 8850SOL    HW127449   0.972   2.470   0.075
 8850SOL    HW227450   1.110   2.519   0.147
 8851SOL     OW27451   1.111   4.121   3.676
 8851SOL    HW127452   1.182   4.122   3.606
 8851SOL    HW227453   1.037   4.183   3.649
 8852SOL     OW27454   0.418   2.886   5.219
 8852SOL    HW127455   0.402   2.949   5.143
 8852SOL    HW227456   0.451   2.798   5.184
 8853SOL     OW27457   2.945   0.701   1.503
 8853SOL    HW127458   2.942   0.741   1.595
 8853SOL    HW227459   3.039   0.707   1.468
 8854SOL     OW27460   2.272   2.431   5.711
 8854SOL    HW127461   2.196   2.415   5.647
 8854SOL    HW227462   2.343   2.362   5.696
 8855SOL     OW27463   6.348   5.153   1.368
 8855SOL    HW127464   6.297   5.096   1.433
 8855SOL    HW227465   6.382   5.096   1.293
 8856SOL     OW27466   1.185   6.269   6.401
 8856SOL    HW127467   1.167   6.287   6.498
 8856SOL    HW227468   1.101   6.286   6.348
 8857SOL     OW27469   6.843   1.860   4.758
 8857SOL    HW127470   6.805   1.817   4.676
 8857SOL    HW227471   6.886   1.947   4.733
 8858SOL     OW27472   7.009   4.039   4.562
 8858SOL    HW127473   6.971   4.082   4.480
 8858SOL    HW227474   6.960   4.072   4.643
 8859SOL     OW27475   1.504   1.523   3.664
 8859SOL    HW127476   1.571   1.550   3.595
 8859SOL    HW227477   1.551   1.507   3.751
 8860SOL     OW27478   0.070   2.115   1.681
 8860SOL    HW127479   0.075   2.214   1.666
 8860SOL    HW227480   0.117   2.091   1.766
 8861SOL     OW27481   4.363   1.018   6.187
 8861SOL    HW127482   4.430   1.065   6.245
 8861SOL    HW227483   4.318   0.945   6.239
 8862SOL     OW27484   5.811   6.992   3.714
 8862SOL    HW127485   5.753   0.029   3.667
 8862SOL    HW227486   5.906   7.023   3.711
 8863SOL     OW27487   2.732   4.718   3.354
 8863SOL    HW127488   2.655   4.662   3.324
 8863SOL    HW227489   2.796   4.730   3.278
 8864SOL     OW27490   3.174   4.990   6.565
 8864SOL    HW127491   3.261   5.030   6.594
 8864SOL    HW227492   3.173   4.892   6.584
 8865SOL     OW27493   3.098   0.763   4.450
 8865SOL    HW127494   3.184   0.812   4.469
 8865SOL    HW227495   3.115   0.692   4.382
 8866SOL     OW27496   5.342   0.065   3.014
 8866SOL    HW127497   5.368   0.138   3.078
 8866SOL    HW227498   5.419   0.044   2.954
 8867SOL     OW27499   5.883   4.355   3.478
 8867SOL    HW127500   5.818   4.296   3.526
 8867SOL    HW227501   5.833   4.412   3.413
 8868SOL     OW27502   0.252   2.984   1.688
 8868SOL    HW127503   0.253   3.084   1.695
 8868SOL    HW227504   0.330   2.954   1.633
 8869SOL     OW27505   3.672   5.959   5.354
 8869SOL    HW127506   3.712   5.981   5.443
 8869SOL    HW227507   3.659   6.043   5.302
 8870SOL     OW27508   2.544   6.456   1.843
 8870SOL    HW127509   2.561   6.478   1.746
 8870SOL    HW227510   2.456   6.494   1.870
 8871SOL     OW27511   1.782   0.376   3.445
 8871SOL    HW127512   1.747   0.446   3.507
 8871SOL    HW227513   1.723   0.370   3.365
 8872SOL     OW27514   1.733   5.034   5.671
 8872SOL    HW127515   1.813   5.059   5.725
 8872SOL    HW227516   1.741   4.939   5.640
 8873SOL     OW27517   1.773   7.022   2.229
 8873SOL    HW127518   1.750   6.959   2.155
 8873SOL    HW227519   1.848   0.051   2.201
 8874SOL     OW27520   2.013   5.321   2.379
 8874SOL    HW127521   2.067   5.389   2.428
 8874SOL    HW227522   1.927   5.306   2.428
 8875SOL     OW27523   6.680   3.605   4.566
 8875SOL    HW127524   6.627   3.532   4.522
 8875SOL    HW227525   6.777   3.588   4.552
 8876SOL     OW27526   2.281   0.077   5.597
 8876SOL    HW127527   2.239   0.165   5.620
 8876SOL    HW227528   2.258   0.009   5.666
 8877SOL     OW27529   2.366   2.323   4.237
 8877SOL    HW127530   2.422   2.271   4.173
 8877SOL    HW227531   2.336   2.264   4.311
 8878SOL     OW27532   4.308   4.869   0.817
 8878SOL    HW127533   4.389   4.855   0.874
 8878SOL    HW227534   4.297   4.791   0.755
 8879SOL     OW27535   4.504   4.670   2.387
 8879SOL    HW127536   4.488   4.653   2.290
 8879SOL    HW227537   4.451   4.750   2.416
 8880SOL     OW27538   4.589   6.458   4.993
 8880SOL    HW127539   4.626   6.462   5.086
 8880SOL    HW227540   4.512   6.394   4.990
 8881SOL     OW27541   5.277   6.211   3.870
 8881SOL    HW127542   5.233   6.145   3.808
 8881SOL    HW227543   5.375   6.194   3.874
 8882SOL     OW27544   4.805   1.219   1.426
 8882SOL    HW127545   4.706   1.206   1.429
 8882SOL    HW227546   4.847   1.145   1.373
 8883SOL     OW27547   2.198   6.430   6.449
 8883SOL    HW127548   2.220   6.340   6.488
 8883SOL    HW227549   2.106   6.428   6.412
 8884SOL     OW27550   6.161   3.145   5.944
 8884SOL    HW127551   6.217   3.099   5.875
 8884SOL    HW227552   6.066   3.117   5.933
 8885SOL     OW27553   5.233   4.720   0.837
 8885SOL    HW127554   5.292   4.799   0.857
 8885SOL    HW227555   5.289   4.641   0.814
 8886SOL     OW27556   3.057   5.930   5.104
 8886SOL    HW127557   3.006   6.014   5.088
 8886SOL    HW227558   3.054   5.908   5.202
 8887SOL     OW27559   3.821   1.064   0.920
 8887SOL    HW127560   3.807   0.969   0.947
 8887SOL    HW227561   3.814   1.123   1.001
 8888SOL     OW27562   2.018   1.704   5.144
 8888SOL    HW127563   1.967   1.751   5.216
 8888SOL    HW227564   2.001   1.748   5.056
 8889SOL     OW27565   6.250   6.862   0.080
 8889SOL    HW127566   6.208   6.860   7.019
 8889SOL    HW227567   6.259   6.769   0.115
 8890SOL     OW27568   0.311   5.704   5.705
 8890SOL    HW127569   0.236   5.769   5.715
 8890SOL    HW227570   0.337   5.699   5.608
 8891SOL     OW27571   3.950   4.055   0.343
 8891SOL    HW127572   3.934   4.139   0.291
 8891SOL    HW227573   4.004   4.077   0.425
 8892SOL     OW27574   3.600   4.930   3.286
 8892SOL    HW127575   3.526   4.957   3.348
 8892SOL    HW227576   3.673   4.887   3.339
 8893SOL     OW27577   1.404   5.016   4.282
 8893SOL    HW127578   1.453   5.046   4.364
 8893SOL    HW227579   1.448   4.934   4.246
 8894SOL     OW27580   3.108   1.866   6.395
 8894SOL    HW127581   3.138   1.774   6.371
 8894SOL    HW227582   3.181   1.913   6.445
 8895SOL     OW27583   0.108   2.028   1.946
 8895SOL    HW127584   0.191   2.056   1.994
 8895SOL    HW227585   0.127   1.949   1.889
 8896SOL     OW27586   2.234   2.988   4.853
 8896SOL    HW127587   2.287   2.967   4.935
 8896SOL    HW227588   2.146   3.027   4.879
 8897SOL     OW27589   2.366   2.521   3.353
 8897SOL    HW127590   2.454   2.506   3.307
 8897SOL    HW227591   2.373   2.603   3.410
 8898SOL     OW27592   4.976   3.635   2.779
 8898SOL    HW127593   4.933   3.701   2.716
 8898SOL    HW227594   4.968   3.543   2.741
 8899SOL     OW27595   1.389   4.462   0.877
 8899SOL    HW127596   1.445   4.524   0.932
 8899SOL    HW227597   1.429   4.370   0.879
 8900SOL     OW27598   5.129   3.047   3.280
 8900SOL    HW127599   5.159   3.040   3.375
 8900SOL    HW227600   5.209   3.063   3.221
 8901SOL     OW27601   0.919   1.183   5.005
 8901SOL    HW127602   0.861   1.261   4.982
 8901SOL    HW227603   0.873   1.098   4.981
 8902SOL     OW27604   0.844   5.676   0.269
 8902SOL    HW127605   0.875   5.737   0.196
 8902SOL    HW227606   0.877   5.709   0.357
 8903SOL     OW27607   0.696   1.851   4.379
 8903SOL    HW127608   0.727   1.778   4.318
 8903SOL    HW227609   0.723   1.940   4.342
 8904SOL     OW27610   0.660   0.710   4.863
 8904SOL    HW127611   0.756   0.684   4.852
 8904SOL    HW227612   0.615   0.709   4.774
 8905SOL     OW27613   2.125   3.400   3.348
 8905SOL    HW127614   2.045   3.368   3.399
 8905SOL    HW227615   2.204   3.343   3.371
 8906SOL     OW27616   0.394   6.326   0.706
 8906SOL    HW127617   0.308   6.366   0.736
 8906SOL    HW227618   0.423   6.255   0.771
 8907SOL     OW27619   3.472   2.663   5.725
 8907SOL    HW127620   3.551   2.604   5.708
 8907SOL    HW227621   3.498   2.734   5.790
 8908SOL     OW27622   1.504   5.849   0.429
 8908SOL    HW127623   1.581   5.852   0.365
 8908SOL    HW227624   1.538   5.838   0.522
 8909SOL     OW27625   2.530   1.348   5.791
 8909SOL    HW127626   2.530   1.309   5.699
 8909SOL    HW227627   2.624   1.349   5.827
 8910SOL     OW27628   1.030   3.102   5.463
 8910SOL    HW127629   1.102   3.082   5.397
 8910SOL    HW227630   0.987   3.190   5.439
 8911SOL     OW27631   4.896   3.152   4.463
 8911SOL    HW127632   4.994   3.154   4.447
 8911SOL    HW227633   4.858   3.244   4.453
 8912SOL     OW27634   2.990   3.785   6.995
 8912SOL    HW127635   2.983   3.692   6.959
 8912SOL    HW227636   2.963   3.786   0.061
 8913SOL     OW27637   4.079   5.332   6.319
 8913SOL    HW127638   3.990   5.362   6.352
 8913SOL    HW227639   4.089   5.355   6.222
 8914SOL     OW27640   4.629   0.340   4.657
 8914SOL    HW127641   4.683   0.309   4.735
 8914SOL    HW227642   4.586   0.261   4.613
 8915SOL     OW27643   1.846   2.292   3.666
 8915SOL    HW127644   1.750   2.318   3.649
 8915SOL    HW227645   1.849   2.206   3.716
 8916SOL     OW27646   6.496   3.476   0.351
 8916SOL    HW127647   6.492   3.573   0.377
 8916SOL    HW227648   6.591   3.450   0.335
 8917SOL     OW27649   5.447   2.788   0.445
 8917SOL    HW127650   5.527   2.747   0.402
 8917SOL    HW227651   5.369   2.726   0.435
 8918SOL     OW27652   0.634   4.664   0.966
 8918SOL    HW127653   0.664   4.572   0.942
 8918SOL    HW227654   0.627   4.672   1.065
 8919SOL     OW27655   4.927   3.742   0.262
 8919SOL    HW127656   4.855   3.686   0.220
 8919SOL    HW227657   4.969   3.691   0.337
 8920SOL     OW27658   0.029   1.628   6.874
 8920SOL    HW127659   0.049   1.686   6.795
 8920SOL    HW227660   0.026   1.532   6.845
 8921SOL     OW27661   1.818   3.298   1.847
 8921SOL    HW127662   1.854   3.214   1.806
 8921SOL    HW227663   1.892   3.364   1.857
 8922SOL     OW27664   4.147   5.122   2.367
 8922SOL    HW127665   4.061   5.070   2.368
 8922SOL    HW227666   4.220   5.065   2.403
 8923SOL     OW27667   1.816   1.891   6.510
 8923SOL    HW127668   1.845   1.945   6.589
 8923SOL    HW227669   1.747   1.825   6.539
 8924SOL     OW27670   4.383   5.565   5.417
 8924SOL    HW127671   4.451   5.513   5.469
 8924SOL    HW227672   4.379   5.530   5.323
 8925SOL     OW27673   0.694   0.850   3.379
 8925SOL    HW127674   0.604   0.814   3.356
 8925SOL    HW227675   0.719   0.922   3.314
 8926SOL     OW27676   6.442   3.230   6.246
 8926SOL    HW127677   6.495   3.155   6.206
 8926SOL    HW227678   6.493   3.316   6.234
 8927SOL     OW27679   6.879   1.098   4.568
 8927SOL    HW127680   6.966   1.144   4.552
 8927SOL    HW227681   6.829   1.145   4.640
 8928SOL     OW27682   1.421   0.329   6.182
 8928SOL    HW127683   1.498   0.267   6.201
 8928SOL    HW227684   1.373   0.298   6.100
 8929SOL     OW27685   5.788   1.967   4.773
 8929SOL    HW127686   5.843   2.031   4.720
 8929SOL    HW227687   5.827   1.956   4.864
 8930SOL     OW27688   0.965   2.790   3.537
 8930SOL    HW127689   1.023   2.841   3.601
 8930SOL    HW227690   0.997   2.695   3.533
 8931SOL     OW27691   3.242   3.715   1.122
 8931SOL    HW127692   3.226   3.704   1.220
 8931SOL    HW227693   3.154   3.728   1.076
 8932SOL     OW27694   6.255   2.164   1.996
 8932SOL    HW127695   6.335   2.120   2.038
 8932SOL    HW227696   6.205   2.096   1.942
 8933SOL     OW27697   2.739   2.791   6.044
 8933SOL    HW127698   2.736   2.856   6.120
 8933SOL    HW227699   2.741   2.841   5.957
 8934SOL     OW27700   2.444   5.421   4.553
 8934SOL    HW127701   2.515   5.478   4.593
 8934SOL    HW227702   2.466   5.325   4.567
 8935SOL     OW27703   0.437   4.690   0.218
 8935SOL    HW127704   0.433   4.784   0.185
 8935SOL    HW227705   0.346   4.663   0.251
 8936SOL     OW27706   1.095   4.294   2.067
 8936SOL    HW127707   1.053   4.278   2.156
 8936SOL    HW227708   1.195   4.288   2.075
 8937SOL     OW27709   0.510   0.009   5.805
 8937SOL    HW127710   0.607   0.009   5.828
 8937SOL    HW227711   0.472   0.100   5.822
 8938SOL     OW27712   0.653   6.085   0.705
 8938SOL    HW127713   0.734   6.060   0.758
 8938SOL    HW227714   0.664   6.178   0.670
 8939SOL     OW27715   5.218   2.950   4.125
 8939SOL    HW127716   5.211   2.870   4.066
 8939SOL    HW227717   5.205   2.923   4.220
 8940SOL     OW27718   0.568   1.431   2.337
 8940SOL    HW127719   0.581   1.332   2.337
 8940SOL    HW227720   0.652   1.476   2.309
 8941SOL     OW27721   6.412   2.461   5.846
 8941SOL    HW127722   6.459   2.538   5.891
 8941SOL    HW227723   6.357   2.495   5.770
 8942SOL     OW27724   6.423   4.795   4.864
 8942SOL    HW127725   6.417   4.867   4.795
 8942SOL    HW227726   6.425   4.706   4.819
 8943SOL     OW27727   3.513   5.134   5.908
 8943SOL    HW127728   3.455   5.061   5.875
 8943SOL    HW227729   3.594   5.095   5.952
 8944SOL     OW27730   5.397   4.505   5.403
 8944SOL    HW127731   5.454   4.581   5.434
 8944SOL    HW227732   5.441   4.457   5.328
 8945SOL     OW27733   0.721   1.040   3.211
 8945SOL    HW127734   0.643   1.017   3.153
 8945SOL    HW227735   0.720   1.137   3.231
 8946SOL     OW27736   3.350   1.451   5.238
 8946SOL    HW127737   3.440   1.486   5.262
 8946SOL    HW227738   3.312   1.398   5.314
 8947SOL     OW27739   2.327   3.493   5.381
 8947SOL    HW127740   2.396   3.433   5.341
 8947SOL    HW227741   2.353   3.589   5.364
 8948SOL     OW27742   6.465   6.473   4.563
 8948SOL    HW127743   6.448   6.419   4.645
 8948SOL    HW227744   6.552   6.446   4.523
 8949SOL     OW27745   2.431   6.999   0.878
 8949SOL    HW127746   2.432   6.943   0.796
 8949SOL    HW227747   2.519   6.991   0.925
 8950SOL     OW27748   4.550   4.241   6.126
 8950SOL    HW127749   4.546   4.148   6.089
 8950SOL    HW227750   4.468   4.291   6.100
 8951SOL     OW27751   1.394   2.148   5.296
 8951SOL    HW127752   1.348   2.236   5.312
 8951SOL    HW227753   1.361   2.108   5.210
 8952SOL     OW27754   1.617   6.870   2.647
 8952SOL    HW127755   1.707   6.879   2.603
 8952SOL    HW227756   1.572   6.959   2.648
 8953SOL     OW27757   1.415   4.215   6.928
 8953SOL    HW127758   1.401   4.188   7.023
 8953SOL    HW227759   1.501   4.267   6.921
 8954SOL     OW27760   0.780   0.021   5.478
 8954SOL    HW127761   0.837   6.970   5.490
 8954SOL    HW227762   0.686   7.029   5.505
 8955SOL     OW27763   7.004   5.032   2.445
 8955SOL    HW127764   6.998   5.019   2.544
 8955SOL    HW227765   0.065   5.006   2.414
 8956SOL     OW27766   0.965   1.511   6.714
 8956SOL    HW127767   1.025   1.590   6.730
 8956SOL    HW227768   0.876   1.528   6.755
 8957SOL     OW27769   2.704   4.439   1.694
 8957SOL    HW127770   2.658   4.362   1.739
 8957SOL    HW227771   2.763   4.485   1.760
 8958SOL     OW27772   0.510   1.157   4.956
 8958SOL    HW127773   0.551   1.194   5.040
 8958SOL    HW227774   0.562   1.077   4.926
 8959SOL     OW27775   1.316   4.466   1.583
 8959SOL    HW127776   1.360   4.448   1.495
 8959SOL    HW227777   1.379   4.444   1.657
 8960SOL     OW27778   4.404   4.583   2.806
 8960SOL    HW127779   4.351   4.662   2.838
 8960SOL    HW227780   4.417   4.518   2.880
 8961SOL     OW27781   2.447   1.198   4.591
 8961SOL    HW127782   2.467   1.236   4.681
 8961SOL    HW227783   2.532   1.174   4.545
 8962SOL     OW27784   6.132   6.296   2.186
 8962SOL    HW127785   6.126   6.239   2.268
 8962SOL    HW227786   6.043   6.298   2.141
 8963SOL     OW27787   4.423   6.438   4.242
 8963SOL    HW127788   4.510   6.400   4.211
 8963SOL    HW227789   4.360   6.445   4.164
 8964SOL     OW27790   4.859   3.116   3.301
 8964SOL    HW127791   4.815   3.026   3.305
 8964SOL    HW227792   4.957   3.104   3.281
 8965SOL     OW27793   2.188   4.902   0.654
 8965SOL    HW127794   2.286   4.921   0.654
 8965SOL    HW227795   2.156   4.892   0.748
 8966SOL     OW27796   6.830   4.085   6.693
 8966SOL    HW127797   6.844   3.988   6.676
 8966SOL    HW227798   6.761   4.121   6.629
 8967SOL     OW27799   4.185   0.112   1.798
 8967SOL    HW127800   4.285   0.105   1.796
 8967SOL    HW227801   4.151   0.075   1.885
 8968SOL     OW27802   4.954   4.894   3.038
 8968SOL    HW127803   4.941   4.976   3.094
 8968SOL    HW227804   5.049   4.887   3.009
 8969SOL     OW27805   6.959   1.540   4.598
 8969SOL    HW127806   7.011   1.458   4.624
 8969SOL    HW227807   7.012   1.622   4.623
 8970SOL     OW27808   2.487   3.565   0.438
 8970SOL    HW127809   2.428   3.646   0.435
 8970SOL    HW227810   2.441   3.492   0.488
 8971SOL     OW27811   4.980   5.623   1.944
 8971SOL    HW127812   5.030   5.537   1.953
 8971SOL    HW227813   4.894   5.617   1.996
 8972SOL     OW27814   5.311   4.779   6.310
 8972SOL    HW127815   5.245   4.763   6.384
 8972SOL    HW227816   5.264   4.773   6.222
 8973SOL     OW27817   1.203   3.440   2.392
 8973SOL    HW127818   1.266   3.363   2.395
 8973SOL    HW227819   1.135   3.431   2.464
 8974SOL     OW27820   1.551   4.673   5.770
 8974SOL    HW127821   1.491   4.626   5.835
 8974SOL    HW227822   1.527   4.770   5.767
 8975SOL     OW27823   2.036   6.986   6.080
 8975SOL    HW127824   2.041   7.003   6.179
 8975SOL    HW227825   2.051   0.041   6.031
 8976SOL     OW27826   0.557   4.774   4.996
 8976SOL    HW127827   0.580   4.846   4.931
 8976SOL    HW227828   0.565   4.810   5.089
 8977SOL     OW27829   5.674   2.720   0.298
 8977SOL    HW127830   5.747   2.776   0.258
 8977SOL    HW227831   5.710   2.671   0.378
 8978SOL     OW27832   5.749   0.400   5.088
 8978SOL    HW127833   5.730   0.460   5.166
 8978SOL    HW227834   5.707   0.311   5.104
 8979SOL     OW27835   1.156   3.593   4.342
 8979SOL    HW127836   1.132   3.669   4.403
 8979SOL    HW227837   1.073   3.553   4.305
 8980SOL     OW27838   2.724   2.887   5.772
 8980SOL    HW127839   2.626   2.896   5.784
 8980SOL    HW227840   2.743   2.845   5.683
 8981SOL     OW27841   4.395   2.100   5.394
 8981SOL    HW127842   4.357   2.030   5.455
 8981SOL    HW227843   4.426   2.057   5.310
 8982SOL     OW27844   1.070   2.360   1.039
 8982SOL    HW127845   0.978   2.385   1.068
 8982SOL    HW227846   1.091   2.267   1.069
 8983SOL     OW27847   1.890   6.287   0.105
 8983SOL    HW127848   1.950   6.352   0.059
 8983SOL    HW227849   1.795   6.319   0.100
 8984SOL     OW27850   0.060   0.684   4.347
 8984SOL    HW127851   0.047   0.592   4.384
 8984SOL    HW227852   7.019   0.703   4.280
 8985SOL     OW27853   2.502   3.051   0.627
 8985SOL    HW127854   2.562   3.032   0.549
 8985SOL    HW227855   2.511   2.978   0.695
 8986SOL     OW27856   4.996   5.247   2.276
 8986SOL    HW127857   5.052   5.175   2.319
 8986SOL    HW227858   4.899   5.227   2.290
 8987SOL     OW27859   4.329   6.620   1.492
 8987SOL    HW127860   4.402   6.676   1.532
 8987SOL    HW227861   4.325   6.532   1.538
 8988SOL     OW27862   1.801   3.269   5.482
 8988SOL    HW127863   1.843   3.326   5.412
 8988SOL    HW227864   1.721   3.316   5.521
 8989SOL     OW27865   5.236   3.911   1.317
 8989SOL    HW127866   5.226   3.812   1.324
 8989SOL    HW227867   5.146   3.953   1.304
 8990SOL     OW27868   1.766   6.144   3.288
 8990SOL    HW127869   1.800   6.141   3.382
 8990SOL    HW227870   1.820   6.082   3.231
 8991SOL     OW27871   1.414   2.428   6.631
 8991SOL    HW127872   1.415   2.448   6.729
 8991SOL    HW227873   1.405   2.329   6.617
 8992SOL     OW27874   5.541   1.565   0.372
 8992SOL    HW127875   5.499   1.578   0.282
 8992SOL    HW227876   5.640   1.560   0.362
 8993SOL     OW27877   5.345   2.427   2.135
 8993SOL    HW127878   5.334   2.487   2.214
 8993SOL    HW227879   5.265   2.367   2.127
 8994SOL     OW27880   1.364   4.427   4.647
 8994SOL    HW127881   1.441   4.464   4.595
 8994SOL    HW227882   1.387   4.335   4.680
 8995SOL     OW27883   0.831   3.090   7.002
 8995SOL    HW127884   0.747   3.069   0.023
 8995SOL    HW227885   0.826   3.047   6.912
 8996SOL     OW27886   5.262   5.138   0.817
 8996SOL    HW127887   5.197   5.154   0.743
 8996SOL    HW227888   5.257   5.213   0.882
 8997SOL     OW27889   5.071   1.365   5.839
 8997SOL    HW127890   5.032   1.323   5.921
 8997SOL    HW227891   5.057   1.304   5.761
 8998SOL     OW27892   6.386   3.999   4.585
 8998SOL    HW127893   6.406   3.924   4.523
 8998SOL    HW227894   6.305   3.977   4.640
 8999SOL     OW27895   4.798   6.420   6.731
 8999SOL    HW127896   4.829   6.496   6.674
 8999SOL    HW227897   4.874   6.386   6.786
 9000SOL     OW27898   1.634   3.997   0.788
 9000SOL    HW127899   1.677   3.977   0.877
 9000SOL    HW227900   1.560   3.932   0.771
 9001SOL     OW27901   1.290   5.594   2.399
 9001SOL    HW127902   1.194   5.620   2.389
 9001SOL    HW227903   1.297   5.495   2.407
 9002SOL     OW27904   0.645   4.982   4.839
 9002SOL    HW127905   0.609   5.075   4.837
 9002SOL    HW227906   0.652   4.947   4.746
 9003SOL     OW27907   5.690   3.318   1.732
 9003SOL    HW127908   5.712   3.303   1.636
 9003SOL    HW227909   5.774   3.312   1.787
 9004SOL     OW27910   4.011   6.607   1.702
 9004SOL    HW127911   4.049   6.644   1.617
 9004SOL    HW227912   3.986   6.682   1.763
 9005SOL     OW27913   5.743   2.508   4.243
 9005SOL    HW127914   5.653   2.475   4.271
 9005SOL    HW227915   5.803   2.430   4.224
 9006SOL     OW27916   2.558   5.863   1.406
 9006SOL    HW127917   2.583   5.777   1.362
 9006SOL    HW227918   2.476   5.850   1.462
 9007SOL     OW27919   3.432   1.279   4.045
 9007SOL    HW127920   3.398   1.190   4.015
 9007SOL    HW227921   3.356   1.344   4.050
 9008SOL     OW27922   1.190   5.741   3.515
 9008SOL    HW127923   1.266   5.699   3.564
 9008SOL    HW227924   1.215   5.750   3.418
 9009SOL     OW27925   3.071   6.961   1.019
 9009SOL    HW127926   2.990   7.016   1.040
 9009SOL    HW227927   3.138   7.018   0.971
 9010SOL     OW27928   1.383   6.652   3.696
 9010SOL    HW127929   1.374   6.741   3.650
 9010SOL    HW227930   1.293   6.608   3.699
 9011SOL     OW27931   5.787   1.813   2.331
 9011SOL    HW127932   5.834   1.809   2.243
 9011SOL    HW227933   5.711   1.878   2.325
 9012SOL     OW27934   2.053   3.794   0.612
 9012SOL    HW127935   2.095   3.716   0.659
 9012SOL    HW227936   1.958   3.771   0.590
 9013SOL     OW27937   0.006   6.711   5.187
 9013SOL    HW127938   7.015   6.754   5.099
 9013SOL    HW227939   0.105   6.708   5.200
 9014SOL     OW27940   6.067   1.933   0.201
 9014SOL    HW127941   6.142   1.870   0.180
 9014SOL    HW227942   5.980   1.890   0.178
 9015SOL     OW27943   4.627   1.232   2.053
 9015SOL    HW127944   4.648   1.175   1.973
 9015SOL    HW227945   4.680   1.317   2.048
 9016SOL     OW27946   0.375   6.587   6.654
 9016SOL    HW127947   0.306   6.608   6.585
 9016SOL    HW227948   0.374   6.659   6.724
 9017SOL     OW27949   4.629   2.098   3.470
 9017SOL    HW127950   4.608   2.051   3.384
 9017SOL    HW227951   4.721   2.136   3.466
 9018SOL     OW27952   3.963   2.297   6.500
 9018SOL    HW127953   3.890   2.342   6.550
 9018SOL    HW227954   4.043   2.358   6.495
 9019SOL     OW27955   1.443   6.346   1.762
 9019SOL    HW127956   1.486   6.401   1.690
 9019SOL    HW227957   1.353   6.385   1.783
 9020SOL     OW27958   0.069   3.960   1.273
 9020SOL    HW127959   0.120   4.028   1.325
 9020SOL    HW227960   7.010   3.998   1.247
 9021SOL     OW27961   6.597   7.014   3.137
 9021SOL    HW127962   6.662   6.946   3.102
 9021SOL    HW227963   6.643   0.073   3.144
 9022SOL     OW27964   3.282   1.927   6.716
 9022SOL    HW127965   3.247   1.834   6.725
 9022SOL    HW227966   3.342   1.948   6.794
 9023SOL     OW27967   3.727   3.114   2.479
 9023SOL    HW127968   3.759   3.081   2.568
 9023SOL    HW227969   3.793   3.179   2.442
 9024SOL     OW27970   1.010   4.533   5.026
 9024SOL    HW127971   1.094   4.564   4.983
 9024SOL    HW227972   1.026   4.445   5.071
 9025SOL     OW27973   0.859   5.397   0.347
 9025SOL    HW127974   0.764   5.367   0.353
 9025SOL    HW227975   0.863   5.485   0.301
 9026SOL     OW27976   4.324   3.204   0.799
 9026SOL    HW127977   4.247   3.182   0.859
 9026SOL    HW227978   4.312   3.156   0.712
 9027SOL     OW27979   1.565   2.468   3.162
 9027SOL    HW127980   1.507   2.429   3.091
 9027SOL    HW227981   1.618   2.396   3.206
 9028SOL     OW27982   2.904   3.881   5.764
 9028SOL    HW127983   2.958   3.939   5.703
 9028SOL    HW227984   2.950   3.872   5.852
 9029SOL     OW27985   3.890   6.451   5.193
 9029SOL    HW127986   3.933   6.493   5.113
 9029SOL    HW227987   3.905   6.509   5.273
 9030SOL     OW27988   2.555   1.518   3.508
 9030SOL    HW127989   2.620   1.545   3.437
 9030SOL    HW227990   2.488   1.455   3.469
 9031SOL     OW27991   4.259   5.806   4.561
 9031SOL    HW127992   4.349   5.833   4.528
 9031SOL    HW227993   4.221   5.735   4.501
 9032SOL     OW27994   3.837   3.846   0.650
 9032SOL    HW127995   3.867   3.752   0.629
 9032SOL    HW227996   3.826   3.897   0.566
 9033SOL     OW27997   0.385   4.006   2.884
 9033SOL    HW127998   0.439   4.074   2.934
 9033SOL    HW227999   0.296   4.044   2.859
 9034SOL     OW28000   3.418   0.203   5.570
 9034SOL    HW128001   3.430   0.263   5.649
 9034SOL    HW228002   3.323   0.210   5.537
 9035SOL     OW28003   1.918   5.288   6.724
 9035SOL    HW128004   1.907   5.270   6.626
 9035SOL    HW228005   2.015   5.278   6.749
 9036SOL     OW28006   1.609   1.562   5.402
 9036SOL    HW128007   1.635   1.521   5.315
 9036SOL    HW228008   1.545   1.638   5.385
 9037SOL     OW28009   1.311   3.990   4.978
 9037SOL    HW128010   1.359   3.932   5.042
 9037SOL    HW228011   1.263   3.934   4.911
 9038SOL     OW28012   3.994   0.520   6.271
 9038SOL    HW128013   4.094   0.525   6.275
 9038SOL    HW228014   3.964   0.529   6.176
 9039SOL     OW28015   2.710   5.387   5.470
 9039SOL    HW128016   2.641   5.455   5.447
 9039SOL    HW228017   2.774   5.426   5.536
 9040SOL     OW28018   3.464   2.110   2.573
 9040SOL    HW128019   3.397   2.147   2.509
 9040SOL    HW228020   3.426   2.110   2.665
 9041SOL     OW28021   1.139   2.243   1.467
 9041SOL    HW128022   1.057   2.299   1.453
 9041SOL    HW228023   1.111   2.149   1.491
 9042SOL     OW28024   3.363   0.479   4.436
 9042SOL    HW128025   3.451   0.437   4.413
 9042SOL    HW228026   3.335   0.449   4.527
 9043SOL     OW28027   1.494   1.145   0.082
 9043SOL    HW128028   1.424   1.073   0.077
 9043SOL    HW228029   1.467   1.221   0.024
 9044SOL     OW28030   6.208   0.567   0.194
 9044SOL    HW128031   6.188   0.640   0.130
 9044SOL    HW228032   6.265   0.498   0.150
 9045SOL     OW28033   2.498   1.611   2.464
 9045SOL    HW128034   2.425   1.579   2.403
 9045SOL    HW228035   2.586   1.574   2.433
 9046SOL     OW28036   3.410   3.566   3.119
 9046SOL    HW128037   3.364   3.509   3.187
 9046SOL    HW228038   3.505   3.582   3.148
 9047SOL     OW28039   2.203   3.908   5.619
 9047SOL    HW128040   2.222   3.944   5.527
 9047SOL    HW228041   2.148   3.974   5.670
 9048SOL     OW28042   5.006   3.362   6.432
 9048SOL    HW128043   4.945   3.286   6.455
 9048SOL    HW228044   5.065   3.336   6.356
 9049SOL     OW28045   3.532   7.015   5.664
 9049SOL    HW128046   3.471   0.058   5.633
 9049SOL    HW228047   3.479   6.931   5.679
 9050SOL     OW28048   0.245   3.165   0.843
 9050SOL    HW128049   0.296   3.090   0.885
 9050SOL    HW228050   0.308   3.240   0.821
 9051SOL     OW28051   3.638   0.027   1.001
 9051SOL    HW128052   3.549   7.022   1.028
 9051SOL    HW228053   3.626   0.099   0.932
 9052SOL     OW28054   2.656   2.476   4.298
 9052SOL    HW128055   2.631   2.475   4.395
 9052SOL    HW228056   2.576   2.501   4.243
 9053SOL     OW28057   1.821   0.742   2.680
 9053SOL    HW128058   1.843   0.688   2.598
 9053SOL    HW228059   1.725   0.728   2.703
 9054SOL     OW28060   2.883   5.933   3.656
 9054SOL    HW128061   2.959   5.992   3.629
 9054SOL    HW228062   2.918   5.852   3.703
 9055SOL     OW28063   6.183   2.828   4.343
 9055SOL    HW128064   6.103   2.876   4.306
 9055SOL    HW228065   6.165   2.801   4.438
 9056SOL     OW28066   0.780   1.568   2.158
 9056SOL    HW128067   0.730   1.580   2.072
 9056SOL    HW228068   0.879   1.569   2.139
 9057SOL     OW28069   5.012   4.045   6.298
 9057SOL    HW128070   4.924   4.091   6.284
 9057SOL    HW228071   5.049   4.071   6.386
 9058SOL     OW28072   2.005   1.475   1.680
 9058SOL    HW128073   1.912   1.471   1.643
 9058SOL    HW228074   2.043   1.383   1.685
 9059SOL     OW28075   1.350   2.010   4.124
 9059SOL    HW128076   1.447   2.034   4.125
 9059SOL    HW228077   1.304   2.059   4.050
 9060SOL     OW28078   6.353   2.648   3.573
 9060SOL    HW128079   6.419   2.603   3.513
 9060SOL    HW228080   6.273   2.675   3.519
 9061SOL     OW28081   2.242   5.124   2.041
 9061SOL    HW128082   2.170   5.057   2.023
 9061SOL    HW228083   2.331   5.081   2.031
 9062SOL     OW28084   1.785   6.391   2.082
 9062SOL    HW128085   1.868   6.346   2.050
 9062SOL    HW228086   1.754   6.348   2.167
 9063SOL     OW28087   3.199   6.810   3.108
 9063SOL    HW128088   3.286   6.810   3.058
 9063SOL    HW228089   3.165   6.904   3.116
 9064SOL     OW28090   6.311   2.333   5.451
 9064SOL    HW128091   6.212   2.327   5.446
 9064SOL    HW228092   6.352   2.280   5.376
 9065SOL     OW28093   3.504   0.570   5.355
 9065SOL    HW128094   3.490   0.471   5.349
 9065SOL    HW228095   3.470   0.614   5.273
 9066SOL     OW28096   4.141   6.078   0.763
 9066SOL    HW128097   4.215   6.016   0.789
 9066SOL    HW228098   4.128   6.146   0.835
 9067SOL     OW28099   0.390   0.445   4.610
 9067SOL    HW128100   0.353   0.402   4.528
 9067SOL    HW228101   0.487   0.421   4.620
 9068SOL     OW28102   2.599   6.783   4.544
 9068SOL    HW128103   2.672   6.766   4.478
 9068SOL    HW228104   2.524   6.831   4.499
 9069SOL     OW28105   1.534   3.280   1.402
 9069SOL    HW128106   1.492   3.341   1.335
 9069SOL    HW228107   1.502   3.304   1.494
 9070SOL     OW28108   1.284   3.242   4.717
 9070SOL    HW128109   1.195   3.225   4.758
 9070SOL    HW228110   1.272   3.289   4.629
 9071SOL     OW28111   5.984   6.633   1.706
 9071SOL    HW128112   6.024   6.542   1.718
 9071SOL    HW228113   5.937   6.636   1.617
 9072SOL     OW28114   0.019   1.885   1.487
 9072SOL    HW128115   0.039   1.982   1.496
 9072SOL    HW228116   6.973   1.861   1.548
 9073SOL     OW28117   3.126   0.148   2.583
 9073SOL    HW128118   3.185   0.168   2.662
 9073SOL    HW228119   3.030   0.151   2.611
 9074SOL     OW28120   1.521   1.773   2.047
 9074SOL    HW128121   1.483   1.852   1.999
 9074SOL    HW228122   1.603   1.802   2.098
 9075SOL     OW28123   0.509   1.331   1.741
 9075SOL    HW128124   0.607   1.323   1.756
 9075SOL    HW228125   0.464   1.352   1.827
 9076SOL     OW28126   6.958   2.718   5.698
 9076SOL    HW128127   0.002   2.713   5.765
 9076SOL    HW228128   6.997   2.724   5.606
 9077SOL     OW28129   4.358   0.478   0.006
 9077SOL    HW128130   4.402   0.517   0.086
 9077SOL    HW228131   4.381   0.532   6.955
 9078SOL     OW28132   3.989   3.229   6.024
 9078SOL    HW128133   3.969   3.203   6.119
 9078SOL    HW228134   4.082   3.266   6.019
 9079SOL     OW28135   3.442   6.876   4.238
 9079SOL    HW128136   3.454   6.916   4.147
 9079SOL    HW228137   3.499   6.793   4.245
 9080SOL     OW28138   4.345   2.580   6.348
 9080SOL    HW128139   4.387   2.512   6.288
 9080SOL    HW228140   4.303   2.653   6.293
 9081SOL     OW28141   4.360   0.213   2.385
 9081SOL    HW128142   4.318   0.303   2.371
 9081SOL    HW228143   4.319   0.169   2.465
 9082SOL     OW28144   2.420   0.358   5.136
 9082SOL    HW128145   2.398   0.261   5.148
 9082SOL    HW228146   2.407   0.406   5.223
 9083SOL     OW28147   3.228   5.086   6.292
 9083SOL    HW128148   3.304   5.150   6.281
 9083SOL    HW228149   3.230   5.049   6.385
 9084SOL     OW28150   3.583   4.138   3.678
 9084SOL    HW128151   3.504   4.079   3.690
 9084SOL    HW228152   3.585   4.208   3.750
 9085SOL     OW28153   2.111   0.421   1.835
 9085SOL    HW128154   2.075   0.502   1.788
 9085SOL    HW228155   2.048   0.393   1.907
 9086SOL     OW28156   0.607   4.600   7.028
 9086SOL    HW128157   0.514   4.617   0.030
 9086SOL    HW228158   0.604   4.550   6.942
 9087SOL     OW28159   4.358   2.143   1.324
 9087SOL    HW128160   4.458   2.145   1.329
 9087SOL    HW228161   4.321   2.227   1.365
 9088SOL     OW28162   6.868   6.611   1.523
 9088SOL    HW128163   6.942   6.655   1.473
 9088SOL    HW228164   6.782   6.659   1.505
 9089SOL     OW28165   5.938   5.781   5.541
 9089SOL    HW128166   5.845   5.797   5.573
 9089SOL    HW228167   5.983   5.714   5.600
 9090SOL     OW28168   6.842   1.244   4.817
 9090SOL    HW128169   6.930   1.291   4.814
 9090SOL    HW228170   6.856   1.147   4.837
 9091SOL     OW28171   2.582   4.188   0.616
 9091SOL    HW128172   2.627   4.109   0.658
 9091SOL    HW228173   2.599   4.187   0.517
 9092SOL     OW28174   6.600   0.952   6.697
 9092SOL    HW128175   6.686   1.001   6.680
 9092SOL    HW228176   6.533   0.976   6.626
 9093SOL     OW28177   0.772   5.761   5.542
 9093SOL    HW128178   0.803   5.678   5.589
 9093SOL    HW228179   0.806   5.841   5.592
 9094SOL     OW28180   6.496   4.586   2.845
 9094SOL    HW128181   6.595   4.579   2.836
 9094SOL    HW228182   6.454   4.498   2.824
 9095SOL     OW28183   5.043   4.886   5.850
 9095SOL    HW128184   4.965   4.911   5.794
 9095SOL    HW228185   5.046   4.945   5.931
 9096SOL     OW28186   6.698   4.988   2.472
 9096SOL    HW128187   6.778   5.045   2.453
 9096SOL    HW228188   6.622   5.015   2.413
 9097SOL     OW28189   1.928   1.542   0.548
 9097SOL    HW128190   1.992   1.578   0.616
 9097SOL    HW228191   1.946   1.445   0.533
 9098SOL     OW28192   3.010   2.240   4.820
 9098SOL    HW128193   2.918   2.279   4.810
 9098SOL    HW228194   3.057   2.285   4.896
 9099SOL     OW28195   3.341   3.215   6.274
 9099SOL    HW128196   3.261   3.229   6.215
 9099SOL    HW228197   3.310   3.196   6.367
 9100SOL     OW28198   0.348   3.647   3.351
 9100SOL    HW128199   0.273   3.623   3.411
 9100SOL    HW228200   0.415   3.702   3.401
 9101SOL     OW28201   2.815   2.253   1.739
 9101SOL    HW128202   2.879   2.202   1.682
 9101SOL    HW228203   2.863   2.290   1.818
 9102SOL     OW28204   3.472   6.815   2.326
 9102SOL    HW128205   3.415   6.815   2.244
 9102SOL    HW228206   3.563   6.780   2.303
 9103SOL     OW28207   5.409   1.677   6.763
 9103SOL    HW128208   5.484   1.740   6.745
 9103SOL    HW228209   5.344   1.719   6.825
 9104SOL     OW28210   6.941   6.366   1.568
 9104SOL    HW128211   0.008   6.350   1.586
 9104SOL    HW228212   6.926   6.461   1.544
 9105SOL     OW28213   0.631   0.452   5.830
 9105SOL    HW128214   0.697   0.482   5.898
 9105SOL    HW228215   0.678   0.425   5.746
 9106SOL     OW28216   6.023   3.018   1.181
 9106SOL    HW128217   6.096   3.081   1.154
 9106SOL    HW228218   5.961   3.064   1.245
 9107SOL     OW28219   2.294   0.556   6.366
 9107SOL    HW128220   2.355   0.570   6.444
 9107SOL    HW228221   2.222   0.624   6.367
 9108SOL     OW28222   5.129   4.482   5.371
 9108SOL    HW128223   5.104   4.398   5.324
 9108SOL    HW228224   5.229   4.488   5.379
 9109SOL     OW28225   5.330   3.537   2.864
 9109SOL    HW128226   5.308   3.545   2.962
 9109SOL    HW228227   5.258   3.485   2.818
 9110SOL     OW28228   1.844   5.511   4.383
 9110SOL    HW128229   1.861   5.576   4.308
 9110SOL    HW228230   1.753   5.527   4.421
 9111SOL     OW28231   4.539   2.821   6.981
 9111SOL    HW128232   4.599   2.890   7.022
 9111SOL    HW228233   4.458   2.866   6.942
 9112SOL     OW28234   1.629   5.220   2.444
 9112SOL    HW128235   1.674   5.154   2.383
 9112SOL    HW228236   1.547   5.179   2.483
 9113SOL     OW28237   5.463   2.748   2.770
 9113SOL    HW128238   5.368   2.779   2.782
 9113SOL    HW228239   5.480   2.670   2.830
 9114SOL     OW28240   0.208   5.397   3.466
 9114SOL    HW128241   0.118   5.360   3.443
 9114SOL    HW228242   0.271   5.382   3.389
 9115SOL     OW28243   6.034   5.398   5.001
 9115SOL    HW128244   5.960   5.333   4.985
 9115SOL    HW228245   6.117   5.348   5.027
 9116SOL     OW28246   0.627   6.992   3.004
 9116SOL    HW128247   0.700   0.019   2.966
 9116SOL    HW228248   0.538   0.001   2.982
 9117SOL     OW28249   3.695   2.410   6.563
 9117SOL    HW128250   3.644   2.331   6.598
 9117SOL    HW228251   3.661   2.434   6.472
 9118SOL     OW28252   6.418   3.238   0.219
 9118SOL    HW128253   6.445   3.334   0.229
 9118SOL    HW228254   6.443   3.205   0.128
 9119SOL     OW28255   3.883   1.301   1.708
 9119SOL    HW128256   3.884   1.225   1.773
 9119SOL    HW228257   3.793   1.306   1.664
 9120SOL     OW28258   6.843   2.424   5.752
 9120SOL    HW128259   6.800   2.345   5.795
 9120SOL    HW228260   6.922   2.453   5.806
 9121SOL     OW28261   3.426   6.096   5.408
 9121SOL    HW128262   3.445   6.180   5.357
 9121SOL    HW228263   3.432   6.018   5.347
 9122SOL     OW28264   2.507   4.604   2.002
 9122SOL    HW128265   2.600   4.602   1.966
 9122SOL    HW228266   2.504   4.663   2.083
 9123SOL     OW28267   1.383   0.472   4.235
 9123SOL    HW128268   1.363   0.374   4.234
 9123SOL    HW228269   1.448   0.492   4.309
 9124SOL     OW28270   3.743   5.286   1.748
 9124SOL    HW128271   3.657   5.242   1.720
 9124SOL    HW228272   3.797   5.308   1.667
 9125SOL     OW28273   4.226   4.347   0.936
 9125SOL    HW128274   4.198   4.329   1.030
 9125SOL    HW228275   4.317   4.389   0.936
 9126SOL     OW28276   4.726   4.013   1.355
 9126SOL    HW128277   4.747   3.990   1.449
 9126SOL    HW228278   4.626   4.022   1.344
 9127SOL     OW28279   6.951   2.658   5.348
 9127SOL    HW128280   0.000   2.694   5.299
 9127SOL    HW228281   6.976   2.573   5.395
 9128SOL     OW28282   5.918   2.357   5.032
 9128SOL    HW128283   5.833   2.320   4.994
 9128SOL    HW228284   5.974   2.283   5.068
 9129SOL     OW28285   6.604   1.688   0.338
 9129SOL    HW128286   6.530   1.744   0.376
 9129SOL    HW228287   6.579   1.592   0.344
 9130SOL     OW28288   1.269   4.930   5.820
 9130SOL    HW128289   1.223   4.935   5.731
 9130SOL    HW228290   1.233   4.852   5.871
 9131SOL     OW28291   5.099   3.297   6.788
 9131SOL    HW128292   5.053   3.290   6.699
 9131SOL    HW228293   5.064   3.227   6.850
 9132SOL     OW28294   1.033   4.626   4.585
 9132SOL    HW128295   1.020   4.531   4.613
 9132SOL    HW228296   1.120   4.634   4.537
 9133SOL     OW28297   3.510   0.572   0.843
 9133SOL    HW128298   3.472   0.513   0.914
 9133SOL    HW228299   3.539   0.659   0.884
 9134SOL     OW28300   4.680   5.378   1.547
 9134SOL    HW128301   4.598   5.394   1.493
 9134SOL    HW228302   4.732   5.302   1.507
 9135SOL     OW28303   1.170   6.447   1.892
 9135SOL    HW128304   1.136   6.535   1.927
 9135SOL    HW228305   1.094   6.382   1.887
 9136SOL     OW28306   4.356   5.880   5.485
 9136SOL    HW128307   4.379   5.783   5.477
 9136SOL    HW228308   4.294   5.905   5.411
 9137SOL     OW28309   4.028   0.232   6.945
 9137SOL    HW128310   4.114   0.215   6.898
 9137SOL    HW228311   4.046   0.259   0.009
 9138SOL     OW28312   1.217   3.699   6.780
 9138SOL    HW128313   1.177   3.769   6.839
 9138SOL    HW228314   1.309   3.726   6.753
 9139SOL     OW28315   1.151   1.132   1.932
 9139SOL    HW128316   1.079   1.070   1.964
 9139SOL    HW228317   1.183   1.102   1.842
 9140SOL     OW28318   0.246   5.061   2.433
 9140SOL    HW128319   0.294   5.049   2.520
 9140SOL    HW228320   0.283   5.141   2.385
 9141SOL     OW28321   0.228   6.193   6.464
 9141SOL    HW128322   0.154   6.227   6.406
 9141SOL    HW228323   0.223   6.093   6.471
 9142SOL     OW28324   0.424   3.041   2.317
 9142SOL    HW128325   0.365   2.977   2.268
 9142SOL    HW228326   0.464   2.996   2.397
 9143SOL     OW28327   0.387   3.982   1.427
 9143SOL    HW128328   0.339   4.062   1.462
 9143SOL    HW228329   0.461   4.012   1.366
 9144SOL     OW28330   3.030   4.998   4.661
 9144SOL    HW128331   3.023   5.094   4.636
 9144SOL    HW228332   3.126   4.972   4.669
 9145SOL     OW28333   1.658   6.408   0.038
 9145SOL    HW128334   1.606   6.354   7.002
 9145SOL    HW228335   1.659   6.503   0.010
 9146SOL     OW28336   4.911   3.241   2.886
 9146SOL    HW128337   4.890   3.306   2.959
 9146SOL    HW228338   4.954   3.289   2.809
 9147SOL     OW28339   6.858   0.721   4.861
 9147SOL    HW128340   6.856   0.699   4.959
 9147SOL    HW228341   6.842   0.638   4.808
 9148SOL     OW28342   5.772   0.088   2.131
 9148SOL    HW128343   5.813   0.049   2.048
 9148SOL    HW228344   5.678   0.056   2.139
 9149SOL     OW28345   5.656   3.447   1.982
 9149SOL    HW128346   5.655   3.363   1.928
 9149SOL    HW228347   5.563   3.481   1.992
 9150SOL     OW28348   3.347   4.104   0.434
 9150SOL    HW128349   3.386   4.143   0.351
 9150SOL    HW228350   3.319   4.177   0.496
 9151SOL     OW28351   2.186   3.896   3.931
 9151SOL    HW128352   2.182   3.996   3.922
 9151SOL    HW228353   2.220   3.874   4.023
 9152SOL     OW28354   1.566   4.247   4.272
 9152SOL    HW128355   1.654   4.218   4.234
 9152SOL    HW228356   1.507   4.167   4.284
 9153SOL     OW28357   0.384   3.248   6.832
 9153SOL    HW128358   0.313   3.224   6.765
 9153SOL    HW228359   0.349   3.231   6.924
 9154SOL     OW28360   4.872   4.575   3.725
 9154SOL    HW128361   4.875   4.554   3.628
 9154SOL    HW228362   4.953   4.538   3.770
 9155SOL     OW28363   1.824   4.469   3.072
 9155SOL    HW128364   1.729   4.494   3.056
 9155SOL    HW228365   1.829   4.393   3.136
 9156SOL     OW28366   6.716   2.766   1.182
 9156SOL    HW128367   6.726   2.860   1.214
 9156SOL    HW228368   6.801   2.737   1.139
 9157SOL     OW28369   2.980   4.442   6.830
 9157SOL    HW128370   3.046   4.495   6.777
 9157SOL    HW228371   2.904   4.415   6.771
 9158SOL     OW28372   6.890   4.393   4.060
 9158SOL    HW128373   6.886   4.437   4.149
 9158SOL    HW228374   6.801   4.351   4.040
 9159SOL     OW28375   2.012   0.170   3.369
 9159SOL    HW128376   1.967   0.210   3.448
 9159SOL    HW228377   1.985   0.074   3.360
 9160SOL     OW28378   0.379   5.032   5.653
 9160SOL    HW128379   0.384   5.103   5.583
 9160SOL    HW228380   0.359   5.073   5.742
 9161SOL     OW28381   6.123   5.001   3.183
 9161SOL    HW128382   6.063   5.033   3.257
 9161SOL    HW228383   6.067   4.975   3.104
 9162SOL     OW28384   3.774   0.671   3.220
 9162SOL    HW128385   3.818   0.757   3.244
 9162SOL    HW228386   3.675   0.681   3.231
 9163SOL     OW28387   0.021   3.443   1.990
 9163SOL    HW128388   6.990   3.516   1.961
 9163SOL    HW228389   0.006   3.425   2.087
 9164SOL     OW28390   1.724   0.979   6.590
 9164SOL    HW128391   1.657   1.043   6.629
 9164SOL    HW228392   1.676   0.907   6.541
 9165SOL     OW28393   5.111   2.046   5.842
 9165SOL    HW128394   5.089   2.134   5.885
 9165SOL    HW228395   5.045   2.028   5.769
 9166SOL     OW28396   4.045   5.362   1.141
 9166SOL    HW128397   3.971   5.296   1.129
 9166SOL    HW228398   4.008   5.455   1.131
 9167SOL     OW28399   1.334   2.347   6.053
 9167SOL    HW128400   1.411   2.311   6.107
 9167SOL    HW228401   1.348   2.444   6.034
 9168SOL     OW28402   6.488   5.795   6.443
 9168SOL    HW128403   6.460   5.856   6.369
 9168SOL    HW228404   6.472   5.700   6.416
 9169SOL     OW28405   6.748   5.929   5.998
 9169SOL    HW128406   6.837   5.882   6.001
 9169SOL    HW228407   6.676   5.863   6.020
 9170SOL     OW28408   1.843   1.587   6.407
 9170SOL    HW128409   1.933   1.623   6.433
 9170SOL    HW228410   1.849   1.547   6.315
 9171SOL     OW28411   2.622   5.779   0.775
 9171SOL    HW128412   2.532   5.822   0.767
 9171SOL    HW228413   2.623   5.719   0.854
 9172SOL     OW28414   4.413   1.806   4.492
 9172SOL    HW128415   4.373   1.745   4.424
 9172SOL    HW228416   4.433   1.894   4.449
 9173SOL     OW28417   6.271   2.753   4.826
 9173SOL    HW128418   6.264   2.763   4.726
 9173SOL    HW228419   6.180   2.757   4.867
 9174SOL     OW28420   0.615   6.030   7.014
 9174SOL    HW128421   0.598   5.940   0.023
 9174SOL    HW228422   0.573   6.036   6.924
 9175SOL     OW28423   1.520   6.227   0.559
 9175SOL    HW128424   1.443   6.290   0.565
 9175SOL    HW228425   1.556   6.227   0.466
 9176SOL     OW28426   2.565   6.924   2.010
 9176SOL    HW128427   2.573   7.023   2.013
 9176SOL    HW228428   2.617   6.883   2.085
 9177SOL     OW28429   1.579   2.360   3.652
 9177SOL    HW128430   1.558   2.413   3.734
 9177SOL    HW228431   1.574   2.419   3.572
 9178SOL     OW28432   2.480   5.385   6.440
 9178SOL    HW128433   2.542   5.442   6.494
 9178SOL    HW228434   2.519   5.294   6.430
 9179SOL     OW28435   2.585   5.937   4.907
 9179SOL    HW128436   2.501   5.906   4.951
 9179SOL    HW228437   2.657   5.948   4.976
 9180SOL     OW28438   6.981   2.155   3.917
 9180SOL    HW128439   6.884   2.178   3.931
 9180SOL    HW228440   7.003   2.159   3.820
 9181SOL     OW28441   5.007   2.806   3.291
 9181SOL    HW128442   5.050   2.890   3.323
 9181SOL    HW228443   4.982   2.749   3.369
 9182SOL     OW28444   3.209   1.318   2.917
 9182SOL    HW128445   3.163   1.402   2.947
 9182SOL    HW228446   3.213   1.317   2.817
 9183SOL     OW28447   4.690   3.707   6.038
 9183SOL    HW128448   4.638   3.688   5.955
 9183SOL    HW228449   4.760   3.637   6.050
 9184SOL     OW28450   3.561   2.060   0.868
 9184SOL    HW128451   3.600   2.037   0.780
 9184SOL    HW228452   3.575   1.985   0.933
 9185SOL     OW28453   0.614   6.813   6.767
 9185SOL    HW128454   0.538   6.796   6.831
 9185SOL    HW228455   0.594   6.895   6.714
 9186SOL     OW28456   4.576   0.559   5.405
 9186SOL    HW128457   4.562   0.631   5.473
 9186SOL    HW228458   4.625   0.596   5.327
 9187SOL     OW28459   4.592   2.064   6.647
 9187SOL    HW128460   4.570   2.154   6.609
 9187SOL    HW228461   4.608   2.072   6.745
 9188SOL     OW28462   1.833   0.763   1.290
 9188SOL    HW128463   1.741   0.729   1.269
 9188SOL    HW228464   1.872   0.804   1.208
 9189SOL     OW28465   3.271   1.070   3.956
 9189SOL    HW128466   3.311   0.998   3.900
 9189SOL    HW228467   3.178   1.045   3.982
 9190SOL     OW28468   6.426   4.027   5.426
 9190SOL    HW128469   6.471   4.035   5.515
 9190SOL    HW228470   6.495   4.017   5.354
 9191SOL     OW28471   4.960   6.643   6.895
 9191SOL    HW128472   5.026   6.653   6.820
 9191SOL    HW228473   4.996   6.684   6.978
 9192SOL     OW28474   6.520   3.906   6.003
 9192SOL    HW128475   6.533   3.815   5.964
 9192SOL    HW228476   6.458   3.959   5.945
 9193SOL     OW28477   3.351   3.688   3.862
 9193SOL    HW128478   3.423   3.664   3.927
 9193SOL    HW228479   3.327   3.607   3.808
 9194SOL     OW28480   3.605   5.776   1.947
 9194SOL    HW128481   3.552   5.848   1.904
 9194SOL    HW228482   3.550   5.731   2.018
 9195SOL     OW28483   1.967   2.704   3.170
 9195SOL    HW128484   2.055   2.658   3.157
 9195SOL    HW228485   1.943   2.704   3.267
 9196SOL     OW28486   4.931   0.298   3.925
 9196SOL    HW128487   5.006   0.348   3.968
 9196SOL    HW228488   4.967   0.238   3.854
 9197SOL     OW28489   3.391   3.903   0.923
 9197SOL    HW128490   3.369   3.842   1.000
 9197SOL    HW228491   3.331   3.982   0.926
 9198SOL     OW28492   5.625   4.006   6.387
 9198SOL    HW128493   5.671   4.091   6.410
 9198SOL    HW228494   5.686   3.929   6.406
 9199SOL     OW28495   0.948   3.311   6.016
 9199SOL    HW128496   1.038   3.271   5.998
 9199SOL    HW228497   0.903   3.333   5.929
 9200SOL     OW28498   1.464   6.259   6.914
 9200SOL    HW128499   1.469   6.178   6.856
 9200SOL    HW228500   1.452   6.231   7.010
 9201SOL     OW28501   0.681   3.780   1.207
 9201SOL    HW128502   0.705   3.732   1.123
 9201SOL    HW228503   0.755   3.770   1.274
 9202SOL     OW28504   2.170   5.696   4.359
 9202SOL    HW128505   2.230   5.745   4.422
 9202SOL    HW228506   2.182   5.597   4.372
 9203SOL     OW28507   4.956   2.171   6.512
 9203SOL    HW128508   5.047   2.207   6.490
 9203SOL    HW228509   4.898   2.245   6.545
 9204SOL     OW28510   5.630   3.685   3.305
 9204SOL    HW128511   5.671   3.775   3.321
 9204SOL    HW228512   5.531   3.691   3.317
 9205SOL     OW28513   5.136   3.409   2.157
 9205SOL    HW128514   5.146   3.409   2.058
 9205SOL    HW228515   5.121   3.503   2.189
 9206SOL     OW28516   3.048   0.354   4.638
 9206SOL    HW128517   3.037   0.452   4.654
 9206SOL    HW228518   3.013   0.332   4.547
 9207SOL     OW28519   3.722   6.373   5.796
 9207SOL    HW128520   3.633   6.337   5.824
 9207SOL    HW228521   3.789   6.299   5.796
 9208SOL     OW28522   5.042   3.697   2.174
 9208SOL    HW128523   4.969   3.741   2.121
 9208SOL    HW228524   5.112   3.764   2.198
 9209SOL     OW28525   4.028   1.035   2.105
 9209SOL    HW128526   4.112   1.012   2.155
 9209SOL    HW228527   4.037   1.128   2.067
 9210SOL     OW28528   1.987   0.348   1.209
 9210SOL    HW128529   1.982   0.268   1.268
 9210SOL    HW228530   2.036   0.324   1.125
 9211SOL     OW28531   5.314   2.138   6.310
 9211SOL    HW128532   5.239   2.079   6.280
 9211SOL    HW228533   5.401   2.096   6.286
 9212SOL     OW28534   4.731   4.114   5.027
 9212SOL    HW128535   4.694   4.201   4.994
 9212SOL    HW228536   4.800   4.131   5.097
 9213SOL     OW28537   5.604   6.612   4.313
 9213SOL    HW128538   5.689   6.560   4.307
 9213SOL    HW228539   5.583   6.631   4.409
 9214SOL     OW28540   1.048   2.545   5.196
 9214SOL    HW128541   1.115   2.575   5.128
 9214SOL    HW228542   1.021   2.622   5.253
 9215SOL     OW28543   0.202   3.816   2.287
 9215SOL    HW128544   0.247   3.726   2.283
 9215SOL    HW228545   0.272   3.887   2.299
 9216SOL     OW28546   2.324   6.460   4.749
 9216SOL    HW128547   2.372   6.410   4.677
 9216SOL    HW228548   2.243   6.504   4.710
 9217SOL     OW28549   5.438   1.419   6.723
 9217SOL    HW128550   5.532   1.394   6.746
 9217SOL    HW228551   5.420   1.513   6.752
 9218SOL     OW28552   4.236   0.437   6.633
 9218SOL    HW128553   4.242   0.356   6.691
 9218SOL    HW228554   4.140   0.459   6.615
 9219SOL     OW28555   4.050   3.037   5.325
 9219SOL    HW128556   4.012   3.088   5.401
 9219SOL    HW228557   4.050   3.094   5.243
 9220SOL     OW28558   1.965   5.956   2.329
 9220SOL    HW128559   1.912   5.978   2.411
 9220SOL    HW228560   2.058   5.991   2.339
 9221SOL     OW28561   2.411   0.597   5.708
 9221SOL    HW128562   2.400   0.560   5.800
 9221SOL    HW228563   2.491   0.657   5.706
 9222SOL     OW28564   2.248   4.585   4.321
 9222SOL    HW128565   2.245   4.486   4.306
 9222SOL    HW228566   2.282   4.603   4.413
 9223SOL     OW28567   0.796   3.044   3.758
 9223SOL    HW128568   0.840   3.007   3.676
 9223SOL    HW228569   0.796   3.144   3.754
 9224SOL     OW28570   1.305   3.188   3.795
 9224SOL    HW128571   1.291   3.259   3.863
 9224SOL    HW228572   1.388   3.135   3.817
 9225SOL     OW28573   3.710   0.065   6.185
 9225SOL    HW128574   3.733   0.148   6.135
 9225SOL    HW228575   3.694   7.020   6.120
 9226SOL     OW28576   1.246   0.068   1.681
 9226SOL    HW128577   1.200   0.004   1.742
 9226SOL    HW228578   1.243   0.032   1.587
 9227SOL     OW28579   1.661   4.913   1.552
 9227SOL    HW128580   1.617   5.002   1.562
 9227SOL    HW228581   1.759   4.922   1.571
 9228SOL     OW28582   2.236   2.714   6.117
 9228SOL    HW128583   2.281   2.652   6.053
 9228SOL    HW228584   2.215   2.800   6.071
 9229SOL     OW28585   1.303   5.082   6.731
 9229SOL    HW128586   1.316   4.990   6.696
 9229SOL    HW228587   1.321   5.149   6.659
 9230SOL     OW28588   5.110   3.114   3.850
 9230SOL    HW128589   5.193   3.059   3.862
 9230SOL    HW228590   5.136   3.210   3.836
 9231SOL     OW28591   0.846   4.989   6.088
 9231SOL    HW128592   0.937   5.026   6.102
 9231SOL    HW228593   0.800   4.976   6.176
 9232SOL     OW28594   1.653   5.178   1.167
 9232SOL    HW128595   1.644   5.222   1.078
 9232SOL    HW228596   1.606   5.232   1.237
 9233SOL     OW28597   1.064   6.848   0.924
 9233SOL    HW128598   1.105   6.760   0.898
 9233SOL    HW228599   1.060   6.908   0.844
 9234SOL     OW28600   2.419   5.380   0.963
 9234SOL    HW128601   2.500   5.354   1.016
 9234SOL    HW228602   2.438   5.465   0.913
 9235SOL     OW28603   2.506   2.305   3.568
 9235SOL    HW128604   2.479   2.392   3.526
 9235SOL    HW228605   2.455   2.230   3.526
 9236SOL     OW28606   2.317   3.289   6.744
 9236SOL    HW128607   2.260   3.369   6.759
 9236SOL    HW228608   2.365   3.266   6.829
 9237SOL     OW28609   0.106   5.901   2.878
 9237SOL    HW128610   0.015   5.899   2.836
 9237SOL    HW228611   0.117   5.823   2.940
 9238SOL     OW28612   3.071   2.492   5.974
 9238SOL    HW128613   2.987   2.497   5.920
 9238SOL    HW228614   3.121   2.579   5.966
 9239SOL     OW28615   6.928   4.519   6.271
 9239SOL    HW128616   6.887   4.441   6.318
 9239SOL    HW228617   6.909   4.603   6.322
 9240SOL     OW28618   5.147   3.368   2.723
 9240SOL    HW128619   5.160   3.269   2.720
 9240SOL    HW228620   5.150   3.405   2.629
 9241SOL     OW28621   6.715   5.730   0.350
 9241SOL    HW128622   6.787   5.661   0.352
 9241SOL    HW228623   6.730   5.793   0.274
 9242SOL     OW28624   1.807   2.103   1.685
 9242SOL    HW128625   1.888   2.161   1.681
 9242SOL    HW228626   1.727   2.159   1.704
 9243SOL     OW28627   1.029   0.545   1.750
 9243SOL    HW128628   1.009   0.449   1.734
 9243SOL    HW228629   1.116   0.553   1.798
 9244SOL     OW28630   2.554   6.316   6.244
 9244SOL    HW128631   2.458   6.295   6.225
 9244SOL    HW228632   2.560   6.406   6.287
 9245SOL     OW28633   0.670   4.336   3.685
 9245SOL    HW128634   0.636   4.252   3.727
 9245SOL    HW228635   0.613   4.361   3.607
 9246SOL     OW28636   5.861   0.349   4.277
 9246SOL    HW128637   5.919   0.279   4.234
 9246SOL    HW228638   5.894   0.440   4.252
 9247SOL     OW28639   3.961   5.381   3.177
 9247SOL    HW128640   3.886   5.337   3.129
 9247SOL    HW228641   4.046   5.330   3.161
 9248SOL     OW28642   2.672   1.984   5.479
 9248SOL    HW128643   2.748   1.926   5.449
 9248SOL    HW228644   2.694   2.026   5.567
 9249SOL     OW28645   3.997   5.000   1.586
 9249SOL    HW128646   4.090   5.016   1.619
 9249SOL    HW228647   3.963   4.914   1.625
 9250SOL     OW28648   6.927   3.384   4.001
 9250SOL    HW128649   6.989   3.331   4.058
 9250SOL    HW228650   6.896   3.329   3.924
 9251SOL     OW28651   4.287   2.472   1.816
 9251SOL    HW128652   4.212   2.421   1.775
 9251SOL    HW228653   4.295   2.447   1.913
 9252SOL     OW28654   5.251   0.705   5.125
 9252SOL    HW128655   5.190   0.778   5.155
 9252SOL    HW228656   5.340   0.716   5.168
 9253SOL     OW28657   5.749   5.045   5.575
 9253SOL    HW128658   5.667   5.012   5.621
 9253SOL    HW228659   5.733   5.045   5.476
 9254SOL     OW28660   5.149   4.703   2.452
 9254SOL    HW128661   5.090   4.753   2.389
 9254SOL    HW228662   5.240   4.692   2.410
 9255SOL     OW28663   5.670   3.273   6.866
 9255SOL    HW128664   5.607   3.245   6.939
 9255SOL    HW228665   5.757   3.299   6.907
 9256SOL     OW28666   2.418   6.700   1.922
 9256SOL    HW128667   2.465   6.784   1.948
 9256SOL    HW228668   2.369   6.715   1.836
 9257SOL     OW28669   6.084   5.937   3.085
 9257SOL    HW128670   6.106   5.892   2.998
 9257SOL    HW228671   6.152   6.007   3.105
 9258SOL     OW28672   3.717   3.574   0.852
 9258SOL    HW128673   3.725   3.670   0.877
 9258SOL    HW228674   3.744   3.517   0.930
 9259SOL     OW28675   1.769   1.356   6.898
 9259SOL    HW128676   1.847   1.350   6.836
 9259SOL    HW228677   1.790   1.309   6.984
 9260SOL     OW28678   7.030   2.547   6.282
 9260SOL    HW128679   6.989   2.594   6.360
 9260SOL    HW228680   6.985   2.458   6.270
 9261SOL     OW28681   4.873   1.158   6.662
 9261SOL    HW128682   4.893   1.066   6.627
 9261SOL    HW228683   4.821   1.209   6.594
 9262SOL     OW28684   0.624   6.538   4.991
 9262SOL    HW128685   0.580   6.479   4.924
 9262SOL    HW228686   0.578   6.626   4.994
 9263SOL     OW28687   3.385   5.381   3.251
 9263SOL    HW128688   3.379   5.389   3.152
 9263SOL    HW228689   3.469   5.332   3.276
 9264SOL     OW28690   4.482   3.277   6.873
 9264SOL    HW128691   4.579   3.265   6.854
 9264SOL    HW228692   4.455   3.371   6.850
 9265SOL     OW28693   4.226   2.151   6.400
 9265SOL    HW128694   4.133   2.180   6.377
 9265SOL    HW228695   4.252   2.073   6.343
 9266SOL     OW28696   7.024   5.501   1.060
 9266SOL    HW128697   6.939   5.542   1.027
 9266SOL    HW228698   0.069   5.566   1.049
 9267SOL     OW28699   1.045   1.926   4.305
 9267SOL    HW128700   1.144   1.925   4.321
 9267SOL    HW228701   1.023   1.996   4.237
 9268SOL     OW28702   1.021   6.524   2.751
 9268SOL    HW128703   0.983   6.546   2.661
 9268SOL    HW228704   0.955   6.470   2.803
 9269SOL     OW28705   4.014   6.990   6.501
 9269SOL    HW128706   3.956   0.041   6.506
 9269SOL    HW228707   4.073   6.986   6.582
 9270SOL     OW28708   3.548   0.744   5.558
 9270SOL    HW128709   3.585   0.709   5.471
 9270SOL    HW228710   3.563   0.677   5.630
 9271SOL     OW28711   0.069   0.322   0.775
 9271SOL    HW128712   0.051   0.244   0.715
 9271SOL    HW228713   0.158   0.361   0.753
 9272SOL     OW28714   1.039   6.579   0.121
 9272SOL    HW128715   0.969   6.513   0.096
 9272SOL    HW228716   1.009   6.630   0.202
 9273SOL     OW28717   5.420   6.083   3.201
 9273SOL    HW128718   5.392   6.027   3.279
 9273SOL    HW228719   5.436   6.177   3.231
 9274SOL     OW28720   6.739   1.978   0.409
 9274SOL    HW128721   6.744   1.878   0.418
 9274SOL    HW228722   6.820   2.019   0.451
 9275SOL     OW28723   6.904   6.748   0.139
 9275SOL    HW128724   6.876   6.751   0.235
 9275SOL    HW228725   6.968   6.823   0.121
 9276SOL     OW28726   2.681   4.704   6.931
 9276SOL    HW128727   2.727   4.793   6.936
 9276SOL    HW228728   2.734   4.636   6.980
 9277SOL     OW28729   3.918   5.045   3.281
 9277SOL    HW128730   4.008   5.049   3.324
 9277SOL    HW228731   3.893   5.135   3.246
 9278SOL     OW28732   0.792   0.546   5.574
 9278SOL    HW128733   0.709   0.602   5.567
 9278SOL    HW228734   0.872   0.602   5.555
 9279SOL     OW28735   3.261   6.402   1.798
 9279SOL    HW128736   3.220   6.433   1.712
 9279SOL    HW228737   3.360   6.397   1.787
 9280SOL     OW28738   2.443   2.170   2.439
 9280SOL    HW128739   2.538   2.162   2.409
 9280SOL    HW228740   2.437   2.151   2.537
 9281SOL     OW28741   3.499   3.767   6.294
 9281SOL    HW128742   3.586   3.727   6.265
 9281SOL    HW228743   3.426   3.700   6.279
 9282SOL     OW28744   4.286   1.275   4.393
 9282SOL    HW128745   4.231   1.197   4.361
 9282SOL    HW228746   4.325   1.253   4.483
 9283SOL     OW28747   5.410   0.459   5.443
 9283SOL    HW128748   5.391   0.363   5.461
 9283SOL    HW228749   5.401   0.512   5.527
 9284SOL     OW28750   3.052   3.109   5.101
 9284SOL    HW128751   3.037   3.192   5.154
 9284SOL    HW228752   2.971   3.089   5.045
 9285SOL     OW28753   5.004   2.975   1.066
 9285SOL    HW128754   4.989   2.918   1.147
 9285SOL    HW228755   4.917   3.011   1.033
 9286SOL     OW28756   4.803   5.638   0.098
 9286SOL    HW128757   4.897   5.639   0.132
 9286SOL    HW228758   4.755   5.720   0.131
 9287SOL     OW28759   3.038   4.690   5.658
 9287SOL    HW128760   3.041   4.774   5.603
 9287SOL    HW228761   3.099   4.622   5.618
 9288SOL     OW28762   4.423   2.021   3.109
 9288SOL    HW128763   4.414   2.120   3.094
 9288SOL    HW228764   4.515   2.000   3.140
 9289SOL     OW28765   4.457   0.610   6.634
 9289SOL    HW128766   4.473   0.643   6.727
 9289SOL    HW228767   4.389   0.536   6.637
 9290SOL     OW28768   6.107   0.700   4.054
 9290SOL    HW128769   6.063   0.611   4.044
 9290SOL    HW228770   6.206   0.688   4.056
 9291SOL     OW28771   1.352   6.338   6.174
 9291SOL    HW128772   1.338   6.330   6.272
 9291SOL    HW228773   1.448   6.355   6.155
 9292SOL     OW28774   1.186   1.243   6.445
 9292SOL    HW128775   1.253   1.317   6.438
 9292SOL    HW228776   1.232   1.160   6.475
 9293SOL     OW28777   4.974   2.794   6.825
 9293SOL    HW128778   5.015   2.729   6.761
 9293SOL    HW228779   4.882   2.819   6.794
 9294SOL     OW28780   4.884   0.704   0.009
 9294SOL    HW128781   4.860   0.742   6.950
 9294SOL    HW228782   4.953   0.763   0.052
 9295SOL     OW28783   0.139   0.715   5.254
 9295SOL    HW128784   0.205   0.726   5.329
 9295SOL    HW228785   0.069   0.649   5.280
 9296SOL     OW28786   2.051   4.276   0.938
 9296SOL    HW128787   2.151   4.270   0.939
 9296SOL    HW228788   2.016   4.238   0.853
 9297SOL     OW28789   0.630   6.593   3.182
 9297SOL    HW128790   0.694   6.641   3.123
 9297SOL    HW228791   0.678   6.559   3.263
 9298SOL     OW28792   0.981   6.482   6.190
 9298SOL    HW128793   0.965   6.580   6.196
 9298SOL    HW228794   0.953   6.438   6.275
 9299SOL     OW28795   0.991   1.357   3.971
 9299SOL    HW128796   1.079   1.367   3.925
 9299SOL    HW228797   1.001   1.377   4.069
 9300SOL     OW28798   0.510   5.229   5.205
 9300SOL    HW128799   0.586   5.294   5.198
 9300SOL    HW228800   0.455   5.234   5.121
 9301SOL     OW28801   0.038   4.482   5.065
 9301SOL    HW128802   0.123   4.429   5.064
 9301SOL    HW228803   7.004   4.442   5.131
 9302SOL     OW28804   2.194   3.056   4.589
 9302SOL    HW128805   2.200   3.013   4.679
 9302SOL    HW228806   2.192   3.156   4.600
 9303SOL     OW28807   3.124   4.324   0.847
 9303SOL    HW128808   3.062   4.290   0.776
 9303SOL    HW228809   3.076   4.394   0.901
 9304SOL     OW28810   4.205   5.227   0.544
 9304SOL    HW128811   4.115   5.270   0.554
 9304SOL    HW228812   4.266   5.289   0.494
 9305SOL     OW28813   3.629   1.222   0.485
 9305SOL    HW128814   3.561   1.150   0.476
 9305SOL    HW228815   3.674   1.236   0.397
 9306SOL     OW28816   0.384   3.777   4.935
 9306SOL    HW128817   0.472   3.748   4.972
 9306SOL    HW228818   0.387   3.875   4.915
 9307SOL     OW28819   1.317   4.217   0.629
 9307SOL    HW128820   1.406   4.261   0.617
 9307SOL    HW228821   1.329   4.118   0.626
 9308SOL     OW28822   0.569   4.817   1.609
 9308SOL    HW128823   0.518   4.839   1.526
 9308SOL    HW228824   0.563   4.719   1.626
 9309SOL     OW28825   4.085   0.042   5.959
 9309SOL    HW128826   4.165   0.002   6.004
 9309SOL    HW228827   4.062   0.128   6.004
 9310SOL     OW28828   5.150   6.129   5.692
 9310SOL    HW128829   5.095   6.206   5.724
 9310SOL    HW228830   5.105   6.086   5.614
 9311SOL     OW28831   4.972   4.326   1.059
 9311SOL    HW128832   4.980   4.241   1.111
 9311SOL    HW228833   4.897   4.381   1.098
 9312SOL     OW28834   1.908   2.014   1.187
 9312SOL    HW128835   1.877   2.051   1.275
 9312SOL    HW228836   1.864   1.926   1.172
 9313SOL     OW28837   0.793   0.815   1.500
 9313SOL    HW128838   0.710   0.860   1.534
 9313SOL    HW228839   0.858   0.804   1.575
 9314SOL     OW28840   6.085   3.572   0.852
 9314SOL    HW128841   5.998   3.532   0.882
 9314SOL    HW228842   6.109   3.648   0.913
 9315SOL     OW28843   6.014   0.705   6.008
 9315SOL    HW128844   5.967   0.766   6.071
 9315SOL    HW228845   6.079   0.648   6.059
 9316SOL     OW28846   6.117   6.890   4.914
 9316SOL    HW128847   6.074   6.801   4.896
 9316SOL    HW228848   6.084   6.958   4.849
 9317SOL     OW28849   3.793   4.863   3.501
 9317SOL    HW128850   3.800   4.907   3.590
 9317SOL    HW228851   3.830   4.924   3.431
 9318SOL     OW28852   4.314   6.316   0.293
 9318SOL    HW128853   4.263   6.396   0.259
 9318SOL    HW228854   4.266   6.278   0.372
 9319SOL     OW28855   2.088   3.019   0.800
 9319SOL    HW128856   2.064   2.972   0.715
 9319SOL    HW228857   2.186   3.010   0.817
 9320SOL     OW28858   4.513   0.554   6.096
 9320SOL    HW128859   4.555   0.463   6.090
 9320SOL    HW228860   4.428   0.555   6.045
 9321SOL     OW28861   1.106   2.174   5.589
 9321SOL    HW128862   1.131   2.089   5.543
 9321SOL    HW228863   1.009   2.171   5.615
 9322SOL     OW28864   6.511   4.674   6.203
 9322SOL    HW128865   6.440   4.726   6.250
 9322SOL    HW228866   6.552   4.730   6.131
 9323SOL     OW28867   2.139   1.998   4.641
 9323SOL    HW128868   2.225   2.000   4.693
 9323SOL    HW228869   2.116   2.090   4.610
 9324SOL     OW28870   1.780   3.614   1.006
 9324SOL    HW128871   1.799   3.521   0.973
 9324SOL    HW228872   1.776   3.613   1.106
 9325SOL     OW28873   0.903   6.398   1.758
 9325SOL    HW128874   0.839   6.324   1.738
 9325SOL    HW228875   0.912   6.457   1.679
 9326SOL     OW28876   3.212   5.419   6.816
 9326SOL    HW128877   3.183   5.485   6.885
 9326SOL    HW228878   3.308   5.394   6.832
 9327SOL     OW28879   4.667   0.161   3.142
 9327SOL    HW128880   4.581   0.193   3.182
 9327SOL    HW228881   4.678   0.064   3.162
 9328SOL     OW28882   2.163   6.812   4.846
 9328SOL    HW128883   2.136   6.724   4.806
 9328SOL    HW228884   2.254   6.804   4.886
 9329SOL     OW28885   6.879   5.562   0.233
 9329SOL    HW128886   6.871   5.500   0.156
 9329SOL    HW228887   6.942   5.636   0.210
 9330SOL     OW28888   0.538   0.041   6.725
 9330SOL    HW128889   0.522   0.100   6.646
 9330SOL    HW228890   0.461   0.049   6.788
 9331SOL     OW28891   2.006   2.538   5.823
 9331SOL    HW128892   2.005   2.444   5.856
 9331SOL    HW228893   1.913   2.565   5.796
 9332SOL     OW28894   3.948   5.350   0.234
 9332SOL    HW128895   4.018   5.386   0.173
 9332SOL    HW228896   3.961   5.251   0.246
 9333SOL     OW28897   3.919   5.617   0.367
 9333SOL    HW128898   3.979   5.581   0.295
 9333SOL    HW228899   3.838   5.559   0.374
 9334SOL     OW28900   5.182   0.449   4.159
 9334SOL    HW128901   5.236   0.433   4.242
 9334SOL    HW228902   5.220   0.394   4.085
 9335SOL     OW28903   1.988   2.235   0.440
 9335SOL    HW128904   1.979   2.137   0.422
 9335SOL    HW228905   1.943   2.287   0.368
 9336SOL     OW28906   5.457   0.001   4.410
 9336SOL    HW128907   5.555   7.024   4.394
 9336SOL    HW228908   5.427   6.954   4.467
 9337SOL     OW28909   4.849   0.767   6.780
 9337SOL    HW128910   4.892   0.730   6.698
 9337SOL    HW228911   4.818   0.860   6.762
 9338SOL     OW28912   6.780   5.737   0.614
 9338SOL    HW128913   6.824   5.647   0.617
 9338SOL    HW228914   6.722   5.742   0.533
 9339SOL     OW28915   5.393   5.694   0.595
 9339SOL    HW128916   5.380   5.723   0.500
 9339SOL    HW228917   5.401   5.774   0.654
 9340SOL     OW28918   4.039   5.013   2.748
 9340SOL    HW128919   4.003   4.979   2.661
 9340SOL    HW228920   3.966   5.061   2.797
 9341SOL     OW28921   6.515   4.460   6.689
 9341SOL    HW128922   6.581   4.440   6.761
 9341SOL    HW228923   6.438   4.398   6.696
 9342SOL     OW28924   2.886   0.298   4.394
 9342SOL    HW128925   2.953   0.330   4.327
 9342SOL    HW228926   2.821   0.236   4.348
 9343SOL     OW28927   5.136   3.700   1.869
 9343SOL    HW128928   5.040   3.723   1.882
 9343SOL    HW228929   5.165   3.726   1.777
 9344SOL     OW28930   4.972   5.836   6.376
 9344SOL    HW128931   5.065   5.860   6.403
 9344SOL    HW228932   4.930   5.913   6.328
 9345SOL     OW28933   6.001   5.113   0.058
 9345SOL    HW128934   6.080   5.170   0.082
 9345SOL    HW228935   6.028   5.016   0.064
 9346SOL     OW28936   4.688   6.196   2.590
 9346SOL    HW128937   4.725   6.289   2.593
 9346SOL    HW228938   4.680   6.166   2.495
 9347SOL     OW28939   3.656   5.993   0.496
 9347SOL    HW128940   3.583   5.926   0.512
 9347SOL    HW228941   3.739   5.963   0.543
 9348SOL     OW28942   2.899   5.189   2.910
 9348SOL    HW128943   2.935   5.180   2.817
 9348SOL    HW228944   2.916   5.282   2.944
 9349SOL     OW28945   6.200   6.015   2.259
 9349SOL    HW128946   6.173   6.039   2.166
 9349SOL    HW228947   6.119   6.001   2.315
 9350SOL     OW28948   0.256   1.609   4.129
 9350SOL    HW128949   0.338   1.579   4.179
 9350SOL    HW228950   0.262   1.578   4.034
 9351SOL     OW28951   2.660   0.148   6.100
 9351SOL    HW128952   2.598   0.131   6.024
 9351SOL    HW228953   2.642   0.238   6.139
 9352SOL     OW28954   2.231   3.266   5.845
 9352SOL    HW128955   2.177   3.188   5.810
 9352SOL    HW228956   2.199   3.290   5.937
 9353SOL     OW28957   1.614   4.236   2.074
 9353SOL    HW128958   1.614   4.163   2.006
 9353SOL    HW228959   1.649   4.320   2.033
 9354SOL     OW28960   5.912   1.401   1.106
 9354SOL    HW128961   5.846   1.337   1.066
 9354SOL    HW228962   5.987   1.416   1.041
 9355SOL     OW28963   6.376   1.119   4.143
 9355SOL    HW128964   6.285   1.159   4.133
 9355SOL    HW228965   6.442   1.192   4.163
 9356SOL     OW28966   4.734   5.146   2.175
 9356SOL    HW128967   4.726   5.244   2.158
 9356SOL    HW228968   4.663   5.118   2.240
 9357SOL     OW28969   2.018   4.091   6.928
 9357SOL    HW128970   1.980   4.005   6.963
 9357SOL    HW228971   2.028   4.085   6.829
 9358SOL     OW28972   5.993   3.386   1.601
 9358SOL    HW128973   6.063   3.450   1.631
 9358SOL    HW228974   6.036   3.308   1.556
 9359SOL     OW28975   0.618   3.765   5.346
 9359SOL    HW128976   0.520   3.781   5.333
 9359SOL    HW228977   0.654   3.829   5.414
 9360SOL     OW28978   0.927   0.086   5.709
 9360SOL    HW128979   0.884   0.029   5.778
 9360SOL    HW228980   0.877   0.078   5.623
 9361SOL     OW28981   2.550   6.191   3.473
 9361SOL    HW128982   2.597   6.103   3.469
 9361SOL    HW228983   2.456   6.178   3.503
 9362SOL     OW28984   1.618   1.149   1.760
 9362SOL    HW128985   1.626   1.214   1.836
 9362SOL    HW228986   1.544   1.085   1.778
 9363SOL     OW28987   4.320   5.278   2.197
 9363SOL    HW128988   4.283   5.370   2.196
 9363SOL    HW228989   4.255   5.216   2.241
 9364SOL     OW28990   4.222   3.551   6.093
 9364SOL    HW128991   4.294   3.620   6.084
 9364SOL    HW228992   4.263   3.462   6.112
 9365SOL     OW28993   2.711   1.701   5.199
 9365SOL    HW128994   2.709   1.773   5.130
 9365SOL    HW228995   2.711   1.741   5.290
 9366SOL     OW28996   3.267   1.650   6.728
 9366SOL    HW128997   3.176   1.630   6.764
 9366SOL    HW228998   3.280   1.605   6.640
 9367SOL     OW28999   0.178   5.826   3.644
 9367SOL    HW129000   0.095   5.772   3.657
 9367SOL    HW229001   0.178   5.903   3.708
 9368SOL     OW29002   2.967   2.023   3.608
 9368SOL    HW129003   2.905   2.099   3.625
 9368SOL    HW229004   3.046   2.055   3.555
 9369SOL     OW29005   0.788   0.420   6.307
 9369SOL    HW129006   0.759   0.334   6.263
 9369SOL    HW229007   0.888   0.420   6.316
 9370SOL     OW29008   4.930   0.498   2.582
 9370SOL    HW129009   4.907   0.401   2.593
 9370SOL    HW229010   4.883   0.534   2.501
 9371SOL     OW29011   2.002   4.738   0.110
 9371SOL    HW129012   2.012   4.796   0.029
 9371SOL    HW229013   2.038   4.786   0.190
 9372SOL     OW29014   5.391   5.857   3.035
 9372SOL    HW129015   5.401   5.930   3.103
 9372SOL    HW229016   5.314   5.798   3.059
 9373SOL     OW29017   4.886   2.225   2.465
 9373SOL    HW129018   4.985   2.224   2.481
 9373SOL    HW229019   4.839   2.247   2.551
 9374SOL     OW29020   6.506   3.226   6.997
 9374SOL    HW129021   6.602   3.239   7.021
 9374SOL    HW229022   6.499   3.166   6.918
 9375SOL     OW29023   7.009   2.281   3.195
 9375SOL    HW129024   7.011   2.196   3.249
 9375SOL    HW229025   7.021   2.259   3.098
 9376SOL     OW29026   2.490   3.623   1.147
 9376SOL    HW129027   2.426   3.616   1.224
 9376SOL    HW229028   2.568   3.563   1.164
 9377SOL     OW29029   1.461   5.860   3.563
 9377SOL    HW129030   1.449   5.913   3.647
 9377SOL    HW229031   1.466   5.923   3.485
 9378SOL     OW29032   0.408   0.199   5.381
 9378SOL    HW129033   0.410   0.159   5.289
 9378SOL    HW229034   0.499   0.231   5.406
 9379SOL     OW29035   4.831   4.716   5.428
 9379SOL    HW129036   4.872   4.732   5.338
 9379SOL    HW229037   4.867   4.782   5.494
 9380SOL     OW29038   6.161   4.325   4.932
 9380SOL    HW129039   6.159   4.316   4.832
 9380SOL    HW229040   6.208   4.410   4.957
 9381SOL     OW29041   2.238   3.435   6.078
 9381SOL    HW129042   2.326   3.482   6.070
 9381SOL    HW229043   2.165   3.503   6.082
 9382SOL     OW29044   3.498   1.533   3.577
 9382SOL    HW129045   3.586   1.487   3.575
 9382SOL    HW229046   3.508   1.623   3.619
 9383SOL     OW29047   2.478   6.246   4.497
 9383SOL    HW129048   2.548   6.226   4.428
 9383SOL    HW229049   2.472   6.345   4.510
 9384SOL     OW29050   3.366   5.832   1.498
 9384SOL    HW129051   3.457   5.816   1.458
 9384SOL    HW229052   3.342   5.928   1.487
 9385SOL     OW29053   4.756   1.378   2.999
 9385SOL    HW129054   4.777   1.473   3.023
 9385SOL    HW229055   4.719   1.375   2.906
 9386SOL     OW29056   1.979   6.416   5.056
 9386SOL    HW129057   1.977   6.510   5.090
 9386SOL    HW229058   2.004   6.354   5.131
 9387SOL     OW29059   2.892   1.100   6.745
 9387SOL    HW129060   2.871   1.176   6.684
 9387SOL    HW229061   2.915   1.019   6.691
 9388SOL     OW29062   2.157   5.404   2.705
 9388SOL    HW129063   2.109   5.488   2.731
 9388SOL    HW229064   2.125   5.328   2.761
 9389SOL     OW29065   1.926   0.054   5.025
 9389SOL    HW129066   1.896   7.028   5.103
 9389SOL    HW229067   1.917   0.002   4.941
 9390SOL     OW29068   3.993   5.448   5.043
 9390SOL    HW129069   4.091   5.450   5.022
 9390SOL    HW229070   3.944   5.408   4.966
 9391SOL     OW29071   2.478   0.491   4.914
 9391SOL    HW129072   2.462   0.434   4.833
 9391SOL    HW229073   2.456   0.439   4.996
 9392SOL     OW29074   0.165   0.356   5.389
 9392SOL    HW129075   0.165   0.384   5.485
 9392SOL    HW229076   0.258   0.332   5.361
 9393SOL     OW29077   2.695   0.350   5.190
 9393SOL    HW129078   2.600   0.338   5.160
 9393SOL    HW229079   2.697   0.409   5.270
 9394SOL     OW29080   0.027   1.789   2.178
 9394SOL    HW129081   6.996   1.853   2.132
 9394SOL    HW229082   0.012   1.697   2.143
 9395SOL     OW29083   2.607   2.231   0.198
 9395SOL    HW129084   2.653   2.220   0.286
 9395SOL    HW229085   2.535   2.300   0.207
 9396SOL     OW29086   0.968   5.443   3.537
 9396SOL    HW129087   1.046   5.469   3.481
 9396SOL    HW229088   0.925   5.525   3.576
 9397SOL     OW29089   2.905   0.309   0.701
 9397SOL    HW129090   2.832   0.321   0.634
 9397SOL    HW229091   2.912   0.391   0.758
 9398SOL     OW29092   1.295   0.377   5.578
 9398SOL    HW129093   1.272   0.280   5.583
 9398SOL    HW229094   1.211   0.431   5.581
 9399SOL     OW29095   0.377   1.611   6.850
 9399SOL    HW129096   0.456   1.641   6.798
 9399SOL    HW229097   0.293   1.644   6.807
 9400SOL     OW29098   4.664   2.296   1.648
 9400SOL    HW129099   4.749   2.346   1.630
 9400SOL    HW229100   4.684   2.218   1.707
 9401SOL     OW29101   4.479   0.038   3.352
 9401SOL    HW129102   4.424   0.028   3.435
 9401SOL    HW229103   4.556   7.005   3.355
 9402SOL     OW29104   1.005   5.139   4.143
 9402SOL    HW129105   1.085   5.138   4.203
 9402SOL    HW229106   0.959   5.227   4.151
 9403SOL     OW29107   5.804   1.380   3.155
 9403SOL    HW129108   5.802   1.420   3.247
 9403SOL    HW229109   5.717   1.334   3.137
 9404SOL     OW29110   0.722   3.154   5.692
 9404SOL    HW129111   0.775   3.227   5.649
 9404SOL    HW229112   0.719   3.169   5.791
 9405SOL     OW29113   0.382   5.881   2.271
 9405SOL    HW129114   0.330   5.823   2.334
 9405SOL    HW229115   0.458   5.829   2.233
 9406SOL     OW29116   6.936   2.846   6.261
 9406SOL    HW129117   6.928   2.772   6.328
 9406SOL    HW229118   6.960   2.931   6.307
 9407SOL     OW29119   2.597   5.192   3.224
 9407SOL    HW129120   2.595   5.286   3.259
 9407SOL    HW229121   2.609   5.129   3.300
 9408SOL     OW29122   4.047   1.751   6.333
 9408SOL    HW129123   4.052   1.658   6.368
 9408SOL    HW229124   4.010   1.750   6.240
 9409SOL     OW29125   5.767   4.543   6.336
 9409SOL    HW129126   5.720   4.523   6.422
 9409SOL    HW229127   5.752   4.467   6.272
 9410SOL     OW29128   2.920   6.115   2.196
 9410SOL    HW129129   2.970   6.072   2.121
 9410SOL    HW229130   2.972   6.194   2.229
 9411SOL     OW29131   4.275   3.757   1.808
 9411SOL    HW129132   4.235   3.730   1.896
 9411SOL    HW229133   4.202   3.776   1.743
 9412SOL     OW29134   0.353   3.038   1.931
 9412SOL    HW129135   0.335   3.011   1.837
 9412SOL    HW229136   0.331   2.962   1.992
 9413SOL     OW29137   3.690   6.029   4.344
 9413SOL    HW129138   3.701   5.930   4.349
 9413SOL    HW229139   3.779   6.072   4.329
 9414SOL     OW29140   3.194   0.848   3.710
 9414SOL    HW129141   3.277   0.792   3.707
 9414SOL    HW229142   3.117   0.792   3.740
 9415SOL     OW29143   2.678   0.129   2.019
 9415SOL    HW129144   2.663   0.189   1.940
 9415SOL    HW229145   2.646   0.174   2.102
 9416SOL     OW29146   0.914   1.503   0.933
 9416SOL    HW129147   0.873   1.428   0.985
 9416SOL    HW229148   0.843   1.555   0.887
 9417SOL     OW29149   3.621   6.574   5.608
 9417SOL    HW129150   3.667   6.515   5.675
 9417SOL    HW229151   3.674   6.657   5.595
 9418SOL     OW29152   3.297   6.107   1.510
 9418SOL    HW129153   3.312   6.200   1.476
 9418SOL    HW229154   3.248   6.111   1.597
 9419SOL     OW29155   3.191   5.118   5.586
 9419SOL    HW129156   3.187   5.020   5.566
 9419SOL    HW229157   3.100   5.151   5.608
 9420SOL     OW29158   0.426   2.708   4.622
 9420SOL    HW129159   0.369   2.687   4.542
 9420SOL    HW229160   0.427   2.629   4.683
 9421SOL     OW29161   1.899   6.208   4.852
 9421SOL    HW129162   1.877   6.204   4.754
 9421SOL    HW229163   1.997   6.228   4.863
 9422SOL     OW29164   4.640   6.384   2.906
 9422SOL    HW129165   4.551   6.340   2.918
 9422SOL    HW229166   4.713   6.319   2.928
 9423SOL     OW29167   4.355   0.798   3.308
 9423SOL    HW129168   4.360   0.892   3.343
 9423SOL    HW229169   4.416   0.788   3.230
 9424SOL     OW29170   4.562   1.049   4.955
 9424SOL    HW129171   4.568   1.008   4.864
 9424SOL    HW229172   4.477   1.020   4.999
 9425SOL     OW29173   0.061   3.549   6.535
 9425SOL    HW129174   0.106   3.532   6.623
 9425SOL    HW229175   0.123   3.600   6.475
 9426SOL     OW29176   2.745   2.087   0.018
 9426SOL    HW129177   2.717   1.999   0.055
 9426SOL    HW229178   2.695   2.160   0.065
 9427SOL     OW29179   2.736   5.504   4.630
 9427SOL    HW129180   2.727   5.416   4.677
 9427SOL    HW229181   2.792   5.491   4.548
 9428SOL     OW29182   5.083   0.583   1.169
 9428SOL    HW129183   5.101   0.603   1.072
 9428SOL    HW229184   5.157   0.618   1.225
 9429SOL     OW29185   1.986   4.312   2.076
 9429SOL    HW129186   1.948   4.248   2.142
 9429SOL    HW229187   1.990   4.268   1.986
 9430SOL     OW29188   6.797   4.435   1.895
 9430SOL    HW129189   6.864   4.447   1.822
 9430SOL    HW229190   6.820   4.494   1.972
 9431SOL     OW29191   5.681   3.821   1.031
 9431SOL    HW129192   5.600   3.821   0.973
 9431SOL    HW229193   5.657   3.853   1.123
 9432SOL     OW29194   5.700   1.034   2.610
 9432SOL    HW129195   5.765   1.101   2.648
 9432SOL    HW229196   5.689   0.958   2.674
 9433SOL     OW29197   3.844   5.002   3.747
 9433SOL    HW129198   3.832   4.951   3.833
 9433SOL    HW229199   3.930   5.054   3.751
 9434SOL     OW29200   5.123   5.289   3.138
 9434SOL    HW129201   5.043   5.244   3.177
 9434SOL    HW229202   5.195   5.222   3.123
 9435SOL     OW29203   0.503   2.132   4.859
 9435SOL    HW129204   0.471   2.178   4.777
 9435SOL    HW229205   0.444   2.154   4.936
 9436SOL     OW29206   1.358   3.478   1.911
 9436SOL    HW129207   1.342   3.576   1.908
 9436SOL    HW229208   1.456   3.460   1.926
 9437SOL     OW29209   2.141   6.530   3.222
 9437SOL    HW129210   2.220   6.500   3.277
 9437SOL    HW229211   2.057   6.495   3.262
 9438SOL     OW29212   0.266   7.001   1.961
 9438SOL    HW129213   0.312   0.032   1.896
 9438SOL    HW229214   0.172   6.986   1.931
 9439SOL     OW29215   0.890   2.453   2.099
 9439SOL    HW129216   0.853   2.500   2.019
 9439SOL    HW229217   0.904   2.357   2.078
 9440SOL     OW29218   4.254   5.470   4.077
 9440SOL    HW129219   4.251   5.502   4.171
 9440SOL    HW229220   4.349   5.465   4.046
 9441SOL     OW29221   1.506   3.310   4.819
 9441SOL    HW129222   1.419   3.277   4.784
 9441SOL    HW229223   1.574   3.310   4.745
 9442SOL     OW29224   4.432   3.236   0.112
 9442SOL    HW129225   4.482   3.223   0.026
 9442SOL    HW229226   4.341   3.271   0.092
 9443SOL     OW29227   2.271   5.235   1.529
 9443SOL    HW129228   2.243   5.330   1.517
 9443SOL    HW229229   2.259   5.207   1.624
 9444SOL     OW29230   1.241   3.882   6.520
 9444SOL    HW129231   1.318   3.820   6.533
 9444SOL    HW229232   1.244   3.954   6.590
 9445SOL     OW29233   5.719   3.842   2.568
 9445SOL    HW129234   5.736   3.878   2.659
 9445SOL    HW229235   5.621   3.847   2.548
 9446SOL     OW29236   6.820   6.406   4.151
 9446SOL    HW129237   6.744   6.455   4.109
 9446SOL    HW229238   6.818   6.418   4.250
 9447SOL     OW29239   6.133   3.618   3.365
 9447SOL    HW129240   6.052   3.661   3.327
 9447SOL    HW229241   6.175   3.558   3.297
 9448SOL     OW29242   6.613   6.701   6.233
 9448SOL    HW129243   6.519   6.735   6.243
 9448SOL    HW229244   6.670   6.735   6.308
 9449SOL     OW29245   6.982   5.876   6.914
 9449SOL    HW129246   0.037   5.889   6.863
 9449SOL    HW229247   6.913   5.941   6.882
 9450SOL     OW29248   3.189   5.361   5.191
 9450SOL    HW129249   3.172   5.293   5.119
 9450SOL    HW229250   3.111   5.363   5.253
 9451SOL     OW29251   3.904   6.323   6.094
 9451SOL    HW129252   3.939   6.410   6.057
 9451SOL    HW229253   3.865   6.269   6.019
 9452SOL     OW29254   0.965   3.806   0.437
 9452SOL    HW129255   0.979   3.794   0.535
 9452SOL    HW229256   0.987   3.900   0.412
 9453SOL     OW29257   2.417   5.248   3.588
 9453SOL    HW129258   2.348   5.314   3.617
 9453SOL    HW229259   2.385   5.200   3.506
 9454SOL     OW29260   1.899   3.788   6.698
 9454SOL    HW129261   1.995   3.810   6.714
 9454SOL    HW229262   1.879   3.697   6.733
 9455SOL     OW29263   4.221   1.684   2.816
 9455SOL    HW129264   4.318   1.665   2.831
 9455SOL    HW229265   4.175   1.693   2.905
 9456SOL     OW29266   0.560   3.678   0.810
 9456SOL    HW129267   0.512   3.592   0.824
 9456SOL    HW229268   0.657   3.667   0.833
 9457SOL     OW29269   2.449   4.283   5.269
 9457SOL    HW129270   2.446   4.195   5.221
 9457SOL    HW229271   2.357   4.323   5.269
 9458SOL     OW29272   1.243   2.914   6.520
 9458SOL    HW129273   1.228   2.992   6.460
 9458SOL    HW229274   1.261   2.946   6.613
 9459SOL     OW29275   5.436   4.932   2.497
 9459SOL    HW129276   5.455   4.836   2.516
 9459SOL    HW229277   5.459   4.988   2.577
 9460SOL     OW29278   6.945   2.618   4.183
 9460SOL    HW129279   6.877   2.568   4.130
 9460SOL    HW229280   6.911   2.631   4.277
 9461SOL     OW29281   6.894   1.799   2.686
 9461SOL    HW129282   6.908   1.857   2.606
 9461SOL    HW229283   6.930   1.707   2.667
 9462SOL     OW29284   2.149   3.742   3.090
 9462SOL    HW129285   2.155   3.783   3.181
 9462SOL    HW229286   2.101   3.805   3.029
 9463SOL     OW29287   0.159   0.634   1.387
 9463SOL    HW129288   0.181   0.731   1.396
 9463SOL    HW229289   0.235   0.587   1.342
 9464SOL     OW29290   6.275   6.789   1.114
 9464SOL    HW129291   6.244   6.795   1.209
 9464SOL    HW229292   6.364   6.834   1.105
 9465SOL     OW29293   0.496   6.397   3.667
 9465SOL    HW129294   0.524   6.493   3.679
 9465SOL    HW229295   0.397   6.390   3.679
 9466SOL     OW29296   4.055   4.499   5.329
 9466SOL    HW129297   3.998   4.418   5.334
 9466SOL    HW229298   4.134   4.481   5.269
 9467SOL     OW29299   1.366   2.412   1.395
 9467SOL    HW129300   1.303   2.348   1.439
 9467SOL    HW229301   1.446   2.362   1.361
 9468SOL     OW29302   5.964   2.447   6.197
 9468SOL    HW129303   5.951   2.390   6.278
 9468SOL    HW229304   5.899   2.421   6.127
 9469SOL     OW29305   5.934   6.166   1.570
 9469SOL    HW129306   5.929   6.242   1.506
 9469SOL    HW229307   5.844   6.123   1.578
 9470SOL     OW29308   4.700   4.208   5.566
 9470SOL    HW129309   4.696   4.184   5.663
 9470SOL    HW229310   4.763   4.285   5.553
 9471SOL     OW29311   6.184   1.338   4.255
 9471SOL    HW129312   6.222   1.364   4.166
 9471SOL    HW229313   6.258   1.328   4.322
 9472SOL     OW29314   5.983   3.062   4.440
 9472SOL    HW129315   6.031   3.126   4.380
 9472SOL    HW229316   5.906   3.108   4.484
 9473SOL     OW29317   2.569   5.133   5.527
 9473SOL    HW129318   2.619   5.212   5.491
 9473SOL    HW229319   2.633   5.062   5.554
 9474SOL     OW29320   6.719   3.357   0.290
 9474SOL    HW129321   6.773   3.371   0.373
 9474SOL    HW229322   6.703   3.259   0.276
 9475SOL     OW29323   2.913   3.627   0.212
 9475SOL    HW129324   2.997   3.625   0.266
 9475SOL    HW229325   2.902   3.540   0.165
 9476SOL     OW29326   2.955   3.346   5.243
 9476SOL    HW129327   2.861   3.322   5.268
 9476SOL    HW229328   3.008   3.363   5.327
 9477SOL     OW29329   0.035   3.851   2.510
 9477SOL    HW129330   0.098   3.836   2.585
 9477SOL    HW229331   0.084   3.842   2.423
 9478SOL     OW29332   5.466   3.226   5.839
 9478SOL    HW129333   5.540   3.161   5.820
 9478SOL    HW229334   5.484   3.274   5.925
 9479SOL     OW29335   4.835   6.422   0.007
 9479SOL    HW129336   4.896   6.472   6.976
 9479SOL    HW229337   4.790   6.485   0.069
 9480SOL     OW29338   5.004   3.672   0.806
 9480SOL    HW129339   4.960   3.685   0.894
 9480SOL    HW229340   5.039   3.578   0.799
 9481SOL     OW29341   5.878   3.568   1.773
 9481SOL    HW129342   5.789   3.543   1.813
 9481SOL    HW229343   5.906   3.497   1.708
 9482SOL     OW29344   6.674   0.760   3.169
 9482SOL    HW129345   6.730   0.817   3.108
 9482SOL    HW229346   6.578   0.782   3.156
 9483SOL     OW29347   1.597   1.483   1.062
 9483SOL    HW129348   1.661   1.504   1.136
 9483SOL    HW229349   1.537   1.562   1.046
 9484SOL     OW29350   4.272   1.399   3.106
 9484SOL    HW129351   4.370   1.383   3.103
 9484SOL    HW229352   4.232   1.379   3.016
 9485SOL     OW29353   0.757   0.468   2.392
 9485SOL    HW129354   0.749   0.374   2.423
 9485SOL    HW229355   0.832   0.475   2.326
 9486SOL     OW29356   2.475   5.447   1.783
 9486SOL    HW129357   2.536   5.370   1.799
 9486SOL    HW229358   2.383   5.423   1.813
 9487SOL     OW29359   2.922   3.320   3.281
 9487SOL    HW129360   2.943   3.394   3.217
 9487SOL    HW229361   2.916   3.356   3.374
 9488SOL     OW29362   1.868   6.370   1.366
 9488SOL    HW129363   1.814   6.290   1.339
 9488SOL    HW229364   1.835   6.450   1.316
 9489SOL     OW29365   3.941   4.078   1.504
 9489SOL    HW129366   4.008   4.040   1.441
 9489SOL    HW229367   3.902   4.005   1.560
 9490SOL     OW29368   6.358   5.591   0.628
 9490SOL    HW129369   6.384   5.643   0.547
 9490SOL    HW229370   6.340   5.496   0.602
 9491SOL     OW29371   6.598   4.448   3.944
 9491SOL    HW129372   6.565   4.382   3.876
 9491SOL    HW229373   6.527   4.515   3.963
 9492SOL     OW29374   3.569   2.894   2.816
 9492SOL    HW129375   3.505   2.884   2.892
 9492SOL    HW229376   3.661   2.911   2.851
 9493SOL     OW29377   4.111   5.514   3.848
 9493SOL    HW129378   4.012   5.515   3.863
 9493SOL    HW229379   4.158   5.504   3.935
 9494SOL     OW29380   4.543   4.740   1.321
 9494SOL    HW129381   4.494   4.666   1.367
 9494SOL    HW229382   4.504   4.827   1.347
 9495SOL     OW29383   6.209   1.687   3.935
 9495SOL    HW129384   6.218   1.701   3.837
 9495SOL    HW229385   6.236   1.594   3.959
 9496SOL     OW29386   5.854   4.741   0.904
 9496SOL    HW129387   5.879   4.737   0.807
 9496SOL    HW229388   5.760   4.707   0.915
 9497SOL     OW29389   6.223   5.033   6.866
 9497SOL    HW129390   6.277   4.951   6.844
 9497SOL    HW229391   6.135   5.028   6.819
 9498SOL     OW29392   5.327   0.056   5.086
 9498SOL    HW129393   5.325   0.154   5.108
 9498SOL    HW229394   5.235   0.018   5.098
 9499SOL     OW29395   2.307   5.110   6.335
 9499SOL    HW129396   2.282   5.084   6.428
 9499SOL    HW229397   2.385   5.054   6.305
 9500SOL     OW29398   4.472   0.080   1.367
 9500SOL    HW129399   4.513   0.165   1.333
 9500SOL    HW229400   4.380   0.100   1.403
 9501SOL     OW29401   2.778   1.719   4.797
 9501SOL    HW129402   2.860   1.687   4.844
 9501SOL    HW229403   2.726   1.641   4.762
 9502SOL     OW29404   0.378   2.262   5.085
 9502SOL    HW129405   0.379   2.180   5.142
 9502SOL    HW229406   0.319   2.331   5.127
 9503SOL     OW29407   0.704   1.400   1.095
 9503SOL    HW129408   0.751   1.355   1.171
 9503SOL    HW229409   0.623   1.347   1.070
 9504SOL     OW29410   0.311   1.929   0.692
 9504SOL    HW129411   0.303   1.830   0.709
 9504SOL    HW229412   0.284   1.979   0.774
 9505SOL     OW29413   5.494   4.040   3.596
 9505SOL    HW129414   5.513   4.084   3.684
 9505SOL    HW229415   5.402   4.001   3.597
 9506SOL     OW29416   0.420   2.892   6.899
 9506SOL    HW129417   0.419   2.982   6.942
 9506SOL    HW229418   0.439   2.822   6.968
 9507SOL     OW29419   1.289   1.416   3.525
 9507SOL    HW129420   1.205   1.415   3.579
 9507SOL    HW229421   1.367   1.435   3.584
 9508SOL     OW29422   6.405   3.773   0.948
 9508SOL    HW129423   6.366   3.681   0.950
 9508SOL    HW229424   6.489   3.772   0.893
 9509SOL     OW29425   0.774   0.540   5.122
 9509SOL    HW129426   0.741   0.453   5.085
 9509SOL    HW229427   0.699   0.605   5.127
 9510SOL     OW29428   1.040   3.999   2.176
 9510SOL    HW129429   1.129   4.039   2.199
 9510SOL    HW229430   0.986   3.986   2.260
 9511SOL     OW29431   0.739   1.514   6.894
 9511SOL    HW129432   0.810   1.531   6.963
 9511SOL    HW229433   0.704   1.601   6.861
 9512SOL     OW29434   5.966   1.216   1.744
 9512SOL    HW129435   6.017   1.223   1.658
 9512SOL    HW229436   6.003   1.140   1.798
 9513SOL     OW29437   1.959   3.414   5.320
 9513SOL    HW129438   1.905   3.485   5.274
 9513SOL    HW229439   2.029   3.381   5.257
 9514SOL     OW29440   2.160   4.255   0.070
 9514SOL    HW129441   2.167   4.339   0.015
 9514SOL    HW229442   2.142   4.178   0.010
 9515SOL     OW29443   1.186   5.533   0.428
 9515SOL    HW129444   1.111   5.547   0.493
 9515SOL    HW229445   1.172   5.591   0.348
 9516SOL     OW29446   5.929   3.526   4.962
 9516SOL    HW129447   5.948   3.502   5.057
 9516SOL    HW229448   5.951   3.622   4.946
 9517SOL     OW29449   1.126   4.777   0.459
 9517SOL    HW129450   1.189   4.791   0.382
 9517SOL    HW229451   1.082   4.687   0.450
 9518SOL     OW29452   1.431   2.202   0.049
 9518SOL    HW129453   1.400   2.220   6.986
 9518SOL    HW229454   1.501   2.268   0.074
 9519SOL     OW29455   3.884   4.070   4.374
 9519SOL    HW129456   3.888   4.155   4.427
 9519SOL    HW229457   3.789   4.038   4.371
 9520SOL     OW29458   0.390   1.370   2.904
 9520SOL    HW129459   0.431   1.298   2.848
 9520SOL    HW229460   0.457   1.402   2.971
 9521SOL     OW29461   3.562   4.342   1.261
 9521SOL    HW129462   3.583   4.263   1.318
 9521SOL    HW229463   3.583   4.320   1.166
 9522SOL     OW29464   4.316   5.588   1.639
 9522SOL    HW129465   4.285   5.591   1.733
 9522SOL    HW229466   4.273   5.662   1.587
 9523SOL     OW29467   2.523   4.991   4.811
 9523SOL    HW129468   2.488   4.901   4.835
 9523SOL    HW229469   2.606   5.010   4.864
 9524SOL     OW29470   2.205   2.911   0.456
 9524SOL    HW129471   2.202   3.010   0.447
 9524SOL    HW229472   2.126   2.880   0.509
 9525SOL     OW29473   2.311   1.943   5.677
 9525SOL    HW129474   2.237   1.965   5.740
 9525SOL    HW229475   2.369   2.023   5.664
 9526SOL     OW29476   6.029   4.271   1.268
 9526SOL    HW129477   6.034   4.222   1.180
 9526SOL    HW229478   6.037   4.369   1.252
 9527SOL     OW29479   1.163   0.519   4.641
 9527SOL    HW129480   1.134   0.504   4.546
 9527SOL    HW229481   1.196   0.433   4.680
 9528SOL     OW29482   6.780   1.376   0.429
 9528SOL    HW129483   6.860   1.416   0.383
 9528SOL    HW229484   6.792   1.384   0.528
 9529SOL     OW29485   6.073   3.454   6.210
 9529SOL    HW129486   5.992   3.496   6.169
 9529SOL    HW229487   6.149   3.458   6.145
 9530SOL     OW29488   1.572   3.412   3.527
 9530SOL    HW129489   1.503   3.484   3.535
 9530SOL    HW229490   1.537   3.339   3.468
 9531SOL     OW29491   5.004   4.265   2.305
 9531SOL    HW129492   4.994   4.319   2.389
 9531SOL    HW229493   4.924   4.279   2.246
 9532SOL     OW29494   0.177   6.058   0.841
 9532SOL    HW129495   0.100   6.049   0.778
 9532SOL    HW229496   0.149   6.109   0.922
 9533SOL     OW29497   0.583   5.957   4.997
 9533SOL    HW129498   0.527   5.970   4.916
 9533SOL    HW229499   0.680   5.963   4.973
 9534SOL     OW29500   6.619   4.174   5.287
 9534SOL    HW129501   6.667   4.192   5.202
 9534SOL    HW229502   6.668   4.105   5.340
 9535SOL     OW29503   1.879   0.655   5.854
 9535SOL    HW129504   1.958   0.597   5.876
 9535SOL    HW229505   1.906   0.721   5.785
 9536SOL     OW29506   3.171   4.242   5.261
 9536SOL    HW129507   3.098   4.200   5.208
 9536SOL    HW229508   3.138   4.327   5.302
 9537SOL     OW29509   2.623   0.088   3.997
 9537SOL    HW129510   2.534   0.064   3.957
 9537SOL    HW229511   2.694   0.030   3.958
 9538SOL     OW29512   5.489   1.158   4.040
 9538SOL    HW129513   5.469   1.233   3.977
 9538SOL    HW229514   5.441   1.174   4.127
 9539SOL     OW29515   3.531   3.797   4.699
 9539SOL    HW129516   3.492   3.783   4.608
 9539SOL    HW229517   3.478   3.744   4.766
 9540SOL     OW29518   5.949   4.995   4.181
 9540SOL    HW129519   6.016   5.018   4.252
 9540SOL    HW229520   5.898   4.913   4.207
 9541SOL     OW29521   3.547   0.363   6.237
 9541SOL    HW129522   3.499   0.418   6.305
 9541SOL    HW229523   3.621   0.417   6.196
 9542SOL     OW29524   5.039   4.696   4.940
 9542SOL    HW129525   5.031   4.607   4.895
 9542SOL    HW229526   5.133   4.707   4.975
 9543SOL     OW29527   3.587   0.603   5.818
 9543SOL    HW129528   3.569   0.657   5.900
 9543SOL    HW229529   3.684   0.580   5.813
 9544SOL     OW29530   6.220   2.801   3.969
 9544SOL    HW129531   6.141   2.836   3.919
 9544SOL    HW229532   6.242   2.709   3.936
 9545SOL     OW29533   5.754   5.518   3.720
 9545SOL    HW129534   5.720   5.496   3.812
 9545SOL    HW229535   5.691   5.582   3.676
 9546SOL     OW29536   3.948   2.012   5.516
 9546SOL    HW129537   3.988   1.962   5.438
 9546SOL    HW229538   4.018   2.023   5.587
 9547SOL     OW29539   2.499   5.116   4.220
 9547SOL    HW129540   2.553   5.199   4.234
 9547SOL    HW229541   2.503   5.060   4.302
 9548SOL     OW29542   6.885   4.823   5.264
 9548SOL    HW129543   6.842   4.905   5.227
 9548SOL    HW229544   6.852   4.743   5.215
 9549SOL     OW29545   3.019   2.247   1.428
 9549SOL    HW129546   3.075   2.327   1.450
 9549SOL    HW229547   3.032   2.177   1.499
 9550SOL     OW29548   6.650   1.003   0.494
 9550SOL    HW129549   6.655   1.089   0.442
 9550SOL    HW229550   6.614   1.022   0.586
 9551SOL     OW29551   5.731   2.397   6.057
 9551SOL    HW129552   5.638   2.361   6.063
 9551SOL    HW229553   5.730   2.483   6.006
 9552SOL     OW29554   1.735   6.391   4.271
 9552SOL    HW129555   1.685   6.403   4.356
 9552SOL    HW229556   1.695   6.450   4.200
 9553SOL     OW29557   6.040   2.229   6.739
 9553SOL    HW129558   6.102   2.307   6.746
 9553SOL    HW229559   5.957   2.247   6.791
 9554SOL     OW29560   2.675   7.002   2.409
 9554SOL    HW129561   2.718   6.912   2.401
 9554SOL    HW229562   2.745   0.041   2.425
 9555SOL     OW29563   1.083   1.216   2.778
 9555SOL    HW129564   1.078   1.119   2.803
 9555SOL    HW229565   1.153   1.261   2.832
 9556SOL     OW29566   2.010   4.037   1.574
 9556SOL    HW129567   2.090   3.977   1.576
 9556SOL    HW229568   1.957   4.020   1.491
 9557SOL     OW29569   6.549   6.358   2.005
 9557SOL    HW129570   6.631   6.414   1.987
 9557SOL    HW229571   6.572   6.262   1.995
 9558SOL     OW29572   6.033   6.046   5.422
 9558SOL    HW129573   5.998   5.980   5.356
 9558SOL    HW229574   6.041   6.136   5.379
 9559SOL     OW29575   0.198   4.913   0.918
 9559SOL    HW129576   0.131   4.844   0.891
 9559SOL    HW229577   0.276   4.909   0.855
 9560SOL     OW29578   2.147   1.443   3.543
 9560SOL    HW129579   2.182   1.407   3.630
 9560SOL    HW229580   2.051   1.418   3.534
 9561SOL     OW29581   2.320   0.705   0.329
 9561SOL    HW129582   2.225   0.678   0.315
 9561SOL    HW229583   2.372   0.692   0.244
 9562SOL     OW29584   2.511   0.213   5.506
 9562SOL    HW129585   2.596   0.183   5.549
 9562SOL    HW229586   2.437   0.151   5.533
 9563SOL     OW29587   0.208   6.366   0.495
 9563SOL    HW129588   0.256   6.332   0.576
 9563SOL    HW229589   0.267   6.429   0.446
 9564SOL     OW29590   2.389   0.945   1.039
 9564SOL    HW129591   2.480   0.985   1.026
 9564SOL    HW229592   2.356   0.910   0.951
 9565SOL     OW29593   3.934   0.733   4.237
 9565SOL    HW129594   3.965   0.688   4.321
 9565SOL    HW229595   3.962   0.679   4.158
 9566SOL     OW29596   2.476   4.865   0.072
 9566SOL    HW129597   2.474   4.858   7.002
 9566SOL    HW229598   2.570   4.884   0.102
 9567SOL     OW29599   4.712   5.107   0.701
 9567SOL    HW129600   4.619   5.077   0.676
 9567SOL    HW229601   4.778   5.054   0.648
 9568SOL     OW29602   4.242   2.792   6.214
 9568SOL    HW129603   4.153   2.749   6.198
 9568SOL    HW229604   4.259   2.860   6.143
 9569SOL     OW29605   0.098   1.212   2.142
 9569SOL    HW129606   0.019   1.193   2.201
 9569SOL    HW229607   0.166   1.265   2.192
 9570SOL     OW29608   0.798   3.183   1.831
 9570SOL    HW129609   0.699   3.195   1.821
 9570SOL    HW229610   0.819   3.156   1.925
 9571SOL     OW29611   3.496   4.050   6.208
 9571SOL    HW129612   3.437   4.028   6.130
 9571SOL    HW229613   3.513   3.967   6.261
 9572SOL     OW29614   2.473   4.971   1.992
 9572SOL    HW129615   2.549   4.947   1.932
 9572SOL    HW229616   2.494   4.941   2.086
 9573SOL     OW29617   0.770   2.985   6.354
 9573SOL    HW129618   0.816   2.923   6.417
 9573SOL    HW229619   0.838   3.042   6.308
 9574SOL     OW29620   4.099   3.652   3.105
 9574SOL    HW129621   4.098   3.570   3.162
 9574SOL    HW229622   4.066   3.730   3.158
 9575SOL     OW29623   0.458   0.906   1.194
 9575SOL    HW129624   0.525   0.975   1.222
 9575SOL    HW229625   0.498   0.815   1.201
 9576SOL     OW29626   1.906   1.131   1.365
 9576SOL    HW129627   1.888   1.073   1.286
 9576SOL    HW229628   1.983   1.191   1.345
 9577SOL     OW29629   1.043   0.747   6.158
 9577SOL    HW129630   1.028   0.770   6.254
 9577SOL    HW229631   1.125   0.691   6.149
 9578SOL     OW29632   0.567   3.777   3.158
 9578SOL    HW129633   0.473   3.759   3.186
 9578SOL    HW229634   0.622   3.695   3.171
 9579SOL     OW29635   1.505   5.165   2.967
 9579SOL    HW129636   1.589   5.206   3.002
 9579SOL    HW229637   1.505   5.067   2.987
 9580SOL     OW29638   4.881   4.159   0.757
 9580SOL    HW129639   4.906   4.090   0.825
 9580SOL    HW229640   4.887   4.120   0.666
 9581SOL     OW29641   0.180   5.439   5.930
 9581SOL    HW129642   0.255   5.399   5.878
 9581SOL    HW229643   0.125   5.497   5.871
 9582SOL     OW29644   5.078   5.618   6.049
 9582SOL    HW129645   5.031   5.612   6.137
 9582SOL    HW229646   5.167   5.663   6.062
 9583SOL     OW29647   3.685   4.148   1.425
 9583SOL    HW129648   3.785   4.154   1.424
 9583SOL    HW229649   3.657   4.068   1.478
 9584SOL     OW29650   0.079   5.453   6.762
 9584SOL    HW129651   7.026   5.503   6.785
 9584SOL    HW229652   0.133   5.507   6.698
 9585SOL     OW29653   6.984   0.285   4.991
 9585SOL    HW129654   6.896   0.305   4.948
 9585SOL    HW229655   0.023   0.347   4.955
 9586SOL     OW29656   5.680   4.717   2.231
 9586SOL    HW129657   5.614   4.774   2.182
 9586SOL    HW229658   5.685   4.626   2.188
 9587SOL     OW29659   0.655   0.542   1.664
 9587SOL    HW129660   0.723   0.497   1.607
 9587SOL    HW229661   0.698   0.572   1.749
 9588SOL     OW29662   6.464   1.111   1.433
 9588SOL    HW129663   6.531   1.085   1.503
 9588SOL    HW229664   6.472   1.209   1.414
 9589SOL     OW29665   2.304   4.981   0.239
 9589SOL    HW129666   2.365   5.019   0.309
 9589SOL    HW229667   2.359   4.946   0.163
 9590SOL     OW29668   6.707   2.904   1.945
 9590SOL    HW129669   6.739   2.999   1.938
 9590SOL    HW229670   6.615   2.897   1.906
 9591SOL     OW29671   3.044   6.369   5.940
 9591SOL    HW129672   3.042   6.438   5.869
 9591SOL    HW229673   2.950   6.338   5.959
 9592SOL     OW29674   3.908   4.380   0.967
 9592SOL    HW129675   3.829   4.441   0.954
 9592SOL    HW229676   3.989   4.433   0.991
 9593SOL     OW29677   0.109   0.659   5.912
 9593SOL    HW129678   0.163   0.710   5.979
 9593SOL    HW229679   0.118   0.701   5.822
 9594SOL     OW29680   1.052   5.317   2.296
 9594SOL    HW129681   0.994   5.397   2.305
 9594SOL    HW229682   1.123   5.319   2.367
 9595SOL     OW29683   0.773   4.172   5.190
 9595SOL    HW129684   0.730   4.091   5.150
 9595SOL    HW229685   0.847   4.202   5.130
 9596SOL     OW29686   6.858   5.358   6.403
 9596SOL    HW129687   6.954   5.347   6.427
 9596SOL    HW229688   6.827   5.277   6.352
 9597SOL     OW29689   0.684   4.208   1.632
 9597SOL    HW129690   0.590   4.238   1.650
 9597SOL    HW229691   0.684   4.136   1.563
 9598SOL     OW29692   1.785   3.722   4.313
 9598SOL    HW129693   1.833   3.711   4.225
 9598SOL    HW229694   1.690   3.692   4.303
 9599SOL     OW29695   3.854   0.182   4.912
 9599SOL    HW129696   3.844   0.281   4.898
 9599SOL    HW229697   3.877   0.139   4.825
 9600SOL     OW29698   2.246   6.857   6.482
 9600SOL    HW129699   2.183   6.883   6.555
 9600SOL    HW229700   2.330   6.821   6.523
 9601SOL     OW29701   5.234   4.018   1.073
 9601SOL    HW129702   5.248   3.966   1.157
 9601SOL    HW229703   5.222   4.115   1.095
 9602SOL     OW29704   6.632   5.032   6.179
 9602SOL    HW129705   6.582   4.945   6.185
 9602SOL    HW229706   6.619   5.084   6.263
 9603SOL     OW29707   3.951   1.462   3.939
 9603SOL    HW129708   3.903   1.542   3.905
 9603SOL    HW229709   4.049   1.470   3.918
 9604SOL     OW29710   4.269   0.176   6.785
 9604SOL    HW129711   4.274   0.089   6.735
 9604SOL    HW229712   4.362   0.207   6.806
 9605SOL     OW29713   0.670   5.518   3.518
 9605SOL    HW129714   0.594   5.567   3.474
 9605SOL    HW229715   0.739   5.584   3.547
 9606SOL     OW29716   1.766   6.408   6.572
 9606SOL    HW129717   1.708   6.482   6.606
 9606SOL    HW229718   1.712   6.347   6.514
 9607SOL     OW29719   1.783   1.939   7.023
 9607SOL    HW129720   1.728   1.917   6.942
 9607SOL    HW229721   1.742   1.896   0.073
 9608SOL     OW29722   6.819   5.811   2.416
 9608SOL    HW129723   6.859   5.874   2.350
 9608SOL    HW229724   6.891   5.780   2.479
 9609SOL     OW29725   2.261   4.242   6.529
 9609SOL    HW129726   2.292   4.292   6.449
 9609SOL    HW229727   2.340   4.214   6.584
 9610SOL     OW29728   1.525   5.503   4.460
 9610SOL    HW129729   1.540   5.568   4.535
 9610SOL    HW229730   1.474   5.425   4.494
 9611SOL     OW29731   0.488   6.437   6.866
 9611SOL    HW129732   0.427   6.380   6.920
 9611SOL    HW229733   0.438   6.472   6.786
 9612SOL     OW29734   0.389   4.013   2.252
 9612SOL    HW129735   0.479   4.029   2.293
 9612SOL    HW229736   0.384   4.060   2.164
 9613SOL     OW29737   4.864   6.272   3.279
 9613SOL    HW129738   4.964   6.272   3.273
 9613SOL    HW229739   4.828   6.189   3.238
 9614SOL     OW29740   3.144   2.297   0.311
 9614SOL    HW129741   3.189   2.387   0.314
 9614SOL    HW229742   3.052   2.308   0.274
 9615SOL     OW29743   1.281   0.139   0.370
 9615SOL    HW129744   1.359   0.198   0.393
 9615SOL    HW229745   1.286   0.054   0.422
 9616SOL     OW29746   4.473   3.989   1.229
 9616SOL    HW129747   4.454   3.893   1.211
 9616SOL    HW229748   4.493   4.036   1.143
 9617SOL     OW29749   2.117   3.021   3.441
 9617SOL    HW129750   2.174   3.022   3.523
 9617SOL    HW229751   2.033   3.071   3.459
 9618SOL     OW29752   3.910   6.643   5.388
 9618SOL    HW129753   3.996   6.688   5.368
 9618SOL    HW229754   3.865   6.689   5.465
 9619SOL     OW29755   1.057   6.677   0.376
 9619SOL    HW129756   1.009   6.757   0.411
 9619SOL    HW229757   1.155   6.685   0.395
 9620SOL     OW29758   4.318   2.145   7.006
 9620SOL    HW129759   4.306   2.189   6.917
 9620SOL    HW229760   4.295   2.048   6.999
 9621SOL     OW29761   0.598   1.131   2.262
 9621SOL    HW129762   0.567   1.075   2.185
 9621SOL    HW229763   0.545   1.108   2.343
 9622SOL     OW29764   6.305   0.745   0.380
 9622SOL    HW129765   6.302   0.675   0.308
 9622SOL    HW229766   6.379   0.810   0.360
 9623SOL     OW29767   3.302   4.843   6.041
 9623SOL    HW129768   3.261   4.923   6.083
 9623SOL    HW229769   3.249   4.815   5.961
 9624SOL     OW29770   6.726   4.607   2.092
 9624SOL    HW129771   6.644   4.593   2.147
 9624SOL    HW229772   6.773   4.690   2.121
 9625SOL     OW29773   5.357   5.746   0.083
 9625SOL    HW129774   5.366   5.776   7.018
 9625SOL    HW229775   5.431   5.785   0.138
 9626SOL     OW29776   3.238   6.257   6.727
 9626SOL    HW129777   3.172   6.330   6.707
 9626SOL    HW229778   3.265   6.264   6.824
 9627SOL     OW29779   7.026   5.195   3.186
 9627SOL    HW129780   0.001   5.238   3.276
 9627SOL    HW229781   0.073   5.226   3.130
 9628SOL     OW29782   5.632   5.304   6.743
 9628SOL    HW129783   5.711   5.246   6.766
 9628SOL    HW229784   5.609   5.291   6.646
 9629SOL     OW29785   0.435   6.491   3.025
 9629SOL    HW129786   0.495   6.451   2.956
 9629SOL    HW229787   0.487   6.550   3.086
 9630SOL     OW29788   6.619   6.091   5.532
 9630SOL    HW129789   6.572   6.013   5.572
 9630SOL    HW229790   6.693   6.121   5.592
 9631SOL     OW29791   5.841   0.358   0.400
 9631SOL    HW129792   5.844   0.299   0.318
 9631SOL    HW229793   5.746   0.371   0.428
 9632SOL     OW29794   2.346   5.160   2.851
 9632SOL    HW129795   2.433   5.208   2.847
 9632SOL    HW229796   2.305   5.173   2.942
 9633SOL     OW29797   5.072   5.046   0.124
 9633SOL    HW129798   5.155   4.991   0.122
 9633SOL    HW229799   4.993   4.988   0.105
 9634SOL     OW29800   0.560   0.299   4.067
 9634SOL    HW129801   0.643   0.245   4.066
 9634SOL    HW229802   0.533   0.321   3.973
 9635SOL     OW29803   1.449   5.059   5.614
 9635SOL    HW129804   1.539   5.052   5.656
 9635SOL    HW229805   1.379   5.050   5.685
 9636SOL     OW29806   4.209   1.878   5.958
 9636SOL    HW129807   4.148   1.811   6.001
 9636SOL    HW229808   4.281   1.903   6.022
 9637SOL     OW29809   2.798   1.606   6.591
 9637SOL    HW129810   2.808   1.669   6.514
 9637SOL    HW229811   2.828   1.515   6.564
 9638SOL     OW29812   6.864   3.581   0.073
 9638SOL    HW129813   6.879   3.680   0.069
 9638SOL    HW229814   6.791   3.555   0.010
 9639SOL     OW29815   3.787   1.363   2.102
 9639SOL    HW129816   3.814   1.405   2.016
 9639SOL    HW229817   3.866   1.355   2.162
 9640SOL     OW29818   3.360   1.820   2.984
 9640SOL    HW129819   3.376   1.867   2.896
 9640SOL    HW229820   3.351   1.889   3.056
 9641SOL     OW29821   5.366   6.613   1.233
 9641SOL    HW129822   5.438   6.627   1.165
 9641SOL    HW229823   5.326   6.700   1.259
 9642SOL     OW29824   2.907   6.113   4.957
 9642SOL    HW129825   2.872   6.206   4.955
 9642SOL    HW229826   2.913   6.076   4.864
 9643SOL     OW29827   6.050   4.522   4.162
 9643SOL    HW129828   6.138   4.492   4.127
 9643SOL    HW229829   6.063   4.602   4.221
 9644SOL     OW29830   1.091   5.214   4.984
 9644SOL    HW129831   1.033   5.140   4.949
 9644SOL    HW229832   1.187   5.194   4.962
 9645SOL     OW29833   3.858   4.878   4.005
 9645SOL    HW129834   3.901   4.940   4.071
 9645SOL    HW229835   3.777   4.838   4.046
 9646SOL     OW29836   2.922   4.835   2.111
 9646SOL    HW129837   2.884   4.751   2.072
 9646SOL    HW229838   2.879   4.854   2.199
 9647SOL     OW29839   6.712   5.370   1.116
 9647SOL    HW129840   6.623   5.400   1.150
 9647SOL    HW229841   6.736   5.282   1.157
 9648SOL     OW29842   3.730   1.988   7.028
 9648SOL    HW129843   3.731   1.917   0.068
 9648SOL    HW229844   3.675   1.957   6.950
 9649SOL     OW29845   3.141   5.598   7.020
 9649SOL    HW129846   3.174   5.613   0.083
 9649SOL    HW229847   3.042   5.582   7.022
 9650SOL     OW29848   5.082   4.502   3.273
 9650SOL    HW129849   5.024   4.502   3.192
 9650SOL    HW229850   5.029   4.466   3.351
 9651SOL     OW29851   6.610   1.129   6.942
 9651SOL    HW129852   6.532   1.171   6.896
 9651SOL    HW229853   6.660   1.071   6.877
 9652SOL     OW29854   2.163   4.372   0.563
 9652SOL    HW129855   2.143   4.470   0.573
 9652SOL    HW229856   2.137   4.343   0.471
 9653SOL     OW29857   4.377   5.589   5.143
 9653SOL    HW129858   4.336   5.667   5.096
 9653SOL    HW229859   4.329   5.505   5.116
 9654SOL     OW29860   3.879   3.277   1.956
 9654SOL    HW129861   3.964   3.229   1.978
 9654SOL    HW229862   3.801   3.219   1.981
 9655SOL     OW29863   0.215   0.959   0.083
 9655SOL    HW129864   0.221   0.891   0.156
 9655SOL    HW229865   0.256   1.045   0.114
 9656SOL     OW29866   3.828   2.195   0.851
 9656SOL    HW129867   3.728   2.191   0.848
 9656SOL    HW229868   3.860   2.165   0.941
 9657SOL     OW29869   6.278   1.817   3.097
 9657SOL    HW129870   6.318   1.769   3.175
 9657SOL    HW229871   6.351   1.849   3.037
 9658SOL     OW29872   5.950   1.386   2.451
 9658SOL    HW129873   5.896   1.464   2.485
 9658SOL    HW229874   5.888   1.313   2.423
 9659SOL     OW29875   7.015   3.678   0.643
 9659SOL    HW129876   0.041   3.700   0.564
 9659SOL    HW229877   6.954   3.755   0.663
 9660SOL     OW29878   0.120   5.845   1.327
 9660SOL    HW129879   0.179   5.791   1.267
 9660SOL    HW229880   0.148   5.832   1.422
 9661SOL     OW29881   3.546   6.383   2.155
 9661SOL    HW129882   3.594   6.379   2.242
 9661SOL    HW229883   3.527   6.291   2.122
 9662SOL     OW29884   5.045   2.590   4.934
 9662SOL    HW129885   5.043   2.571   4.836
 9662SOL    HW229886   4.986   2.668   4.954
 9663SOL     OW29887   0.626   6.284   4.286
 9663SOL    HW129888   0.697   6.214   4.291
 9663SOL    HW229889   0.558   6.269   4.358
 9664SOL     OW29890   5.757   6.540   3.827
 9664SOL    HW129891   5.796   6.614   3.881
 9664SOL    HW229892   5.801   6.454   3.853
 9665SOL     OW29893   4.987   6.143   7.001
 9665SOL    HW129894   5.021   6.055   0.003
 9665SOL    HW229895   4.890   6.136   6.978
 9666SOL     OW29896   5.885   3.816   1.653
 9666SOL    HW129897   5.896   3.729   1.701
 9666SOL    HW229898   5.899   3.802   1.555
 9667SOL     OW29899   3.924   3.636   5.468
 9667SOL    HW129900   3.971   3.568   5.413
 9667SOL    HW229901   3.827   3.640   5.441
 9668SOL     OW29902   6.490   1.218   6.159
 9668SOL    HW129903   6.583   1.212   6.195
 9668SOL    HW229904   6.491   1.265   6.071
 9669SOL     OW29905   1.487   0.198   1.879
 9669SOL    HW129906   1.510   0.277   1.936
 9669SOL    HW229907   1.445   0.230   1.794
 9670SOL     OW29908   5.737   4.760   6.161
 9670SOL    HW129909   5.742   4.677   6.217
 9670SOL    HW229910   5.656   4.813   6.187
 9671SOL     OW29911   5.983   5.423   6.880
 9671SOL    HW129912   6.010   5.355   6.812
 9671SOL    HW229913   6.062   5.447   6.936
 9672SOL     OW29914   1.481   6.012   4.053
 9672SOL    HW129915   1.545   6.083   4.083
 9672SOL    HW229916   1.493   5.930   4.110
 9673SOL     OW29917   5.299   3.896   0.307
 9673SOL    HW129918   5.399   3.897   0.312
 9673SOL    HW229919   5.267   3.802   0.311
 9674SOL     OW29920   2.766   5.681   2.915
 9674SOL    HW129921   2.697   5.738   2.872
 9674SOL    HW229922   2.735   5.651   3.005
 9675SOL     OW29923   5.987   2.268   0.406
 9675SOL    HW129924   5.918   2.201   0.431
 9675SOL    HW229925   6.072   2.221   0.383
 9676SOL     OW29926   1.277   3.357   5.481
 9676SOL    HW129927   1.309   3.265   5.504
 9676SOL    HW229928   1.310   3.422   5.549
 9677SOL     OW29929   1.532   5.433   5.111
 9677SOL    HW129930   1.560   5.337   5.122
 9677SOL    HW229931   1.436   5.442   5.137
 9678SOL     OW29932   3.275   3.393   3.291
 9678SOL    HW129933   3.203   3.442   3.241
 9678SOL    HW229934   3.242   3.302   3.317
 9679SOL     OW29935   2.411   0.989   2.246
 9679SOL    HW129936   2.383   1.018   2.155
 9679SOL    HW229937   2.333   0.954   2.296
 9680SOL     OW29938   5.459   0.882   3.360
 9680SOL    HW129939   5.458   0.970   3.314
 9680SOL    HW229940   5.481   0.895   3.457
 9681SOL     OW29941   3.222   1.262   7.005
 9681SOL    HW129942   3.320   1.282   7.012
 9681SOL    HW229943   3.174   1.303   0.052
 9682SOL     OW29944   4.965   4.853   4.192
 9682SOL    HW129945   4.882   4.809   4.158
 9682SOL    HW229946   4.967   4.948   4.160
 9683SOL     OW29947   2.583   5.286   1.172
 9683SOL    HW129948   2.600   5.197   1.130
 9683SOL    HW229949   2.669   5.324   1.206
 9684SOL     OW29950   0.722   2.912   5.322
 9684SOL    HW129951   0.721   2.909   5.422
 9684SOL    HW229952   0.631   2.937   5.288
 9685SOL     OW29953   2.244   4.221   1.596
 9685SOL    HW129954   2.208   4.188   1.684
 9685SOL    HW229955   2.191   4.181   1.522
 9686SOL     OW29956   6.952   1.397   0.197
 9686SOL    HW129957   6.953   1.297   0.195
 9686SOL    HW229958   6.874   1.431   0.144
 9687SOL     OW29959   1.707   0.662   4.124
 9687SOL    HW129960   1.686   0.565   4.136
 9687SOL    HW229961   1.790   0.685   4.176
 9688SOL     OW29962   0.084   2.282   2.687
 9688SOL    HW129963   0.014   2.315   2.623
 9688SOL    HW229964   0.100   2.185   2.671
 9689SOL     OW29965   1.483   6.092   0.121
 9689SOL    HW129966   1.426   6.133   0.192
 9689SOL    HW229967   1.570   6.064   0.161
 9690SOL     OW29968   5.915   5.938   6.551
 9690SOL    HW129969   5.832   5.909   6.598
 9690SOL    HW229970   5.965   5.858   6.519
 9691SOL     OW29971   2.746   5.110   1.524
 9691SOL    HW129972   2.743   5.036   1.590
 9691SOL    HW229973   2.787   5.078   1.439
 9692SOL     OW29974   3.557   5.340   2.818
 9692SOL    HW129975   3.476   5.320   2.874
 9692SOL    HW229976   3.616   5.403   2.867
 9693SOL     OW29977   6.222   5.415   1.571
 9693SOL    HW129978   6.237   5.454   1.662
 9693SOL    HW229979   6.295   5.445   1.510
 9694SOL     OW29980   2.092   1.147   0.178
 9694SOL    HW129981   2.184   1.183   0.190
 9694SOL    HW229982   2.096   1.055   0.141
 9695SOL     OW29983   0.216   3.592   1.856
 9695SOL    HW129984   0.299   3.569   1.908
 9695SOL    HW229985   0.144   3.620   1.920
 9696SOL     OW29986   5.056   3.387   0.749
 9696SOL    HW129987   5.031   3.329   0.671
 9696SOL    HW229988   5.148   3.365   0.779
 9697SOL     OW29989   0.541   6.141   6.160
 9697SOL    HW129990   0.458   6.192   6.183
 9697SOL    HW229991   0.540   6.053   6.206
 9698SOL     OW29992   4.749   1.653   5.693
 9698SOL    HW129993   4.702   1.591   5.756
 9698SOL    HW229994   4.686   1.724   5.663
 9699SOL     OW29995   6.995   5.229   6.907
 9699SOL    HW129996   6.928   5.170   6.861
 9699SOL    HW229997   7.019   5.304   6.846
 9700SOL     OW29998   4.339   5.131   4.850
 9700SOL    HW129999   4.374   5.093   4.936
 9700SOL    HW230000   4.275   5.066   4.809
 9701SOL     OW30001   3.834   5.286   5.180
 9701SOL    HW130002   3.899   5.358   5.154
 9701SOL    HW230003   3.815   5.228   5.101
 9702SOL     OW30004   4.930   0.448   6.977
 9702SOL    HW130005   4.906   0.534   7.021
 9702SOL    HW230006   4.869   0.375   7.009
 9703SOL     OW30007   4.516   4.483   4.136
 9703SOL    HW130008   4.546   4.474   4.232
 9703SOL    HW230009   4.455   4.562   4.128
 9704SOL     OW30010   2.993   0.877   3.371
 9704SOL    HW130011   3.045   0.947   3.419
 9704SOL    HW230012   2.913   0.919   3.328
 9705SOL     OW30013   5.326   5.065   6.062
 9705SOL    HW130014   5.233   5.097   6.043
 9705SOL    HW230015   5.340   5.060   6.161
 9706SOL     OW30016   0.601   2.814   1.004
 9706SOL    HW130017   0.537   2.771   1.067
 9706SOL    HW230018   0.676   2.751   0.985
 9707SOL     OW30019   6.126   4.497   1.435
 9707SOL    HW130020   6.114   4.556   1.515
 9707SOL    HW230021   6.165   4.551   1.360
 9708SOL     OW30022   1.752   2.133   2.286
 9708SOL    HW130023   1.845   2.164   2.308
 9708SOL    HW230024   1.687   2.206   2.306
 9709SOL     OW30025   5.792   6.069   2.984
 9709SOL    HW130026   5.820   6.074   3.080
 9709SOL    HW230027   5.870   6.092   2.925
 9710SOL     OW30028   0.088   1.493   1.963
 9710SOL    HW130029   0.029   1.519   2.040
 9710SOL    HW230030   0.051   1.411   1.918
 9711SOL     OW30031   2.401   4.646   6.166
 9711SOL    HW130032   2.315   4.639   6.115
 9711SOL    HW230033   2.410   4.569   6.228
 9712SOL     OW30034   5.981   4.791   6.034
 9712SOL    HW130035   5.970   4.749   5.944
 9712SOL    HW230036   5.893   4.795   6.081
 9713SOL     OW30037   1.191   5.093   3.435
 9713SOL    HW130038   1.243   5.178   3.440
 9713SOL    HW230039   1.093   5.114   3.432
 9714SOL     OW30040   2.665   1.095   1.103
 9714SOL    HW130041   2.643   1.136   1.191
 9714SOL    HW230042   2.643   1.160   1.030
 9715SOL     OW30043   5.504   4.059   6.123
 9715SOL    HW130044   5.527   4.154   6.100
 9715SOL    HW230045   5.489   4.052   6.222
 9716SOL     OW30046   4.110   3.038   6.739
 9716SOL    HW130047   4.093   3.056   6.836
 9716SOL    HW230048   4.023   3.018   6.694
 9717SOL     OW30049   5.419   6.023   6.093
 9717SOL    HW130050   5.375   6.092   6.036
 9717SOL    HW230051   5.434   6.060   6.185
 9718SOL     OW30052   5.230   2.614   1.048
 9718SOL    HW130053   5.214   2.677   1.124
 9718SOL    HW230054   5.329   2.604   1.034
 9719SOL     OW30055   0.135   1.832   6.702
 9719SOL    HW130056   0.135   1.925   6.666
 9719SOL    HW230057   0.182   1.772   6.637
 9720SOL     OW30058   0.148   5.621   1.990
 9720SOL    HW130059   0.195   5.620   2.079
 9720SOL    HW230060   0.101   5.708   1.978
 9721SOL     OW30061   0.367   2.429   1.532
 9721SOL    HW130062   0.327   2.370   1.462
 9721SOL    HW230063   0.466   2.414   1.536
 9722SOL     OW30064   6.723   0.225   4.267
 9722SOL    HW130065   6.662   0.291   4.223
 9722SOL    HW230066   6.708   0.227   4.366
 9723SOL     OW30067   2.056   6.280   3.050
 9723SOL    HW130068   2.089   6.197   3.095
 9723SOL    HW230069   2.129   6.347   3.044
 9724SOL     OW30070   1.550   3.837   0.507
 9724SOL    HW130071   1.508   3.771   0.444
 9724SOL    HW230072   1.641   3.804   0.533
 9725SOL     OW30073   3.320   4.601   6.474
 9725SOL    HW130074   3.291   4.612   6.379
 9725SOL    HW230075   3.420   4.611   6.479
 9726SOL     OW30076   4.997   0.691   4.117
 9726SOL    HW130077   5.048   0.607   4.134
 9726SOL    HW230078   5.031   0.764   4.176
 9727SOL     OW30079   0.382   3.682   5.632
 9727SOL    HW130080   0.343   3.751   5.571
 9727SOL    HW230081   0.454   3.632   5.583
 9728SOL     OW30082   0.509   0.134   6.471
 9728SOL    HW130083   0.530   0.230   6.492
 9728SOL    HW230084   0.441   0.130   6.398
 9729SOL     OW30085   0.881   4.253   3.287
 9729SOL    HW130086   0.909   4.287   3.377
 9729SOL    HW230087   0.962   4.243   3.229
 9730SOL     OW30088   1.025   3.625   3.145
 9730SOL    HW130089   1.111   3.573   3.146
 9730SOL    HW230090   0.978   3.614   3.232
 9731SOL     OW30091   4.445   4.095   0.956
 9731SOL    HW130092   4.365   4.106   0.897
 9731SOL    HW230093   4.457   4.178   1.010
 9732SOL     OW30094   5.798   5.603   2.916
 9732SOL    HW130095   5.730   5.535   2.942
 9732SOL    HW230096   5.752   5.689   2.895
 9733SOL     OW30097   5.800   5.190   0.781
 9733SOL    HW130098   5.754   5.174   0.694
 9733SOL    HW230099   5.858   5.271   0.774
 9734SOL     OW30100   6.159   1.174   2.474
 9734SOL    HW130101   6.247   1.214   2.450
 9734SOL    HW230102   6.093   1.247   2.492
 9735SOL     OW30103   2.473   4.513   3.075
 9735SOL    HW130104   2.463   4.529   3.173
 9735SOL    HW230105   2.562   4.547   3.045
 9736SOL     OW30106   6.106   1.941   6.234
 9736SOL    HW130107   6.028   1.894   6.192
 9736SOL    HW230108   6.178   1.955   6.166
 9737SOL     OW30109   6.367   3.234   4.692
 9737SOL    HW130110   6.412   3.223   4.781
 9737SOL    HW230111   6.290   3.297   4.702
 9738SOL     OW30112   2.130   6.901   1.552
 9738SOL    HW130113   2.169   6.992   1.539
 9738SOL    HW230114   2.079   6.874   1.469
 9739SOL     OW30115   5.946   5.477   2.267
 9739SOL    HW130116   5.948   5.566   2.313
 9739SOL    HW230117   5.984   5.407   2.327
 9740SOL     OW30118   6.479   2.166   2.677
 9740SOL    HW130119   6.487   2.081   2.626
 9740SOL    HW230120   6.570   2.194   2.710
 9741SOL     OW30121   5.038   2.237   2.920
 9741SOL    HW130122   5.107   2.164   2.924
 9741SOL    HW230123   5.082   2.325   2.938
 9742SOL     OW30124   3.948   0.259   1.744
 9742SOL    HW130125   3.959   0.300   1.654
 9742SOL    HW230126   4.009   0.180   1.753
 9743SOL     OW30127   0.770   2.151   4.314
 9743SOL    HW130128   0.726   2.151   4.224
 9743SOL    HW230129   0.845   2.217   4.314
 9744SOL     OW30130   0.479   0.162   2.631
 9744SOL    HW130131   0.506   0.066   2.624
 9744SOL    HW230132   0.423   0.187   2.553
 9745SOL     OW30133   6.288   2.805   6.325
 9745SOL    HW130134   6.245   2.892   6.304
 9745SOL    HW230135   6.348   2.778   6.249
 9746SOL     OW30136   6.682   0.837   5.850
 9746SOL    HW130137   6.627   0.763   5.889
 9746SOL    HW230138   6.636   0.925   5.864
 9747SOL     OW30139   2.237   0.368   1.442
 9747SOL    HW130140   2.321   0.403   1.482
 9747SOL    HW230141   2.195   0.438   1.385
 9748SOL     OW30142   0.724   1.801   3.746
 9748SOL    HW130143   0.632   1.764   3.733
 9748SOL    HW230144   0.721   1.901   3.740
 9749SOL     OW30145   2.165   1.496   4.917
 9749SOL    HW130146   2.214   1.496   4.830
 9749SOL    HW230147   2.087   1.434   4.912
 9750SOL     OW30148   5.712   4.532   3.344
 9750SOL    HW130149   5.727   4.631   3.355
 9750SOL    HW230150   5.748   4.503   3.256
 9751SOL     OW30151   1.634   0.927   0.391
 9751SOL    HW130152   1.681   1.001   0.439
 9751SOL    HW230153   1.567   0.965   0.327
 9752SOL     OW30154   5.439   2.083   6.749
 9752SOL    HW130155   5.373   2.049   6.682
 9752SOL    HW230156   5.399   2.159   6.800
 9753SOL     OW30157   6.247   5.875   5.555
 9753SOL    HW130158   6.220   5.788   5.597
 9753SOL    HW230159   6.166   5.925   5.527
 9754SOL     OW30160   0.773   1.614   6.441
 9754SOL    HW130161   0.835   1.673   6.390
 9754SOL    HW230162   0.813   1.523   6.449
 9755SOL     OW30163   4.225   3.928   5.368
 9755SOL    HW130164   4.158   3.914   5.442
 9755SOL    HW230165   4.263   3.840   5.341
 9756SOL     OW30166   5.920   3.393   0.432
 9756SOL    HW130167   5.940   3.407   0.529
 9756SOL    HW230168   6.002   3.413   0.377
 9757SOL     OW30169   5.697   3.427   3.341
 9757SOL    HW130170   5.664   3.518   3.317
 9757SOL    HW230171   5.797   3.425   3.337
 9758SOL     OW30172   2.421   0.032   0.152
 9758SOL    HW130173   2.377   6.973   0.144
 9758SOL    HW230174   2.472   0.052   0.068
 9759SOL     OW30175   2.342   6.794   0.066
 9759SOL    HW130176   2.418   6.804   0.002
 9759SOL    HW230177   2.370   6.738   0.144
 9760SOL     OW30178   4.820   3.273   5.144
 9760SOL    HW130179   4.788   3.367   5.159
 9760SOL    HW230180   4.915   3.266   5.175
 9761SOL     OW30181   6.019   0.364   2.381
 9761SOL    HW130182   6.079   0.440   2.354
 9761SOL    HW230183   5.952   0.347   2.308
 9762SOL     OW30184   3.025   1.993   4.438
 9762SOL    HW130185   3.087   1.961   4.509
 9762SOL    HW230186   2.930   1.973   4.465
 9763SOL     OW30187   5.163   1.699   1.903
 9763SOL    HW130188   5.221   1.755   1.844
 9763SOL    HW230189   5.220   1.648   1.967
 9764SOL     OW30190   0.647   2.686   2.923
 9764SOL    HW130191   0.675   2.649   3.011
 9764SOL    HW230192   0.682   2.628   2.849
 9765SOL     OW30193   6.658   1.279   2.707
 9765SOL    HW130194   6.631   1.206   2.645
 9765SOL    HW230195   6.580   1.340   2.723
 9766SOL     OW30196   2.560   0.456   3.290
 9766SOL    HW130197   2.496   0.446   3.367
 9766SOL    HW230198   2.619   0.376   3.286
 9767SOL     OW30199   5.338   1.999   5.687
 9767SOL    HW130200   5.256   2.032   5.732
 9767SOL    HW230201   5.366   1.912   5.728
 9768SOL     OW30202   5.162   1.655   2.448
 9768SOL    HW130203   5.114   1.698   2.371
 9768SOL    HW230204   5.252   1.624   2.418
 9769SOL     OW30205   2.567   0.472   2.477
 9769SOL    HW130206   2.588   0.446   2.571
 9769SOL    HW230207   2.484   0.528   2.475
 9770SOL     OW30208   5.491   0.507   7.006
 9770SOL    HW130209   5.489   0.461   6.918
 9770SOL    HW230210   5.474   0.441   0.049
 9771SOL     OW30211   3.098   5.234   1.168
 9771SOL    HW130212   3.099   5.206   1.071
 9771SOL    HW230213   3.021   5.296   1.184
 9772SOL     OW30214   1.271   6.604   2.977
 9772SOL    HW130215   1.226   6.669   2.916
 9772SOL    HW230216   1.335   6.548   2.924
 9773SOL     OW30217   5.465   6.496   4.084
 9773SOL    HW130218   5.432   6.573   4.029
 9773SOL    HW230219   5.530   6.529   4.152
 9774SOL     OW30220   6.218   4.939   1.500
 9774SOL    HW130221   6.205   4.992   1.584
 9774SOL    HW230222   6.294   4.875   1.513
 9775SOL     OW30223   2.353   0.750   3.582
 9775SOL    HW130224   2.426   0.759   3.650
 9775SOL    HW230225   2.314   0.841   3.564
 9776SOL     OW30226   0.276   5.408   4.507
 9776SOL    HW130227   0.287   5.327   4.565
 9776SOL    HW230228   0.342   5.405   4.432
 9777SOL     OW30229   5.451   4.416   6.131
 9777SOL    HW130230   5.542   4.376   6.145
 9777SOL    HW230231   5.433   4.423   6.033
 9778SOL     OW30232   0.312   0.944   3.437
 9778SOL    HW130233   0.348   0.968   3.347
 9778SOL    HW230234   0.372   0.983   3.507
 9779SOL     OW30235   1.978   0.545   4.945
 9779SOL    HW130236   1.950   0.452   4.920
 9779SOL    HW230237   1.905   0.610   4.923
 9780SOL     OW30238   2.620   1.901   0.622
 9780SOL    HW130239   2.662   1.927   0.709
 9780SOL    HW230240   2.691   1.875   0.557
 9781SOL     OW30241   1.002   4.071   4.186
 9781SOL    HW130242   1.026   4.104   4.095
 9781SOL    HW230243   1.081   4.082   4.247
 9782SOL     OW30244   6.635   0.859   1.826
 9782SOL    HW130245   6.688   0.774   1.830
 9782SOL    HW230246   6.558   0.847   1.762
 9783SOL     OW30247   5.164   2.472   2.992
 9783SOL    HW130248   5.195   2.439   3.081
 9783SOL    HW230249   5.120   2.562   3.003
 9784SOL     OW30250   3.758   1.654   4.186
 9784SOL    HW130251   3.666   1.690   4.202
 9784SOL    HW230252   3.751   1.565   4.142
 9785SOL     OW30253   6.626   3.802   5.625
 9785SOL    HW130254   6.551   3.866   5.612
 9785SOL    HW230255   6.667   3.817   5.715
 9786SOL     OW30256   2.255   5.009   6.573
 9786SOL    HW130257   2.236   5.094   6.622
 9786SOL    HW230258   2.170   4.969   6.540
 9787SOL     OW30259   4.671   3.421   1.696
 9787SOL    HW130260   4.580   3.462   1.697
 9787SOL    HW230261   4.681   3.364   1.614
 9788SOL     OW30262   0.254   0.410   3.994
 9788SOL    HW130263   0.337   0.384   3.945
 9788SOL    HW230264   0.178   0.351   3.965
 9789SOL     OW30265   1.228   5.651   0.154
 9789SOL    HW130266   1.253   5.723   0.090
 9789SOL    HW230267   1.287   5.571   0.139
 9790SOL     OW30268   5.594   3.942   5.744
 9790SOL    HW130269   5.537   4.024   5.734
 9790SOL    HW230270   5.593   3.913   5.840
 9791SOL     OW30271   0.137   1.345   2.781
 9791SOL    HW130272   0.218   1.396   2.811
 9791SOL    HW230273   0.162   1.286   2.705
 9792SOL     OW30274   5.523   5.583   2.153
 9792SOL    HW130275   5.551   5.503   2.099
 9792SOL    HW230276   5.564   5.579   2.244
 9793SOL     OW30277   5.616   4.896   3.612
 9793SOL    HW130278   5.679   4.973   3.600
 9793SOL    HW230279   5.527   4.919   3.573
 9794SOL     OW30280   6.401   4.789   6.866
 9794SOL    HW130281   6.393   4.707   6.921
 9794SOL    HW230282   6.403   4.764   6.769
 9795SOL     OW30283   1.530   2.284   4.202
 9795SOL    HW130284   1.574   2.196   4.219
 9795SOL    HW230285   1.494   2.321   4.288
 9796SOL     OW30286   4.060   2.558   1.274
 9796SOL    HW130287   4.023   2.641   1.233
 9796SOL    HW230288   4.132   2.583   1.339
 9797SOL     OW30289   3.446   5.144   6.568
 9797SOL    HW130290   3.515   5.081   6.604
 9797SOL    HW230291   3.491   5.218   6.519
 9798SOL     OW30292   2.682   0.413   1.050
 9798SOL    HW130293   2.754   0.412   1.119
 9798SOL    HW230294   2.714   0.463   0.969
 9799SOL     OW30295   3.438   3.678   3.389
 9799SOL    HW130296   3.536   3.661   3.393
 9799SOL    HW230297   3.400   3.632   3.309
 9800SOL     OW30298   3.115   6.584   5.204
 9800SOL    HW130299   3.202   6.635   5.200
 9800SOL    HW230300   3.059   6.620   5.278
 9801SOL     OW30301   4.820   4.299   0.420
 9801SOL    HW130302   4.848   4.204   0.434
 9801SOL    HW230303   4.872   4.358   0.482
 9802SOL     OW30304   0.816   2.583   1.849
 9802SOL    HW130305   0.836   2.567   1.752
 9802SOL    HW230306   0.726   2.625   1.857
 9803SOL     OW30307   6.184   1.517   0.421
 9803SOL    HW130308   6.087   1.540   0.422
 9803SOL    HW230309   6.227   1.548   0.506
 9804SOL     OW30310   0.852   6.426   2.958
 9804SOL    HW130311   0.823   6.361   3.028
 9804SOL    HW230312   0.836   6.519   2.991
 9805SOL     OW30313   1.136   5.869   5.589
 9805SOL    HW130314   1.173   5.783   5.624
 9805SOL    HW230315   1.185   5.946   5.631
 9806SOL     OW30316   1.401   2.117   0.307
 9806SOL    HW130317   1.391   2.152   0.214
 9806SOL    HW230318   1.490   2.072   0.316
 9807SOL     OW30319   1.986   3.023   6.914
 9807SOL    HW130320   1.974   2.925   6.926
 9807SOL    HW230321   1.926   3.056   6.841
 9808SOL     OW30322   5.875   1.309   5.639
 9808SOL    HW130323   5.899   1.223   5.595
 9808SOL    HW230324   5.958   1.356   5.669
 9809SOL     OW30325   0.852   1.962   6.614
 9809SOL    HW130326   0.900   1.924   6.534
 9809SOL    HW230327   0.883   1.916   6.697
 9810SOL     OW30328   2.441   2.562   4.134
 9810SOL    HW130329   2.393   2.476   4.153
 9810SOL    HW230330   2.382   2.639   4.159
 9811SOL     OW30331   5.559   5.694   4.086
 9811SOL    HW130332   5.513   5.741   4.161
 9811SOL    HW230333   5.652   5.729   4.077
 9812SOL     OW30334   2.876   2.366   5.764
 9812SOL    HW130335   2.790   2.352   5.714
 9812SOL    HW230336   2.943   2.408   5.704
 9813SOL     OW30337   5.986   0.441   0.065
 9813SOL    HW130338   6.083   0.422   0.079
 9813SOL    HW230339   5.959   0.518   0.122
 9814SOL     OW30340   0.609   1.167   6.839
 9814SOL    HW130341   0.584   1.250   6.889
 9814SOL    HW230342   0.615   1.187   6.742
 9815SOL     OW30343   5.829   3.608   2.481
 9815SOL    HW130344   5.762   3.671   2.519
 9815SOL    HW230345   5.806   3.588   2.386
 9816SOL     OW30346   6.873   1.403   6.375
 9816SOL    HW130347   6.961   1.413   6.422
 9816SOL    HW230348   6.816   1.484   6.394
 9817SOL     OW30349   2.499   5.605   2.414
 9817SOL    HW130350   2.527   5.625   2.320
 9817SOL    HW230351   2.573   5.558   2.461
 9818SOL     OW30352   1.672   1.081   4.049
 9818SOL    HW130353   1.734   1.101   3.973
 9818SOL    HW230354   1.618   0.999   4.027
 9819SOL     OW30355   5.233   2.944   5.066
 9819SOL    HW130356   5.262   3.013   5.000
 9819SOL    HW230357   5.141   2.966   5.099
 9820SOL     OW30358   3.836   3.201   6.552
 9820SOL    HW130359   3.862   3.106   6.570
 9820SOL    HW230360   3.747   3.204   6.507
 9821SOL     OW30361   4.603   0.933   0.603
 9821SOL    HW130362   4.534   0.973   0.662
 9821SOL    HW230363   4.643   1.004   0.544
 9822SOL     OW30364   3.234   5.379   3.717
 9822SOL    HW130365   3.256   5.473   3.741
 9822SOL    HW230366   3.227   5.370   3.617
 9823SOL     OW30367   2.083   0.002   1.865
 9823SOL    HW130368   2.065   6.934   1.854
 9823SOL    HW230369   2.094   0.044   1.775
 9824SOL     OW30370   1.974   5.791   4.711
 9824SOL    HW130371   2.069   5.820   4.702
 9824SOL    HW230372   1.931   5.840   4.787
 9825SOL     OW30373   5.667   6.496   5.010
 9825SOL    HW130374   5.703   6.574   5.061
 9825SOL    HW230375   5.695   6.411   5.054
 9826SOL     OW30376   3.662   6.245   5.491
 9826SOL    HW130377   3.660   6.344   5.509
 9826SOL    HW230378   3.649   6.195   5.577
 9827SOL     OW30379   2.154   3.956   3.635
 9827SOL    HW130380   2.129   4.032   3.695
 9827SOL    HW230381   2.190   3.880   3.690
 9828SOL     OW30382   2.861   2.094   5.197
 9828SOL    HW130383   2.806   2.065   5.275
 9828SOL    HW230384   2.917   2.173   5.223
 9829SOL     OW30385   4.614   5.881   6.482
 9829SOL    HW130386   4.656   5.938   6.552
 9829SOL    HW230387   4.662   5.893   6.395
 9830SOL     OW30388   4.986   2.057   1.551
 9830SOL    HW130389   5.081   2.057   1.519
 9830SOL    HW230390   4.984   2.029   1.647
 9831SOL     OW30391   0.630   4.594   2.363
 9831SOL    HW130392   0.555   4.554   2.415
 9831SOL    HW230393   0.605   4.687   2.334
 9832SOL     OW30394   4.378   5.580   2.814
 9832SOL    HW130395   4.451   5.594   2.747
 9832SOL    HW230396   4.327   5.497   2.791
 9833SOL     OW30397   3.562   3.285   3.303
 9833SOL    HW130398   3.483   3.343   3.282
 9833SOL    HW230399   3.533   3.189   3.303
 9834SOL     OW30400   2.015   4.689   5.766
 9834SOL    HW130401   2.097   4.642   5.731
 9834SOL    HW230402   1.950   4.701   5.691
 9835SOL     OW30403   3.619   3.248   4.306
 9835SOL    HW130404   3.521   3.232   4.297
 9835SOL    HW230405   3.656   3.192   4.380
 9836SOL     OW30406   0.598   4.380   4.445
 9836SOL    HW130407   0.509   4.378   4.491
 9836SOL    HW230408   0.593   4.323   4.363
 9837SOL     OW30409   5.460   0.404   2.255
 9837SOL    HW130410   5.404   0.473   2.302
 9837SOL    HW230411   5.399   0.342   2.205
 9838SOL     OW30412   1.382   6.748   0.820
 9838SOL    HW130413   1.422   6.736   0.911
 9838SOL    HW230414   1.453   6.769   0.754
 9839SOL     OW30415   4.519   6.652   3.275
 9839SOL    HW130416   4.438   6.623   3.224
 9839SOL    HW230417   4.531   6.596   3.356
 9840SOL     OW30418   4.906   1.804   0.508
 9840SOL    HW130419   4.812   1.833   0.492
 9840SOL    HW230420   4.942   1.849   0.590
 9841SOL     OW30421   1.141   5.276   3.688
 9841SOL    HW130422   1.186   5.300   3.601
 9841SOL    HW230423   1.054   5.325   3.694
 9842SOL     OW30424   3.456   3.046   0.923
 9842SOL    HW130425   3.374   3.099   0.947
 9842SOL    HW230426   3.488   2.996   1.004
 9843SOL     OW30427   6.933   0.151   1.887
 9843SOL    HW130428   6.923   0.059   1.926
 9843SOL    HW230429   6.913   0.220   1.956
 9844SOL     OW30430   6.135   1.181   3.984
 9844SOL    HW130431   6.103   1.133   3.902
 9844SOL    HW230432   6.067   1.171   4.057
 9845SOL     OW30433   1.623   2.605   2.451
 9845SOL    HW130434   1.607   2.581   2.547
 9845SOL    HW230435   1.536   2.620   2.405
 9846SOL     OW30436   4.656   1.550   0.977
 9846SOL    HW130437   4.751   1.525   0.960
 9846SOL    HW230438   4.643   1.566   1.075
 9847SOL     OW30439   3.853   2.922   2.258
 9847SOL    HW130440   3.902   2.946   2.342
 9847SOL    HW230441   3.865   2.825   2.239
 9848SOL     OW30442   3.969   4.772   5.840
 9848SOL    HW130443   4.032   4.789   5.764
 9848SOL    HW230444   3.888   4.830   5.830
 9849SOL     OW30445   0.869   6.805   6.850
 9849SOL    HW130446   0.904   6.883   6.902
 9849SOL    HW230447   0.769   6.803   6.858
 9850SOL     OW30448   0.247   0.816   3.878
 9850SOL    HW130449   0.172   0.877   3.852
 9850SOL    HW230450   0.214   0.752   3.949
 9851SOL     OW30451   2.385   6.518   4.481
 9851SOL    HW130452   2.418   6.499   4.388
 9851SOL    HW230453   2.383   6.617   4.496
 9852SOL     OW30454   1.922   1.276   4.945
 9852SOL    HW130455   1.974   1.260   4.862
 9852SOL    HW230456   1.831   1.234   4.936
 9853SOL     OW30457   6.394   3.615   5.544
 9853SOL    HW130458   6.483   3.653   5.568
 9853SOL    HW230459   6.337   3.608   5.626
 9854SOL     OW30460   0.534   5.678   4.860
 9854SOL    HW130461   0.507   5.627   4.779
 9854SOL    HW230462   0.628   5.653   4.886
 9855SOL     OW30463   1.263   3.290   1.153
 9855SOL    HW130464   1.232   3.288   1.058
 9855SOL    HW230465   1.356   3.252   1.159
 9856SOL     OW30466   5.708   4.673   4.056
 9856SOL    HW130467   5.735   4.703   4.147
 9856SOL    HW230468   5.759   4.590   4.031
 9857SOL     OW30469   5.647   2.938   2.770
 9857SOL    HW130470   5.594   3.023   2.766
 9857SOL    HW230471   5.585   2.860   2.772
 9858SOL     OW30472   0.524   6.842   1.382
 9858SOL    HW130473   0.620   6.819   1.399
 9858SOL    HW230474   0.476   6.852   1.469
 9859SOL     OW30475   6.907   4.534   4.345
 9859SOL    HW130476   6.836   4.467   4.364
 9859SOL    HW230477   6.975   4.531   4.418
 9860SOL     OW30478   1.519   2.146   4.657
 9860SOL    HW130479   1.502   2.050   4.637
 9860SOL    HW230480   1.446   2.202   4.617
 9861SOL     OW30481   3.163   0.389   3.467
 9861SOL    HW130482   3.079   0.401   3.413
 9861SOL    HW230483   3.182   0.291   3.476
 9862SOL     OW30484   2.778   3.591   0.885
 9862SOL    HW130485   2.681   3.570   0.902
 9862SOL    HW230486   2.794   3.594   0.787
 9863SOL     OW30487   3.169   5.518   1.115
 9863SOL    HW130488   3.236   5.587   1.143
 9863SOL    HW230489   3.196   5.429   1.150
 9864SOL     OW30490   3.301   0.630   5.127
 9864SOL    HW130491   3.254   0.686   5.059
 9864SOL    HW230492   3.309   0.536   5.092
 9865SOL     OW30493   0.695   6.192   4.801
 9865SOL    HW130494   0.740   6.107   4.828
 9865SOL    HW230495   0.730   6.221   4.712
 9866SOL     OW30496   5.928   4.457   4.996
 9866SOL    HW130497   6.010   4.401   4.979
 9866SOL    HW230498   5.941   4.512   5.078
 9867SOL     OW30499   6.333   2.618   2.447
 9867SOL    HW130500   6.364   2.524   2.433
 9867SOL    HW230501   6.325   2.637   2.545
 9868SOL     OW30502   0.444   3.382   4.195
 9868SOL    HW130503   0.532   3.367   4.149
 9868SOL    HW230504   0.416   3.297   4.241
 9869SOL     OW30505   0.891   2.973   0.966
 9869SOL    HW130506   0.814   2.910   0.972
 9869SOL    HW230507   0.973   2.922   0.937
 9870SOL     OW30508   4.291   0.510   2.944
 9870SOL    HW130509   4.237   0.594   2.943
 9870SOL    HW230510   4.281   0.464   3.033
 9871SOL     OW30511   6.725   3.174   5.645
 9871SOL    HW130512   6.714   3.133   5.554
 9871SOL    HW230513   6.791   3.249   5.640
 9872SOL     OW30514   2.273   5.363   5.173
 9872SOL    HW130515   2.237   5.370   5.267
 9872SOL    HW230516   2.203   5.321   5.115
 9873SOL     OW30517   2.268   2.346   6.061
 9873SOL    HW130518   2.310   2.428   6.024
 9873SOL    HW230519   2.183   2.327   6.013
 9874SOL     OW30520   0.270   3.224   5.354
 9874SOL    HW130521   0.233   3.143   5.309
 9874SOL    HW230522   0.354   3.199   5.403
 9875SOL     OW30523   6.756   6.050   2.541
 9875SOL    HW130524   6.732   5.980   2.474
 9875SOL    HW230525   6.790   6.132   2.494
 9876SOL     OW30526   5.365   1.015   4.522
 9876SOL    HW130527   5.326   0.971   4.603
 9876SOL    HW230528   5.296   1.070   4.476
 9877SOL     OW30529   6.833   4.175   4.380
 9877SOL    HW130530   6.804   4.126   4.297
 9877SOL    HW230531   6.762   4.239   4.407
 9878SOL     OW30532   2.183   3.872   6.677
 9878SOL    HW130533   2.249   3.873   6.602
 9878SOL    HW230534   2.130   3.957   6.676
 9879SOL     OW30535   0.526   4.545   5.315
 9879SOL    HW130536   0.595   4.550   5.387
 9879SOL    HW230537   0.437   4.570   5.353
 9880SOL     OW30538   2.316   0.333   0.528
 9880SOL    HW130539   2.320   0.341   0.429
 9880SOL    HW230540   2.288   0.241   0.554
 9881SOL     OW30541   6.575   1.145   4.457
 9881SOL    HW130542   6.605   1.204   4.382
 9881SOL    HW230543   6.640   1.070   4.468
 9882SOL     OW30544   3.607   3.401   5.433
 9882SOL    HW130545   3.622   3.500   5.429
 9882SOL    HW230546   3.542   3.374   5.362
 9883SOL     OW30547   1.658   5.887   1.976
 9883SOL    HW130548   1.625   5.799   2.009
 9883SOL    HW230549   1.701   5.875   1.887
 9884SOL     OW30550   3.418   2.452   0.142
 9884SOL    HW130551   3.349   2.489   0.204
 9884SOL    HW230552   3.448   2.363   0.176
 9885SOL     OW30553   0.879   3.520   3.987
 9885SOL    HW130554   0.902   3.554   3.895
 9885SOL    HW230555   0.807   3.451   3.980
 9886SOL     OW30556   6.614   6.812   1.810
 9886SOL    HW130557   6.618   6.721   1.769
 9886SOL    HW230558   6.550   6.812   1.887
 9887SOL     OW30559   3.141   0.256   0.474
 9887SOL    HW130560   3.063   0.304   0.514
 9887SOL    HW230561   3.224   0.310   0.487
 9888SOL     OW30562   5.744   6.035   3.276
 9888SOL    HW130563   5.736   6.025   3.375
 9888SOL    HW230564   5.653   6.049   3.237
 9889SOL     OW30565   1.163   5.123   2.608
 9889SOL    HW130566   1.167   5.154   2.703
 9889SOL    HW230567   1.069   5.131   2.575
 9890SOL     OW30568   6.447   2.898   0.448
 9890SOL    HW130569   6.517   2.846   0.399
 9890SOL    HW230570   6.369   2.914   0.388
 9891SOL     OW30571   5.472   4.849   1.874
 9891SOL    HW130572   5.432   4.911   1.807
 9891SOL    HW230573   5.418   4.764   1.877
 9892SOL     OW30574   2.774   5.616   3.733
 9892SOL    HW130575   2.750   5.520   3.724
 9892SOL    HW230576   2.747   5.649   3.824
 9893SOL     OW30577   6.455   6.234   2.583
 9893SOL    HW130578   6.539   6.269   2.626
 9893SOL    HW230579   6.474   6.145   2.541
 9894SOL     OW30580   2.852   1.303   6.506
 9894SOL    HW130581   2.767   1.302   6.453
 9894SOL    HW230582   2.930   1.308   6.443
 9895SOL     OW30583   6.251   2.040   5.708
 9895SOL    HW130584   6.154   2.016   5.698
 9895SOL    HW230585   6.261   2.139   5.715
 9896SOL     OW30586   4.967   2.637   0.754
 9896SOL    HW130587   4.893   2.669   0.813
 9896SOL    HW230588   5.051   2.688   0.774
 9897SOL     OW30589   5.177   1.432   2.630
 9897SOL    HW130590   5.163   1.511   2.570
 9897SOL    HW230591   5.092   1.411   2.677
 9898SOL     OW30592   0.992   5.385   5.230
 9898SOL    HW130593   1.035   5.465   5.272
 9898SOL    HW230594   1.038   5.364   5.144
 9899SOL     OW30595   6.470   4.610   2.229
 9899SOL    HW130596   6.408   4.682   2.258
 9899SOL    HW230597   6.425   4.553   2.159
 9900SOL     OW30598   2.265   2.052   2.625
 9900SOL    HW130599   2.171   2.070   2.595
 9900SOL    HW230600   2.293   2.123   2.689
 9901SOL     OW30601   1.484   2.700   0.432
 9901SOL    HW130602   1.384   2.700   0.442
 9901SOL    HW230603   1.527   2.695   0.522
 9902SOL     OW30604   3.329   3.055   1.297
 9902SOL    HW130605   3.272   2.975   1.277
 9902SOL    HW230606   3.311   3.087   1.389
 9903SOL     OW30607   4.535   0.508   2.825
 9903SOL    HW130608   4.456   0.493   2.884
 9903SOL    HW230609   4.613   0.538   2.880
 9904SOL     OW30610   7.004   3.245   6.847
 9904SOL    HW130611   6.925   3.192   6.816
 9904SOL    HW230612   6.991   3.273   6.942
 9905SOL     OW30613   1.917   6.474   0.437
 9905SOL    HW130614   1.899   6.386   0.393
 9905SOL    HW230615   1.858   6.483   0.518
 9906SOL     OW30616   1.439   3.179   0.234
 9906SOL    HW130617   1.468   3.113   0.302
 9906SOL    HW230618   1.363   3.233   0.270
 9907SOL     OW30619   2.749   6.837   3.375
 9907SOL    HW130620   2.664   6.883   3.347
 9907SOL    HW230621   2.776   6.772   3.304
 9908SOL     OW30622   0.897   3.429   5.764
 9908SOL    HW130623   0.864   3.437   5.670
 9908SOL    HW230624   0.863   3.505   5.818
 9909SOL     OW30625   3.450   0.668   3.256
 9909SOL    HW130626   3.374   0.733   3.258
 9909SOL    HW230627   3.417   0.577   3.231
 9910SOL     OW30628   0.116   5.166   1.683
 9910SOL    HW130629   0.160   5.212   1.760
 9910SOL    HW230630   0.182   5.155   1.609
 9911SOL     OW30631   4.937   5.129   3.242
 9911SOL    HW130632   4.920   5.072   3.322
 9911SOL    HW230633   4.874   5.207   3.243
 9912SOL     OW30634   4.602   0.742   2.701
 9912SOL    HW130635   4.563   0.658   2.739
 9912SOL    HW230636   4.529   0.808   2.686
 9913SOL     OW30637   6.311   3.163   2.158
 9913SOL    HW130638   6.256   3.090   2.197
 9913SOL    HW230639   6.294   3.170   2.060
 9914SOL     OW30640   0.909   0.813   5.756
 9914SOL    HW130641   0.849   0.734   5.770
 9914SOL    HW230642   0.948   0.809   5.664
 9915SOL     OW30643   5.335   3.952   3.982
 9915SOL    HW130644   5.422   3.997   4.001
 9915SOL    HW230645   5.347   3.853   3.989
 9916SOL     OW30646   2.523   2.179   4.071
 9916SOL    HW130647   2.525   2.100   4.133
 9916SOL    HW230648   2.518   2.146   3.977
 9917SOL     OW30649   3.209   3.029   4.439
 9917SOL    HW130650   3.184   3.007   4.345
 9917SOL    HW230651   3.307   3.010   4.452
 9918SOL     OW30652   1.473   1.578   0.306
 9918SOL    HW130653   1.507   1.499   0.255
 9918SOL    HW230654   1.455   1.551   0.401
 9919SOL     OW30655   2.290   4.903   2.461
 9919SOL    HW130656   2.376   4.853   2.456
 9919SOL    HW230657   2.294   4.983   2.401
 9920SOL     OW30658   3.257   1.113   3.085
 9920SOL    HW130659   3.259   1.195   3.028
 9920SOL    HW230660   3.205   1.041   3.039
 9921SOL     OW30661   5.885   6.292   3.859
 9921SOL    HW130662   5.818   6.232   3.902
 9921SOL    HW230663   5.967   6.296   3.915
 9922SOL     OW30664   4.264   4.193   0.670
 9922SOL    HW130665   4.189   4.141   0.629
 9922SOL    HW230666   4.228   4.262   0.732
 9923SOL     OW30667   6.793   3.000   0.542
 9923SOL    HW130668   6.806   3.002   0.641
 9923SOL    HW230669   6.764   2.908   0.514
 9924SOL     OW30670   5.703   1.823   1.934
 9924SOL    HW130671   5.668   1.892   1.872
 9924SOL    HW230672   5.788   1.855   1.976
 9925SOL     OW30673   2.144   4.289   5.168
 9925SOL    HW130674   2.111   4.195   5.161
 9925SOL    HW230675   2.077   4.352   5.129
 9926SOL     OW30676   3.523   2.403   1.491
 9926SOL    HW130677   3.612   2.418   1.534
 9926SOL    HW230678   3.458   2.370   1.559
 9927SOL     OW30679   0.918   2.472   1.341
 9927SOL    HW130680   0.866   2.432   1.264
 9927SOL    HW230681   0.989   2.532   1.305
 9928SOL     OW30682   6.259   4.769   2.363
 9928SOL    HW130683   6.249   4.726   2.453
 9928SOL    HW230684   6.193   4.843   2.354
 9929SOL     OW30685   2.661   4.191   5.526
 9929SOL    HW130686   2.657   4.109   5.469
 9929SOL    HW230687   2.581   4.248   5.508
 9930SOL     OW30688   0.106   0.413   5.659
 9930SOL    HW130689   0.169   0.489   5.642
 9930SOL    HW230690   0.123   0.374   5.749
 9931SOL     OW30691   0.303   5.360   5.013
 9931SOL    HW130692   0.286   5.402   5.102
 9931SOL    HW230693   0.220   5.365   4.957
 9932SOL     OW30694   1.848   2.369   0.773
 9932SOL    HW130695   1.783   2.299   0.742
 9932SOL    HW230696   1.908   2.330   0.842
 9933SOL     OW30697   1.937   0.855   3.818
 9933SOL    HW130698   1.939   0.771   3.872
 9933SOL    HW230699   2.025   0.902   3.826
 9934SOL     OW30700   6.224   2.119   0.349
 9934SOL    HW130701   6.250   2.049   0.414
 9934SOL    HW230702   6.153   2.083   0.287
 9935SOL     OW30703   2.844   1.846   0.434
 9935SOL    HW130704   2.893   1.781   0.491
 9935SOL    HW230705   2.910   1.898   0.379
 9936SOL     OW30706   6.051   5.054   6.119
 9936SOL    HW130707   6.051   4.960   6.085
 9936SOL    HW230708   6.144   5.091   6.115
 9937SOL     OW30709   1.127   1.063   3.058
 9937SOL    HW130710   1.159   0.972   3.033
 9937SOL    HW230711   1.035   1.056   3.097
 9938SOL     OW30712   5.417   0.329   3.596
 9938SOL    HW130713   5.433   0.414   3.647
 9938SOL    HW230714   5.454   0.339   3.504
 9939SOL     OW30715   2.185   2.798   1.153
 9939SOL    HW130716   2.281   2.810   1.126
 9939SOL    HW230717   2.181   2.771   1.249
 9940SOL     OW30718   6.933   0.499   3.900
 9940SOL    HW130719   6.958   0.557   3.978
 9940SOL    HW230720   6.878   0.553   3.835
 9941SOL     OW30721   3.241   5.426   5.932
 9941SOL    HW130722   3.326   5.478   5.938
 9941SOL    HW230723   3.262   5.329   5.926
 9942SOL     OW30724   4.842   4.539   2.838
 9942SOL    HW130725   4.788   4.619   2.863
 9942SOL    HW230726   4.782   4.460   2.823
 9943SOL     OW30727   0.885   4.484   6.132
 9943SOL    HW130728   0.792   4.519   6.134
 9943SOL    HW230729   0.931   4.506   6.218
 9944SOL     OW30730   0.224   5.921   6.423
 9944SOL    HW130731   0.168   5.839   6.435
 9944SOL    HW230732   0.321   5.897   6.433
 9945SOL     OW30733   5.202   3.825   6.595
 9945SOL    HW130734   5.132   3.753   6.592
 9945SOL    HW230735   5.250   3.821   6.682
 9946SOL     OW30736   6.456   0.393   3.258
 9946SOL    HW130737   6.548   0.379   3.223
 9946SOL    HW230738   6.426   0.311   3.308
 9947SOL     OW30739   1.956   1.697   3.725
 9947SOL    HW130740   1.876   1.748   3.692
 9947SOL    HW230741   2.029   1.700   3.657
 9948SOL     OW30742   6.760   5.787   5.064
 9948SOL    HW130743   6.824   5.710   5.059
 9948SOL    HW230744   6.667   5.753   5.073
 9949SOL     OW30745   0.224   5.037   4.057
 9949SOL    HW130746   0.283   4.968   4.015
 9949SOL    HW230747   0.190   5.003   4.145
 9950SOL     OW30748   6.814   5.242   6.061
 9950SOL    HW130749   6.769   5.154   6.080
 9950SOL    HW230750   6.912   5.234   6.079
 9951SOL     OW30751   1.537   2.167   2.580
 9951SOL    HW130752   1.531   2.219   2.495
 9951SOL    HW230753   1.564   2.073   2.561
 9952SOL     OW30754   1.146   3.605   1.673
 9952SOL    HW130755   1.209   3.575   1.601
 9952SOL    HW230756   1.133   3.704   1.666
 9953SOL     OW30757   5.918   2.200   3.270
 9953SOL    HW130758   5.979   2.212   3.191
 9953SOL    HW230759   5.970   2.212   3.354
 9954SOL     OW30760   1.707   0.889   4.937
 9954SOL    HW130761   1.647   0.810   4.940
 9954SOL    HW230762   1.761   0.887   4.853
 9955SOL     OW30763   4.701   3.239   6.615
 9955SOL    HW130764   4.735   3.332   6.607
 9955SOL    HW230765   4.616   3.230   6.563
 9956SOL     OW30766   6.838   3.951   2.587
 9956SOL    HW130767   6.862   4.045   2.613
 9956SOL    HW230768   6.922   3.897   2.577
 9957SOL     OW30769   5.573   6.950   1.293
 9957SOL    HW130770   5.490   6.971   1.345
 9957SOL    HW230771   5.610   6.862   1.324
 9958SOL     OW30772   3.441   5.791   6.215
 9958SOL    HW130773   3.357   5.846   6.219
 9958SOL    HW230774   3.419   5.694   6.227
 9959SOL     OW30775   4.315   3.508   1.646
 9959SOL    HW130776   4.292   3.412   1.661
 9959SOL    HW230777   4.270   3.564   1.716
 9960SOL     OW30778   0.254   6.542   1.637
 9960SOL    HW130779   0.236   6.444   1.626
 9960SOL    HW230780   0.325   6.555   1.707
 9961SOL     OW30781   2.344   4.237   2.657
 9961SOL    HW130782   2.358   4.292   2.574
 9961SOL    HW230783   2.372   4.289   2.737
 9962SOL     OW30784   3.835   1.107   1.914
 9962SOL    HW130785   3.907   1.055   1.959
 9962SOL    HW230786   3.759   1.120   1.977
 9963SOL     OW30787   2.449   3.158   6.935
 9963SOL    HW130788   2.461   3.061   6.956
 9963SOL    HW230789   2.522   3.211   6.979
 9964SOL     OW30790   3.352   4.939   5.759
 9964SOL    HW130791   3.270   4.998   5.760
 9964SOL    HW230792   3.408   4.963   5.680
 9965SOL     OW30793   3.526   5.590   4.621
 9965SOL    HW130794   3.484   5.573   4.711
 9965SOL    HW230795   3.454   5.593   4.552
 9966SOL     OW30796   2.765   5.350   2.295
 9966SOL    HW130797   2.853   5.380   2.258
 9966SOL    HW230798   2.742   5.405   2.375
 9967SOL     OW30799   5.922   5.233   2.908
 9967SOL    HW130800   6.019   5.249   2.888
 9967SOL    HW230801   5.905   5.135   2.915
 9968SOL     OW30802   4.104   5.748   6.907
 9968SOL    HW130803   4.034   5.782   6.844
 9968SOL    HW230804   4.186   5.724   6.856
 9969SOL     OW30805   1.501   3.159   4.380
 9969SOL    HW130806   1.524   3.135   4.474
 9969SOL    HW230807   1.452   3.246   4.378
 9970SOL     OW30808   6.506   5.369   1.421
 9970SOL    HW130809   6.437   5.301   1.397
 9970SOL    HW230810   6.502   5.444   1.355
 9971SOL     OW30811   2.223   2.417   1.708
 9971SOL    HW130812   2.268   2.328   1.713
 9971SOL    HW230813   2.293   2.489   1.713
 9972SOL     OW30814   2.573   3.869   1.168
 9972SOL    HW130815   2.537   3.776   1.169
 9972SOL    HW230816   2.536   3.918   1.089
 9973SOL     OW30817   4.645   2.574   4.440
 9973SOL    HW130818   4.654   2.476   4.456
 9973SOL    HW230819   4.649   2.623   4.527
 9974SOL     OW30820   0.256   2.402   3.067
 9974SOL    HW130821   0.251   2.320   3.009
 9974SOL    HW230822   0.303   2.475   3.018
 9975SOL     OW30823   0.521   5.912   6.415
 9975SOL    HW130824   0.612   5.885   6.382
 9975SOL    HW230825   0.484   5.840   6.473
 9976SOL     OW30826   1.288   5.199   5.202
 9976SOL    HW130827   1.202   5.176   5.157
 9976SOL    HW230828   1.296   5.298   5.212
 9977SOL     OW30829   5.240   4.822   5.686
 9977SOL    HW130830   5.167   4.863   5.740
 9977SOL    HW230831   5.262   4.732   5.723
 9978SOL     OW30832   0.019   1.839   5.445
 9978SOL    HW130833   0.062   1.761   5.400
 9978SOL    HW230834   0.076   1.868   5.522
 9979SOL     OW30835   6.360   4.181   6.290
 9979SOL    HW130836   6.423   4.210   6.219
 9979SOL    HW230837   6.411   4.144   6.367
 9980SOL     OW30838   2.027   0.224   0.502
 9980SOL    HW130839   2.063   0.244   0.411
 9980SOL    HW230840   2.040   0.304   0.562
 9981SOL     OW30841   2.101   2.125   0.821
 9981SOL    HW130842   2.061   2.075   0.744
 9981SOL    HW230843   2.029   2.175   0.869
 9982SOL     OW30844   0.922   1.294   4.277
 9982SOL    HW130845   0.847   1.229   4.262
 9982SOL    HW230846   0.983   1.259   4.348
 9983SOL     OW30847   0.237   1.166   1.902
 9983SOL    HW130848   0.172   1.200   1.970
 9983SOL    HW230849   0.314   1.230   1.896
 9984SOL     OW30850   0.887   6.156   0.374
 9984SOL    HW130851   0.913   6.095   0.449
 9984SOL    HW230852   0.932   6.244   0.385
 9985SOL     OW30853   2.683   5.596   1.370
 9985SOL    HW130854   2.759   5.589   1.435
 9985SOL    HW230855   2.614   5.527   1.392
 9986SOL     OW30856   5.671   5.002   0.933
 9986SOL    HW130857   5.740   4.936   0.961
 9986SOL    HW230858   5.714   5.077   0.883
 9987SOL     OW30859   6.361   2.669   1.983
 9987SOL    HW130860   6.406   2.580   1.980
 9987SOL    HW230861   6.262   2.656   1.987
 9988SOL     OW30862   6.887   5.266   4.343
 9988SOL    HW130863   6.819   5.338   4.355
 9988SOL    HW230864   6.974   5.307   4.314
 9989SOL     OW30865   6.154   4.345   2.109
 9989SOL    HW130866   6.240   4.391   2.089
 9989SOL    HW230867   6.141   4.342   2.208
 9990SOL     OW30868   2.142   6.719   2.913
 9990SOL    HW130869   2.219   6.782   2.897
 9990SOL    HW230870   2.133   6.658   2.833
 9991SOL     OW30871   2.155   3.685   3.738
 9991SOL    HW130872   2.201   3.603   3.772
 9991SOL    HW230873   2.161   3.757   3.808
 9992SOL     OW30874   3.647   3.843   0.864
 9992SOL    HW130875   3.715   3.884   0.803
 9992SOL    HW230876   3.559   3.889   0.851
 9993SOL     OW30877   3.807   6.920   3.879
 9993SOL    HW130878   3.902   6.891   3.868
 9993SOL    HW230879   3.754   6.891   3.799
 9994SOL     OW30880   6.730   3.892   2.337
 9994SOL    HW130881   6.722   3.935   2.426
 9994SOL    HW230882   6.726   3.962   2.265
 9995SOL     OW30883   3.280   1.381   3.680
 9995SOL    HW130884   3.336   1.460   3.653
 9995SOL    HW230885   3.254   1.389   3.776
 9996SOL     OW30886   2.567   3.801   1.697
 9996SOL    HW130887   2.583   3.730   1.627
 9996SOL    HW230888   2.615   3.885   1.671
 9997SOL     OW30889   5.336   0.617   2.355
 9997SOL    HW130890   5.322   0.609   2.454
 9997SOL    HW230891   5.358   0.712   2.332
 9998SOL     OW30892   5.981   3.715   2.003
 9998SOL    HW130893   5.892   3.761   2.012
 9998SOL    HW230894   6.012   3.720   1.908
 9999SOL     OW30895   6.968   5.589   5.088
 9999SOL    HW130896   0.008   5.602   5.159
 9999SOL    HW230897   7.005   5.534   5.014
10000SOL     OW30898   5.413   2.250   0.352
10000SOL    HW130899   5.403   2.287   0.444
10000SOL    HW230900   5.332   2.272   0.298
10001SOL     OW30901   3.543   0.498   1.363
10001SOL    HW130902   3.625   0.555   1.357
10001SOL    HW230903   3.529   0.450   1.277
10002SOL     OW30904   1.880   1.046   1.736
10002SOL    HW130905   1.785   1.076   1.733
10002SOL    HW230906   1.904   1.020   1.830
10003SOL     OW30907   2.899   2.255   2.301
10003SOL    HW130908   2.963   2.322   2.340
10003SOL    HW230909   2.874   2.283   2.208
10004SOL     OW30910   5.506   2.872   5.145
10004SOL    HW130911   5.412   2.907   5.143
10004SOL    HW230912   5.506   2.775   5.122
10005SOL     OW30913   3.388   5.487   2.647
10005SOL    HW130914   3.442   5.449   2.722
10005SOL    HW230915   3.296   5.508   2.679
10006SOL     OW30916   6.172   0.409   5.356
10006SOL    HW130917   6.231   0.329   5.344
10006SOL    HW230918   6.150   0.448   5.267
10007SOL     OW30919   1.075   3.310   3.960
10007SOL    HW130920   1.165   3.317   4.004
10007SOL    HW230921   1.017   3.385   3.991
10008SOL     OW30922   4.944   1.244   3.880
10008SOL    HW130923   4.860   1.190   3.874
10008SOL    HW230924   5.015   1.190   3.925
10009SOL     OW30925   1.561   3.851   1.191
10009SOL    HW130926   1.542   3.777   1.254
10009SOL    HW230927   1.583   3.934   1.242
10010SOL     OW30928   2.610   6.087   0.233
10010SOL    HW130929   2.633   5.993   0.210
10010SOL    HW230930   2.545   6.122   0.166
10011SOL     OW30931   0.507   4.416   6.411
10011SOL    HW130932   0.555   4.490   6.364
10011SOL    HW230933   0.569   4.371   6.475
10012SOL     OW30934   5.234   0.027   1.990
10012SOL    HW130935   5.147   7.013   2.012
10012SOL    HW230936   5.309   7.007   2.032
10013SOL     OW30937   1.748   2.248   3.998
10013SOL    HW130938   1.658   2.288   4.013
10013SOL    HW230939   1.815   2.293   4.057
10014SOL     OW30940   0.901   1.116   1.524
10014SOL    HW130941   0.832   1.045   1.531
10014SOL    HW230942   0.886   1.168   1.440
10015SOL     OW30943   3.946   5.105   0.018
10015SOL    HW130944   3.855   5.146   0.016
10015SOL    HW230945   3.938   5.007   0.035
10016SOL     OW30946   1.875   0.680   4.703
10016SOL    HW130947   1.887   0.776   4.727
10016SOL    HW230948   1.877   0.670   4.603
10017SOL     OW30949   2.004   1.648   3.020
10017SOL    HW130950   2.063   1.677   3.096
10017SOL    HW230951   2.054   1.585   2.961
10018SOL     OW30952   6.843   4.760   5.554
10018SOL    HW130953   6.922   4.802   5.599
10018SOL    HW230954   6.839   4.791   5.459
10019SOL     OW30955   0.696   1.594   3.151
10019SOL    HW130956   0.743   1.681   3.164
10019SOL    HW230957   0.674   1.582   3.054
10020SOL     OW30958   0.382   0.501   1.310
10020SOL    HW130959   0.391   0.419   1.253
10020SOL    HW230960   0.446   0.571   1.279
10021SOL     OW30961   1.046   2.426   2.513
10021SOL    HW130962   1.126   2.414   2.572
10021SOL    HW230963   0.969   2.375   2.552
10022SOL     OW30964   3.280   0.009   0.841
10022SOL    HW130965   3.288   6.942   0.862
10022SOL    HW230966   3.335   0.031   0.761
10023SOL     OW30967   1.719   5.217   4.311
10023SOL    HW130968   1.810   5.208   4.350
10023SOL    HW230969   1.711   5.159   4.230
10024SOL     OW30970   2.284   5.684   1.954
10024SOL    HW130971   2.187   5.705   1.943
10024SOL    HW230972   2.294   5.590   1.989
10025SOL     OW30973   1.647   2.904   2.185
10025SOL    HW130974   1.720   2.835   2.180
10025SOL    HW230975   1.658   2.970   2.111
10026SOL     OW30976   5.147   0.493   3.051
10026SOL    HW130977   5.064   0.460   3.006
10026SOL    HW230978   5.169   0.434   3.128
10027SOL     OW30979   0.941   2.700   5.408
10027SOL    HW130980   0.979   2.650   5.486
10027SOL    HW230981   0.885   2.776   5.441
10028SOL     OW30982   1.953   1.571   2.091
10028SOL    HW130983   2.048   1.593   2.071
10028SOL    HW230984   1.945   1.474   2.115
10029SOL     OW30985   1.606   2.559   3.447
10029SOL    HW130986   1.548   2.641   3.449
10029SOL    HW230987   1.603   2.519   3.355
10030SOL     OW30988   3.310   0.395   4.983
10030SOL    HW130989   3.357   0.311   5.010
10030SOL    HW230990   3.303   0.399   4.884
10031SOL     OW30991   5.432   4.573   4.823
10031SOL    HW130992   5.380   4.510   4.881
10031SOL    HW230993   5.375   4.653   4.802
10032SOL     OW30994   4.278   0.519   5.475
10032SOL    HW130995   4.326   0.538   5.389
10032SOL    HW230996   4.179   0.521   5.458
10033SOL     OW30997   4.797   2.653   3.949
10033SOL    HW130998   4.801   2.554   3.964
10033SOL    HW230999   4.763   2.697   4.032
10034SOL     OW31000   3.104   0.427   3.751
10034SOL    HW131001   3.073   0.336   3.781
10034SOL    HW231002   3.083   0.439   3.654
10035SOL     OW31003   6.432   4.977   1.193
10035SOL    HW131004   6.528   4.948   1.191
10035SOL    HW231005   6.399   4.987   1.099
10036SOL     OW31006   6.442   0.397   0.352
10036SOL    HW131007   6.434   0.406   0.253
10036SOL    HW231008   6.489   0.478   0.389
10037SOL     OW31009   5.851   0.839   0.404
10037SOL    HW131010   5.891   0.766   0.350
10037SOL    HW231011   5.869   0.823   0.501
10038SOL     OW31012   4.461   6.824   6.724
10038SOL    HW131013   4.533   6.840   6.792
10038SOL    HW231014   4.441   6.726   6.718
10039SOL     OW31015   4.443   6.724   5.179
10039SOL    HW131016   4.481   6.656   5.117
10039SOL    HW231017   4.425   6.682   5.268
10040SOL     OW31018   4.201   5.928   6.232
10040SOL    HW131019   4.257   5.898   6.309
10040SOL    HW231020   4.151   6.011   6.258
10041SOL     OW31021   4.677   6.210   6.573
10041SOL    HW131022   4.730   6.294   6.578
10041SOL    HW231023   4.588   6.229   6.532
10042SOL     OW31024   1.388   2.006   5.041
10042SOL    HW131025   1.333   2.078   4.999
10042SOL    HW231026   1.342   1.918   5.028
10043SOL     OW31027   0.278   2.169   4.284
10043SOL    HW131028   0.348   2.097   4.288
10043SOL    HW231029   0.225   2.168   4.369
10044SOL     OW31030   2.367   1.628   4.476
10044SOL    HW131031   2.316   1.678   4.406
10044SOL    HW231032   2.422   1.557   4.432
10045SOL     OW31033   5.162   6.741   4.043
10045SOL    HW131034   5.084   6.686   4.015
10045SOL    HW231035   5.241   6.718   3.986
10046SOL     OW31036   1.535   3.678   1.418
10046SOL    HW131037   1.496   3.604   1.363
10046SOL    HW231038   1.604   3.641   1.480
10047SOL     OW31039   6.574   3.586   5.182
10047SOL    HW131040   6.574   3.556   5.087
10047SOL    HW231041   6.480   3.593   5.215
10048SOL     OW31042   5.114   2.190   2.604
10048SOL    HW131043   5.200   2.238   2.622
10048SOL    HW231044   5.074   2.159   2.691
10049SOL     OW31045   0.776   0.003   6.533
10049SOL    HW131046   0.711   0.079   6.535
10049SOL    HW231047   0.845   0.016   6.604
10050SOL     OW31048   6.616   2.630   5.202
10050SOL    HW131049   6.694   2.582   5.164
10050SOL    HW231050   6.560   2.667   5.128
10051SOL     OW31051   6.194   2.386   5.180
10051SOL    HW131052   6.237   2.424   5.098
10051SOL    HW231053   6.190   2.456   5.251
10052SOL     OW31054   3.140   2.137   2.939
10052SOL    HW131055   3.109   2.141   3.034
10052SOL    HW231056   3.061   2.139   2.878
10053SOL     OW31057   3.536   6.051   1.823
10053SOL    HW131058   3.452   6.043   1.769
10053SOL    HW231059   3.614   6.062   1.761
10054SOL     OW31060   5.058   5.124   6.006
10054SOL    HW131061   4.998   5.107   6.084
10054SOL    HW231062   5.036   5.213   5.966
10055SOL     OW31063   6.050   2.136   5.161
10055SOL    HW131064   6.104   2.212   5.197
10055SOL    HW231065   6.054   2.059   5.224
10056SOL     OW31066   5.430   4.466   1.971
10056SOL    HW131067   5.377   4.519   1.905
10056SOL    HW231068   5.392   4.478   2.063
10057SOL     OW31069   4.218   2.228   4.643
10057SOL    HW131070   4.203   2.182   4.731
10057SOL    HW231071   4.138   2.214   4.584
10058SOL     OW31072   0.241   3.672   4.353
10058SOL    HW131073   0.179   3.742   4.390
10058SOL    HW231074   0.248   3.597   4.418
10059SOL     OW31075   4.732   6.727   0.917
10059SOL    HW131076   4.803   6.797   0.922
10059SOL    HW231077   4.722   6.696   0.823
10060SOL     OW31078   1.439   1.630   1.403
10060SOL    HW131079   1.420   1.538   1.367
10060SOL    HW231080   1.406   1.699   1.338
10061SOL     OW31081   5.145   1.206   4.685
10061SOL    HW131082   5.196   1.286   4.654
10061SOL    HW231083   5.194   1.161   4.760
10062SOL     OW31084   6.548   0.152   4.519
10062SOL    HW131085   6.646   0.130   4.516
10062SOL    HW231086   6.521   0.170   4.614
10063SOL     OW31087   1.937   1.407   4.184
10063SOL    HW131088   1.865   1.444   4.242
10063SOL    HW231089   1.946   1.462   4.102
10064SOL     OW31090   4.793   6.498   0.450
10064SOL    HW131091   4.695   6.497   0.433
10064SOL    HW231092   4.834   6.577   0.405
10065SOL     OW31093   2.063   6.991   2.687
10065SOL    HW131094   2.117   6.914   2.653
10065SOL    HW231095   1.991   7.013   2.622
10066SOL     OW31096   1.254   2.326   3.427
10066SOL    HW131097   1.190   2.338   3.350
10066SOL    HW231098   1.316   2.250   3.406
10067SOL     OW31099   6.355   4.295   4.630
10067SOL    HW131100   6.266   4.275   4.589
10067SOL    HW231101   6.397   4.209   4.660
10068SOL     OW31102   6.951   3.333   2.581
10068SOL    HW131103   6.947   3.433   2.575
10068SOL    HW231104   0.013   3.305   2.605
10069SOL     OW31105   1.913   5.329   3.538
10069SOL    HW131106   1.824   5.284   3.540
10069SOL    HW231107   1.901   5.425   3.512
10070SOL     OW31108   6.308   0.186   5.291
10070SOL    HW131109   6.327   0.133   5.208
10070SOL    HW231110   6.275   0.125   5.363
10071SOL     OW31111   6.365   5.993   3.613
10071SOL    HW131112   6.270   5.969   3.593
10071SOL    HW231113   6.399   5.934   3.687
10072SOL     OW31114   0.202   5.984   3.869
10072SOL    HW131115   0.256   6.066   3.889
10072SOL    HW231116   0.218   5.916   3.941
10073SOL     OW31117   6.101   4.652   5.360
10073SOL    HW131118   6.066   4.627   5.450
10073SOL    HW231119   6.117   4.751   5.357
10074SOL     OW31120   1.376   0.599   5.417
10074SOL    HW131121   1.388   0.684   5.468
10074SOL    HW231122   1.361   0.524   5.480
10075SOL     OW31123   1.584   2.869   3.186
10075SOL    HW131124   1.617   2.954   3.147
10075SOL    HW231125   1.661   2.808   3.205
10076SOL     OW31126   0.083   0.287   3.807
10076SOL    HW131127   0.015   0.358   3.828
10076SOL    HW231128   0.100   0.285   3.709
10077SOL     OW31129   3.897   2.888   6.325
10077SOL    HW131130   3.948   2.826   6.265
10077SOL    HW231131   3.815   2.843   6.359
10078SOL     OW31132   0.334   5.077   3.641
10078SOL    HW131133   0.346   4.980   3.662
10078SOL    HW231134   0.416   5.111   3.595
10079SOL     OW31135   6.672   3.807   2.808
10079SOL    HW131136   6.709   3.842   2.722
10079SOL    HW231137   6.715   3.719   2.829
10080SOL     OW31138   4.235   1.424   5.329
10080SOL    HW131139   4.158   1.391   5.274
10080SOL    HW231140   4.274   1.506   5.286
10081SOL     OW31141   6.998   0.108   0.620
10081SOL    HW131142   6.936   0.146   0.551
10081SOL    HW231143   6.987   0.009   0.624
10082SOL     OW31144   6.683   4.827   1.417
10082SOL    HW131145   6.755   4.759   1.429
10082SOL    HW231146   6.673   4.848   1.319
10083SOL     OW31147   4.971   1.294   3.288
10083SOL    HW131148   4.965   1.250   3.198
10083SOL    HW231149   4.897   1.259   3.347
10084SOL     OW31150   2.177   0.572   5.194
10084SOL    HW131151   2.184   0.626   5.109
10084SOL    HW231152   2.253   0.596   5.254
10085SOL     OW31153   1.598   5.650   2.107
10085SOL    HW131154   1.627   5.574   2.166
10085SOL    HW231155   1.549   5.717   2.161
10086SOL     OW31156   4.651   5.409   2.138
10086SOL    HW131157   4.635   5.472   2.214
10086SOL    HW231158   4.681   5.460   2.058
10087SOL     OW31159   0.131   0.045   3.999
10087SOL    HW131160   0.051   0.078   4.048
10087SOL    HW231161   0.122   0.065   3.901
10088SOL     OW31162   6.824   0.076   1.202
10088SOL    HW131163   6.737   0.032   1.223
10088SOL    HW231164   6.860   0.041   1.115
10089SOL     OW31165   3.030   1.816   2.495
10089SOL    HW131166   3.102   1.750   2.472
10089SOL    HW231167   3.022   1.883   2.421
10090SOL     OW31168   0.963   4.814   1.419
10090SOL    HW131169   0.912   4.875   1.479
10090SOL    HW231170   1.043   4.778   1.467
10091SOL     OW31171   1.082   3.635   6.154
10091SOL    HW131172   1.088   3.585   6.241
10091SOL    HW231173   1.073   3.733   6.172
10092SOL     OW31174   1.941   2.738   5.011
10092SOL    HW131175   1.871   2.796   4.969
10092SOL    HW231176   2.028   2.787   5.013
10093SOL     OW31177   6.799   3.651   5.308
10093SOL    HW131178   6.743   3.650   5.225
10093SOL    HW231179   6.742   3.671   5.387
10094SOL     OW31180   2.563   5.626   2.129
10094SOL    HW131181   2.494   5.580   2.074
10094SOL    HW231182   2.584   5.715   2.090
10095SOL     OW31183   5.982   1.853   5.290
10095SOL    HW131184   5.940   1.873   5.378
10095SOL    HW231185   6.006   1.756   5.285
10096SOL     OW31186   4.330   5.008   2.520
10096SOL    HW131187   4.412   5.029   2.573
10096SOL    HW231188   4.305   4.912   2.536
10097SOL     OW31189   1.082   0.766   0.091
10097SOL    HW131190   1.167   0.717   0.069
10097SOL    HW231191   1.073   0.772   0.191
10098SOL     OW31192   2.695   0.535   4.654
10098SOL    HW131193   2.724   0.450   4.698
10098SOL    HW231194   2.715   0.612   4.715
10099SOL     OW31195   0.053   5.051   0.644
10099SOL    HW131196   0.037   5.138   0.690
10099SOL    HW231197   0.125   5.001   0.691
10100SOL     OW31198   5.539   0.099   4.888
10100SOL    HW131199   5.490   0.079   4.972
10100SOL    HW231200   5.519   0.193   4.859
10101SOL     OW31201   6.066   4.036   1.654
10101SOL    HW131202   6.128   4.059   1.730
10101SOL    HW231203   6.010   3.957   1.680
10102SOL     OW31204   0.874   1.161   2.241
10102SOL    HW131205   0.774   1.160   2.247
10102SOL    HW231206   0.911   1.233   2.299
10103SOL     OW31207   2.730   0.103   5.657
10103SOL    HW131208   2.771   0.018   5.688
10103SOL    HW231209   2.773   0.180   5.703
10104SOL     OW31210   2.102   1.977   3.846
10104SOL    HW131211   2.137   1.974   3.752
10104SOL    HW231212   2.108   1.886   3.886
10105SOL     OW31213   1.860   0.694   0.673
10105SOL    HW131214   1.844   0.785   0.712
10105SOL    HW231215   1.786   0.671   0.610
10106SOL     OW31216   3.993   6.498   0.627
10106SOL    HW131217   3.935   6.426   0.588
10106SOL    HW231218   3.953   6.587   0.607
10107SOL     OW31219   6.392   1.628   6.451
10107SOL    HW131220   6.342   1.547   6.481
10107SOL    HW231221   6.491   1.611   6.457
10108SOL     OW31222   6.530   6.973   0.154
10108SOL    HW131223   6.508   0.023   0.209
10108SOL    HW231224   6.474   6.973   0.071
10109SOL     OW31225   5.032   6.855   0.531
10109SOL    HW131226   5.109   6.909   0.495
10109SOL    HW231227   5.066   6.775   0.579
10110SOL     OW31228   3.890   5.376   4.802
10110SOL    HW131229   3.973   5.344   4.756
10110SOL    HW231230   3.820   5.398   4.734
10111SOL     OW31231   5.776   3.239   3.708
10111SOL    HW131232   5.765   3.214   3.612
10111SOL    HW231233   5.686   3.259   3.748
10112SOL     OW31234   5.555   3.312   3.878
10112SOL    HW131235   5.529   3.229   3.926
10112SOL    HW231236   5.578   3.384   3.944
10113SOL     OW31237   4.392   0.138   6.202
10113SOL    HW131238   4.314   0.106   6.255
10113SOL    HW231239   4.428   0.062   6.148
10114SOL     OW31240   5.497   1.257   1.057
10114SOL    HW131241   5.586   1.228   1.023
10114SOL    HW231242   5.508   1.340   1.112
10115SOL     OW31243   3.777   1.594   4.769
10115SOL    HW131244   3.734   1.680   4.794
10115SOL    HW231245   3.823   1.603   4.681
10116SOL     OW31246   0.605   6.284   0.539
10116SOL    HW131247   0.515   6.292   0.581
10116SOL    HW231248   0.604   6.325   0.448
10117SOL     OW31249   6.720   5.664   5.733
10117SOL    HW131250   6.725   5.699   5.640
10117SOL    HW231251   6.808   5.624   5.759
10118SOL     OW31252   1.781   4.513   2.790
10118SOL    HW131253   1.810   4.494   2.883
10118SOL    HW231254   1.699   4.460   2.768
10119SOL     OW31255   0.470   5.576   4.609
10119SOL    HW131256   0.466   5.665   4.565
10119SOL    HW231257   0.380   5.532   4.603
10120SOL     OW31258   1.671   3.176   4.992
10120SOL    HW131259   1.696   3.260   5.041
10120SOL    HW231260   1.613   3.200   4.914
10121SOL     OW31261   6.363   4.067   6.577
10121SOL    HW131262   6.441   4.024   6.623
10121SOL    HW231263   6.329   4.143   6.634
10122SOL     OW31264   6.376   3.302   1.734
10122SOL    HW131265   6.372   3.374   1.803
10122SOL    HW231266   6.332   3.219   1.770
10123SOL     OW31267   5.469   6.604   0.157
10123SOL    HW131268   5.392   6.566   0.207
10123SOL    HW231269   5.498   6.540   0.086
10124SOL     OW31270   1.166   4.336   0.396
10124SOL    HW131271   1.105   4.409   0.367
10124SOL    HW231272   1.214   4.363   0.479
10125SOL     OW31273   2.017   1.307   2.005
10125SOL    HW131274   1.955   1.246   2.053
10125SOL    HW231275   2.033   1.272   1.912
10126SOL     OW31276   6.991   6.459   6.499
10126SOL    HW131277   6.968   6.417   6.587
10126SOL    HW231278   0.008   6.545   6.514
10127SOL     OW31279   3.005   4.548   6.246
10127SOL    HW131280   3.001   4.472   6.311
10127SOL    HW231281   2.919   4.598   6.247
10128SOL     OW31282   2.597   1.530   0.854
10128SOL    HW131283   2.654   1.577   0.786
10128SOL    HW231284   2.629   1.436   0.864
10129SOL     OW31285   5.769   1.488   2.206
10129SOL    HW131286   5.770   1.566   2.143
10129SOL    HW231287   5.717   1.513   2.288
10130SOL     OW31288   1.643   3.475   1.918
10130SOL    HW131289   1.714   3.414   1.884
10130SOL    HW231290   1.684   3.563   1.943
10131SOL     OW31291   1.033   0.182   4.538
10131SOL    HW131292   1.122   0.206   4.578
10131SOL    HW231293   0.973   0.148   4.610
10132SOL     OW31294   3.754   0.534   4.397
10132SOL    HW131295   3.683   0.472   4.364
10132SOL    HW231296   3.718   0.628   4.399
10133SOL     OW31297   3.695   6.061   0.801
10133SOL    HW131298   3.784   6.069   0.757
10133SOL    HW231299   3.644   6.147   0.790
10134SOL     OW31300   0.241   6.064   3.080
10134SOL    HW131301   0.218   6.158   3.054
10134SOL    HW231302   0.199   6.001   3.015
10135SOL     OW31303   4.882   3.340   3.449
10135SOL    HW131304   4.893   3.294   3.537
10135SOL    HW231305   4.883   3.272   3.375
10136SOL     OW31306   5.310   0.903   2.581
10136SOL    HW131307   5.340   0.996   2.562
10136SOL    HW231308   5.211   0.900   2.587
10137SOL     OW31309   6.738   3.709   3.818
10137SOL    HW131310   6.762   3.641   3.887
10137SOL    HW231311   6.727   3.664   3.729
10138SOL     OW31312   5.113   3.376   0.194
10138SOL    HW131313   5.209   3.350   0.193
10138SOL    HW231314   5.075   3.366   0.102
10139SOL     OW31315   3.077   3.747   3.631
10139SOL    HW131316   3.022   3.728   3.713
10139SOL    HW231317   3.132   3.829   3.646
10140SOL     OW31318   5.662   6.173   0.131
10140SOL    HW131319   5.595   6.102   0.107
10140SOL    HW231320   5.752   6.147   0.095
10141SOL     OW31321   4.237   1.439   5.625
10141SOL    HW131322   4.300   1.515   5.640
10141SOL    HW231323   4.245   1.407   5.530
10142SOL     OW31324   6.404   6.901   5.380
10142SOL    HW131325   6.399   6.809   5.418
10142SOL    HW231326   6.400   6.896   5.280
10143SOL     OW31327   5.608   1.380   6.986
10143SOL    HW131328   5.597   1.462   0.011
10143SOL    HW231329   5.551   1.307   7.023
10144SOL     OW31330   3.162   0.370   6.199
10144SOL    HW131331   3.233   0.440   6.205
10144SOL    HW231332   3.185   0.293   6.258
10145SOL     OW31333   3.132   4.936   3.862
10145SOL    HW131334   3.042   4.893   3.859
10145SOL    HW231335   3.122   5.031   3.891
10146SOL     OW31336   4.638   4.368   4.936
10146SOL    HW131337   4.542   4.392   4.953
10146SOL    HW231338   4.697   4.434   4.982
10147SOL     OW31339   5.644   3.681   5.275
10147SOL    HW131340   5.708   3.756   5.262
10147SOL    HW231341   5.605   3.685   5.367
10148SOL     OW31342   4.987   4.883   6.535
10148SOL    HW131343   4.944   4.827   6.606
10148SOL    HW231344   4.963   4.847   6.445
10149SOL     OW31345   5.766   3.042   0.796
10149SOL    HW131346   5.792   3.078   0.706
10149SOL    HW231347   5.849   3.022   0.849
10150SOL     OW31348   3.566   3.613   0.533
10150SOL    HW131349   3.526   3.686   0.588
10150SOL    HW231350   3.517   3.607   0.446
10151SOL     OW31351   0.826   5.870   0.081
10151SOL    HW131352   0.848   5.820   7.028
10151SOL    HW231353   0.777   5.954   0.057
10152SOL     OW31354   7.027   5.663   4.230
10152SOL    HW131355   0.061   5.717   4.176
10152SOL    HW231356   6.947   5.641   4.173
10153SOL     OW31357   4.492   6.077   3.908
10153SOL    HW131358   4.447   5.995   3.873
10153SOL    HW231359   4.574   6.096   3.854
10154SOL     OW31360   4.398   6.584   5.406
10154SOL    HW131361   4.374   6.496   5.447
10154SOL    HW231362   4.318   6.644   5.407
10155SOL     OW31363   4.051   2.318   5.826
10155SOL    HW131364   3.998   2.324   5.742
10155SOL    HW231365   4.082   2.410   5.852
10156SOL     OW31366   6.129   0.212   2.108
10156SOL    HW131367   6.148   0.139   2.042
10156SOL    HW231368   6.055   0.184   2.168
10157SOL     OW31369   0.302   1.662   0.703
10157SOL    HW131370   0.361   1.583   0.685
10157SOL    HW231371   0.212   1.646   0.660
10158SOL     OW31372   5.852   5.529   0.244
10158SOL    HW131373   5.795   5.514   0.163
10158SOL    HW231374   5.840   5.454   0.308
10159SOL     OW31375   2.093   3.223   0.618
10159SOL    HW131376   2.100   3.170   0.702
10159SOL    HW231377   2.182   3.223   0.572
10160SOL     OW31378   1.917   3.123   2.105
10160SOL    HW131379   1.819   3.139   2.120
10160SOL    HW231380   1.939   3.027   2.125
10161SOL     OW31381   3.798   3.017   1.073
10161SOL    HW131382   3.717   2.959   1.070
10161SOL    HW231383   3.782   3.095   1.134
10162SOL     OW31384   3.422   4.576   1.199
10162SOL    HW131385   3.328   4.553   1.172
10162SOL    HW231386   3.477   4.492   1.204
10163SOL     OW31387   6.112   4.278   6.944
10163SOL    HW131388   6.060   4.345   6.998
10163SOL    HW231389   6.062   4.191   6.943
10164SOL     OW31390   5.991   3.485   3.969
10164SOL    HW131391   5.928   3.560   3.986
10164SOL    HW231392   6.009   3.476   3.871
10165SOL     OW31393   6.784   1.754   3.163
10165SOL    HW131394   6.863   1.737   3.105
10165SOL    HW231395   6.757   1.668   3.208
10166SOL     OW31396   3.419   1.836   2.232
10166SOL    HW131397   3.351   1.879   2.173
10166SOL    HW231398   3.492   1.901   2.253
10167SOL     OW31399   1.645   4.582   6.923
10167SOL    HW131400   1.673   4.605   7.016
10167SOL    HW231401   1.660   4.485   6.907
10168SOL     OW31402   5.839   2.743   6.308
10168SOL    HW131403   5.910   2.682   6.345
10168SOL    HW231404   5.750   2.714   6.341
10169SOL     OW31405   6.296   4.626   3.608
10169SOL    HW131406   6.304   4.543   3.552
10169SOL    HW231407   6.360   4.695   3.574
10170SOL     OW31408   0.037   5.341   5.300
10170SOL    HW131409   0.019   5.390   5.385
10170SOL    HW231410   7.023   5.389   5.224
10171SOL     OW31411   0.155   2.481   4.220
10171SOL    HW131412   0.237   2.477   4.161
10171SOL    HW231413   0.084   2.533   4.173
10172SOL     OW31414   0.218   5.725   5.152
10172SOL    HW131415   0.270   5.744   5.068
10172SOL    HW231416   0.251   5.785   5.225
10173SOL     OW31417   1.741   2.591   0.915
10173SOL    HW131418   1.698   2.536   0.987
10173SOL    HW231419   1.834   2.558   0.899
10174SOL     OW31420   5.253   4.612   3.558
10174SOL    HW131421   5.157   4.591   3.540
10174SOL    HW231422   5.303   4.614   3.471
10175SOL     OW31423   6.063   1.702   2.926
10175SOL    HW131424   6.143   1.736   2.974
10175SOL    HW231425   6.042   1.763   2.850
10176SOL     OW31426   0.534   3.378   4.924
10176SOL    HW131427   0.581   3.388   5.012
10176SOL    HW231428   0.582   3.432   4.855
10177SOL     OW31429   2.033   0.905   1.512
10177SOL    HW131430   1.977   0.962   1.452
10177SOL    HW231431   2.054   0.955   1.596
10178SOL     OW31432   0.343   0.788   6.508
10178SOL    HW131433   0.297   0.790   6.419
10178SOL    HW231434   0.349   0.694   6.540
10179SOL     OW31435   0.244   2.711   6.543
10179SOL    HW131436   0.215   2.715   6.639
10179SOL    HW231437   0.314   2.781   6.526
10180SOL     OW31438   4.334   0.719   5.659
10180SOL    HW131439   4.276   0.795   5.630
10180SOL    HW231440   4.292   0.632   5.633
10181SOL     OW31441   6.589   3.567   1.199
10181SOL    HW131442   6.561   3.655   1.237
10181SOL    HW231443   6.636   3.513   1.269
10182SOL     OW31444   4.487   0.778   1.903
10182SOL    HW131445   4.558   0.803   1.837
10182SOL    HW231446   4.462   0.682   1.891
10183SOL     OW31447   6.950   3.107   6.374
10183SOL    HW131448   0.019   3.099   6.385
10183SOL    HW231449   6.915   3.178   6.434
10184SOL     OW31450   4.464   1.105   6.673
10184SOL    HW131451   4.433   1.029   6.616
10184SOL    HW231452   4.397   1.123   6.745
10185SOL     OW31453   6.160   5.969   2.786
10185SOL    HW131454   6.139   6.009   2.697
10185SOL    HW231455   6.109   5.884   2.797
10186SOL     OW31456   5.693   3.595   4.045
10186SOL    HW131457   5.656   3.561   4.132
10186SOL    HW231458   5.622   3.648   3.998
10187SOL     OW31459   1.453   3.561   0.450
10187SOL    HW131460   1.391   3.483   0.441
10187SOL    HW231461   1.510   3.549   0.532
10188SOL     OW31462   4.179   4.697   0.332
10188SOL    HW131463   4.111   4.712   0.404
10188SOL    HW231464   4.149   4.744   0.248
10189SOL     OW31465   0.848   1.168   6.071
10189SOL    HW131466   0.860   1.070   6.059
10189SOL    HW231467   0.934   1.208   6.104
10190SOL     OW31468   5.002   3.140   1.575
10190SOL    HW131469   4.934   3.181   1.636
10190SOL    HW231470   5.021   3.047   1.604
10191SOL     OW31471   3.971   6.078   6.306
10191SOL    HW131472   3.906   6.096   6.380
10191SOL    HW231473   3.924   6.085   6.218
10192SOL     OW31474   4.309   1.672   5.203
10192SOL    HW131475   4.405   1.644   5.193
10192SOL    HW231476   4.256   1.638   5.126
10193SOL     OW31477   3.631   2.819   1.964
10193SOL    HW131478   3.659   2.907   2.002
10193SOL    HW231479   3.566   2.774   2.027
10194SOL     OW31480   5.271   6.245   5.972
10194SOL    HW131481   5.298   6.229   5.877
10194SOL    HW231482   5.196   6.311   5.975
10195SOL     OW31483   6.404   5.946   0.064
10195SOL    HW131484   6.356   5.990   7.018
10195SOL    HW231485   6.382   5.994   0.149
10196SOL     OW31486   4.544   1.817   4.165
10196SOL    HW131487   4.538   1.892   4.231
10196SOL    HW231488   4.499   1.844   4.080
10197SOL     OW31489   5.739   1.254   4.935
10197SOL    HW131490   5.699   1.280   5.023
10197SOL    HW231491   5.667   1.218   4.874
10198SOL     OW31492   3.002   6.935   2.489
10198SOL    HW131493   3.057   6.860   2.524
10198SOL    HW231494   3.058   7.018   2.483
10199SOL     OW31495   1.724   3.120   0.575
10199SOL    HW131496   1.756   3.111   0.669
10199SOL    HW231497   1.801   3.110   0.512
10200SOL     OW31498   4.736   2.768   5.889
10200SOL    HW131499   4.683   2.853   5.884
10200SOL    HW231500   4.795   2.761   5.808
10201SOL     OW31501   1.128   5.208   0.167
10201SOL    HW131502   1.192   5.171   0.101
10201SOL    HW231503   1.178   5.254   0.241
10202SOL     OW31504   3.317   5.006   1.102
10202SOL    HW131505   3.348   5.100   1.115
10202SOL    HW231506   3.396   4.944   1.101
10203SOL     OW31507   6.603   2.969   2.572
10203SOL    HW131508   6.614   2.995   2.476
10203SOL    HW231509   6.686   2.924   2.605
10204SOL     OW31510   4.572   5.738   6.857
10204SOL    HW131511   4.616   5.809   6.912
10204SOL    HW231512   4.641   5.695   6.797
10205SOL     OW31513   2.645   0.817   2.198
10205SOL    HW131514   2.561   0.869   2.213
10205SOL    HW231515   2.697   0.856   2.122
10206SOL     OW31516   6.905   0.213   6.455
10206SOL    HW131517   6.938   0.294   6.408
10206SOL    HW231518   6.822   0.235   6.506
10207SOL     OW31519   1.111   2.433   6.769
10207SOL    HW131520   1.192   2.492   6.766
10207SOL    HW231521   1.113   2.371   6.691
10208SOL     OW31522   6.341   5.015   4.050
10208SOL    HW131523   6.367   5.063   3.966
10208SOL    HW231524   6.246   4.986   4.043
10209SOL     OW31525   0.226   7.025   0.133
10209SOL    HW131526   0.309   0.029   0.178
10209SOL    HW231527   0.231   6.925   0.128
10210SOL     OW31528   4.580   6.283   1.907
10210SOL    HW131529   4.589   6.377   1.874
10210SOL    HW231530   4.653   6.227   1.868
10211SOL     OW31531   4.724   6.390   4.518
10211SOL    HW131532   4.722   6.456   4.443
10211SOL    HW231533   4.663   6.421   4.591
10212SOL     OW31534   0.072   7.018   5.717
10212SOL    HW131535   0.166   0.010   5.691
10212SOL    HW231536   0.037   6.947   5.656
10213SOL     OW31537   5.651   2.428   1.809
10213SOL    HW131538   5.708   2.479   1.874
10213SOL    HW231539   5.709   2.386   1.740
10214SOL     OW31540   0.373   1.665   1.228
10214SOL    HW131541   0.446   1.602   1.253
10214SOL    HW231542   0.317   1.686   1.308
10215SOL     OW31543   3.679   3.159   4.061
10215SOL    HW131544   3.621   3.204   3.993
10215SOL    HW231545   3.662   3.199   4.151
10216SOL     OW31546   6.809   1.286   1.521
10216SOL    HW131547   6.871   1.242   1.455
10216SOL    HW231548   6.749   1.350   1.473
10217SOL     OW31549   2.978   1.315   3.575
10217SOL    HW131550   3.012   1.402   3.541
10217SOL    HW231551   3.050   1.246   3.569
10218SOL     OW31552   0.702   0.926   1.818
10218SOL    HW131553   0.709   1.004   1.881
10218SOL    HW231554   0.664   0.957   1.731
10219SOL     OW31555   0.446   1.994   2.995
10219SOL    HW131556   0.387   2.055   2.942
10219SOL    HW231557   0.447   1.904   2.951
10220SOL     OW31558   4.910   1.890   0.988
10220SOL    HW131559   4.887   1.982   0.956
10220SOL    HW231560   4.869   1.875   1.078
10221SOL     OW31561   1.752   4.046   4.221
10221SOL    HW131562   1.787   3.979   4.287
10221SOL    HW231563   1.660   4.021   4.193
10222SOL     OW31564   3.032   4.476   5.354
10222SOL    HW131565   2.970   4.531   5.298
10222SOL    HW231566   2.983   4.441   5.434
10223SOL     OW31567   2.331   4.676   1.022
10223SOL    HW131568   2.384   4.696   1.105
10223SOL    HW231569   2.384   4.617   0.962
10224SOL     OW31570   6.160   2.785   6.005
10224SOL    HW131571   6.113   2.850   6.064
10224SOL    HW231572   6.098   2.754   5.932
10225SOL     OW31573   1.426   6.071   5.312
10225SOL    HW131574   1.328   6.087   5.308
10225SOL    HW231575   1.475   6.157   5.296
10226SOL     OW31576   2.238   0.280   5.787
10226SOL    HW131577   2.331   0.316   5.797
10226SOL    HW231578   2.181   0.348   5.739
10227SOL     OW31579   5.377   4.940   0.943
10227SOL    HW131580   5.323   5.010   0.897
10227SOL    HW231581   5.473   4.949   0.918
10228SOL     OW31582   0.620   6.241   2.148
10228SOL    HW131583   0.522   6.224   2.154
10228SOL    HW231584   0.637   6.339   2.148
10229SOL     OW31585   2.033   3.139   4.929
10229SOL    HW131586   2.075   3.139   5.020
10229SOL    HW231587   1.958   3.072   4.927
10230SOL     OW31588   6.465   6.441   3.152
10230SOL    HW131589   6.397   6.511   3.126
10230SOL    HW231590   6.458   6.363   3.090
10231SOL     OW31591   6.429   4.703   5.329
10231SOL    HW131592   6.447   4.609   5.299
10231SOL    HW231593   6.488   4.766   5.277
10232SOL     OW31594   3.218   1.613   4.178
10232SOL    HW131595   3.174   1.692   4.134
10232SOL    HW231596   3.190   1.529   4.132
10233SOL     OW31597   3.789   3.682   5.084
10233SOL    HW131598   3.711   3.631   5.046
10233SOL    HW231599   3.769   3.779   5.082
10234SOL     OW31600   5.348   0.379   1.176
10234SOL    HW131601   5.285   0.451   1.146
10234SOL    HW231602   5.403   0.348   1.099
10235SOL     OW31603   3.499   2.109   1.203
10235SOL    HW131604   3.403   2.097   1.228
10235SOL    HW231605   3.515   2.204   1.176
10236SOL     OW31606   2.575   1.270   0.910
10236SOL    HW131607   2.488   1.316   0.926
10236SOL    HW231608   2.564   1.203   0.836
10237SOL     OW31609   0.628   4.653   6.081
10237SOL    HW131610   0.600   4.564   6.046
10237SOL    HW231611   0.633   4.719   6.006
10238SOL     OW31612   3.805   4.229   1.769
10238SOL    HW131613   3.789   4.245   1.866
10238SOL    HW231614   3.778   4.136   1.746
10239SOL     OW31615   2.090   3.861   6.101
10239SOL    HW131616   2.063   3.828   6.192
10239SOL    HW231617   2.179   3.905   6.107
10240SOL     OW31618   1.928   4.745   2.421
10240SOL    HW131619   1.922   4.842   2.395
10240SOL    HW231620   1.836   4.710   2.438
10241SOL     OW31621   0.095   6.350   3.498
10241SOL    HW131622   0.009   6.391   3.469
10241SOL    HW231623   0.119   6.275   3.436
10242SOL     OW31624   0.240   0.880   1.391
10242SOL    HW131625   0.223   0.965   1.441
10242SOL    HW231626   0.316   0.894   1.327
10243SOL     OW31627   2.332   4.394   2.428
10243SOL    HW131628   2.306   4.341   2.348
10243SOL    HW231629   2.398   4.464   2.401
10244SOL     OW31630   1.497   4.226   0.909
10244SOL    HW131631   1.412   4.186   0.943
10244SOL    HW231632   1.545   4.158   0.853
10245SOL     OW31633   3.573   3.419   1.451
10245SOL    HW131634   3.648   3.479   1.427
10245SOL    HW231635   3.506   3.469   1.506
10246SOL     OW31636   3.216   3.394   3.886
10246SOL    HW131637   3.120   3.407   3.910
10246SOL    HW231638   3.222   3.351   3.796
10247SOL     OW31639   6.976   4.024   6.365
10247SOL    HW131640   7.024   4.000   6.280
10247SOL    HW231641   6.882   3.990   6.361
10248SOL     OW31642   1.473   6.478   2.800
10248SOL    HW131643   1.568   6.507   2.809
10248SOL    HW231644   1.468   6.389   2.756
10249SOL     OW31645   2.931   6.055   6.624
10249SOL    HW131646   2.871   6.022   6.551
10249SOL    HW231647   3.023   6.069   6.588
10250SOL     OW31648   6.426   2.588   1.678
10250SOL    HW131649   6.358   2.657   1.703
10250SOL    HW231650   6.502   2.590   1.744
10251SOL     OW31651   2.358   1.184   5.085
10251SOL    HW131652   2.268   1.175   5.126
10251SOL    HW231653   2.423   1.125   5.133
10252SOL     OW31654   3.837   4.461   6.336
10252SOL    HW131655   3.840   4.447   6.435
10252SOL    HW231656   3.898   4.396   6.291
10253SOL     OW31657   2.912   6.708   0.579
10253SOL    HW131658   3.001   6.692   0.623
10253SOL    HW231659   2.918   6.679   0.483
10254SOL     OW31660   5.483   1.420   5.444
10254SOL    HW131661   5.446   1.485   5.377
10254SOL    HW231662   5.431   1.425   5.529
10255SOL     OW31663   2.757   5.956   1.521
10255SOL    HW131664   2.691   5.907   1.464
10255SOL    HW231665   2.773   5.904   1.605
10256SOL     OW31666   5.013   2.409   1.896
10256SOL    HW131667   5.051   2.333   1.950
10256SOL    HW231668   5.072   2.489   1.906
10257SOL     OW31669   1.584   4.527   4.504
10257SOL    HW131670   1.680   4.521   4.532
10257SOL    HW231671   1.564   4.453   4.440
10258SOL     OW31672   3.296   1.627   3.866
10258SOL    HW131673   3.213   1.606   3.919
10258SOL    HW231674   3.275   1.698   3.799
10259SOL     OW31675   1.254   4.989   3.045
10259SOL    HW131676   1.301   4.929   2.982
10259SOL    HW231677   1.224   4.937   3.125
10260SOL     OW31678   1.440   1.168   3.741
10260SOL    HW131679   1.489   1.229   3.803
10260SOL    HW231680   1.403   1.091   3.793
10261SOL     OW31681   6.817   4.762   2.485
10261SOL    HW131682   6.782   4.855   2.485
10261SOL    HW231683   6.743   4.699   2.461
10262SOL     OW31684   2.544   6.920   5.531
10262SOL    HW131685   2.629   6.965   5.507
10262SOL    HW231686   2.563   6.848   5.598
10263SOL     OW31687   5.471   0.285   0.203
10263SOL    HW131688   5.512   0.349   0.268
10263SOL    HW231689   5.536   0.213   0.181
10264SOL     OW31690   5.780   0.040   6.668
10264SOL    HW131691   5.781   6.971   6.664
10264SOL    HW231692   5.774   0.077   6.575
10265SOL     OW31693   2.696   3.001   1.516
10265SOL    HW131694   2.717   2.935   1.588
10265SOL    HW231695   2.600   3.026   1.521
10266SOL     OW31696   4.081   3.208   3.802
10266SOL    HW131697   4.068   3.237   3.897
10266SOL    HW231698   4.117   3.115   3.800
10267SOL     OW31699   5.934   2.740   0.113
10267SOL    HW131700   5.959   2.695   0.027
10267SOL    HW231701   6.010   2.730   0.178
10268SOL     OW31702   5.788   5.842   2.439
10268SOL    HW131703   5.846   5.761   2.448
10268SOL    HW231704   5.845   5.924   2.445
10269SOL     OW31705   0.472   3.790   6.815
10269SOL    HW131706   0.466   3.727   6.737
10269SOL    HW231707   0.427   3.748   6.894
10270SOL     OW31708   3.827   4.845   2.592
10270SOL    HW131709   3.823   4.749   2.619
10270SOL    HW231710   3.782   4.902   2.661
10271SOL     OW31711   3.814   2.632   6.697
10271SOL    HW131712   3.909   2.661   6.686
10271SOL    HW231713   3.798   2.548   6.645
10272SOL     OW31714   1.700   1.429   5.181
10272SOL    HW131715   1.661   1.337   5.183
10272SOL    HW231716   1.798   1.424   5.198
10273SOL     OW31717   2.580   5.363   2.833
10273SOL    HW131718   2.628   5.359   2.745
10273SOL    HW231719   2.622   5.299   2.897
10274SOL     OW31720   0.626   5.407   5.481
10274SOL    HW131721   0.680   5.410   5.397
10274SOL    HW231722   0.661   5.476   5.545
10275SOL     OW31723   0.747   6.796   2.433
10275SOL    HW131724   0.716   6.711   2.476
10275SOL    HW231725   0.674   6.833   2.375
10276SOL     OW31726   5.773   5.081   5.319
10276SOL    HW131727   5.849   5.029   5.279
10276SOL    HW231728   5.696   5.082   5.255
10277SOL     OW31729   1.189   6.017   4.041
10277SOL    HW131730   1.288   6.013   4.027
10277SOL    HW231731   1.143   6.015   3.952
10278SOL     OW31732   0.770   2.068   3.772
10278SOL    HW131733   0.867   2.094   3.770
10278SOL    HW231734   0.717   2.136   3.722
10279SOL     OW31735   1.753   5.005   4.133
10279SOL    HW131736   1.838   4.993   4.082
10279SOL    HW231737   1.676   4.973   4.078
10280SOL     OW31738   0.218   2.806   0.198
10280SOL    HW131739   0.199   2.746   0.276
10280SOL    HW231740   0.146   2.795   0.130
10281SOL     OW31741   5.644   1.624   2.983
10281SOL    HW131742   5.665   1.553   2.916
10281SOL    HW231743   5.651   1.714   2.940
10282SOL     OW31744   5.661   3.617   4.362
10282SOL    HW131745   5.760   3.609   4.350
10282SOL    HW231746   5.633   3.573   4.447
10283SOL     OW31747   1.771   2.856   1.068
10283SOL    HW131748   1.828   2.853   1.150
10283SOL    HW231749   1.763   2.765   1.029
10284SOL     OW31750   5.600   2.429   4.891
10284SOL    HW131751   5.504   2.422   4.868
10284SOL    HW231752   5.637   2.338   4.911
10285SOL     OW31753   5.458   6.877   2.654
10285SOL    HW131754   5.503   6.791   2.679
10285SOL    HW231755   5.469   6.893   2.556
10286SOL     OW31756   3.189   1.736   3.351
10286SOL    HW131757   3.257   1.663   3.344
10286SOL    HW231758   3.232   1.818   3.389
10287SOL     OW31759   2.258   6.385   1.610
10287SOL    HW131760   2.255   6.398   1.709
10287SOL    HW231761   2.273   6.473   1.565
10288SOL     OW31762   4.775   5.375   3.228
10288SOL    HW131763   4.745   5.411   3.316
10288SOL    HW231764   4.854   5.427   3.195
10289SOL     OW31765   2.434   6.214   0.052
10289SOL    HW131766   2.351   6.245   0.099
10289SOL    HW231767   2.493   6.293   0.034
10290SOL     OW31768   3.122   3.963   2.810
10290SOL    HW131769   3.067   3.901   2.754
10290SOL    HW231770   3.073   3.982   2.895
10291SOL     OW31771   3.694   1.701   2.913
10291SOL    HW131772   3.634   1.681   2.835
10291SOL    HW231773   3.655   1.663   2.996
10292SOL     OW31774   1.508   1.179   5.176
10292SOL    HW131775   1.452   1.261   5.184
10292SOL    HW231776   1.467   1.105   5.229
10293SOL     OW31777   2.183   4.011   2.258
10293SOL    HW131778   2.195   3.923   2.211
10293SOL    HW231779   2.212   4.002   2.353
10294SOL     OW31780   5.605   2.903   3.073
10294SOL    HW131781   5.540   2.829   3.057
10294SOL    HW231782   5.660   2.917   2.991
10295SOL     OW31783   0.448   4.247   5.684
10295SOL    HW131784   0.465   4.244   5.586
10295SOL    HW231785   0.402   4.163   5.713
10296SOL     OW31786   4.973   1.587   0.347
10296SOL    HW131787   5.026   1.664   0.312
10296SOL    HW231788   4.924   1.614   0.430
10297SOL     OW31789   2.025   0.210   6.474
10297SOL    HW131790   2.012   0.120   6.433
10297SOL    HW231791   1.965   0.219   6.554
10298SOL     OW31792   2.514   4.219   1.791
10298SOL    HW131793   2.451   4.152   1.751
10298SOL    HW231794   2.464   4.281   1.851
10299SOL     OW31795   4.475   4.442   3.023
10299SOL    HW131796   4.417   4.399   3.092
10299SOL    HW231797   4.498   4.535   3.053
10300SOL     OW31798   1.279   4.102   2.239
10300SOL    HW131799   1.282   4.176   2.306
10300SOL    HW231800   1.360   4.106   2.181
10301SOL     OW31801   5.502   2.410   4.394
10301SOL    HW131802   5.430   2.408   4.463
10301SOL    HW231803   5.487   2.336   4.329
10302SOL     OW31804   1.639   6.747   3.892
10302SOL    HW131805   1.601   6.782   3.807
10302SOL    HW231806   1.690   6.663   3.874
10303SOL     OW31807   1.766   5.978   2.924
10303SOL    HW131808   1.747   5.907   2.856
10303SOL    HW231809   1.732   6.066   2.891
10304SOL     OW31810   5.223   6.922   1.548
10304SOL    HW131811   5.137   6.973   1.538
10304SOL    HW231812   5.296   6.986   1.573
10305SOL     OW31813   1.090   4.443   6.801
10305SOL    HW131814   1.141   4.379   6.743
10305SOL    HW231815   1.129   4.443   6.893
10306SOL     OW31816   5.144   6.937   6.371
10306SOL    HW131817   5.218   6.872   6.386
10306SOL    HW231818   5.171   7.002   6.299
10307SOL     OW31819   2.900   2.170   5.518
10307SOL    HW131820   2.948   2.235   5.460
10307SOL    HW231821   2.967   2.120   5.574
10308SOL     OW31822   2.011   4.101   3.327
10308SOL    HW131823   2.089   4.163   3.326
10308SOL    HW231824   2.043   4.007   3.341
10309SOL     OW31825   6.742   1.178   6.305
10309SOL    HW131826   6.702   1.146   6.391
10309SOL    HW231827   6.796   1.260   6.323
10310SOL     OW31828   3.224   3.174   1.034
10310SOL    HW131829   3.197   3.268   1.013
10310SOL    HW231830   3.195   3.152   1.127
10311SOL     OW31831   7.001   6.261   0.406
10311SOL    HW131832   0.043   6.314   0.450
10311SOL    HW231833   7.014   6.164   0.426
10312SOL     OW31834   3.688   5.966   2.540
10312SOL    HW131835   3.755   5.963   2.465
10312SOL    HW231836   3.680   5.875   2.581
10313SOL     OW31837   4.677   6.559   1.911
10313SOL    HW131838   4.608   6.618   1.953
10313SOL    HW231839   4.765   6.573   1.957
10314SOL     OW31840   6.469   0.983   2.091
10314SOL    HW131841   6.491   0.935   2.006
10314SOL    HW231842   6.372   1.006   2.093
10315SOL     OW31843   5.001   6.007   5.502
10315SOL    HW131844   5.018   5.967   5.411
10315SOL    HW231845   4.907   5.988   5.530
10316SOL     OW31846   5.835   1.633   4.108
10316SOL    HW131847   5.775   1.699   4.153
10316SOL    HW231848   5.871   1.569   4.177
10317SOL     OW31849   4.918   5.860   4.287
10317SOL    HW131850   4.951   5.863   4.192
10317SOL    HW231851   4.971   5.924   4.342
10318SOL     OW31852   5.398   6.599   6.790
10318SOL    HW131853   5.390   6.541   6.872
10318SOL    HW231854   5.359   6.689   6.809
10319SOL     OW31855   1.273   2.557   5.800
10319SOL    HW131856   1.301   2.605   5.884
10319SOL    HW231857   1.257   2.461   5.821
10320SOL     OW31858   0.134   0.925   2.768
10320SOL    HW131859   0.120   0.845   2.711
10320SOL    HW231860   0.095   0.908   2.859
10321SOL     OW31861   4.260   1.917   1.684
10321SOL    HW131862   4.201   1.966   1.748
10321SOL    HW231863   4.241   1.819   1.688
10322SOL     OW31864   6.432   5.840   5.359
10322SOL    HW131865   6.371   5.855   5.437
10322SOL    HW231866   6.378   5.838   5.275
10323SOL     OW31867   5.871   2.927   5.624
10323SOL    HW131868   5.920   2.926   5.537
10323SOL    HW231869   5.773   2.937   5.606
10324SOL     OW31870   3.858   3.330   2.355
10324SOL    HW131871   3.793   3.402   2.330
10324SOL    HW231872   3.939   3.371   2.398
10325SOL     OW31873   6.937   3.708   1.975
10325SOL    HW131874   6.930   3.697   2.074
10325SOL    HW231875   6.886   3.789   1.947
10326SOL     OW31876   3.247   4.519   7.025
10326SOL    HW131877   3.217   4.433   0.036
10326SOL    HW231878   3.242   4.511   6.925
10327SOL     OW31879   2.468   1.279   1.228
10327SOL    HW131880   2.430   1.191   1.259
10327SOL    HW231881   2.448   1.291   1.131
10328SOL     OW31882   5.960   2.638   0.999
10328SOL    HW131883   6.053   2.629   0.964
10328SOL    HW231884   5.895   2.603   0.931
10329SOL     OW31885   3.802   0.604   3.917
10329SOL    HW131886   3.761   0.582   3.828
10329SOL    HW231887   3.857   0.687   3.908
10330SOL     OW31888   4.734   0.286   2.463
10330SOL    HW131889   4.754   0.223   2.538
10330SOL    HW231890   4.659   0.347   2.490
10331SOL     OW31891   6.641   0.798   5.564
10331SOL    HW131892   6.715   0.731   5.550
10331SOL    HW231893   6.654   0.844   5.651
10332SOL     OW31894   6.623   6.958   0.499
10332SOL    HW131895   6.629   6.973   0.598
10332SOL    HW231896   6.526   6.956   0.472
10333SOL     OW31897   6.891   4.774   4.217
10333SOL    HW131898   6.841   4.753   4.133
10333SOL    HW231899   6.878   4.700   4.283
10334SOL     OW31900   4.196   6.720   3.603
10334SOL    HW131901   4.268   6.755   3.543
10334SOL    HW231902   4.110   6.712   3.552
10335SOL     OW31903   2.821   4.525   0.047
10335SOL    HW131904   2.892   4.531   7.007
10335SOL    HW231905   2.820   4.433   0.086
10336SOL     OW31906   6.801   6.408   2.339
10336SOL    HW131907   6.878   6.388   2.279
10336SOL    HW231908   6.822   6.487   2.396
10337SOL     OW31909   0.030   6.564   5.963
10337SOL    HW131910   7.001   6.644   5.950
10337SOL    HW231911   7.007   6.489   6.002
10338SOL     OW31912   2.179   6.272   2.592
10338SOL    HW131913   2.203   6.200   2.527
10338SOL    HW231914   2.260   6.328   2.612
10339SOL     OW31915   3.500   4.454   0.089
10339SOL    HW131916   3.529   4.529   0.147
10339SOL    HW231917   3.420   4.482   0.036
10340SOL     OW31918   1.740   4.607   0.942
10340SOL    HW131919   1.802   4.660   0.885
10340SOL    HW231920   1.649   4.649   0.939
10341SOL     OW31921   1.993   3.487   1.889
10341SOL    HW131922   2.004   3.532   1.801
10341SOL    HW231923   2.079   3.494   1.941
10342SOL     OW31924   1.110   0.073   5.343
10342SOL    HW131925   1.124   0.086   5.441
10342SOL    HW231926   1.120   7.006   5.321
10343SOL     OW31927   3.481   5.892   6.770
10343SOL    HW131928   3.508   5.931   6.682
10343SOL    HW231929   3.382   5.884   6.775
10344SOL     OW31930   4.510   4.233   1.562
10344SOL    HW131931   4.583   4.166   1.550
10344SOL    HW231932   4.477   4.230   1.656
10345SOL     OW31933   1.960   1.076   6.498
10345SOL    HW131934   1.873   1.047   6.537
10345SOL    HW231935   1.944   1.150   6.433
10346SOL     OW31936   6.729   6.541   1.727
10346SOL    HW131937   6.800   6.562   1.659
10346SOL    HW231938   6.668   6.471   1.690
10347SOL     OW31939   4.805   2.340   2.684
10347SOL    HW131940   4.725   2.314   2.738
10347SOL    HW231941   4.875   2.379   2.745
10348SOL     OW31942   6.628   1.250   0.221
10348SOL    HW131943   6.640   1.310   0.142
10348SOL    HW231944   6.686   1.282   0.296
10349SOL     OW31945   6.776   0.898   0.948
10349SOL    HW131946   6.872   0.906   0.922
10349SOL    HW231947   6.729   0.834   0.887
10350SOL     OW31948   1.840   6.938   5.228
10350SOL    HW131949   1.755   6.952   5.279
10350SOL    HW231950   1.918   6.956   5.288
10351SOL     OW31951   4.724   5.312   6.393
10351SOL    HW131952   4.746   5.235   6.453
10351SOL    HW231953   4.698   5.278   6.303
10352SOL     OW31954   4.582   2.223   5.965
10352SOL    HW131955   4.570   2.126   5.986
10352SOL    HW231956   4.673   2.238   5.928
10353SOL     OW31957   0.202   2.563   5.644
10353SOL    HW131958   0.173   2.640   5.701
10353SOL    HW231959   0.280   2.518   5.686
10354SOL     OW31960   5.851   2.535   1.951
10354SOL    HW131961   5.824   2.559   2.044
10354SOL    HW231962   5.937   2.484   1.953
10355SOL     OW31963   1.842   0.371   1.833
10355SOL    HW131964   1.822   0.281   1.871
10355SOL    HW231965   1.762   0.406   1.784
10356SOL     OW31966   0.463   4.579   5.764
10356SOL    HW131967   0.523   4.548   5.691
10356SOL    HW231968   0.444   4.503   5.826
10357SOL     OW31969   2.904   3.085   5.827
10357SOL    HW131970   2.834   3.015   5.809
10357SOL    HW231971   2.886   3.127   5.915
10358SOL     OW31972   6.358   2.927   2.733
10358SOL    HW131973   6.443   2.953   2.686
10358SOL    HW231974   6.362   2.831   2.758
10359SOL     OW31975   6.831   1.614   1.621
10359SOL    HW131976   6.896   1.575   1.556
10359SOL    HW231977   6.778   1.686   1.576
10360SOL     OW31978   4.694   5.650   2.649
10360SOL    HW131979   4.787   5.685   2.638
10360SOL    HW231980   4.693   5.552   2.630
10361SOL     OW31981   3.081   0.177   3.019
10361SOL    HW131982   3.069   0.273   3.044
10361SOL    HW231983   3.104   0.170   2.922
10362SOL     OW31984   1.108   5.222   4.646
10362SOL    HW131985   1.131   5.130   4.679
10362SOL    HW231986   1.015   5.221   4.608
10363SOL     OW31987   4.599   1.918   1.040
10363SOL    HW131988   4.503   1.912   1.067
10363SOL    HW231989   4.654   1.856   1.096
10364SOL     OW31990   4.037   3.799   2.305
10364SOL    HW131991   4.073   3.748   2.383
10364SOL    HW231992   3.942   3.825   2.322
10365SOL     OW31993   5.143   4.548   5.769
10365SOL    HW131994   5.128   4.489   5.690
10365SOL    HW231995   5.056   4.571   5.811
10366SOL     OW31996   4.437   0.327   4.364
10366SOL    HW131997   4.534   0.315   4.346
10366SOL    HW231998   4.422   0.413   4.413
10367SOL     OW31999   7.013   1.329   1.689
10367SOL    HW132000   6.939   1.323   1.622
10367SOL    HW232001   6.987   1.280   1.772
10368SOL     OW32002   1.951   0.910   1.971
10368SOL    HW132003   2.041   0.868   1.982
10368SOL    HW232004   1.882   0.839   1.958
10369SOL     OW32005   3.988   1.341   5.204
10369SOL    HW132006   3.948   1.322   5.115
10369SOL    HW232007   3.946   1.423   5.243
10370SOL     OW32008   5.536   1.981   5.497
10370SOL    HW132009   5.506   2.067   5.456
10370SOL    HW232010   5.467   1.949   5.562
10371SOL     OW32011   1.872   6.022   4.245
10371SOL    HW132012   1.843   5.948   4.184
10371SOL    HW232013   1.863   5.992   4.340
10372SOL     OW32014   1.475   1.398   6.986
10372SOL    HW132015   1.446   1.492   6.999
10372SOL    HW232016   1.542   1.394   6.912
10373SOL     OW32017   1.912   6.593   4.396
10373SOL    HW132018   1.929   6.495   4.397
10373SOL    HW232019   1.816   6.611   4.375
10374SOL     OW32020   4.224   1.108   2.652
10374SOL    HW132021   4.232   1.207   2.648
10374SOL    HW232022   4.168   1.076   2.575
10375SOL     OW32023   2.972   1.402   6.267
10375SOL    HW132024   2.875   1.424   6.250
10375SOL    HW232025   3.028   1.483   6.247
10376SOL     OW32026   1.310   6.485   4.195
10376SOL    HW132027   1.269   6.575   4.203
10376SOL    HW232028   1.408   6.494   4.174
10377SOL     OW32029   6.914   1.228   3.892
10377SOL    HW132030   6.965   1.312   3.911
10377SOL    HW232031   6.856   1.207   3.971
10378SOL     OW32032   6.139   0.190   5.987
10378SOL    HW132033   6.148   0.250   6.066
10378SOL    HW232034   6.066   0.223   5.928
10379SOL     OW32035   2.952   6.685   4.792
10379SOL    HW132036   2.989   6.607   4.842
10379SOL    HW232037   2.865   6.659   4.750
10380SOL     OW32038   0.653   2.103   4.059
10380SOL    HW132039   0.700   2.036   4.003
10380SOL    HW232040   0.561   2.119   4.023
10381SOL     OW32041   4.523   4.641   0.270
10381SOL    HW132042   4.592   4.705   0.238
10381SOL    HW232043   4.559   4.548   0.268
10382SOL     OW32044   2.061   4.251   0.330
10382SOL    HW132045   2.019   4.162   0.350
10382SOL    HW232046   2.074   4.260   0.232
10383SOL     OW32047   6.885   3.913   0.678
10383SOL    HW132048   6.844   3.984   0.735
10383SOL    HW232049   6.985   3.921   0.682
10384SOL     OW32050   0.752   6.789   0.900
10384SOL    HW132051   0.786   6.856   0.965
10384SOL    HW232052   0.698   6.720   0.948
10385SOL     OW32053   3.251   6.374   5.671
10385SOL    HW132054   3.180   6.379   5.741
10385SOL    HW232055   3.258   6.461   5.623
10386SOL     OW32056   6.139   2.499   5.648
10386SOL    HW132057   6.191   2.583   5.633
10386SOL    HW232058   6.126   2.452   5.561
10387SOL     OW32059   4.415   2.286   3.072
10387SOL    HW132060   4.467   2.369   3.094
10387SOL    HW232061   4.318   2.310   3.061
10388SOL     OW32062   2.074   5.692   2.533
10388SOL    HW132063   2.037   5.695   2.626
10388SOL    HW232064   2.020   5.750   2.473
10389SOL     OW32065   0.036   6.794   1.827
10389SOL    HW132066   6.996   6.865   1.839
10389SOL    HW232067   0.107   6.828   1.765
10390SOL     OW32068   2.487   2.584   1.596
10390SOL    HW132069   2.509   2.681   1.607
10390SOL    HW232070   2.560   2.529   1.636
10391SOL     OW32071   1.361   5.837   4.471
10391SOL    HW132072   1.407   5.903   4.411
10391SOL    HW232073   1.277   5.877   4.507
10392SOL     OW32074   6.409   4.336   7.021
10392SOL    HW132075   6.468   4.415   0.004
10392SOL    HW232076   6.381   4.332   6.925
10393SOL     OW32077   2.178   2.516   2.611
10393SOL    HW132078   2.158   2.532   2.708
10393SOL    HW232079   2.157   2.598   2.558
10394SOL     OW32080   2.169   6.281   4.889
10394SOL    HW132081   2.109   6.355   4.918
10394SOL    HW232082   2.234   6.316   4.821
10395SOL     OW32083   6.828   0.825   3.403
10395SOL    HW132084   6.922   0.813   3.370
10395SOL    HW232085   6.765   0.812   3.326
10396SOL     OW32086   2.286   0.466   4.219
10396SOL    HW132087   2.262   0.472   4.122
10396SOL    HW232088   2.303   0.558   4.255
10397SOL     OW32089   2.753   2.200   3.644
10397SOL    HW132090   2.668   2.252   3.653
10397SOL    HW232091   2.806   2.209   3.728
10398SOL     OW32092   5.807   2.659   0.511
10398SOL    HW132093   5.771   2.587   0.570
10398SOL    HW232094   5.877   2.711   0.560
10399SOL     OW32095   4.187   1.871   4.254
10399SOL    HW132096   4.204   1.784   4.209
10399SOL    HW232097   4.090   1.895   4.247
10400SOL     OW32098   3.860   5.585   1.172
10400SOL    HW132099   3.942   5.620   1.126
10400SOL    HW232100   3.786   5.651   1.162
10401SOL     OW32101   0.149   0.352   3.029
10401SOL    HW132102   0.062   0.402   3.025
10401SOL    HW232103   0.186   0.342   2.937
10402SOL     OW32104   0.355   2.949   5.470
10402SOL    HW132105   0.359   2.931   5.371
10402SOL    HW232106   0.384   2.867   5.520
10403SOL     OW32107   5.307   1.474   3.029
10403SOL    HW132108   5.384   1.419   3.062
10403SOL    HW232109   5.261   1.516   3.107
10404SOL     OW32110   0.249   6.578   3.578
10404SOL    HW132111   0.213   6.488   3.554
10404SOL    HW232112   0.309   6.610   3.505
10405SOL     OW32113   1.290   5.594   4.755
10405SOL    HW132114   1.325   5.688   4.759
10405SOL    HW232115   1.367   5.530   4.753
10406SOL     OW32116   2.096   3.833   5.291
10406SOL    HW132117   2.179   3.782   5.316
10406SOL    HW232118   2.016   3.786   5.329
10407SOL     OW32119   1.587   0.562   6.740
10407SOL    HW132120   1.635   0.649   6.750
10407SOL    HW232121   1.514   0.572   6.672
10408SOL     OW32122   3.547   6.128   2.077
10408SOL    HW132123   3.559   6.107   1.980
10408SOL    HW232124   3.619   6.083   2.129
10409SOL     OW32125   0.248   3.898   1.004
10409SOL    HW132126   0.172   3.931   1.060
10409SOL    HW232127   0.312   3.847   1.061
10410SOL     OW32128   5.125   1.836   1.326
10410SOL    HW132129   5.085   1.782   1.400
10410SOL    HW232130   5.207   1.790   1.291
10411SOL     OW32131   3.728   5.402   4.558
10411SOL    HW132132   3.647   5.459   4.574
10411SOL    HW232133   3.770   5.428   4.471
10412SOL     OW32134   0.395   0.945   0.725
10412SOL    HW132135   0.486   0.983   0.712
10412SOL    HW232136   0.401   0.861   0.778
10413SOL     OW32137   0.257   2.051   0.952
10413SOL    HW132138   0.192   2.119   0.920
10413SOL    HW232139   0.277   2.067   1.049
10414SOL     OW32140   4.546   6.695   5.759
10414SOL    HW132141   4.553   6.765   5.688
10414SOL    HW232142   4.637   6.662   5.783
10415SOL     OW32143   2.488   4.601   3.905
10415SOL    HW132144   2.503   4.670   3.835
10415SOL    HW232145   2.452   4.517   3.863
10416SOL     OW32146   6.687   1.022   5.404
10416SOL    HW132147   6.663   0.977   5.490
10416SOL    HW232148   6.605   1.060   5.362
10417SOL     OW32149   4.804   4.062   4.080
10417SOL    HW132150   4.772   4.145   4.126
10417SOL    HW232151   4.833   3.996   4.149
10418SOL     OW32152   6.182   4.115   5.338
10418SOL    HW132153   6.271   4.075   5.362
10418SOL    HW232154   6.189   4.214   5.337
10419SOL     OW32155   2.931   0.554   5.119
10419SOL    HW132156   2.957   0.566   5.215
10419SOL    HW232157   2.970   0.469   5.084
10420SOL     OW32158   0.092   3.552   3.892
10420SOL    HW132159   0.184   3.519   3.912
10420SOL    HW232160   0.025   3.494   3.938
10421SOL     OW32161   1.318   3.358   4.399
10421SOL    HW132162   1.238   3.298   4.403
10421SOL    HW232163   1.288   3.453   4.388
10422SOL     OW32164   6.672   3.551   5.798
10422SOL    HW132165   6.742   3.610   5.756
10422SOL    HW232166   6.692   3.456   5.777
10423SOL     OW32167   4.144   4.965   4.783
10423SOL    HW132168   4.089   4.954   4.866
10423SOL    HW232169   4.090   5.014   4.714
10424SOL     OW32170   3.963   2.285   0.105
10424SOL    HW132171   3.866   2.311   0.106
10424SOL    HW232172   4.006   2.316   0.189
10425SOL     OW32173   0.514   6.206   1.831
10425SOL    HW132174   0.474   6.296   1.846
10425SOL    HW232175   0.467   6.138   1.888
10426SOL     OW32176   5.544   3.288   5.593
10426SOL    HW132177   5.483   3.248   5.661
10426SOL    HW232178   5.536   3.388   5.597
10427SOL     OW32179   5.164   6.484   6.503
10427SOL    HW132180   5.232   6.508   6.573
10427SOL    HW232181   5.128   6.392   6.521
10428SOL     OW32182   2.105   1.723   4.262
10428SOL    HW132183   2.156   1.643   4.228
10428SOL    HW232184   2.055   1.697   4.344
10429SOL     OW32185   1.201   3.832   2.933
10429SOL    HW132186   1.152   3.747   2.952
10429SOL    HW232187   1.142   3.910   2.954
10430SOL     OW32188   3.983   6.232   4.616
10430SOL    HW132189   3.889   6.267   4.615
10430SOL    HW232190   3.981   6.133   4.605
10431SOL     OW32191   2.858   0.939   4.463
10431SOL    HW132192   2.772   0.890   4.450
10431SOL    HW232193   2.935   0.877   4.451
10432SOL     OW32194   0.219   1.795   5.238
10432SOL    HW132195   0.140   1.850   5.212
10432SOL    HW232196   0.279   1.849   5.297
10433SOL     OW32197   0.097   6.024   2.073
10433SOL    HW132198   0.176   6.070   2.032
10433SOL    HW232199   0.077   5.941   2.022
10434SOL     OW32200   4.746   6.183   4.996
10434SOL    HW132201   4.721   6.280   4.998
10434SOL    HW232202   4.833   6.170   5.044
10435SOL     OW32203   1.721   2.085   5.987
10435SOL    HW132204   1.797   2.046   5.935
10435SOL    HW232205   1.740   2.077   6.085
10436SOL     OW32206   6.867   3.938   3.829
10436SOL    HW132207   6.826   4.024   3.797
10436SOL    HW232208   6.807   3.862   3.806
10437SOL     OW32209   5.950   4.899   5.221
10437SOL    HW132210   5.964   4.832   5.147
10437SOL    HW232211   6.038   4.931   5.253
10438SOL     OW32212   0.008   5.954   6.000
10438SOL    HW132213   7.008   5.864   6.032
10438SOL    HW232214   0.083   5.986   6.059
10439SOL     OW32215   5.737   1.260   5.344
10439SOL    HW132216   5.685   1.269   5.259
10439SOL    HW232217   5.726   1.343   5.399
10440SOL     OW32218   6.704   6.635   6.973
10440SOL    HW132219   6.617   6.648   7.020
10440SOL    HW232220   6.779   6.667   0.001
10441SOL     OW32221   3.292   1.413   1.121
10441SOL    HW132222   3.315   1.388   1.215
10441SOL    HW232223   3.342   1.354   1.057
10442SOL     OW32224   4.114   0.407   4.758
10442SOL    HW132225   4.130   0.340   4.830
10442SOL    HW232226   4.199   0.457   4.740
10443SOL     OW32227   6.639   2.592   2.706
10443SOL    HW132228   6.556   2.630   2.747
10443SOL    HW232229   6.678   2.524   2.767
10444SOL     OW32230   3.346   5.109   2.969
10444SOL    HW132231   3.417   5.053   3.013
10444SOL    HW232232   3.283   5.049   2.919
10445SOL     OW32233   0.484   3.705   2.513
10445SOL    HW132234   0.512   3.762   2.589
10445SOL    HW232235   0.522   3.742   2.428
10446SOL     OW32236   1.842   3.884   5.882
10446SOL    HW132237   1.907   3.911   5.953
10446SOL    HW232238   1.750   3.915   5.908
10447SOL     OW32239   6.609   0.281   2.196
10447SOL    HW132240   6.638   0.206   2.255
10447SOL    HW232241   6.639   0.368   2.234
10448SOL     OW32242   3.305   0.471   2.928
10448SOL    HW132243   3.315   0.488   2.831
10448SOL    HW232244   3.265   0.551   2.973
10449SOL     OW32245   2.926   5.609   6.724
10449SOL    HW132246   2.847   5.666   6.701
10449SOL    HW232247   3.010   5.657   6.698
10450SOL     OW32248   6.727   0.690   6.744
10450SOL    HW132249   6.814   0.681   6.696
10450SOL    HW232250   6.706   0.788   6.756
10451SOL     OW32251   3.238   0.225   2.820
10451SOL    HW132252   3.270   0.310   2.863
10451SOL    HW232253   3.317   0.176   2.782
10452SOL     OW32254   6.502   3.258   2.661
10452SOL    HW132255   6.523   3.174   2.611
10452SOL    HW232256   6.564   3.265   2.740
10453SOL     OW32257   4.417   6.120   2.631
10453SOL    HW132258   4.507   6.154   2.603
10453SOL    HW232259   4.418   6.020   2.631
10454SOL     OW32260   5.772   0.598   0.891
10454SOL    HW132261   5.732   0.544   0.966
10454SOL    HW232262   5.812   0.536   0.824
10455SOL     OW32263   0.194   5.795   4.083
10455SOL    HW132264   0.282   5.758   4.113
10455SOL    HW232265   0.149   5.730   4.022
10456SOL     OW32266   0.520   5.632   0.552
10456SOL    HW132267   0.532   5.621   0.453
10456SOL    HW232268   0.436   5.682   0.570
10457SOL     OW32269   4.024   3.049   0.318
10457SOL    HW132270   4.094   3.036   0.248
10457SOL    HW232271   4.037   2.982   0.391
10458SOL     OW32272   6.335   6.517   6.662
10458SOL    HW132273   6.268   6.443   6.657
10458SOL    HW232274   6.426   6.481   6.642
10459SOL     OW32275   4.996   5.169   1.077
10459SOL    HW132276   4.939   5.240   1.118
10459SOL    HW232277   4.942   5.119   1.008
10460SOL     OW32278   0.502   3.779   2.019
10460SOL    HW132279   0.571   3.851   2.026
10460SOL    HW232280   0.411   3.819   2.021
10461SOL     OW32281   6.564   4.992   5.425
10461SOL    HW132282   6.637   4.996   5.494
10461SOL    HW232283   6.587   5.052   5.348
10462SOL     OW32284   5.799   2.271   2.814
10462SOL    HW132285   5.750   2.326   2.882
10462SOL    HW232286   5.836   2.332   2.743
10463SOL     OW32287   4.580   2.235   5.560
10463SOL    HW132288   4.541   2.174   5.491
10463SOL    HW232289   4.508   2.263   5.623
10464SOL     OW32290   5.920   6.292   2.004
10464SOL    HW132291   5.953   6.199   1.992
10464SOL    HW232292   5.823   6.289   2.031
10465SOL     OW32293   4.676   5.620   1.929
10465SOL    HW132294   4.646   5.715   1.940
10465SOL    HW232295   4.614   5.572   1.868
10466SOL     OW32296   4.887   4.526   5.882
10466SOL    HW132297   4.805   4.538   5.826
10466SOL    HW232298   4.861   4.494   5.973
10467SOL     OW32299   1.687   2.364   0.426
10467SOL    HW132300   1.749   2.433   0.464
10467SOL    HW232301   1.725   2.329   0.340
10468SOL     OW32302   4.315   4.968   3.977
10468SOL    HW132303   4.378   4.899   4.012
10468SOL    HW232304   4.244   4.924   3.922
10469SOL     OW32305   4.446   4.110   5.687
10469SOL    HW132306   4.528   4.117   5.630
10469SOL    HW232307   4.372   4.163   5.646
10470SOL     OW32308   2.369   1.341   3.409
10470SOL    HW132309   2.274   1.355   3.437
10470SOL    HW232310   2.372   1.322   3.311
10471SOL     OW32311   2.551   0.533   0.480
10471SOL    HW132312   2.454   0.509   0.492
10471SOL    HW232313   2.565   0.627   0.509
10472SOL     OW32314   2.631   5.697   0.490
10472SOL    HW132315   2.613   5.701   0.588
10472SOL    HW232316   2.719   5.650   0.474
10473SOL     OW32317   5.859   6.709   5.834
10473SOL    HW132318   5.903   6.634   5.882
10473SOL    HW232319   5.925   6.752   5.772
10474SOL     OW32320   4.412   1.136   3.966
10474SOL    HW132321   4.365   1.177   3.888
10474SOL    HW232322   4.496   1.187   3.986
10475SOL     OW32323   3.365   6.930   2.089
10475SOL    HW132324   3.324   7.014   2.126
10475SOL    HW232325   3.301   6.887   2.026
10476SOL     OW32326   5.122   6.502   5.974
10476SOL    HW132327   5.182   6.577   5.947
10476SOL    HW232328   5.091   6.517   6.068
10477SOL     OW32329   6.506   0.837   4.768
10477SOL    HW132330   6.476   0.921   4.721
10477SOL    HW232331   6.531   0.859   4.862
10478SOL     OW32332   6.571   6.322   6.872
10478SOL    HW132333   6.670   6.325   6.882
10478SOL    HW232334   6.545   6.350   6.780
10479SOL     OW32335   6.618   1.017   2.372
10479SOL    HW132336   6.668   0.931   2.366
10479SOL    HW232337   6.567   1.020   2.459
10480SOL     OW32338   1.017   0.948   2.144
10480SOL    HW132339   1.010   0.890   2.225
10480SOL    HW232340   0.998   1.043   2.170
10481SOL     OW32341   1.702   6.624   2.731
10481SOL    HW132342   1.758   6.671   2.799
10481SOL    HW232343   1.674   6.689   2.660
10482SOL     OW32344   6.340   5.310   4.526
10482SOL    HW132345   6.371   5.317   4.431
10482SOL    HW232346   6.269   5.240   4.533
10483SOL     OW32347   5.034   5.600   0.314
10483SOL    HW132348   4.970   5.537   0.359
10483SOL    HW232349   5.128   5.571   0.333
10484SOL     OW32350   4.924   1.674   1.787
10484SOL    HW132351   5.009   1.686   1.840
10484SOL    HW232352   4.861   1.617   1.839
10485SOL     OW32353   2.777   4.376   0.393
10485SOL    HW132354   2.786   4.458   0.450
10485SOL    HW232355   2.704   4.390   0.326
10486SOL     OW32356   0.040   0.503   0.488
10486SOL    HW132357   0.070   0.487   0.394
10486SOL    HW232358   0.094   0.578   0.527
10487SOL     OW32359   4.840   6.913   1.736
10487SOL    HW132360   4.834   6.948   1.829
10487SOL    HW232361   4.759   6.942   1.684
10488SOL     OW32362   3.244   1.559   5.715
10488SOL    HW132363   3.275   1.581   5.807
10488SOL    HW232364   3.231   1.644   5.663
10489SOL     OW32365   0.089   6.570   5.510
10489SOL    HW132366   0.150   6.494   5.532
10489SOL    HW232367   0.123   6.616   5.427
10490SOL     OW32368   6.134   1.261   1.534
10490SOL    HW132369   6.165   1.197   1.463
10490SOL    HW232370   6.203   1.266   1.606
10491SOL     OW32371   1.510   3.644   6.824
10491SOL    HW132372   1.531   3.635   6.921
10491SOL    HW232373   1.443   3.574   6.798
10492SOL     OW32374   6.158   4.420   5.744
10492SOL    HW132375   6.132   4.431   5.648
10492SOL    HW232376   6.256   4.401   5.750
10493SOL     OW32377   3.594   0.587   1.666
10493SOL    HW132378   3.625   0.609   1.573
10493SOL    HW232379   3.614   0.664   1.726
10494SOL     OW32380   4.988   3.844   5.650
10494SOL    HW132381   5.043   3.906   5.706
10494SOL    HW232382   4.959   3.766   5.706
10495SOL     OW32383   2.505   0.112   0.406
10495SOL    HW132384   2.512   0.040   0.338
10495SOL    HW232385   2.422   0.099   0.461
10496SOL     OW32386   0.305   4.484   6.170
10496SOL    HW132387   0.277   4.467   6.264
10496SOL    HW232388   0.360   4.406   6.137
10497SOL     OW32389   2.296   0.008   2.288
10497SOL    HW132390   2.371   0.060   2.329
10497SOL    HW232391   2.295   0.023   2.190
10498SOL     OW32392   3.026   5.906   1.367
10498SOL    HW132393   3.069   5.822   1.398
10498SOL    HW232394   2.938   5.918   1.413
10499SOL     OW32395   3.436   0.124   2.669
10499SOL    HW132396   3.533   0.128   2.693
10499SOL    HW232397   3.425   0.150   2.573
10500SOL     OW32398   6.977   0.775   6.621
10500SOL    HW132399   0.015   0.749   6.690
10500SOL    HW232400   7.012   0.754   6.530
10501SOL     OW32401   2.228   5.791   3.043
10501SOL    HW132402   2.279   5.871   3.073
10501SOL    HW232403   2.156   5.819   2.980
10502SOL     OW32404   2.668   0.143   1.116
10502SOL    HW132405   2.635   0.233   1.087
10502SOL    HW232406   2.763   0.152   1.148
10503SOL     OW32407   3.516   3.050   0.485
10503SOL    HW132408   3.613   3.050   0.463
10503SOL    HW232409   3.467   2.990   0.421
10504SOL     OW32410   2.021   1.355   6.750
10504SOL    HW132411   2.081   1.280   6.720
10504SOL    HW232412   2.058   1.442   6.717
10505SOL     OW32413   4.908   6.058   0.457
10505SOL    HW132414   4.957   6.104   0.532
10505SOL    HW232415   4.861   6.127   0.401
10506SOL     OW32416   6.806   5.365   0.051
10506SOL    HW132417   6.827   5.448   7.030
10506SOL    HW232418   6.830   5.284   7.027
10507SOL     OW32419   2.092   0.042   0.112
10507SOL    HW132420   2.186   0.035   0.079
10507SOL    HW232421   2.063   6.985   0.152
10508SOL     OW32422   6.297   6.577   4.346
10508SOL    HW132423   6.363   6.549   4.416
10508SOL    HW232424   6.237   6.647   4.384
10509SOL     OW32425   0.474   6.375   4.838
10509SOL    HW132426   0.394   6.358   4.782
10509SOL    HW232427   0.543   6.304   4.821
10510SOL     OW32428   4.883   6.183   6.361
10510SOL    HW132429   4.871   6.258   6.295
10510SOL    HW232430   4.795   6.159   6.400
10511SOL     OW32431   4.530   1.426   1.679
10511SOL    HW132432   4.618   1.453   1.639
10511SOL    HW232433   4.479   1.371   1.613
10512SOL     OW32434   3.708   6.940   5.389
10512SOL    HW132435   3.798   6.981   5.376
10512SOL    HW232436   3.699   6.910   5.484
10513SOL     OW32437   6.647   2.855   4.388
10513SOL    HW132438   6.557   2.876   4.426
10513SOL    HW232439   6.711   2.929   4.410
10514SOL     OW32440   6.862   3.633   0.370
10514SOL    HW132441   6.858   3.598   0.276
10514SOL    HW232442   6.958   3.639   0.399
10515SOL     OW32443   0.196   3.250   2.706
10515SOL    HW132444   0.222   3.269   2.801
10515SOL    HW232445   0.271   3.274   2.645
10516SOL     OW32446   3.803   0.863   0.348
10516SOL    HW132447   3.836   0.886   0.257
10516SOL    HW232448   3.726   0.800   0.341
10517SOL     OW32449   0.307   2.483   2.601
10517SOL    HW132450   0.219   2.473   2.648
10517SOL    HW232451   0.375   2.519   2.665
10518SOL     OW32452   1.022   5.231   6.809
10518SOL    HW132453   1.120   5.230   6.789
10518SOL    HW232454   0.971   5.228   6.724
10519SOL     OW32455   2.229   2.860   6.801
10519SOL    HW132456   2.243   2.807   6.885
10519SOL    HW232457   2.226   2.957   6.822
10520SOL     OW32458   1.175   2.707   6.872
10520SOL    HW132459   1.097   2.674   6.818
10520SOL    HW232460   1.142   2.768   6.944
10521SOL     OW32461   5.758   5.959   1.865
10521SOL    HW132462   5.703   5.903   1.803
10521SOL    HW232463   5.724   6.052   1.867
10522SOL     OW32464   6.128   0.363   6.212
10522SOL    HW132465   6.056   0.424   6.246
10522SOL    HW232466   6.181   0.328   6.289
10523SOL     OW32467   0.768   5.064   4.260
10523SOL    HW132468   0.696   5.018   4.208
10523SOL    HW232469   0.856   5.050   4.215
10524SOL     OW32470   1.615   0.570   4.714
10524SOL    HW132471   1.715   0.575   4.714
10524SOL    HW232472   1.580   0.615   4.797
10525SOL     OW32473   3.281   0.060   5.963
10525SOL    HW132474   3.345   0.121   6.011
10525SOL    HW232475   3.192   0.105   5.955
10526SOL     OW32476   0.717   6.879   3.542
10526SOL    HW132477   0.736   6.844   3.450
10526SOL    HW232478   0.647   6.822   3.585
10527SOL     OW32479   6.151   2.198   4.863
10527SOL    HW132480   6.165   2.297   4.861
10527SOL    HW232481   6.138   2.168   4.957
10528SOL     OW32482   2.016   3.486   5.780
10528SOL    HW132483   1.972   3.571   5.750
10528SOL    HW232484   2.078   3.453   5.709
10529SOL     OW32485   2.455   5.634   4.159
10529SOL    HW132486   2.437   5.714   4.101
10529SOL    HW232487   2.375   5.574   4.159
10530SOL     OW32488   2.553   0.410   6.798
10530SOL    HW132489   2.493   0.339   6.760
10530SOL    HW232490   2.637   0.367   6.833
10531SOL     OW32491   1.182   2.984   3.950
10531SOL    HW132492   1.236   2.977   4.034
10531SOL    HW232493   1.213   3.062   3.897
10532SOL     OW32494   1.498   4.901   6.309
10532SOL    HW132495   1.400   4.884   6.316
10532SOL    HW232496   1.545   4.858   6.386
10533SOL     OW32497   2.697   1.420   4.855
10533SOL    HW132498   2.753   1.382   4.782
10533SOL    HW232499   2.606   1.377   4.853
10534SOL     OW32500   5.758   5.932   1.318
10534SOL    HW132501   5.706   5.984   1.385
10534SOL    HW232502   5.809   5.859   1.364
10535SOL     OW32503   0.709   1.771   1.156
10535SOL    HW132504   0.679   1.676   1.165
10535SOL    HW232505   0.668   1.826   1.229
10536SOL     OW32506   3.842   0.988   3.217
10536SOL    HW132507   3.932   0.947   3.230
10536SOL    HW232508   3.812   1.030   3.302
10537SOL     OW32509   3.839   5.497   4.317
10537SOL    HW132510   3.767   5.542   4.264
10537SOL    HW232511   3.860   5.408   4.276
10538SOL     OW32512   5.221   2.610   0.374
10538SOL    HW132513   5.223   2.562   0.287
10538SOL    HW232514   5.166   2.557   0.439
10539SOL     OW32515   0.384   3.676   0.021
10539SOL    HW132516   0.395   3.580   0.045
10539SOL    HW232517   0.332   3.722   0.094
10540SOL     OW32518   1.378   2.894   4.972
10540SOL    HW132519   1.441   2.856   4.905
10540SOL    HW232520   1.430   2.940   5.044
10541SOL     OW32521   4.028   3.973   1.878
10541SOL    HW132522   4.105   4.003   1.821
10541SOL    HW232523   4.055   3.892   1.930
10542SOL     OW32524   6.899   0.903   5.697
10542SOL    HW132525   6.828   0.875   5.762
10542SOL    HW232526   6.942   0.987   5.728
10543SOL     OW32527   0.210   1.080   5.557
10543SOL    HW132528   0.259   1.128   5.630
10543SOL    HW232529   0.122   1.124   5.541
10544SOL     OW32530   2.048   6.742   1.794
10544SOL    HW132531   2.088   6.777   1.710
10544SOL    HW232532   2.096   6.658   1.821
10545SOL     OW32533   6.053   1.273   3.169
10545SOL    HW132534   5.958   1.304   3.181
10545SOL    HW232535   6.080   1.285   3.073
10546SOL     OW32536   1.324   0.990   6.493
10546SOL    HW132537   1.388   0.918   6.468
10546SOL    HW232538   1.231   0.953   6.499
10547SOL     OW32539   5.385   2.409   1.868
10547SOL    HW132540   5.478   2.430   1.838
10547SOL    HW232541   5.374   2.434   1.964
10548SOL     OW32542   5.229   4.407   4.959
10548SOL    HW132543   5.246   4.342   5.033
10548SOL    HW232544   5.203   4.356   4.876
10549SOL     OW32545   6.848   6.924   1.905
10549SOL    HW132546   6.819   6.900   1.997
10549SOL    HW232547   6.782   6.888   1.839
10550SOL     OW32548   4.303   6.124   4.722
10550SOL    HW132549   4.267   6.209   4.683
10550SOL    HW232550   4.230   6.057   4.729
10551SOL     OW32551   2.006   2.715   6.758
10551SOL    HW132552   1.985   2.712   6.855
10551SOL    HW232553   2.096   2.756   6.745
10552SOL     OW32554   3.669   1.863   6.200
10552SOL    HW132555   3.667   1.956   6.161
10552SOL    HW232556   3.677   1.869   6.299
10553SOL     OW32557   0.541   5.260   1.401
10553SOL    HW132558   0.597   5.241   1.482
10553SOL    HW232559   0.574   5.206   1.324
10554SOL     OW32560   5.078   5.298   0.186
10554SOL    HW132561   5.093   5.200   0.174
10554SOL    HW232562   5.008   5.329   0.121
10555SOL     OW32563   1.805   3.380   0.352
10555SOL    HW132564   1.829   3.283   0.342
10555SOL    HW232565   1.884   3.436   0.327
10556SOL     OW32566   2.055   2.245   4.972
10556SOL    HW132567   1.981   2.182   4.951
10556SOL    HW232568   2.132   2.195   5.012
10557SOL     OW32569   2.346   2.261   3.174
10557SOL    HW132570   2.348   2.252   3.274
10557SOL    HW232571   2.266   2.315   3.147
10558SOL     OW32572   4.146   0.646   3.779
10558SOL    HW132573   4.214   0.717   3.797
10558SOL    HW232574   4.105   0.616   3.865
10559SOL     OW32575   4.686   0.321   1.357
10559SOL    HW132576   4.697   0.384   1.433
10559SOL    HW232577   4.622   0.360   1.290
10560SOL     OW32578   3.556   5.814   3.724
10560SOL    HW132579   3.570   5.715   3.735
10560SOL    HW232580   3.642   5.862   3.738
10561SOL     OW32581   3.549   4.814   1.126
10561SOL    HW132582   3.493   4.742   1.167
10561SOL    HW232583   3.645   4.798   1.148
10562SOL     OW32584   4.646   5.899   0.143
10562SOL    HW132585   4.553   5.878   0.172
10562SOL    HW232586   4.699   5.932   0.221
10563SOL     OW32587   0.267   1.478   3.881
10563SOL    HW132588   0.220   1.476   3.793
10563SOL    HW232589   0.271   1.385   3.919
10564SOL     OW32590   5.831   6.695   2.424
10564SOL    HW132591   5.767   6.656   2.490
10564SOL    HW232592   5.847   6.630   2.350
10565SOL     OW32593   6.891   0.524   6.270
10565SOL    HW132594   6.985   0.494   6.253
10565SOL    HW232595   6.832   0.493   6.196
10566SOL     OW32596   4.210   2.677   0.179
10566SOL    HW132597   4.288   2.727   0.215
10566SOL    HW232598   4.242   2.595   0.131
10567SOL     OW32599   2.766   1.905   4.270
10567SOL    HW132600   2.806   1.934   4.183
10567SOL    HW232601   2.781   1.975   4.339
10568SOL     OW32602   6.186   1.910   0.989
10568SOL    HW132603   6.254   1.984   0.992
10568SOL    HW232604   6.134   1.915   0.903
10569SOL     OW32605   5.849   2.322   1.635
10569SOL    HW132606   5.844   2.404   1.578
10569SOL    HW232607   5.945   2.298   1.651
10570SOL     OW32608   1.603   4.969   3.614
10570SOL    HW132609   1.505   4.958   3.628
10570SOL    HW232610   1.650   4.959   3.702
10571SOL     OW32611   0.057   5.011   4.653
10571SOL    HW132612   0.022   5.083   4.714
10571SOL    HW232613   7.025   4.998   4.576
10572SOL     OW32614   0.181   4.322   3.722
10572SOL    HW132615   0.196   4.265   3.642
10572SOL    HW232616   0.221   4.278   3.803
10573SOL     OW32617   4.488   0.635   5.063
10573SOL    HW132618   4.549   0.572   5.015
10573SOL    HW232619   4.541   0.692   5.126
10574SOL     OW32620   1.143   1.702   4.130
10574SOL    HW132621   1.106   1.775   4.186
10574SOL    HW232622   1.193   1.741   4.053
10575SOL     OW32623   0.177   1.384   3.107
10575SOL    HW132624   0.117   1.304   3.119
10575SOL    HW232625   0.221   1.379   3.018
10576SOL     OW32626   0.083   5.553   5.492
10576SOL    HW132627   0.176   5.519   5.502
10576SOL    HW232628   0.076   5.646   5.527
10577SOL     OW32629   1.944   2.768   7.005
10577SOL    HW132630   1.846   2.757   6.995
10577SOL    HW232631   1.970   2.754   0.070
10578SOL     OW32632   5.871   0.730   3.140
10578SOL    HW132633   5.902   0.823   3.155
10578SOL    HW232634   5.943   0.677   3.095
10579SOL     OW32635   4.617   2.187   1.044
10579SOL    HW132636   4.610   2.091   1.018
10579SOL    HW232637   4.605   2.197   1.142
10580SOL     OW32638   6.659   0.269   0.044
10580SOL    HW132639   6.607   0.223   0.115
10580SOL    HW232640   6.737   0.213   0.017
10581SOL     OW32641   0.116   0.309   3.301
10581SOL    HW132642   0.139   0.313   3.204
10581SOL    HW232643   0.096   0.401   3.334
10582SOL     OW32644   4.821   5.181   6.810
10582SOL    HW132645   4.814   5.260   6.871
10582SOL    HW232646   4.901   5.127   6.837
10583SOL     OW32647   3.607   1.526   5.357
10583SOL    HW132648   3.593   1.620   5.389
10583SOL    HW232649   3.695   1.520   5.310
10584SOL     OW32650   6.464   6.017   1.284
10584SOL    HW132651   6.379   6.069   1.289
10584SOL    HW232652   6.461   5.942   1.351
10585SOL     OW32653   2.101   2.710   5.337
10585SOL    HW132654   2.099   2.779   5.265
10585SOL    HW232655   2.148   2.746   5.417
10586SOL     OW32656   0.852   5.140   4.543
10586SOL    HW132657   0.780   5.192   4.588
10586SOL    HW232658   0.834   5.138   4.444
10587SOL     OW32659   5.984   4.167   0.187
10587SOL    HW132660   6.079   4.153   0.214
10587SOL    HW232661   5.928   4.093   0.222
10588SOL     OW32662   0.138   4.125   2.886
10588SOL    HW132663   0.117   4.148   2.981
10588SOL    HW232664   0.068   4.164   2.826
10589SOL     OW32665   6.377   1.342   4.485
10589SOL    HW132666   6.294   1.290   4.505
10589SOL    HW232667   6.456   1.281   4.490
10590SOL     OW32668   1.382   0.280   1.586
10590SOL    HW132669   1.339   0.199   1.626
10590SOL    HW232670   1.443   0.251   1.512
10591SOL     OW32671   1.058   1.549   5.854
10591SOL    HW132672   1.077   1.452   5.844
10591SOL    HW232673   1.050   1.591   5.764
10592SOL     OW32674   6.573   3.192   0.951
10592SOL    HW132675   6.512   3.223   0.878
10592SOL    HW232676   6.523   3.130   1.012
10593SOL     OW32677   2.054   5.109   0.510
10593SOL    HW132678   2.033   5.199   0.549
10593SOL    HW232679   2.096   5.051   0.581
10594SOL     OW32680   5.091   0.496   2.254
10594SOL    HW132681   5.175   0.523   2.301
10594SOL    HW232682   5.015   0.554   2.284
10595SOL     OW32683   3.673   6.788   5.098
10595SOL    HW132684   3.648   6.692   5.103
10595SOL    HW232685   3.740   6.809   5.170
10596SOL     OW32686   4.624   0.093   0.145
10596SOL    HW132687   4.667   0.010   0.110
10596SOL    HW232688   4.692   0.167   0.150
10597SOL     OW32689   3.403   1.279   4.980
10597SOL    HW132690   3.432   1.184   4.984
10597SOL    HW232691   3.396   1.316   5.073
10598SOL     OW32692   2.777   2.463   6.741
10598SOL    HW132693   2.816   2.467   6.649
10598SOL    HW232694   2.725   2.547   6.759
10599SOL     OW32695   4.647   2.734   6.270
10599SOL    HW132696   4.566   2.697   6.316
10599SOL    HW232697   4.712   2.660   6.253
10600SOL     OW32698   1.819   2.583   0.528
10600SOL    HW132699   1.769   2.616   0.608
10600SOL    HW232700   1.916   2.573   0.551
10601SOL     OW32701   1.587   3.973   5.889
10601SOL    HW132702   1.566   4.068   5.865
10601SOL    HW232703   1.557   3.955   5.983
10602SOL     OW32704   4.823   2.220   3.309
10602SOL    HW132705   4.790   2.230   3.215
10602SOL    HW232706   4.920   2.243   3.313
10603SOL     OW32707   2.076   5.356   3.893
10603SOL    HW132708   2.114   5.380   3.982
10603SOL    HW232709   1.976   5.360   3.897
10604SOL     OW32710   5.865   3.962   5.637
10604SOL    HW132711   5.904   4.044   5.680
10604SOL    HW232712   5.787   3.930   5.691
10605SOL     OW32713   1.491   4.727   0.966
10605SOL    HW132714   1.514   4.803   1.027
10605SOL    HW232715   1.470   4.763   0.875
10606SOL     OW32716   6.755   6.941   2.160
10606SOL    HW132717   6.763   7.018   2.223
10606SOL    HW232718   6.750   6.855   2.211
10607SOL     OW32719   3.991   4.666   6.106
10607SOL    HW132720   3.962   4.704   6.018
10607SOL    HW232721   3.911   4.646   6.162
10608SOL     OW32722   4.950   1.789   5.983
10608SOL    HW132723   4.935   1.757   6.077
10608SOL    HW232724   4.872   1.763   5.926
10609SOL     OW32725   3.208   6.710   1.991
10609SOL    HW132726   3.232   6.617   2.019
10609SOL    HW232727   3.159   6.755   2.065
10610SOL     OW32728   1.366   3.233   6.191
10610SOL    HW132729   1.307   3.200   6.117
10610SOL    HW232730   1.446   3.174   6.199
10611SOL     OW32731   4.226   3.895   5.771
10611SOL    HW132732   4.319   3.913   5.738
10611SOL    HW232733   4.165   3.881   5.693
10612SOL     OW32734   2.911   0.307   5.767
10612SOL    HW132735   2.967   0.280   5.688
10612SOL    HW232736   2.947   0.262   5.849
10613SOL     OW32737   6.679   0.186   5.515
10613SOL    HW132738   6.759   0.220   5.567
10613SOL    HW232739   6.671   0.088   5.529
10614SOL     OW32740   6.896   2.617   4.578
10614SOL    HW132741   6.818   2.598   4.517
10614SOL    HW232742   6.866   2.676   4.653
10615SOL     OW32743   3.244   6.042   5.950
10615SOL    HW132744   3.278   6.136   5.955
10615SOL    HW232745   3.286   5.996   5.872
10616SOL     OW32746   2.740   6.473   1.116
10616SOL    HW132747   2.724   6.567   1.088
10616SOL    HW232748   2.825   6.469   1.169
10617SOL     OW32749   1.996   2.860   0.592
10617SOL    HW132750   1.916   2.883   0.537
10617SOL    HW232751   1.981   2.772   0.637
10618SOL     OW32752   6.595   3.715   6.288
10618SOL    HW132753   6.630   3.624   6.310
10618SOL    HW232754   6.495   3.714   6.293
10619SOL     OW32755   6.481   3.798   2.396
10619SOL    HW132756   6.435   3.741   2.327
10619SOL    HW232757   6.574   3.819   2.365
10620SOL     OW32758   1.683   5.376   5.690
10620SOL    HW132759   1.736   5.342   5.613
10620SOL    HW232760   1.588   5.392   5.661
10621SOL     OW32761   1.002   6.151   1.680
10621SOL    HW132762   0.903   6.163   1.675
10621SOL    HW232763   1.046   6.199   1.604
10622SOL     OW32764   4.655   0.773   1.240
10622SOL    HW132765   4.737   0.728   1.276
10622SOL    HW232766   4.629   0.732   1.153
10623SOL     OW32767   0.288   4.801   4.390
10623SOL    HW132768   0.219   4.768   4.326
10623SOL    HW232769   0.250   4.802   4.482
10624SOL     OW32770   0.556   1.873   4.624
10624SOL    HW132771   0.622   1.886   4.550
10624SOL    HW232772   0.604   1.839   4.705
10625SOL     OW32773   0.642   4.470   6.793
10625SOL    HW132774   0.682   4.380   6.775
10625SOL    HW232775   0.649   4.526   6.710
10626SOL     OW32776   2.161   3.080   1.234
10626SOL    HW132777   2.182   2.994   1.187
10626SOL    HW232778   2.069   3.075   1.274
10627SOL     OW32779   5.523   6.126   1.142
10627SOL    HW132780   5.593   6.145   1.073
10627SOL    HW232781   5.508   6.028   1.149
10628SOL     OW32782   5.328   5.841   6.595
10628SOL    HW132783   5.300   5.858   6.501
10628SOL    HW232784   5.326   5.743   6.614
10629SOL     OW32785   2.708   4.729   4.808
10629SOL    HW132786   2.657   4.650   4.772
10629SOL    HW232787   2.781   4.697   4.868
10630SOL     OW32788   6.597   1.621   4.095
10630SOL    HW132789   6.671   1.565   4.134
10630SOL    HW232790   6.558   1.679   4.167
10631SOL     OW32791   2.035   5.062   5.135
10631SOL    HW132792   2.086   5.030   5.055
10631SOL    HW232793   1.983   5.144   5.111
10632SOL     OW32794   5.479   1.703   3.671
10632SOL    HW132795   5.535   1.774   3.628
10632SOL    HW232796   5.499   1.699   3.769
10633SOL     OW32797   2.347   3.628   1.367
10633SOL    HW132798   2.267   3.623   1.427
10633SOL    HW232799   2.430   3.636   1.422
10634SOL     OW32800   3.248   5.376   1.385
10634SOL    HW132801   3.298   5.417   1.462
10634SOL    HW232802   3.183   5.309   1.420
10635SOL     OW32803   3.399   1.697   0.891
10635SOL    HW132804   3.464   1.629   0.924
10635SOL    HW232805   3.340   1.726   0.967
10636SOL     OW32806   0.976   1.518   1.456
10636SOL    HW132807   1.051   1.539   1.518
10636SOL    HW232808   0.961   1.595   1.394
10637SOL     OW32809   3.081   4.883   5.441
10637SOL    HW132810   3.018   4.822   5.392
10637SOL    HW232811   3.165   4.893   5.388
10638SOL     OW32812   6.939   5.472   3.002
10638SOL    HW132813   6.893   5.503   3.085
10638SOL    HW232814   7.011   5.407   3.025
10639SOL     OW32815   0.514   3.192   2.779
10639SOL    HW132816   0.478   3.220   2.690
10639SOL    HW232817   0.452   3.223   2.851
10640SOL     OW32818   3.753   0.140   5.740
10640SOL    HW132819   3.750   0.220   5.681
10640SOL    HW232820   3.674   0.082   5.722
10641SOL     OW32821   3.696   2.393   0.013
10641SOL    HW132822   3.764   2.464   7.027
10641SOL    HW232823   3.613   2.435   0.051
10642SOL     OW32824   6.571   2.455   1.504
10642SOL    HW132825   6.641   2.486   1.441
10642SOL    HW232826   6.537   2.533   1.557
10643SOL     OW32827   2.092   4.638   5.319
10643SOL    HW132828   2.177   4.631   5.266
10643SOL    HW232829   2.086   4.728   5.361
10644SOL     OW32830   6.080   2.241   3.052
10644SOL    HW132831   6.152   2.194   3.104
10644SOL    HW232832   6.111   2.256   2.958
10645SOL     OW32833   0.533   1.397   4.809
10645SOL    HW132834   0.549   1.313   4.862
10645SOL    HW232835   0.463   1.452   4.855
10646SOL     OW32836   0.259   1.682   6.011
10646SOL    HW132837   0.183   1.742   5.988
10646SOL    HW232838   0.250   1.651   6.106
10647SOL     OW32839   3.669   5.338   0.175
10647SOL    HW132840   3.769   5.340   0.181
10647SOL    HW232841   3.631   5.317   0.265
10648SOL     OW32842   4.836   4.441   6.142
10648SOL    HW132843   4.801   4.501   6.214
10648SOL    HW232844   4.832   4.346   6.173
10649SOL     OW32845   0.621   4.345   3.234
10649SOL    HW132846   0.719   4.327   3.226
10649SOL    HW232847   0.573   4.306   3.156
10650SOL     OW32848   1.160   6.760   2.797
10650SOL    HW132849   1.232   6.753   2.728
10650SOL    HW232850   1.092   6.689   2.781
10651SOL     OW32851   4.549   0.015   5.850
10651SOL    HW132852   4.607   0.091   5.877
10651SOL    HW232853   4.570   7.018   5.756
10652SOL     OW32854   3.714   0.214   6.412
10652SOL    HW132855   3.648   0.279   6.373
10652SOL    HW232856   3.722   0.134   6.352
10653SOL     OW32857   5.619   3.952   4.078
10653SOL    HW132858   5.637   3.933   4.174
10653SOL    HW232859   5.672   3.888   4.021
10654SOL     OW32860   4.134   1.124   1.270
10654SOL    HW132861   4.177   1.189   1.206
10654SOL    HW232862   4.203   1.087   1.331
10655SOL     OW32863   2.879   5.339   1.640
10655SOL    HW132864   2.816   5.267   1.612
10655SOL    HW232865   2.871   5.355   1.739
10656SOL     OW32866   6.198   2.522   0.679
10656SOL    HW132867   6.194   2.599   0.615
10656SOL    HW232868   6.237   2.552   0.766
10657SOL     OW32869   6.585   0.072   6.837
10657SOL    HW132870   6.651   7.028   6.849
10657SOL    HW232871   6.614   0.152   6.889
10658SOL     OW32872   6.340   3.619   4.530
10658SOL    HW132873   6.349   3.620   4.630
10658SOL    HW232874   6.396   3.693   4.491
10659SOL     OW32875   6.593   6.002   0.615
10659SOL    HW132876   6.691   6.009   0.594
10659SOL    HW232877   6.543   6.071   0.563
10660SOL     OW32878   5.153   4.340   6.260
10660SOL    HW132879   5.058   4.371   6.250
10660SOL    HW232880   5.209   4.382   6.189
10661SOL     OW32881   0.289   6.294   2.503
10661SOL    HW132882   0.235   6.376   2.483
10661SOL    HW232883   0.249   6.246   2.581
10662SOL     OW32884   5.505   0.667   2.053
10662SOL    HW132885   5.430   0.602   2.044
10662SOL    HW232886   5.522   0.683   2.151
10663SOL     OW32887   0.370   0.137   1.752
10663SOL    HW132888   0.440   0.193   1.708
10663SOL    HW232889   0.284   0.188   1.755
10664SOL     OW32890   2.246   4.626   5.610
10664SOL    HW132891   2.317   4.584   5.553
10664SOL    HW232892   2.268   4.723   5.624
10665SOL     OW32893   0.426   0.698   0.846
10665SOL    HW132894   0.514   0.657   0.821
10665SOL    HW232895   0.428   0.721   0.944
10666SOL     OW32896   3.430   4.888   0.493
10666SOL    HW132897   3.379   4.879   0.407
10666SOL    HW232898   3.528   4.880   0.475
10667SOL     OW32899   3.975   2.723   5.541
10667SOL    HW132900   3.876   2.740   5.536
10667SOL    HW232901   4.024   2.797   5.496
10668SOL     OW32902   1.089   1.705   5.330
10668SOL    HW132903   1.002   1.749   5.352
10668SOL    HW232904   1.085   1.666   5.239
10669SOL     OW32905   6.156   6.752   0.459
10669SOL    HW132906   6.151   6.659   0.421
10669SOL    HW232907   6.234   6.758   0.521
10670SOL     OW32908   4.958   3.729   5.259
10670SOL    HW132909   4.912   3.675   5.188
10670SOL    HW232910   4.890   3.761   5.325
10671SOL     OW32911   2.717   2.184   2.538
10671SOL    HW132912   2.718   2.102   2.596
10671SOL    HW232913   2.798   2.186   2.481
10672SOL     OW32914   6.772   2.360   0.250
10672SOL    HW132915   6.722   2.274   0.241
10672SOL    HW232916   6.725   2.420   0.314
10673SOL     OW32917   1.640   2.412   0.068
10673SOL    HW132918   1.610   2.500   0.105
10673SOL    HW232919   1.642   2.417   6.999
10674SOL     OW32920   3.467   3.553   1.054
10674SOL    HW132921   3.374   3.528   1.081
10674SOL    HW232922   3.476   3.547   0.955
10675SOL     OW32923   2.041   0.215   5.999
10675SOL    HW132924   2.108   0.256   5.937
10675SOL    HW232925   2.014   0.283   6.068
10676SOL     OW32926   6.510   6.417   6.277
10676SOL    HW132927   6.602   6.405   6.312
10676SOL    HW232928   6.487   6.515   6.276
10677SOL     OW32929   0.590   0.695   2.309
10677SOL    HW132930   0.647   0.617   2.335
10677SOL    HW232931   0.639   0.752   2.242
10678SOL     OW32932   3.709   5.132   3.126
10678SOL    HW132933   3.675   5.194   3.197
10678SOL    HW232934   3.710   5.039   3.161
10679SOL     OW32935   5.152   4.738   6.097
10679SOL    HW132936   5.072   4.700   6.049
10679SOL    HW232937   5.212   4.783   6.031
10680SOL     OW32938   1.827   2.051   3.821
10680SOL    HW132939   1.804   2.117   3.892
10680SOL    HW232940   1.917   2.011   3.840
10681SOL     OW32941   6.975   4.015   6.913
10681SOL    HW132942   0.007   3.945   6.880
10681SOL    HW232943   6.935   4.063   6.835
10682SOL     OW32944   2.059   2.283   2.855
10682SOL    HW132945   2.073   2.382   2.851
10682SOL    HW232946   2.002   2.260   2.933
10683SOL     OW32947   3.512   1.805   4.131
10683SOL    HW132948   3.439   1.834   4.070
10683SOL    HW232949   3.500   1.848   4.221
10684SOL     OW32950   4.552   3.819   0.335
10684SOL    HW132951   4.620   3.879   0.294
10684SOL    HW232952   4.597   3.749   0.390
10685SOL     OW32953   6.396   4.452   2.013
10685SOL    HW132954   6.474   4.393   2.034
10685SOL    HW232955   6.402   4.481   1.917
10686SOL     OW32956   3.948   5.337   6.712
10686SOL    HW132957   3.914   5.247   6.687
10686SOL    HW232958   3.882   5.407   6.686
10687SOL     OW32959   6.904   5.077   1.525
10687SOL    HW132960   6.834   5.018   1.566
10687SOL    HW232961   6.954   5.124   1.597
10688SOL     OW32962   6.715   4.487   2.482
10688SOL    HW132963   6.616   4.500   2.475
10688SOL    HW232964   6.742   4.491   2.578
10689SOL     OW32965   0.410   0.148   3.679
10689SOL    HW132966   0.375   0.056   3.666
10689SOL    HW232967   0.343   0.214   3.645
10690SOL     OW32968   6.031   5.320   3.909
10690SOL    HW132969   6.024   5.363   3.819
10690SOL    HW232970   5.941   5.319   3.953
10691SOL     OW32971   6.824   1.471   2.560
10691SOL    HW132972   6.898   1.527   2.597
10691SOL    HW232973   6.764   1.441   2.634
10692SOL     OW32974   3.256   5.266   3.479
10692SOL    HW132975   3.270   5.328   3.401
10692SOL    HW232976   3.221   5.179   3.446
10693SOL     OW32977   1.656   0.816   2.044
10693SOL    HW132978   1.710   0.744   2.000
10693SOL    HW232979   1.629   0.884   1.975
10694SOL     OW32980   3.791   6.202   1.165
10694SOL    HW132981   3.693   6.189   1.172
10694SOL    HW232982   3.829   6.141   1.095
10695SOL     OW32983   6.273   2.045   2.892
10695SOL    HW132984   6.248   2.127   2.841
10695SOL    HW232985   6.338   2.069   2.964
10696SOL     OW32986   6.847   4.835   2.176
10696SOL    HW132987   6.851   4.845   2.275
10696SOL    HW232988   6.940   4.838   2.138
10697SOL     OW32989   0.032   6.220   4.355
10697SOL    HW132990   6.991   6.151   4.348
10697SOL    HW232991   0.120   6.181   4.327
10698SOL     OW32992   3.084   6.474   4.237
10698SOL    HW132993   3.101   6.468   4.335
10698SOL    HW232994   3.157   6.429   4.187
10699SOL     OW32995   4.402   1.695   2.360
10699SOL    HW132996   4.412   1.596   2.351
10699SOL    HW232997   4.305   1.718   2.369
10700SOL     OW32998   1.027   0.252   0.354
10700SOL    HW132999   1.105   0.192   0.337
10700SOL    HW233000   1.042   0.305   0.437
10701SOL     OW33001   4.071   5.930   0.102
10701SOL    HW133002   4.113   5.857   0.048
10701SOL    HW233003   4.075   6.016   0.050
10702SOL     OW33004   6.070   2.777   2.056
10702SOL    HW133005   6.079   2.755   1.959
10702SOL    HW233006   6.038   2.872   2.065
10703SOL     OW33007   3.684   2.918   3.863
10703SOL    HW133008   3.667   3.011   3.894
10703SOL    HW233009   3.704   2.860   3.941
10704SOL     OW33010   5.040   5.859   1.710
10704SOL    HW133011   4.952   5.900   1.688
10704SOL    HW233012   5.091   5.919   1.771
10705SOL     OW33013   0.407   3.574   1.349
10705SOL    HW133014   0.442   3.580   1.443
10705SOL    HW233015   0.408   3.664   1.307
10706SOL     OW33016   4.422   6.597   2.353
10706SOL    HW133017   4.377   6.683   2.378
10706SOL    HW233018   4.416   6.533   2.429
10707SOL     OW33019   0.628   0.253   4.878
10707SOL    HW133020   0.573   0.189   4.824
10707SOL    HW233021   0.568   0.326   4.913
10708SOL     OW33022   4.972   1.071   2.080
10708SOL    HW133023   4.879   1.036   2.093
10708SOL    HW233024   5.012   1.030   1.998
10709SOL     OW33025   6.467   1.126   5.261
10709SOL    HW133026   6.500   1.042   5.218
10709SOL    HW233027   6.385   1.107   5.315
10710SOL     OW33028   0.962   6.621   4.769
10710SOL    HW133029   0.999   6.713   4.762
10710SOL    HW233030   1.015   6.568   4.835
10711SOL     OW33031   1.992   6.759   3.579
10711SOL    HW133032   2.059   6.752   3.654
10711SOL    HW233033   1.929   6.682   3.584
10712SOL     OW33034   3.473   1.117   3.286
10712SOL    HW133035   3.569   1.126   3.260
10712SOL    HW233036   3.416   1.162   3.218
10713SOL     OW33037   1.674   4.735   1.799
10713SOL    HW133038   1.642   4.828   1.812
10713SOL    HW233039   1.668   4.710   1.702
10714SOL     OW33040   6.774   3.322   5.284
10714SOL    HW133041   6.797   3.412   5.249
10714SOL    HW233042   6.840   3.295   5.354
10715SOL     OW33043   4.900   0.525   3.264
10715SOL    HW133044   4.842   0.532   3.345
10715SOL    HW233045   4.982   0.581   3.277
10716SOL     OW33046   0.327   2.474   3.438
10716SOL    HW133047   0.262   2.542   3.403
10716SOL    HW233048   0.310   2.387   3.393
10717SOL     OW33049   0.531   1.351   0.826
10717SOL    HW133050   0.465   1.329   0.898
10717SOL    HW233051   0.484   1.398   0.751
10718SOL     OW33052   6.353   4.918   0.300
10718SOL    HW133053   6.321   4.940   0.392
10718SOL    HW233054   6.447   4.884   0.305
10719SOL     OW33055   4.420   6.061   1.806
10719SOL    HW133056   4.485   6.136   1.798
10719SOL    HW233057   4.358   6.078   1.882
10720SOL     OW33058   6.701   3.412   6.225
10720SOL    HW133059   6.761   3.421   6.145
10720SOL    HW233060   6.753   3.432   6.308
10721SOL     OW33061   6.832   2.291   4.491
10721SOL    HW133062   6.809   2.373   4.438
10721SOL    HW233063   6.832   2.212   4.430
10722SOL     OW33064   7.015   3.345   0.063
10722SOL    HW133065   6.988   3.441   0.060
10722SOL    HW233066   0.079   3.339   0.096
10723SOL     OW33067   5.457   3.789   6.791
10723SOL    HW133068   5.505   3.702   6.782
10723SOL    HW233069   5.422   3.799   6.884
10724SOL     OW33070   3.739   6.635   5.900
10724SOL    HW133071   3.823   6.668   5.943
10724SOL    HW233072   3.748   6.538   5.879
10725SOL     OW33073   0.083   5.387   4.299
10725SOL    HW133074   0.083   5.484   4.274
10725SOL    HW233075   0.139   5.373   4.380
10726SOL     OW33076   6.298   7.023   5.088
10726SOL    HW133077   6.325   6.931   5.116
10726SOL    HW233078   6.236   7.018   5.010
10727SOL     OW33079   2.060   5.522   5.820
10727SOL    HW133080   1.965   5.548   5.834
10727SOL    HW233081   2.110   5.598   5.777
10728SOL     OW33082   6.020   6.863   2.570
10728SOL    HW133083   5.961   6.817   2.504
10728SOL    HW233084   6.106   6.889   2.526
10729SOL     OW33085   6.694   1.754   2.435
10729SOL    HW133086   6.780   1.802   2.454
10729SOL    HW233087   6.714   1.662   2.401
10730SOL     OW33088   2.775   6.496   2.023
10730SOL    HW133089   2.857   6.501   1.965
10730SOL    HW233090   2.694   6.485   1.965
10731SOL     OW33091   2.479   5.531   0.320
10731SOL    HW133092   2.539   5.455   0.296
10731SOL    HW233093   2.531   5.599   0.372
10732SOL     OW33094   6.632   0.229   2.920
10732SOL    HW133095   6.683   0.205   2.836
10732SOL    HW233096   6.697   0.243   2.995
10733SOL     OW33097   5.858   2.169   0.129
10733SOL    HW133098   5.814   2.121   0.205
10733SOL    HW233099   5.956   2.178   0.147
10734SOL     OW33100   1.114   0.522   6.509
10734SOL    HW133101   1.093   0.617   6.483
10734SOL    HW233102   1.105   0.463   6.430
10735SOL     OW33103   1.130   4.856   2.376
10735SOL    HW133104   1.143   4.791   2.451
10735SOL    HW233105   1.033   4.872   2.362
10736SOL     OW33106   0.413   1.111   3.219
10736SOL    HW133107   0.366   1.106   3.132
10736SOL    HW233108   0.472   1.192   3.221
10737SOL     OW33109   0.914   1.703   0.634
10737SOL    HW133110   0.849   1.644   0.682
10737SOL    HW233111   0.881   1.721   0.541
10738SOL     OW33112   2.437   0.147   2.657
10738SOL    HW133113   2.424   0.162   2.559
10738SOL    HW233114   2.494   0.067   2.671
10739SOL     OW33115   0.029   1.583   2.620
10739SOL    HW133116   0.090   1.525   2.673
10739SOL    HW233117   0.081   1.630   2.548
10740SOL     OW33118   1.432   5.997   6.130
10740SOL    HW133119   1.512   6.054   6.111
10740SOL    HW233120   1.454   5.901   6.110
10741SOL     OW33121   2.181   1.708   3.211
10741SOL    HW133122   2.196   1.723   3.308
10741SOL    HW233123   2.248   1.641   3.177
10742SOL     OW33124   5.962   0.059   2.310
10742SOL    HW133125   5.888   0.064   2.243
10742SOL    HW233126   5.924   0.045   2.401
10743SOL     OW33127   2.750   1.536   4.348
10743SOL    HW133128   2.819   1.592   4.395
10743SOL    HW233129   2.733   1.574   4.257
10744SOL     OW33130   3.268   1.428   2.114
10744SOL    HW133131   3.259   1.438   2.213
10744SOL    HW233132   3.183   1.459   2.070
10745SOL     OW33133   2.123   4.655   0.515
10745SOL    HW133134   2.144   4.740   0.562
10745SOL    HW233135   2.141   4.666   0.417
10746SOL     OW33136   1.995   5.585   1.297
10746SOL    HW133137   2.008   5.492   1.333
10746SOL    HW233138   1.954   5.580   1.206
10747SOL     OW33139   5.548   1.656   3.244
10747SOL    HW133140   5.628   1.624   3.294
10747SOL    HW233141   5.566   1.651   3.145
10748SOL     OW33142   5.293   5.821   1.358
10748SOL    HW133143   5.255   5.731   1.380
10748SOL    HW233144   5.370   5.810   1.295
10749SOL     OW33145   7.004   5.005   2.714
10749SOL    HW133146   6.987   5.095   2.755
10749SOL    HW233147   0.031   4.951   2.775
10750SOL     OW33148   4.792   4.121   4.571
10750SOL    HW133149   4.705   4.106   4.526
10750SOL    HW233150   4.812   4.045   4.632
10751SOL     OW33151   1.067   2.970   4.951
10751SOL    HW133152   1.160   2.954   4.985
10751SOL    HW233153   1.002   2.917   5.006
10752SOL     OW33154   5.744   4.657   6.742
10752SOL    HW133155   5.737   4.721   6.665
10752SOL    HW233156   5.691   4.575   6.721
10753SOL     OW33157   5.319   0.327   3.944
10753SOL    HW133158   5.336   0.231   3.966
10753SOL    HW233159   5.350   0.346   3.851
10754SOL     OW33160   1.787   2.645   2.249
10754SOL    HW133161   1.734   2.641   2.164
10754SOL    HW233162   1.727   2.624   2.327
10755SOL     OW33163   6.836   2.144   0.663
10755SOL    HW133164   6.888   2.152   0.578
10755SOL    HW233165   6.797   2.233   0.686
10756SOL     OW33166   6.307   2.773   0.152
10756SOL    HW133167   6.294   2.854   0.210
10756SOL    HW233168   6.302   2.691   0.209
10757SOL     OW33169   0.144   3.939   0.614
10757SOL    HW133170   0.113   3.962   0.522
10757SOL    HW233171   0.243   3.946   0.619
10758SOL     OW33172   0.388   5.396   5.738
10758SOL    HW133173   0.373   5.349   5.651
10758SOL    HW233174   0.397   5.494   5.722
10759SOL     OW33175   1.716   3.309   6.371
10759SOL    HW133176   1.734   3.321   6.273
10759SOL    HW233177   1.623   3.340   6.392
10760SOL     OW33178   0.271   5.692   1.154
10760SOL    HW133179   0.308   5.599   1.163
10760SOL    HW233180   0.337   5.749   1.106
10761SOL     OW33181   1.102   2.701   6.311
10761SOL    HW133182   1.155   2.639   6.368
10761SOL    HW233183   1.035   2.750   6.367
10762SOL     OW33184   4.874   1.000   5.321
10762SOL    HW133185   4.846   1.096   5.322
10762SOL    HW233186   4.856   0.961   5.231
10763SOL     OW33187   4.451   0.454   1.727
10763SOL    HW133188   4.360   0.465   1.767
10763SOL    HW233189   4.504   0.389   1.781
10764SOL     OW33190   5.264   1.500   6.117
10764SOL    HW133191   5.233   1.557   6.041
10764SOL    HW233192   5.262   1.555   6.202
10765SOL     OW33193   5.777   1.120   2.030
10765SOL    HW133194   5.813   1.032   2.063
10765SOL    HW233195   5.848   1.190   2.040
10766SOL     OW33196   2.017   3.586   0.006
10766SOL    HW133197   2.067   3.499   0.003
10766SOL    HW233198   2.080   3.660   7.011
10767SOL     OW33199   1.727   6.549   0.930
10767SOL    HW133200   1.725   6.460   0.885
10767SOL    HW233201   1.821   6.572   0.956
10768SOL     OW33202   5.176   5.545   0.045
10768SOL    HW133203   5.117   5.576   0.120
10768SOL    HW233204   5.248   5.613   0.029
10769SOL     OW33205   2.616   4.518   5.301
10769SOL    HW133206   2.700   4.508   5.248
10769SOL    HW233207   2.564   4.433   5.298
10770SOL     OW33208   5.488   0.287   4.555
10770SOL    HW133209   5.427   0.217   4.518
10770SOL    HW233210   5.455   0.315   4.646
10771SOL     OW33211   4.234   0.156   5.174
10771SOL    HW133212   4.285   0.139   5.258
10771SOL    HW233213   4.237   0.254   5.152
10772SOL     OW33214   6.899   6.530   3.688
10772SOL    HW133215   6.903   6.578   3.776
10772SOL    HW233216   6.806   6.535   3.651
10773SOL     OW33217   6.933   4.568   6.925
10773SOL    HW133218   6.846   4.618   6.918
10773SOL    HW233219   7.009   4.633   6.928
10774SOL     OW33220   1.615   2.499   1.178
10774SOL    HW133221   1.537   2.504   1.115
10774SOL    HW233222   1.612   2.411   1.227
10775SOL     OW33223   2.316   4.205   0.926
10775SOL    HW133224   2.341   4.261   1.005
10775SOL    HW233225   2.393   4.146   0.901
10776SOL     OW33226   0.170   6.495   1.953
10776SOL    HW133227   0.223   6.497   1.868
10776SOL    HW233228   0.073   6.508   1.932
10777SOL     OW33229   3.991   0.308   3.200
10777SOL    HW133230   3.977   0.390   3.146
10777SOL    HW233231   3.978   0.329   3.297
10778SOL     OW33232   6.845   7.006   4.743
10778SOL    HW133233   6.815   0.009   4.654
10778SOL    HW233234   6.773   6.951   4.784
10779SOL     OW33235   7.020   4.633   2.360
10779SOL    HW133236   0.063   4.676   2.413
10779SOL    HW233237   6.933   4.648   2.407
10780SOL     OW33238   0.418   5.590   4.012
10780SOL    HW133239   0.403   5.499   4.051
10780SOL    HW233240   0.383   5.593   3.919
10781SOL     OW33241   4.996   1.352   4.187
10781SOL    HW133242   4.949   1.411   4.121
10781SOL    HW233243   4.994   1.258   4.153
10782SOL     OW33244   6.237   2.583   3.792
10782SOL    HW133245   6.140   2.596   3.771
10782SOL    HW233246   6.291   2.605   3.710
10783SOL     OW33247   2.173   3.243   2.460
10783SOL    HW133248   2.177   3.145   2.437
10783SOL    HW233249   2.141   3.294   2.381
10784SOL     OW33250   2.764   6.799   1.873
10784SOL    HW133251   2.818   6.757   1.946
10784SOL    HW233252   2.685   6.845   1.913
10785SOL     OW33253   1.399   4.819   1.368
10785SOL    HW133254   1.456   4.736   1.370
10785SOL    HW233255   1.425   4.875   1.289
10786SOL     OW33256   5.135   2.243   2.076
10786SOL    HW133257   5.120   2.165   2.015
10786SOL    HW233258   5.137   2.211   2.171
10787SOL     OW33259   3.456   1.515   4.268
10787SOL    HW133260   3.363   1.550   4.253
10787SOL    HW233261   3.483   1.530   4.363
10788SOL     OW33262   2.014   4.161   0.685
10788SOL    HW133263   2.049   4.244   0.642
10788SOL    HW233264   1.919   4.146   0.657
10789SOL     OW33265   5.955   0.609   0.302
10789SOL    HW133266   6.052   0.589   0.284
10789SOL    HW233267   5.914   0.533   0.352
10790SOL     OW33268   0.288   0.606   5.601
10790SOL    HW133269   0.230   0.680   5.634
10790SOL    HW233270   0.344   0.639   5.524
10791SOL     OW33271   1.757   1.524   1.596
10791SOL    HW133272   1.743   1.535   1.695
10791SOL    HW233273   1.714   1.439   1.566
10792SOL     OW33274   3.208   2.971   1.689
10792SOL    HW133275   3.127   3.003   1.739
10792SOL    HW233276   3.282   2.952   1.753
10793SOL     OW33277   5.535   1.971   4.163
10793SOL    HW133278   5.573   2.028   4.090
10793SOL    HW233279   5.452   1.925   4.130
10794SOL     OW33280   3.570   4.033   2.057
10794SOL    HW133281   3.526   4.085   2.129
10794SOL    HW233282   3.668   4.025   2.077
10795SOL     OW33283   6.086   3.753   2.505
10795SOL    HW133284   6.087   3.785   2.410
10795SOL    HW233285   5.994   3.725   2.530
10796SOL     OW33286   3.401   0.152   6.585
10796SOL    HW133287   3.418   0.226   6.649
10796SOL    HW233288   3.476   0.085   6.590
10797SOL     OW33289   3.830   2.755   0.477
10797SOL    HW133290   3.919   2.733   0.437
10797SOL    HW233291   3.758   2.744   0.408
10798SOL     OW33292   2.208   0.537   7.026
10798SOL    HW133293   2.291   0.502   0.041
10798SOL    HW233294   2.149   0.461   7.001
10799SOL     OW33295   3.533   1.873   2.660
10799SOL    HW133296   3.510   1.955   2.607
10799SOL    HW233297   3.629   1.876   2.687
10800SOL     OW33298   1.921   6.220   0.783
10800SOL    HW133299   2.019   6.209   0.765
10800SOL    HW233300   1.894   6.158   0.857
10801SOL     OW33301   1.607   0.004   4.331
10801SOL    HW133302   1.617   0.095   4.291
10801SOL    HW233303   1.675   7.022   4.403
10802SOL     OW33304   2.289   2.868   4.431
10802SOL    HW133305   2.248   2.938   4.489
10802SOL    HW233306   2.367   2.827   4.478
10803SOL     OW33307   5.165   4.784   5.427
10803SOL    HW133308   5.205   4.777   5.519
10803SOL    HW233309   5.169   4.695   5.383
10804SOL     OW33310   6.964   4.402   0.725
10804SOL    HW133311   6.996   4.350   0.804
10804SOL    HW233312   0.011   4.425   0.666
10805SOL     OW33313   3.608   0.623   0.027
10805SOL    HW133314   3.567   0.531   0.024
10805SOL    HW233315   3.544   0.689   7.018
10806SOL     OW33316   5.596   4.472   0.237
10806SOL    HW133317   5.559   4.424   0.158
10806SOL    HW233318   5.696   4.466   0.237
10807SOL     OW33319   3.354   6.764   3.554
10807SOL    HW133320   3.423   6.696   3.528
10807SOL    HW233321   3.361   6.782   3.652
10808SOL     OW33322   0.175   3.836   0.182
10808SOL    HW133323   0.207   3.930   0.198
10808SOL    HW233324   0.082   3.838   0.146
10809SOL     OW33325   2.739   0.504   4.240
10809SOL    HW133326   2.791   0.445   4.301
10809SOL    HW233327   2.673   0.450   4.188
10810SOL     OW33328   0.730   1.626   5.628
10810SOL    HW133329   0.798   1.569   5.582
10810SOL    HW233330   0.641   1.613   5.585
10811SOL     OW33331   3.643   5.187   5.575
10811SOL    HW133332   3.605   5.241   5.650
10811SOL    HW233333   3.742   5.204   5.569
10812SOL     OW33334   0.739   2.852   2.341
10812SOL    HW133335   0.801   2.929   2.335
10812SOL    HW233336   0.790   2.769   2.365
10813SOL     OW33337   2.846   6.137   1.091
10813SOL    HW133338   2.839   6.137   1.191
10813SOL    HW233339   2.904   6.061   1.062
10814SOL     OW33340   1.642   0.356   5.640
10814SOL    HW133341   1.693   0.319   5.563
10814SOL    HW233342   1.555   0.308   5.649
10815SOL     OW33343   4.897   4.413   3.462
10815SOL    HW133344   4.878   4.317   3.479
10815SOL    HW233345   4.847   4.443   3.380
10816SOL     OW33346   1.788   1.180   2.136
10816SOL    HW133347   1.741   1.099   2.172
10816SOL    HW233348   1.724   1.234   2.082
10817SOL     OW33349   5.440   6.574   2.973
10817SOL    HW133350   5.371   6.547   2.906
10817SOL    HW233351   5.396   6.618   3.051
10818SOL     OW33352   5.735   2.625   5.837
10818SOL    HW133353   5.831   2.649   5.844
10818SOL    HW233354   5.724   2.548   5.773
10819SOL     OW33355   0.827   3.790   6.504
10819SOL    HW133356   0.801   3.799   6.407
10819SOL    HW233357   0.913   3.739   6.511
10820SOL     OW33358   0.313   6.857   4.315
10820SOL    HW133359   0.356   6.767   4.320
10820SOL    HW233360   0.220   6.848   4.279
10821SOL     OW33361   6.044   6.218   2.923
10821SOL    HW133362   6.097   6.138   2.895
10821SOL    HW233363   6.095   6.301   2.902
10822SOL     OW33364   1.384   3.366   2.682
10822SOL    HW133365   1.376   3.313   2.597
10822SOL    HW233366   1.479   3.398   2.692
10823SOL     OW33367   1.542   5.149   1.674
10823SOL    HW133368   1.456   5.120   1.633
10823SOL    HW233369   1.575   5.232   1.629
10824SOL     OW33370   4.918   6.635   3.681
10824SOL    HW133371   4.934   6.608   3.776
10824SOL    HW233372   4.858   6.715   3.678
10825SOL     OW33373   2.754   1.625   0.653
10825SOL    HW133374   2.843   1.589   0.625
10825SOL    HW233375   2.689   1.615   0.578
10826SOL     OW33376   6.276   3.384   2.570
10826SOL    HW133377   6.285   3.483   2.562
10826SOL    HW233378   6.365   3.344   2.590
10827SOL     OW33379   6.359   3.500   3.553
10827SOL    HW133380   6.325   3.420   3.504
10827SOL    HW233381   6.306   3.580   3.524
10828SOL     OW33382   0.959   6.147   1.981
10828SOL    HW133383   0.862   6.125   1.992
10828SOL    HW233384   0.985   6.133   1.885
10829SOL     OW33385   2.690   3.226   1.046
10829SOL    HW133386   2.746   3.143   1.044
10829SOL    HW233387   2.601   3.205   1.086
10830SOL     OW33388   5.793   2.385   3.822
10830SOL    HW133389   5.835   2.309   3.773
10830SOL    HW233390   5.855   2.464   3.820
10831SOL     OW33391   5.060   0.330   1.856
10831SOL    HW133392   5.116   0.279   1.791
10831SOL    HW233393   5.109   0.413   1.884
10832SOL     OW33394   0.728   2.187   0.722
10832SOL    HW133395   0.648   2.162   0.667
10832SOL    HW233396   0.810   2.180   0.665
10833SOL     OW33397   2.230   0.351   3.737
10833SOL    HW133398   2.152   0.305   3.693
10833SOL    HW233399   2.230   0.448   3.712
10834SOL     OW33400   0.474   1.325   5.536
10834SOL    HW133401   0.441   1.231   5.525
10834SOL    HW233402   0.435   1.363   5.620
10835SOL     OW33403   5.985   1.136   1.261
10835SOL    HW133404   5.953   1.230   1.272
10835SOL    HW233405   6.010   1.099   1.350
10836SOL     OW33406   6.829   1.992   5.577
10836SOL    HW133407   6.848   1.896   5.557
10836SOL    HW233408   6.889   2.050   5.522
10837SOL     OW33409   6.565   4.533   0.027
10837SOL    HW133410   6.526   4.584   0.104
10837SOL    HW233411   6.637   4.587   7.014
10838SOL     OW33412   6.075   0.536   5.141
10838SOL    HW133413   6.070   0.599   5.218
10838SOL    HW233414   5.986   0.494   5.125
10839SOL     OW33415   2.663   3.299   0.002
10839SOL    HW133416   2.733   3.302   6.961
10839SOL    HW233417   2.674   3.377   0.064
10840SOL     OW33418   3.664   5.857   1.391
10840SOL    HW133419   3.646   5.833   1.296
10840SOL    HW233420   3.700   5.951   1.396
10841SOL     OW33421   3.079   5.786   5.688
10841SOL    HW133422   3.072   5.727   5.769
10841SOL    HW233423   3.174   5.815   5.676
10842SOL     OW33424   6.453   2.994   1.078
10842SOL    HW133425   6.387   2.940   1.025
10842SOL    HW233426   6.500   2.935   1.142
10843SOL     OW33427   0.726   1.645   1.508
10843SOL    HW133428   0.635   1.632   1.469
10843SOL    HW233429   0.787   1.572   1.477
10844SOL     OW33430   6.851   6.423   4.440
10844SOL    HW133431   6.935   6.372   4.422
10844SOL    HW233432   6.864   6.482   4.520
10845SOL     OW33433   1.996   0.967   1.160
10845SOL    HW133434   2.009   0.943   1.064
10845SOL    HW233435   2.068   0.924   1.215
10846SOL     OW33436   4.918   2.188   0.823
10846SOL    HW133437   4.820   2.200   0.809
10846SOL    HW233438   4.943   2.220   0.914
10847SOL     OW33439   2.683   2.042   6.081
10847SOL    HW133440   2.704   1.973   6.012
10847SOL    HW233441   2.671   1.998   6.170
10848SOL     OW33442   2.610   1.526   6.906
10848SOL    HW133443   2.643   1.593   6.972
10848SOL    HW233444   2.684   1.462   6.884
10849SOL     OW33445   4.106   4.843   3.857
10849SOL    HW133446   4.020   4.827   3.905
10849SOL    HW233447   4.100   4.928   3.805
10850SOL     OW33448   3.568   7.016   0.064
10850SOL    HW133449   3.508   6.977   7.025
10850SOL    HW233450   3.540   0.080   0.084
10851SOL     OW33451   3.219   2.668   5.851
10851SOL    HW133452   3.299   2.661   5.791
10851SOL    HW233453   3.185   2.762   5.850
10852SOL     OW33454   0.309   0.310   6.858
10852SOL    HW133455   0.400   0.353   6.865
10852SOL    HW233456   0.261   0.347   6.779
10853SOL     OW33457   3.907   1.852   4.303
10853SOL    HW133458   3.843   1.784   4.266
10853SOL    HW233459   3.883   1.873   4.397
10854SOL     OW33460   6.005   0.130   6.407
10854SOL    HW133461   5.940   0.167   6.341
10854SOL    HW233462   6.083   0.193   6.417
10855SOL     OW33463   2.753   6.042   2.724
10855SOL    HW133464   2.696   6.124   2.734
10855SOL    HW233465   2.694   5.962   2.714
10856SOL     OW33466   6.009   0.056   1.135
10856SOL    HW133467   6.094   0.107   1.120
10856SOL    HW233468   5.963   0.040   1.048
10857SOL     OW33469   6.359   3.133   3.238
10857SOL    HW133470   6.340   3.099   3.146
10857SOL    HW233471   6.441   3.089   3.274
10858SOL     OW33472   1.961   3.178   6.400
10858SOL    HW133473   1.877   3.228   6.381
10858SOL    HW233474   1.962   3.148   6.495
10859SOL     OW33475   1.628   3.777   3.606
10859SOL    HW133476   1.625   3.723   3.522
10859SOL    HW233477   1.718   3.819   3.616
10860SOL     OW33478   6.401   1.000   6.537
10860SOL    HW133479   6.433   1.074   6.478
10860SOL    HW233480   6.303   1.011   6.555
10861SOL     OW33481   3.759   2.467   1.649
10861SOL    HW133482   3.752   2.563   1.675
10861SOL    HW233483   3.732   2.409   1.726
10862SOL     OW33484   2.396   1.877   5.997
10862SOL    HW133485   2.392   1.976   5.982
10862SOL    HW233486   2.449   1.836   5.923
10863SOL     OW33487   3.217   0.883   2.776
10863SOL    HW133488   3.155   0.951   2.815
10863SOL    HW233489   3.189   0.863   2.682
10864SOL     OW33490   1.999   4.862   1.369
10864SOL    HW133491   2.000   4.916   1.453
10864SOL    HW233492   2.076   4.798   1.370
10865SOL     OW33493   5.900   2.938   3.600
10865SOL    HW133494   5.806   2.918   3.628
10865SOL    HW233495   5.902   2.955   3.501
10866SOL     OW33496   5.842   3.515   0.948
10866SOL    HW133497   5.813   3.425   0.981
10866SOL    HW233498   5.781   3.585   0.985
10867SOL     OW33499   2.396   2.950   0.252
10867SOL    HW133500   2.466   3.007   0.294
10867SOL    HW233501   2.337   2.911   0.323
10868SOL     OW33502   1.351   2.287   3.046
10868SOL    HW133503   1.364   2.249   2.955
10868SOL    HW233504   1.258   2.267   3.078
10869NA      NA33505   0.683   2.166   6.324
10870NA      NA33506   4.467   4.469   5.276
10871NA      NA33507   1.957   4.574   2.594
10872NA      NA33508   5.272   4.480   3.999
10873NA      NA33509   4.431   2.497   5.163
10874NA      NA33510   3.238   4.465   1.573
10875NA      NA33511   0.865   4.631   0.012
10876NA      NA33512   3.982   4.285   1.613
10877NA      NA33513   4.602   3.971   0.854
10878NA      NA33514   3.786   1.153   5.622
10879NA      NA33515   5.063   5.621   1.684
10880NA      NA33516   1.652   0.558   5.759
10881NA      NA33517   4.884   4.788   2.118
10882NA      NA33518   3.607   3.437   0.695
   7.03019   7.03019   7.03019
