Generated by trjconv : CNT in water t= 255.00000
33518
    1C        C    1   2.840   2.767   4.749
    1C        C    2   2.889   2.711   4.869
    1C        C    3   2.832   2.767   4.985
    1C        C    4   2.854   2.779   4.265
    1C        C    5   2.906   2.731   4.387
    1C        C    6   2.848   2.774   4.508
    1C        C    7   3.015   2.641   4.630
    1C        C    8   2.899   2.721   4.629
    1C        C    9   3.080   2.613   4.752
    1C        C   10   3.008   2.635   4.872
    1C        C   11   3.184   2.500   4.978
    1C        C   12   3.065   2.573   4.984
    1C        C   13   2.854   2.772   3.777
    1C        C   14   2.904   2.723   3.900
    1C        C   15   2.851   2.773   4.021
    1C        C   16   3.020   2.647   4.139
    1C        C   17   2.905   2.728   4.143
    1C        C   18   3.082   2.619   4.263
    1C        C   19   3.020   2.648   4.387
    1C        C   20   3.212   2.560   4.507
    1C        C   21   3.078   2.605   4.509
    1C        C   22   3.281   2.540   4.629
    1C        C   23   3.210   2.557   4.750
    1C        C   24   3.417   2.490   4.868
    1C        C   25   3.275   2.513   4.868
    1C        C   26   3.498   2.491   4.982
    1C        C   27   2.850   2.769   3.286
    1C        C   28   2.905   2.726   3.408
    1C        C   29   2.858   2.776   3.531
    1C        C   30   3.017   2.639   3.652
    1C        C   31   2.905   2.725   3.654
    1C        C   32   3.079   2.604   3.774
    1C        C   33   3.018   2.639   3.897
    1C        C   34   3.210   2.548   4.020
    1C        C   35   3.080   2.604   4.019
    1C        C   36   3.278   2.533   4.144
    1C        C   37   3.212   2.564   4.264
    1C        C   38   3.419   2.509   4.383
    1C        C   39   3.280   2.538   4.385
    1C        C   40   3.488   2.503   4.506
    1C        C   41   3.418   2.506   4.629
    1C        C   42   3.635   2.492   4.748
    1C        C   43   3.493   2.489   4.748
    1C        C   44   3.712   2.496   4.866
    1C        C   45   3.637   2.482   4.984
    1C        C   46   2.838   2.754   2.797
    1C        C   47   2.896   2.712   2.919
    1C        C   48   2.846   2.765   3.041
    1C        C   49   3.020   2.645   3.164
    1C        C   50   2.901   2.721   3.163
    1C        C   51   3.082   2.609   3.286
    1C        C   52   3.020   2.644   3.408
    1C        C   53   3.208   2.545   3.531
    1C        C   54   3.081   2.606   3.530
    1C        C   55   3.275   2.525   3.653
    1C        C   56   3.209   2.549   3.776
    1C        C   57   3.417   2.514   3.896
    1C        C   58   3.277   2.527   3.898
    1C        C   59   3.487   2.507   4.019
    1C        C   60   3.417   2.508   4.142
    1C        C   61   3.632   2.507   4.261
    1C        C   62   3.490   2.501   4.262
    1C        C   63   3.702   2.514   4.383
    1C        C   64   3.629   2.504   4.504
    1C        C   65   3.838   2.550   4.625
    1C        C   66   3.702   2.511   4.625
    1C        C   67   3.910   2.570   4.745
    1C        C   68   3.847   2.536   4.867
    1C        C   69   4.061   2.585   4.979
    1C        C   70   3.930   2.536   4.980
    1C        C   71   2.833   2.741   2.313
    1C        C   72   2.892   2.698   2.434
    1C        C   73   2.833   2.745   2.553
    1C        C   74   3.010   2.628   2.676
    1C        C   75   2.891   2.704   2.675
    1C        C   76   3.077   2.597   2.797
    1C        C   77   3.016   2.638   2.917
    1C        C   78   3.206   2.548   3.041
    1C        C   79   3.078   2.608   3.040
    1C        C   80   3.276   2.530   3.162
    1C        C   81   3.211   2.552   3.286
    1C        C   82   3.415   2.501   3.405
    1C        C   83   3.276   2.525   3.409
    1C        C   84   3.485   2.501   3.528
    1C        C   85   3.416   2.508   3.651
    1C        C   86   3.628   2.507   3.773
    1C        C   87   3.487   2.504   3.773
    1C        C   88   3.697   2.522   3.895
    1C        C   89   3.628   2.511   4.018
    1C        C   90   3.838   2.555   4.140
    1C        C   91   3.701   2.519   4.139
    1C        C   92   3.908   2.572   4.261
    1C        C   93   3.840   2.546   4.382
    1C        C   94   4.029   2.645   4.503
    1C        C   95   3.903   2.581   4.504
    1C        C   96   4.097   2.678   4.622
    1C        C   97   4.038   2.632   4.742
    1C        C   98   4.201   2.763   4.866
    1C        C   99   4.107   2.655   4.864
    1C        C  100   4.225   2.842   4.980
    1C        C  101   2.830   2.741   2.074
    1C        C  102   2.994   2.595   2.193
    1C        C  103   2.883   2.686   2.192
    1C        C  104   3.066   2.571   2.314
    1C        C  105   3.008   2.616   2.434
    1C        C  106   3.206   2.539   2.553
    1C        C  107   3.074   2.591   2.556
    1C        C  108   3.275   2.525   2.675
    1C        C  109   3.209   2.547   2.798
    1C        C  110   3.415   2.500   2.921
    1C        C  111   3.276   2.524   2.920
    1C        C  112   3.487   2.490   3.042
    1C        C  113   3.414   2.503   3.163
    1C        C  114   3.628   2.500   3.284
    1C        C  115   3.487   2.494   3.284
    1C        C  116   3.698   2.513   3.406
    1C        C  117   3.626   2.507   3.528
    1C        C  118   3.834   2.550   3.648
    1C        C  119   3.697   2.515   3.650
    1C        C  120   3.896   2.584   3.770
    1C        C  121   3.834   2.559   3.894
    1C        C  122   4.026   2.645   4.016
    1C        C  123   3.902   2.578   4.016
    1C        C  124   4.090   2.680   4.137
    1C        C  125   4.029   2.645   4.259
    1C        C  126   4.201   2.769   4.381
    1C        C  127   4.091   2.681   4.381
    1C        C  128   4.254   2.822   4.501
    1C        C  129   4.203   2.771   4.623
    1C        C  130   4.333   2.937   4.745
    1C        C  131   4.253   2.819   4.746
    1C        C  132   4.366   3.006   4.863
    1C        C  133   4.295   2.961   4.975
    1C        C  134   3.179   2.479   2.083
    1C        C  135   3.044   2.514   2.087
    1C        C  136   3.266   2.488   2.193
    1C        C  137   3.201   2.528   2.312
    1C        C  138   3.410   2.479   2.432
    1C        C  139   3.272   2.506   2.432
    1C        C  140   3.483   2.485   2.553
    1C        C  141   3.413   2.495   2.675
    1C        C  142   3.624   2.496   2.796
    1C        C  143   3.483   2.489   2.798
    1C        C  144   3.697   2.506   2.916
    1C        C  145   3.628   2.495   3.039
    1C        C  146   3.835   2.542   3.159
    1C        C  147   3.698   2.508   3.162
    1C        C  148   3.903   2.568   3.280
    1C        C  149   3.834   2.550   3.403
    1C        C  150   4.029   2.630   3.525
    1C        C  151   3.902   2.569   3.525
    1C        C  152   4.088   2.670   3.647
    1C        C  153   4.024   2.645   3.770
    1C        C  154   4.193   2.773   3.893
    1C        C  155   4.080   2.689   3.892
    1C        C  156   4.251   2.816   4.014
    1C        C  157   4.200   2.769   4.138
    1C        C  158   4.349   2.922   4.259
    1C        C  159   4.253   2.818   4.259
    1C        C  160   4.389   2.985   4.379
    1C        C  161   4.342   2.932   4.501
    1C        C  162   4.447   3.116   4.617
    1C        C  163   4.376   2.995   4.623
    1C        C  164   4.477   3.187   4.736
    1C        C  165   4.438   3.128   4.858
    1C        C  166   4.516   3.326   4.977
    1C        C  167   4.484   3.191   4.974
    1C        C  168   3.480   2.434   2.078
    1C        C  169   3.404   2.459   2.193
    1C        C  170   3.623   2.469   2.309
    1C        C  171   3.481   2.460   2.311
    1C        C  172   3.694   2.490   2.430
    1C        C  173   3.625   2.491   2.552
    1C        C  174   3.833   2.537   2.668
    1C        C  175   3.695   2.505   2.674
    1C        C  176   3.901   2.556   2.791
    1C        C  177   3.834   2.542   2.914
    1C        C  178   4.026   2.630   3.033
    1C        C  179   3.900   2.566   3.036
    1C        C  180   4.088   2.668   3.154
    1C        C  181   4.030   2.631   3.277
    1C        C  182   4.199   2.753   3.402
    1C        C  183   4.086   2.668   3.401
    1C        C  184   4.251   2.804   3.524
    1C        C  185   4.197   2.760   3.647
    1C        C  186   4.339   2.920   3.766
    1C        C  187   4.245   2.815   3.768
    1C        C  188   4.380   2.979   3.888
    1C        C  189   4.344   2.922   4.013
    1C        C  190   4.449   3.106   4.132
    1C        C  191   4.386   2.979   4.135
    1C        C  192   4.477   3.175   4.252
    1C        C  193   4.453   3.110   4.376
    1C        C  194   4.520   3.316   4.495
    1C        C  195   4.478   3.181   4.495
    1C        C  196   4.537   3.391   4.614
    1C        C  197   4.526   3.321   4.737
    1C        C  198   4.555   3.536   4.856
    1C        C  199   4.545   3.394   4.857
    1C        C  200   4.580   3.622   4.968
    1C        C  201   3.619   2.419   2.075
    1C        C  202   3.829   2.517   2.186
    1C        C  203   3.696   2.463   2.187
    1C        C  204   3.900   2.547   2.305
    1C        C  205   3.833   2.518   2.426
    1C        C  206   4.023   2.622   2.546
    1C        C  207   3.898   2.556   2.545
    1C        C  208   4.086   2.659   2.667
    1C        C  209   4.025   2.624   2.789
    1C        C  210   4.198   2.751   2.912
    1C        C  211   4.085   2.667   2.910
    1C        C  212   4.252   2.800   3.033
    1C        C  213   4.201   2.753   3.156
    1C        C  214   4.339   2.910   3.277
    1C        C  215   4.250   2.800   3.279
    1C        C  216   4.374   2.972   3.399
    1C        C  217   4.339   2.914   3.523
    1C        C  218   4.439   3.104   3.641
    1C        C  219   4.381   2.976   3.643
    1C        C  220   4.468   3.169   3.763
    1C        C  221   4.446   3.103   3.886
    1C        C  222   4.509   3.306   4.006
    1C        C  223   4.473   3.169   4.008
    1C        C  224   4.521   3.381   4.125
    1C        C  225   4.509   3.312   4.248
    1C        C  226   4.520   3.523   4.370
    1C        C  227   4.519   3.382   4.370
    1C        C  228   4.523   3.600   4.489
    1C        C  229   4.534   3.532   4.612
    1C        C  230   4.499   3.743   4.730
    1C        C  231   4.533   3.605   4.733
    1C        C  232   4.492   3.821   4.848
    1C        C  233   4.545   3.757   4.961
    1C        C  234   4.024   2.605   2.066
    1C        C  235   3.895   2.553   2.068
    1C        C  236   4.087   2.650   2.183
    1C        C  237   4.028   2.610   2.304
    1C        C  238   4.203   2.737   2.424
    1C        C  239   4.089   2.653   2.424
    1C        C  240   4.256   2.787   2.545
    1C        C  241   4.197   2.747   2.667
    1C        C  242   4.337   2.906   2.787
    1C        C  243   4.252   2.793   2.788
    1C        C  244   4.376   2.968   2.908
    1C        C  245   4.340   2.911   3.032
    1C        C  246   4.443   3.095   3.153
    1C        C  247   4.382   2.968   3.155
    1C        C  248   4.467   3.161   3.276
    1C        C  249   4.441   3.096   3.399
    1C        C  250   4.505   3.304   3.517
    1C        C  251   4.466   3.168   3.518
    1C        C  252   4.516   3.372   3.640
    1C        C  253   4.504   3.306   3.764
    1C        C  254   4.516   3.519   3.883
    1C        C  255   4.515   3.378   3.885
    1C        C  256   4.512   3.591   4.004
    1C        C  257   4.519   3.522   4.128
    1C        C  258   4.496   3.735   4.244
    1C        C  259   4.518   3.595   4.249
    1C        C  260   4.478   3.807   4.364
    1C        C  261   4.488   3.737   4.487
    1C        C  262   4.424   3.941   4.607
    1C        C  263   4.469   3.807   4.608
    1C        C  264   4.401   4.014   4.726
    1C        C  265   4.435   3.950   4.848
    1C        C  266   4.327   4.137   4.963
    1C        C  267   4.394   4.015   4.965
    1C        C  268   4.268   2.773   2.065
    1C        C  269   4.202   2.733   2.181
    1C        C  270   4.347   2.893   2.303
    1C        C  271   4.253   2.787   2.301
    1C        C  272   4.387   2.956   2.423
    1C        C  273   4.346   2.896   2.544
    1C        C  274   4.448   3.085   2.664
    1C        C  275   4.377   2.963   2.664
    1C        C  276   4.476   3.155   2.784
    1C        C  277   4.446   3.091   2.906
    1C        C  278   4.511   3.292   3.029
    1C        C  279   4.469   3.157   3.029
    1C        C  280   4.526   3.364   3.149
    1C        C  281   4.507   3.296   3.271
    1C        C  282   4.516   3.511   3.391
    1C        C  283   4.514   3.369   3.392
    1C        C  284   4.515   3.583   3.512
    1C        C  285   4.517   3.513   3.635
    1C        C  286   4.493   3.724   3.756
    1C        C  287   4.513   3.584   3.757
    1C        C  288   4.476   3.798   3.876
    1C        C  289   4.492   3.731   4.000
    1C        C  290   4.428   3.934   4.119
    1C        C  291   4.472   3.800   4.121
    1C        C  292   4.403   4.003   4.240
    1C        C  293   4.432   3.940   4.363
    1C        C  294   4.325   4.126   4.480
    1C        C  295   4.399   4.005   4.484
    1C        C  296   4.287   4.190   4.600
    1C        C  297   4.331   4.137   4.723
    1C        C  298   4.203   4.314   4.842
    1C        C  299   4.293   4.203   4.844
    1C        C  300   4.170   4.399   4.952
    1C        C  301   4.350   2.885   2.066
    1C        C  302   4.481   3.064   2.183
    1C        C  303   4.399   2.946   2.182
    1C        C  304   4.495   3.141   2.302
    1C        C  305   4.460   3.077   2.423
    1C        C  306   4.517   3.285   2.542
    1C        C  307   4.486   3.147   2.543
    1C        C  308   4.527   3.359   2.661
    1C        C  309   4.514   3.291   2.784
    1C        C  310   4.528   3.502   2.904
    1C        C  311   4.524   3.361   2.906
    1C        C  312   4.520   3.574   3.025
    1C        C  313   4.522   3.506   3.148
    1C        C  314   4.488   3.719   3.268
    1C        C  315   4.517   3.581   3.268
    1C        C  316   4.469   3.788   3.389
    1C        C  317   4.490   3.722   3.513
    1C        C  318   4.428   3.926   3.631
    1C        C  319   4.476   3.793   3.634
    1C        C  320   4.394   3.990   3.752
    1C        C  321   4.426   3.930   3.875
    1C        C  322   4.317   4.114   3.995
    1C        C  323   4.397   3.997   3.996
    1C        C  324   4.282   4.177   4.116
    1C        C  325   4.325   4.121   4.239
    1C        C  326   4.192   4.291   4.355
    1C        C  327   4.282   4.182   4.358
    1C        C  328   4.142   4.344   4.477
    1C        C  329   4.193   4.296   4.599
    1C        C  330   4.031   4.438   4.718
    1C        C  331   4.146   4.355   4.719
    1C        C  332   3.972   4.495   4.834
    1C        C  333   4.052   4.474   4.947
    1C        C  334   4.557   3.269   2.066
    1C        C  335   4.531   3.131   2.067
    1C        C  336   4.547   3.350   2.179
    1C        C  337   4.525   3.280   2.300
    1C        C  338   4.530   3.497   2.417
    1C        C  339   4.527   3.355   2.420
    1C        C  340   4.524   3.570   2.538
    1C        C  341   4.531   3.501   2.660
    1C        C  342   4.493   3.711   2.778
    1C        C  343   4.516   3.572   2.781
    1C        C  344   4.479   3.782   2.899
    1C        C  345   4.489   3.712   3.022
    1C        C  346   4.426   3.916   3.142
    1C        C  347   4.472   3.783   3.143
    1C        C  348   4.396   3.986   3.261
    1C        C  349   4.422   3.921   3.384
    1C        C  350   4.318   4.104   3.506
    1C        C  351   4.394   3.985   3.507
    1C        C  352   4.273   4.164   3.625
    1C        C  353   4.319   4.111   3.748
    1C        C  354   4.184   4.273   3.868
    1C        C  355   4.279   4.168   3.870
    1C        C  356   4.130   4.323   3.989
    1C        C  357   4.184   4.278   4.111
    1C        C  358   4.019   4.412   4.235
    1C        C  359   4.132   4.328   4.233
    1C        C  360   3.960   4.456   4.356
    1C        C  361   4.025   4.423   4.477
    1C        C  362   3.832   4.516   4.597
    1C        C  363   3.963   4.463   4.597
    1C        C  364   3.767   4.553   4.716
    1C        C  365   3.841   4.547   4.836
    1C        C  366   3.629   4.591   4.952
    1C        C  367   3.767   4.578   4.951
    1C        C  368   4.518   3.565   2.057
    1C        C  369   4.530   3.490   2.174
    1C        C  370   4.502   3.704   2.292
    1C        C  371   4.522   3.565   2.294
    1C        C  372   4.482   3.777   2.412
    1C        C  373   4.501   3.710   2.534
    1C        C  374   4.430   3.912   2.654
    1C        C  375   4.480   3.780   2.655
    1C        C  376   4.395   3.976   2.775
    1C        C  377   4.427   3.913   2.898
    1C        C  378   4.318   4.098   3.018
    1C        C  379   4.394   3.978   3.019
    1C        C  380   4.276   4.159   3.138
    1C        C  381   4.318   4.103   3.261
    1C        C  382   4.178   4.263   3.379
    1C        C  383   4.275   4.161   3.383
    1C        C  384   4.129   4.315   3.500
    1C        C  385   4.181   4.271   3.624
    1C        C  386   4.013   4.397   3.745
    1C        C  387   4.133   4.323   3.746
    1C        C  388   3.953   4.439   3.866
    1C        C  389   4.015   4.405   3.988
    1C        C  390   3.825   4.494   4.111
    1C        C  391   3.954   4.437   4.112
    1C        C  392   3.758   4.525   4.232
    1C        C  393   3.828   4.506   4.353
    1C        C  394   3.621   4.553   4.477
    1C        C  395   3.761   4.530   4.475
    1C        C  396   3.550   4.564   4.598
    1C        C  397   3.626   4.571   4.717
    1C        C  398   3.413   4.548   4.843
    1C        C  399   3.551   4.577   4.836
    1C        C  400   3.343   4.520   4.961
    1C        C  401   4.503   3.704   2.057
    1C        C  402   4.456   3.916   2.169
    1C        C  403   4.493   3.780   2.173
    1C        C  404   4.412   3.977   2.289
    1C        C  405   4.434   3.910   2.411
    1C        C  406   4.325   4.095   2.529
    1C        C  407   4.402   3.977   2.531
    1C        C  408   4.283   4.152   2.651
    1C        C  409   4.321   4.096   2.775
    1C        C  410   4.176   4.254   2.890
    1C        C  411   4.273   4.151   2.896
    1C        C  412   4.124   4.301   3.013
    1C        C  413   4.176   4.258   3.137
    1C        C  414   4.006   4.389   3.256
    1C        C  415   4.122   4.310   3.257
    1C        C  416   3.946   4.425   3.379
    1C        C  417   4.011   4.393   3.500
    1C        C  418   3.818   4.479   3.622
    1C        C  419   3.949   4.426   3.622
    1C        C  420   3.751   4.498   3.745
    1C        C  421   3.820   4.487   3.868
    1C        C  422   3.615   4.539   3.991
    1C        C  423   3.754   4.512   3.990
    1C        C  424   3.546   4.542   4.114
    1C        C  425   3.619   4.544   4.235
    1C        C  426   3.406   4.547   4.358
    1C        C  427   3.547   4.551   4.356
    1C        C  428   3.337   4.540   4.480
    1C        C  429   3.409   4.557   4.600
    1C        C  430   3.200   4.515   4.726
    1C        C  431   3.339   4.545   4.723
    1C        C  432   3.129   4.493   4.847
    1C        C  433   3.207   4.491   4.964
    1C        C  434   4.387   4.127   2.055
    1C        C  435   4.451   4.003   2.059
    1C        C  436   4.307   4.169   2.166
    1C        C  437   4.336   4.098   2.286
    1C        C  438   4.185   4.252   2.406
    1C        C  439   4.284   4.151   2.406
    1C        C  440   4.129   4.299   2.527
    1C        C  441   4.184   4.252   2.648
    1C        C  442   4.007   4.379   2.769
    1C        C  443   4.126   4.302   2.767
    1C        C  444   3.947   4.418   2.891
    1C        C  445   4.010   4.384   3.013
    1C        C  446   3.815   4.475   3.134
    1C        C  447   3.946   4.422   3.132
    1C        C  448   3.748   4.498   3.256
    1C        C  449   3.814   4.476   3.379
    1C        C  450   3.609   4.526   3.499
    1C        C  451   3.748   4.503   3.501
    1C        C  452   3.542   4.536   3.623
    1C        C  453   3.614   4.530   3.745
    1C        C  454   3.404   4.542   3.869
    1C        C  455   3.546   4.544   3.868
    1C        C  456   3.334   4.535   3.991
    1C        C  457   3.405   4.542   4.114
    1C        C  458   3.198   4.503   4.241
    1C        C  459   3.334   4.537   4.236
    1C        C  460   3.131   4.482   4.364
    1C        C  461   3.198   4.511   4.485
    1C        C  462   3.000   4.434   4.605
    1C        C  463   3.129   4.491   4.607
    1C        C  464   2.936   4.400   4.726
    1C        C  465   2.994   4.444   4.848
    1C        C  466   2.801   4.342   4.959
    1C        C  467   2.910   4.430   4.963
    1C        C  468   4.127   4.289   2.046
    1C        C  469   4.196   4.259   2.165
    1C        C  470   4.010   4.373   2.283
    1C        C  471   4.133   4.302   2.285
    1C        C  472   3.946   4.410   2.403
    1C        C  473   4.009   4.374   2.524
    1C        C  474   3.817   4.465   2.647
    1C        C  475   3.944   4.404   2.645
    1C        C  476   3.751   4.495   2.768
    1C        C  477   3.817   4.472   2.891
    1C        C  478   3.608   4.521   3.012
    1C        C  479   3.747   4.493   3.012
    1C        C  480   3.536   4.530   3.133
    1C        C  481   3.609   4.524   3.254
    1C        C  482   3.398   4.534   3.379
    1C        C  483   3.539   4.533   3.377
    1C        C  484   3.330   4.528   3.503
    1C        C  485   3.400   4.539   3.624
    1C        C  486   3.195   4.502   3.749
    1C        C  487   3.332   4.538   3.748
    1C        C  488   3.130   4.482   3.873
    1C        C  489   3.196   4.508   3.995
    1C        C  490   3.007   4.417   4.120
    1C        C  491   3.130   4.486   4.118
    1C        C  492   2.943   4.387   4.243
    1C        C  493   3.000   4.429   4.365
    1C        C  494   2.825   4.308   4.485
    1C        C  495   2.935   4.396   4.486
    1C        C  496   2.777   4.256   4.608
    1C        C  497   2.830   4.306   4.729
    1C        C  498   2.663   4.168   4.848
    1C        C  499   2.759   4.272   4.846
    1C        C  500   2.598   4.119   4.962
    1C        C  501   4.009   4.362   2.046
    1C        C  502   3.816   4.464   2.161
    1C        C  503   3.946   4.409   2.162
    1C        C  504   3.743   4.478   2.281
    1C        C  505   3.816   4.465   2.401
    1C        C  506   3.609   4.503   2.523
    1C        C  507   3.749   4.482   2.524
    1C        C  508   3.539   4.516   2.645
    1C        C  509   3.611   4.518   2.767
    1C        C  510   3.399   4.522   2.889
    1C        C  511   3.540   4.525   2.888
    1C        C  512   3.324   4.526   3.008
    1C        C  513   3.395   4.535   3.130
    1C        C  514   3.194   4.489   3.260
    1C        C  515   3.330   4.527   3.256
    1C        C  516   3.126   4.470   3.383
    1C        C  517   3.193   4.495   3.505
    1C        C  518   2.998   4.418   3.631
    1C        C  519   3.126   4.477   3.628
    1C        C  520   2.943   4.377   3.755
    1C        C  521   3.007   4.412   3.876
    1C        C  522   2.835   4.290   4.000
    1C        C  523   2.948   4.375   3.999
    1C        C  524   2.790   4.239   4.124
    1C        C  525   2.834   4.297   4.244
    1C        C  526   2.698   4.133   4.366
    1C        C  527   2.780   4.249   4.365
    1C        C  528   2.656   4.077   4.489
    1C        C  529   2.687   4.147   4.607
    1C        C  530   2.589   3.962   4.735
    1C        C  531   2.641   4.094   4.730
    1C        C  532   2.546   3.904   4.858
    1C        C  533   2.525   4.000   4.963
    1C        C  534   3.623   4.559   2.044
    1C        C  535   3.755   4.512   2.044
    1C        C  536   3.537   4.543   2.157
    1C        C  537   3.606   4.515   2.278
    1C        C  538   3.398   4.521   2.405
    1C        C  539   3.539   4.521   2.402
    1C        C  540   3.325   4.508   2.526
    1C        C  541   3.398   4.515   2.646
    1C        C  542   3.187   4.491   2.771
    1C        C  543   3.326   4.516   2.768
    1C        C  544   3.122   4.464   2.893
    1C        C  545   3.187   4.491   3.016
    1C        C  546   2.997   4.407   3.140
    1C        C  547   3.122   4.473   3.140
    1C        C  548   2.945   4.364   3.264
    1C        C  549   3.002   4.403   3.387
    1C        C  550   2.830   4.285   3.510
    1C        C  551   2.940   4.374   3.510
    1C        C  552   2.780   4.239   3.633
    1C        C  553   2.834   4.286   3.755
    1C        C  554   2.699   4.127   3.878
    1C        C  555   2.786   4.239   3.879
    1C        C  556   2.659   4.071   4.001
    1C        C  557   2.700   4.130   4.123
    1C        C  558   2.593   3.947   4.248
    1C        C  559   2.657   4.074   4.245
    1C        C  560   2.565   3.885   4.372
    1C        C  561   2.587   3.953   4.494
    1C        C  562   2.526   3.753   4.618
    1C        C  563   2.561   3.890   4.617
    1C        C  564   2.512   3.684   4.741
    1C        C  565   2.527   3.763   4.858
    1C        C  566   2.535   3.550   4.980
    1C        C  567   2.529   3.688   4.977
    1C        C  568   3.331   4.478   2.047
    1C        C  569   3.397   4.518   2.163
    1C        C  570   3.185   4.487   2.284
    1C        C  571   3.324   4.519   2.285
    1C        C  572   3.122   4.457   2.407
    1C        C  573   3.187   4.478   2.530
    1C        C  574   2.990   4.401   2.652
    1C        C  575   3.115   4.467   2.652
    1C        C  576   2.935   4.359   2.775
    1C        C  577   2.997   4.398   2.896
    1C        C  578   2.827   4.277   3.021
    1C        C  579   2.937   4.365   3.019
    1C        C  580   2.781   4.225   3.144
    1C        C  581   2.836   4.274   3.265
    1C        C  582   2.698   4.116   3.391
    1C        C  583   2.787   4.226   3.389
    1C        C  584   2.658   4.060   3.515
    1C        C  585   2.697   4.125   3.634
    1C        C  586   2.592   3.942   3.759
    1C        C  587   2.660   4.066   3.757
    1C        C  588   2.570   3.877   3.882
    1C        C  589   2.597   3.944   4.004
    1C        C  590   2.534   3.743   4.128
    1C        C  591   2.568   3.880   4.126
    1C        C  592   2.523   3.678   4.253
    1C        C  593   2.532   3.748   4.375
    1C        C  594   2.524   3.538   4.501
    1C        C  595   2.523   3.679   4.498
    1C        C  596   2.519   3.469   4.624
    1C        C  597   2.516   3.542   4.745
    1C        C  598   2.528   3.329   4.865
    1C        C  599   2.524   3.470   4.866
    1C        C  600   2.528   3.251   4.982
    1C        C  601   3.197   4.445   2.050
    1C        C  602   2.984   4.400   2.165
    1C        C  603   3.117   4.453   2.164
    1C        C  604   2.926   4.365   2.290
    1C        C  605   2.991   4.404   2.409
    1C        C  606   2.822   4.273   2.531
    1C        C  607   2.929   4.366   2.530
    1C        C  608   2.778   4.219   2.654
    1C        C  609   2.825   4.270   2.776
    1C        C  610   2.691   4.110   2.900
    1C        C  611   2.778   4.222   2.901
    1C        C  612   2.654   4.055   3.024
    1C        C  613   2.695   4.113   3.146
    1C        C  614   2.596   3.930   3.271
    1C        C  615   2.655   4.058   3.270
    1C        C  616   2.568   3.867   3.394
    1C        C  617   2.595   3.934   3.516
    1C        C  618   2.529   3.735   3.641
    1C        C  619   2.568   3.871   3.639
    1C        C  620   2.519   3.667   3.765
    1C        C  621   2.533   3.741   3.884
    1C        C  622   2.518   3.530   4.011
    1C        C  623   2.523   3.671   4.007
    1C        C  624   2.524   3.462   4.135
    1C        C  625   2.520   3.537   4.255
    1C        C  626   2.550   3.330   4.382
    1C        C  627   2.525   3.469   4.378
    1C        C  628   2.571   3.261   4.503
    1C        C  629   2.543   3.330   4.623
    1C        C  630   2.597   3.124   4.747
    1C        C  631   2.557   3.260   4.745
    1C        C  632   2.620   3.054   4.869
    1C        C  633   2.565   3.116   4.986
    1C        C  634   2.789   4.304   2.055
    1C        C  635   2.893   4.397   2.054
    1C        C  636   2.755   4.233   2.171
    1C        C  637   2.814   4.278   2.291
    1C        C  638   2.681   4.110   2.411
    1C        C  639   2.765   4.223   2.412
    1C        C  640   2.643   4.052   2.534
    1C        C  641   2.685   4.113   2.654
    1C        C  642   2.585   3.928   2.780
    1C        C  643   2.646   4.056   2.777
    1C        C  644   2.567   3.860   2.902
    1C        C  645   2.596   3.926   3.024
    1C        C  646   2.534   3.727   3.151
    1C        C  647   2.577   3.862   3.149
    1C        C  648   2.520   3.658   3.274
    1C        C  649   2.535   3.730   3.394
    1C        C  650   2.515   3.524   3.520
    1C        C  651   2.516   3.665   3.519
    1C        C  652   2.520   3.455   3.643
    1C        C  653   2.516   3.526   3.765
    1C        C  654   2.544   3.319   3.892
    1C        C  655   2.518   3.458   3.889
    1C        C  656   2.558   3.253   4.016
    1C        C  657   2.538   3.321   4.138
    1C        C  658   2.612   3.125   4.261
    1C        C  659   2.561   3.256   4.261
    1C        C  660   2.644   3.064   4.385
    1C        C  661   2.611   3.125   4.507
    1C        C  662   2.711   2.939   4.626
    1C        C  663   2.631   3.055   4.628
    1C        C  664   2.752   2.879   4.747
    1C        C  665   2.700   2.935   4.867
    1C        C  666   2.743   2.874   4.985
    1C        C  667   2.687   4.026   2.057
    1C        C  668   2.688   4.108   2.170
    1C        C  669   2.594   3.914   2.294
    1C        C  670   2.644   4.047   2.289
    1C        C  671   2.568   3.849   2.417
    1C        C  672   2.587   3.922   2.537
    1C        C  673   2.520   3.723   2.664
    1C        C  674   2.562   3.858   2.660
    1C        C  675   2.512   3.652   2.786
    1C        C  676   2.534   3.723   2.907
    1C        C  677   2.510   3.515   3.033
    1C        C  678   2.522   3.655   3.030
    1C        C  679   2.515   3.443   3.154
    1C        C  680   2.516   3.517   3.275
    1C        C  681   2.543   3.312   3.404
    1C        C  682   2.516   3.451   3.400
    1C        C  683   2.563   3.243   3.526
    1C        C  684   2.542   3.315   3.646
    1C        C  685   2.613   3.120   3.772
    1C        C  686   2.561   3.251   3.770
    1C        C  687   2.648   3.059   3.895
    1C        C  688   2.614   3.123   4.016
    1C        C  689   2.711   2.937   4.141
    1C        C  690   2.639   3.059   4.139
    1C        C  691   2.759   2.884   4.262
    1C        C  692   2.716   2.942   4.384
    1C        C  693   2.757   2.882   4.505
    1C        C  694   2.629   3.898   2.055
    1C        C  695   2.527   3.711   2.178
    1C        C  696   2.581   3.842   2.174
    1C        C  697   2.507   3.644   2.300
    1C        C  698   2.523   3.716   2.420
    1C        C  699   2.492   3.508   2.543
    1C        C  700   2.507   3.649   2.544
    1C        C  701   2.500   3.440   2.666
    1C        C  702   2.503   3.511   2.788
    1C        C  703   2.526   3.302   2.913
    1C        C  704   2.506   3.442   2.911
    1C        C  705   2.545   3.234   3.035
    1C        C  706   2.541   3.304   3.158
    1C        C  707   2.603   3.108   3.281
    1C        C  708   2.551   3.239   3.283
    1C        C  709   2.638   3.047   3.404
    1C        C  710   2.612   3.111   3.527
    1C        C  711   2.717   2.932   3.652
    1C        C  712   2.641   3.051   3.652
    1C        C  713   2.761   2.879   3.775
    1C        C  714   2.721   2.938   3.897
    1C        C  715   2.762   2.883   4.021
    1C        C  716   2.452   3.504   2.062
    1C        C  717   2.489   3.639   2.063
    1C        C  718   2.468   3.429   2.183
    1C        C  719   2.483   3.504   2.304
    1C        C  720   2.518   3.293   2.428
    1C        C  721   2.489   3.431   2.425
    1C        C  722   2.536   3.226   2.551
    1C        C  723   2.521   3.300   2.670
    1C        C  724   2.592   3.099   2.794
    1C        C  725   2.539   3.230   2.792
    1C        C  726   2.614   3.033   2.916
    1C        C  727   2.582   3.098   3.038
    1C        C  728   2.704   2.923   3.158
    1C        C  729   2.625   3.040   3.159
    1C        C  730   2.752   2.871   3.281
    1C        C  731   2.712   2.927   3.404
    1C        C  732   2.758   2.877   3.529
    1C        C  733   2.497   3.202   2.079
    1C        C  734   2.490   3.288   2.190
    1C        C  735   2.592   3.091   2.307
    1C        C  736   2.536   3.222   2.307
    1C        C  737   2.624   3.030   2.430
    1C        C  738   2.594   3.097   2.551
    1C        C  739   2.699   2.913   2.673
    1C        C  740   2.626   3.034   2.673
    1C        C  741   2.743   2.858   2.795
    1C        C  742   2.701   2.921   2.915
    1C        C  743   2.750   2.869   3.036
    1C        C  744   2.546   3.072   2.078
    1C        C  745   2.687   2.898   2.190
    1C        C  746   2.614   3.018   2.188
    1C        C  747   2.735   2.844   2.312
    1C        C  748   2.692   2.906   2.432
    1C        C  749   2.738   2.850   2.553
    1C        C  750   2.738   2.845   2.070
    1C        C  751   3.663   2.307   1.989
    1C        O  752   3.688   2.192   2.035
    1C        O  753   3.659   2.316   1.849
    1C        C  754   4.603   3.058   1.961
    1C        O  755   4.586   3.080   1.838
    1C        O  756   4.706   2.967   1.989
    1C        C  757   4.465   4.230   1.982
    1C        O  758   4.563   4.284   2.039
    1C        O  759   4.461   4.259   1.845
    1C        C  760   3.595   4.642   1.925
    1C        O  761   3.625   4.765   1.932
    1C        O  762   3.523   4.598   1.813
    1C        C  763   2.866   4.519   1.976
    1C        O  764   2.892   4.521   1.853
    1C        O  765   2.766   4.610   2.015
    1C        C  766   2.382   3.456   1.941
    1C        O  767   2.426   3.483   1.826
    1C        O  768   2.248   3.419   1.949
    1C        C  769   4.690   3.599   5.064
    1C        O  770   4.667   3.565   5.183
    1C        O  771   4.819   3.652   5.057
    1C        C  772   4.277   4.447   5.043
    1C        O  773   4.268   4.416   5.165
    1C        O  774   4.411   4.473   5.011
    1C        C  775   4.145   2.510   5.077
    1C        O  776   4.190   2.401   5.034
    1C        O  777   4.117   2.519   5.214
    1C        C  778   2.885   4.551   5.045
    1C        O  779   2.777   4.614   5.031
    1C        O  780   2.928   4.567   5.178
    1C        C  781   2.471   3.050   5.078
    1C        O  782   2.371   2.998   5.023
    1C        O  783   2.514   2.971   5.185
    1C        C  784   2.391   4.017   5.022
    1C        O  785   2.290   4.047   4.952
    1C        O  786   2.345   3.957   5.141
    1C        C  787   2.962   2.458   1.977
    1C        O  788   2.972   2.520   1.868
    1C        O  789   2.943   2.323   1.947
    1C        C  790   3.180   2.370   5.049
    1C        O  791   3.128   2.272   4.990
    1C        O  792   3.212   2.363   5.185
    1C        H  793   4.297   3.020   5.064
    1C        H  794   4.150   2.834   5.057
    1C        H  795   4.540   3.131   5.042
    1C        H  796   4.536   3.366   5.074
    1C        H  797   4.585   3.823   5.035
    1C        H  798   4.433   3.977   5.057
    1C        H  799   4.329   4.189   5.056
    1C        H  800   4.051   4.556   5.015
    1C        H  801   3.816   4.571   5.046
    1C        H  802   3.580   4.644   5.031
    1C        H  803   3.397   4.496   5.050
    1C        H  804   3.161   4.483   5.060
    1C        H  805   3.892   2.486   5.067
    1C        H  806   3.680   2.439   5.072
    1C        H  807   3.013   2.583   5.077
    1C        H  808   3.451   2.540   5.064
    1C        H  809   2.882   2.751   5.079
    1C        H  810   2.709   2.903   5.082
    1C        H  811   2.492   3.299   5.071
    1C        H  812   2.522   3.509   5.078
    1C        H  813   2.496   3.742   5.063
    1C        H  814   2.555   4.195   5.024
    1C        H  815   2.750   4.325   5.052
    1C        H  816   2.677   2.841   1.982
    1C        H  817   2.875   2.721   1.980
    1C        H  818   3.203   2.399   2.015
    1C        H  819   3.437   2.452   1.982
    1C        H  820   3.867   2.496   1.981
    1C        H  821   4.042   2.669   1.983
    1C        H  822   4.290   2.696   1.993
    1C        H  823   4.404   2.900   1.975
    1C        H  824   4.621   3.306   1.988
    1C        H  825   4.463   3.525   1.974
    1C        H  826   4.551   3.752   1.974
    1C        H  827   3.788   4.461   1.956
    1C        H  828   4.004   4.430   1.963
    1C        H  829   4.158   4.239   1.957
    1C        H  830   4.509   3.975   1.973
    1C        H  831   2.628   3.842   1.965
    1C        H  832   2.763   4.042   1.983
    1C        H  833   2.704   4.336   1.998
    1C        H  834   3.386   4.421   1.975
    1C        H  835   3.163   4.376   1.975
    1C        H  836   2.536   3.016   1.987
    1C        H  837   2.464   3.235   1.983
    1C        H  838   2.482   3.693   1.971
    2V3OU   H29  839   2.812   3.562   2.510
    2V3OU   C27  840   2.791   3.506   2.604
    2V3OU   H27  841   2.737   3.571   2.678
    2V3OU   H28  842   2.741   3.408   2.582
    2V3OU   O11  843   2.917   3.477   2.665
    2V3OU   C15  844   2.933   3.401   2.779
    2V3OU   C13  845   3.057   3.374   2.840
    2V3OU   C14  846   3.083   3.267   2.926
    2V3OU   C16  847   2.981   3.182   2.966
    2V3OU    H6  848   2.995   3.102   3.040
    2V3OU   C12  849   3.218   3.225   2.971
    2V3OU    O2  850   3.243   3.126   3.043
    2V3OU   C10  851   3.332   3.307   2.928
    2V3OU    C8  852   3.463   3.267   2.952
    2V3OU   O10  853   3.487   3.150   3.018
    2V3OU   H26  854   3.400   3.114   3.041
    2V3OU    C6  855   3.570   3.351   2.910
    2V3OU    C5  856   3.542   3.471   2.846
    2V3OU    C4  857   3.708   3.295   2.918
    2V3OU    H4  858   3.725   3.234   3.012
    2V3OU    H5  859   3.720   3.224   2.831
    2V3OU    C2  860   3.820   3.399   2.907
    2V3OU    O6  861   3.820   3.481   3.024
    2V3OU   H21  862   3.765   3.560   3.009
    2V3OU    C3  863   3.787   3.500   2.797
    2V3OU    H2  864   3.865   3.580   2.785
    2V3OU    H3  865   3.793   3.449   2.697
    2V3OU   C25  866   3.955   3.329   2.898
    2V3OU    O7  867   4.005   3.303   2.788
    2V3OU   C26  868   4.031   3.296   3.025
    2V3OU   H22  869   4.064   3.391   3.075
    2V3OU   H23  870   4.125   3.241   2.999
    2V3OU    O8  871   3.967   3.213   3.120
    2V3OU   H24  872   3.929   3.269   3.190
    2V3OU    C1  873   3.651   3.567   2.812
    2V3OU    H1  874   3.624   3.618   2.715
    2V3OU    O3  875   3.654   3.652   2.927
    2V3OU   C19  876   3.620   3.791   2.919
    2V3OU    H9  877   3.524   3.810   2.862
    2V3OU    O4  878   3.719   3.855   2.840
    2V3OU   C20  879   3.854   3.878   2.881
    2V3OU   H10  880   3.894   3.773   2.885
    2V3OU   C24  881   3.613   3.860   3.055
    2V3OU   H16  882   3.544   3.801   3.122
    2V3OU   H17  883   3.573   3.964   3.040
    2V3OU   C23  884   3.753   3.879   3.111
    2V3OU   H15  885   3.797   3.776   3.130
    2V3OU    N1  886   3.737   3.954   3.235
    2V3OU   H19  887   3.807   3.922   3.299
    2V3OU   H20  888   3.642   3.928   3.254
    2V3OU   C21  889   3.852   3.952   3.015
    2V3OU   H11  890   3.951   3.931   3.065
    2V3OU    O5  891   3.833   4.093   3.018
    2V3OU   H18  892   3.789   4.109   3.104
    2V3OU   C22  893   3.917   3.954   2.765
    2V3OU   H12  894   3.861   4.049   2.744
    2V3OU   H13  895   3.907   3.890   2.673
    2V3OU   H14  896   4.026   3.964   2.786
    2V3OU   C11  897   3.167   3.468   2.812
    2V3OU    O1  898   3.141   3.584   2.774
    2V3OU    C9  899   3.301   3.428   2.860
    2V3OU    C7  900   3.407   3.509   2.819
    2V3OU    O9  901   3.394   3.624   2.744
    2V3OU   H25  902   3.297   3.625   2.737
    2V3OU   C17  903   2.829   3.318   2.828
    2V3OU    H7  904   2.728   3.358   2.814
    2V3OU   C18  905   2.856   3.214   2.915
    2V3OU    H8  906   2.783   3.169   2.984
    3SOL     OW  907   2.583   5.518   0.258
    3SOL    HW1  908   2.670   5.567   0.257
    3SOL    HW2  909   2.558   5.494   0.165
    4SOL     OW  910   6.603   0.139   2.147
    4SOL    HW1  911   6.631   0.134   2.051
    4SOL    HW2  912   6.532   0.071   2.164
    5SOL     OW  913   4.321   1.661   2.458
    5SOL    HW1  914   4.407   1.701   2.491
    5SOL    HW2  915   4.283   1.719   2.387
    6SOL     OW  916   3.941   0.985   1.775
    6SOL    HW1  917   4.008   0.940   1.834
    6SOL    HW2  918   3.899   0.917   1.715
    7SOL     OW  919   0.087   4.055   3.159
    7SOL    HW1  920   0.116   4.028   3.250
    7SOL    HW2  921   0.030   4.137   3.164
    8SOL     OW  922   3.256   1.019   6.860
    8SOL    HW1  923   3.223   0.976   6.777
    8SOL    HW2  924   3.334   1.078   6.839
    9SOL     OW  925   4.913   0.580   5.828
    9SOL    HW1  926   4.863   0.623   5.752
    9SOL    HW2  927   4.926   0.646   5.901
   10SOL     OW  928   1.803   5.087   5.251
   10SOL    HW1  929   1.743   5.028   5.305
   10SOL    HW2  930   1.879   5.032   5.214
   11SOL     OW  931   2.953   0.733   5.661
   11SOL    HW1  932   2.904   0.721   5.575
   11SOL    HW2  933   2.915   0.811   5.711
   12SOL     OW  934   3.594   5.655   3.543
   12SOL    HW1  935   3.521   5.641   3.476
   12SOL    HW2  936   3.556   5.696   3.625
   13SOL     OW  937   4.251   6.407   3.497
   13SOL    HW1  938   4.334   6.353   3.506
   13SOL    HW2  939   4.173   6.356   3.533
   14SOL     OW  940   3.652   5.410   5.668
   14SOL    HW1  941   3.750   5.411   5.689
   14SOL    HW2  942   3.617   5.318   5.681
   15SOL     OW  943   0.902   6.589   1.998
   15SOL    HW1  944   0.925   6.653   2.071
   15SOL    HW2  945   0.923   6.496   2.028
   16SOL     OW  946   5.661   2.329   5.770
   16SOL    HW1  947   5.684   2.364   5.679
   16SOL    HW2  948   5.744   2.294   5.814
   17SOL     OW  949   5.379   6.584   6.642
   17SOL    HW1  950   5.454   6.605   6.579
   17SOL    HW2  951   5.385   6.645   6.721
   18SOL     OW  952   3.247   1.044   5.513
   18SOL    HW1  953   3.194   1.102   5.574
   18SOL    HW2  954   3.311   0.989   5.566
   19SOL     OW  955   0.291   1.174   2.785
   19SOL    HW1  956   0.333   1.166   2.876
   19SOL    HW2  957   0.218   1.106   2.777
   20SOL     OW  958   5.425   1.711   4.247
   20SOL    HW1  959   5.394   1.722   4.341
   20SOL    HW2  960   5.404   1.794   4.195
   21SOL     OW  961   3.257   1.187   2.598
   21SOL    HW1  962   3.261   1.247   2.518
   21SOL    HW2  963   3.349   1.177   2.636
   22SOL     OW  964   1.363   6.535   6.807
   22SOL    HW1  965   1.368   6.564   6.903
   22SOL    HW2  966   1.287   6.581   6.762
   23SOL     OW  967   5.642   5.465   3.040
   23SOL    HW1  968   5.683   5.385   3.084
   23SOL    HW2  969   5.547   5.474   3.070
   24SOL     OW  970   3.677   0.071   3.505
   24SOL    HW1  971   3.721   7.012   3.517
   24SOL    HW2  972   3.719   0.137   3.567
   25SOL     OW  973   3.601   0.535   4.723
   25SOL    HW1  974   3.525   0.471   4.730
   25SOL    HW2  975   3.669   0.500   4.660
   26SOL     OW  976   6.792   0.578   0.592
   26SOL    HW1  977   6.828   0.486   0.610
   26SOL    HW2  978   6.712   0.571   0.534
   27SOL     OW  979   1.583   2.076   2.989
   27SOL    HW1  980   1.556   2.119   3.075
   27SOL    HW2  981   1.502   2.041   2.942
   28SOL     OW  982   2.661   1.034   5.860
   28SOL    HW1  983   2.616   1.036   5.949
   28SOL    HW2  984   2.683   0.940   5.835
   29SOL     OW  985   6.282   1.982   2.100
   29SOL    HW1  986   6.373   2.016   2.121
   29SOL    HW2  987   6.244   1.937   2.181
   30SOL     OW  988   3.738   1.162   3.739
   30SOL    HW1  989   3.642   1.189   3.732
   30SOL    HW2  990   3.795   1.233   3.698
   31SOL     OW  991   0.835   2.784   6.700
   31SOL    HW1  992   0.815   2.864   6.758
   31SOL    HW2  993   0.903   2.809   6.631
   32SOL     OW  994   6.758   1.952   2.737
   32SOL    HW1  995   6.713   1.992   2.817
   32SOL    HW2  996   6.764   1.853   2.749
   33SOL     OW  997   1.133   4.987   5.584
   33SOL    HW1  998   1.053   4.926   5.580
   33SOL    HW2  999   1.164   5.006   5.491
   34SOL     OW 1000   2.883   6.957   4.896
   34SOL    HW1 1001   2.934   0.004   4.934
   34SOL    HW2 1002   2.806   6.992   4.842
   35SOL     OW 1003   4.387   3.018   6.534
   35SOL    HW1 1004   4.415   3.106   6.495
   35SOL    HW2 1005   4.422   3.011   6.627
   36SOL     OW 1006   5.641   1.147   4.869
   36SOL    HW1 1007   5.699   1.075   4.908
   36SOL    HW2 1008   5.554   1.150   4.917
   37SOL     OW 1009   1.377   1.919   0.115
   37SOL    HW1 1010   1.383   2.019   0.109
   37SOL    HW2 1011   1.414   1.878   0.032
   38SOL     OW 1012   0.609   5.238   2.500
   38SOL    HW1 1013   0.529   5.179   2.490
   38SOL    HW2 1014   0.618   5.266   2.596
   39SOL     OW 1015   6.921   4.110   6.892
   39SOL    HW1 1016   6.949   4.206   6.896
   39SOL    HW2 1017   6.821   4.105   6.885
   40SOL     OW 1018   4.652   1.708   0.531
   40SOL    HW1 1019   4.699   1.701   0.443
   40SOL    HW2 1020   4.689   1.785   0.583
   41SOL     OW 1021   6.845   4.687   3.494
   41SOL    HW1 1022   6.772   4.622   3.513
   41SOL    HW2 1023   6.861   4.691   3.395
   42SOL     OW 1024   3.038   4.968   4.405
   42SOL    HW1 1025   2.978   4.903   4.359
   42SOL    HW2 1026   2.984   5.045   4.438
   43SOL     OW 1027   5.077   6.885   5.669
   43SOL    HW1 1028   5.104   6.895   5.573
   43SOL    HW2 1029   5.159   6.878   5.726
   44SOL     OW 1030   4.412   2.056   6.624
   44SOL    HW1 1031   4.437   2.075   6.528
   44SOL    HW2 1032   4.420   1.958   6.642
   45SOL     OW 1033   4.769   5.844   1.760
   45SOL    HW1 1034   4.700   5.794   1.813
   45SOL    HW2 1035   4.729   5.928   1.724
   46SOL     OW 1036   0.536   3.324   3.412
   46SOL    HW1 1037   0.597   3.246   3.411
   46SOL    HW2 1038   0.441   3.293   3.411
   47SOL     OW 1039   4.650   4.219   0.804
   47SOL    HW1 1040   4.683   4.250   0.893
   47SOL    HW2 1041   4.724   4.171   0.756
   48SOL     OW 1042   6.597   3.144   6.136
   48SOL    HW1 1043   6.645   3.133   6.224
   48SOL    HW2 1044   6.638   3.083   6.068
   49SOL     OW 1045   5.482   3.416   1.484
   49SOL    HW1 1046   5.564   3.388   1.534
   49SOL    HW2 1047   5.505   3.429   1.387
   50SOL     OW 1048   5.381   1.051   4.978
   50SOL    HW1 1049   5.311   1.122   4.978
   50SOL    HW2 1050   5.388   1.011   4.887
   51SOL     OW 1051   2.270   6.602   3.527
   51SOL    HW1 1052   2.297   6.607   3.431
   51SOL    HW2 1053   2.175   6.632   3.537
   52SOL     OW 1054   6.033   3.478   2.692
   52SOL    HW1 1055   5.983   3.489   2.607
   52SOL    HW2 1056   6.002   3.395   2.739
   53SOL     OW 1057   4.774   6.840   3.769
   53SOL    HW1 1058   4.705   6.906   3.800
   53SOL    HW2 1059   4.836   6.819   3.845
   54SOL     OW 1060   4.583   5.053   1.152
   54SOL    HW1 1061   4.588   4.967   1.100
   54SOL    HW2 1062   4.650   5.117   1.115
   55SOL     OW 1063   1.728   3.074   6.157
   55SOL    HW1 1064   1.677   3.152   6.120
   55SOL    HW2 1065   1.716   2.995   6.097
   56SOL     OW 1066   0.030   1.194   0.671
   56SOL    HW1 1067   7.007   1.191   0.755
   56SOL    HW2 1068   0.112   1.249   0.686
   57SOL     OW 1069   4.493   0.735   1.341
   57SOL    HW1 1070   4.570   0.797   1.359
   57SOL    HW2 1071   4.488   0.716   1.243
   58SOL     OW 1072   0.212   6.631   5.459
   58SOL    HW1 1073   0.270   6.553   5.435
   58SOL    HW2 1074   0.249   6.714   5.417
   59SOL     OW 1075   0.769   2.448   5.922
   59SOL    HW1 1076   0.834   2.374   5.903
   59SOL    HW2 1077   0.819   2.531   5.948
   60SOL     OW 1078   5.225   2.767   4.445
   60SOL    HW1 1079   5.200   2.758   4.349
   60SOL    HW2 1080   5.214   2.863   4.473
   61SOL     OW 1081   6.551   2.186   4.187
   61SOL    HW1 1082   6.452   2.192   4.192
   61SOL    HW2 1083   6.580   2.181   4.091
   62SOL     OW 1084   1.004   1.094   1.715
   62SOL    HW1 1085   1.076   1.157   1.684
   62SOL    HW2 1086   1.039   1.001   1.716
   63SOL     OW 1087   5.335   1.428   3.413
   63SOL    HW1 1088   5.403   1.403   3.482
   63SOL    HW2 1089   5.250   1.455   3.459
   64SOL     OW 1090   0.474   2.981   6.296
   64SOL    HW1 1091   0.421   2.971   6.380
   64SOL    HW2 1092   0.506   3.075   6.288
   65SOL     OW 1093   0.870   4.527   6.509
   65SOL    HW1 1094   0.854   4.460   6.582
   65SOL    HW2 1095   0.866   4.480   6.421
   66SOL     OW 1096   3.938   1.062   5.016
   66SOL    HW1 1097   3.924   0.978   5.068
   66SOL    HW2 1098   4.026   1.058   4.968
   67SOL     OW 1099   0.005   3.250   5.588
   67SOL    HW1 1100   0.052   3.281   5.505
   67SOL    HW2 1101   6.950   3.204   5.562
   68SOL     OW 1102   6.132   1.156   6.894
   68SOL    HW1 1103   6.113   1.255   6.888
   68SOL    HW2 1104   6.165   1.124   6.806
   69SOL     OW 1105   0.866   3.278   6.264
   69SOL    HW1 1106   0.962   3.275   6.290
   69SOL    HW2 1107   0.843   3.369   6.229
   70SOL     OW 1108   5.391   4.440   4.976
   70SOL    HW1 1109   5.313   4.444   4.914
   70SOL    HW2 1110   5.425   4.346   4.980
   71SOL     OW 1111   3.799   1.893   3.611
   71SOL    HW1 1112   3.707   1.867   3.581
   71SOL    HW2 1113   3.862   1.818   3.592
   72SOL     OW 1114   1.516   0.366   3.781
   72SOL    HW1 1115   1.589   0.413   3.730
   72SOL    HW2 1116   1.555   0.324   3.862
   73SOL     OW 1117   3.876   0.673   1.335
   73SOL    HW1 1118   3.891   0.594   1.396
   73SOL    HW2 1119   3.819   0.740   1.382
   74SOL     OW 1120   4.005   0.658   0.416
   74SOL    HW1 1121   4.007   0.618   0.324
   74SOL    HW2 1122   4.019   0.586   0.484
   75SOL     OW 1123   4.474   1.069   1.015
   75SOL    HW1 1124   4.560   1.098   1.058
   75SOL    HW2 1125   4.431   0.999   1.071
   76SOL     OW 1126   3.010   3.492   1.274
   76SOL    HW1 1127   3.092   3.495   1.331
   76SOL    HW2 1128   2.946   3.426   1.312
   77SOL     OW 1129   0.708   0.253   3.650
   77SOL    HW1 1130   0.766   0.173   3.639
   77SOL    HW2 1131   0.742   0.309   3.726
   78SOL     OW 1132   5.489   1.748   0.013
   78SOL    HW1 1133   5.432   1.705   0.082
   78SOL    HW2 1134   5.451   1.730   6.952
   79SOL     OW 1135   3.048   5.646   1.465
   79SOL    HW1 1136   2.988   5.633   1.386
   79SOL    HW2 1137   3.098   5.732   1.456
   80SOL     OW 1138   4.341   1.391   3.896
   80SOL    HW1 1139   4.319   1.483   3.864
   80SOL    HW2 1140   4.441   1.380   3.900
   81SOL     OW 1141   2.761   7.026   2.333
   81SOL    HW1 1142   2.771   0.095   2.348
   81SOL    HW2 1143   2.666   7.000   2.348
   82SOL     OW 1144   5.792   4.923   0.817
   82SOL    HW1 1145   5.693   4.938   0.813
   82SOL    HW2 1146   5.810   4.826   0.831
   83SOL     OW 1147   0.210   0.087   0.350
   83SOL    HW1 1148   0.264   0.005   0.371
   83SOL    HW2 1149   0.124   0.084   0.403
   84SOL     OW 1150   6.002   3.016   3.095
   84SOL    HW1 1151   5.997   2.992   3.192
   84SOL    HW2 1152   5.932   3.085   3.075
   85SOL     OW 1153   1.944   1.369   3.542
   85SOL    HW1 1154   1.923   1.283   3.590
   85SOL    HW2 1155   1.980   1.435   3.607
   86SOL     OW 1156   0.969   1.433   6.539
   86SOL    HW1 1157   0.946   1.524   6.574
   86SOL    HW2 1158   1.012   1.380   6.611
   87SOL     OW 1159   5.249   4.652   0.748
   87SOL    HW1 1160   5.269   4.706   0.830
   87SOL    HW2 1161   5.313   4.575   0.743
   88SOL     OW 1162   3.175   1.588   6.247
   88SOL    HW1 1163   3.188   1.665   6.310
   88SOL    HW2 1164   3.080   1.587   6.216
   89SOL     OW 1165   2.140   2.115   6.826
   89SOL    HW1 1166   2.134   2.115   6.926
   89SOL    HW2 1167   2.219   2.169   6.798
   90SOL     OW 1168   4.205   4.975   2.179
   90SOL    HW1 1169   4.137   4.936   2.117
   90SOL    HW2 1170   4.188   5.073   2.190
   91SOL     OW 1171   6.017   3.563   6.287
   91SOL    HW1 1172   6.063   3.649   6.264
   91SOL    HW2 1173   5.955   3.537   6.214
   92SOL     OW 1174   4.535   4.832   0.979
   92SOL    HW1 1175   4.516   4.922   0.938
   92SOL    HW2 1176   4.615   4.792   0.935
   93SOL     OW 1177   3.678   3.651   0.697
   93SOL    HW1 1178   3.635   3.737   0.672
   93SOL    HW2 1179   3.655   3.627   0.791
   94SOL     OW 1180   2.407   5.741   6.222
   94SOL    HW1 1181   2.470   5.699   6.288
   94SOL    HW2 1182   2.328   5.777   6.271
   95SOL     OW 1183   0.793   0.127   2.770
   95SOL    HW1 1184   0.757   0.191   2.838
   95SOL    HW2 1185   0.884   0.097   2.798
   96SOL     OW 1186   3.469   6.927   4.859
   96SOL    HW1 1187   3.527   7.008   4.867
   96SOL    HW2 1188   3.431   6.923   4.767
   97SOL     OW 1189   2.107   3.416   6.216
   97SOL    HW1 1190   2.014   3.400   6.250
   97SOL    HW2 1191   2.164   3.337   6.236
   98SOL     OW 1192   1.370   3.002   0.688
   98SOL    HW1 1193   1.393   2.917   0.736
   98SOL    HW2 1194   1.452   3.041   0.647
   99SOL     OW 1195   4.124   2.920   1.611
   99SOL    HW1 1196   4.107   2.941   1.707
   99SOL    HW2 1197   4.038   2.917   1.561
  100SOL     OW 1198   0.960   6.426   4.584
  100SOL    HW1 1199   0.934   6.423   4.488
  100SOL    HW2 1200   1.013   6.508   4.602
  101SOL     OW 1201   2.285   5.078   2.064
  101SOL    HW1 1202   2.335   5.043   2.143
  101SOL    HW2 1203   2.350   5.119   2.000
  102SOL     OW 1204   3.547   5.703   1.248
  102SOL    HW1 1205   3.526   5.801   1.247
  102SOL    HW2 1206   3.474   5.654   1.295
  103SOL     OW 1207   2.553   2.252   1.739
  103SOL    HW1 1208   2.523   2.157   1.735
  103SOL    HW2 1209   2.652   2.256   1.724
  104SOL     OW 1210   1.446   5.899   3.078
  104SOL    HW1 1211   1.360   5.881   3.029
  104SOL    HW2 1212   1.427   5.955   3.159
  105SOL     OW 1213   6.855   1.258   6.353
  105SOL    HW1 1214   6.785   1.210   6.405
  105SOL    HW2 1215   6.887   1.338   6.406
  106SOL     OW 1216   3.819   6.221   4.288
  106SOL    HW1 1217   3.855   6.234   4.381
  106SOL    HW2 1218   3.721   6.202   4.293
  107SOL     OW 1219   1.134   1.212   0.586
  107SOL    HW1 1220   1.149   1.205   0.685
  107SOL    HW2 1221   1.115   1.307   0.561
  108SOL     OW 1222   3.395   7.021   5.742
  108SOL    HW1 1223   3.450   6.946   5.706
  108SOL    HW2 1224   3.298   7.002   5.726
  109SOL     OW 1225   1.979   0.793   2.423
  109SOL    HW1 1226   1.930   0.721   2.472
  109SOL    HW2 1227   2.077   0.774   2.426
  110SOL     OW 1228   2.711   5.231   4.192
  110SOL    HW1 1229   2.696   5.329   4.181
  110SOL    HW2 1230   2.633   5.181   4.153
  111SOL     OW 1231   1.859   1.148   3.966
  111SOL    HW1 1232   1.955   1.175   3.971
  111SOL    HW2 1233   1.801   1.229   3.975
  112SOL     OW 1234   3.194   5.810   6.465
  112SOL    HW1 1235   3.175   5.734   6.403
  112SOL    HW2 1236   3.109   5.857   6.487
  113SOL     OW 1237   0.673   5.778   2.302
  113SOL    HW1 1238   0.704   5.694   2.257
  113SOL    HW2 1239   0.694   5.773   2.399
  114SOL     OW 1240   0.950   6.782   2.208
  114SOL    HW1 1241   0.967   6.877   2.237
  114SOL    HW2 1242   0.943   6.723   2.288
  115SOL     OW 1243   4.807   1.388   2.997
  115SOL    HW1 1244   4.892   1.350   2.961
  115SOL    HW2 1245   4.748   1.414   2.921
  116SOL     OW 1246   6.046   5.861   1.525
  116SOL    HW1 1247   6.134   5.815   1.515
  116SOL    HW2 1248   6.061   5.956   1.552
  117SOL     OW 1249   1.269   1.270   1.366
  117SOL    HW1 1250   1.320   1.354   1.344
  117SOL    HW2 1251   1.295   1.198   1.301
  118SOL     OW 1252   1.157   0.821   2.021
  118SOL    HW1 1253   1.134   0.747   2.084
  118SOL    HW2 1254   1.110   0.905   2.048
  119SOL     OW 1255   0.256   0.539   0.326
  119SOL    HW1 1256   0.306   0.453   0.330
  119SOL    HW2 1257   0.319   0.613   0.305
  120SOL     OW 1258   5.209   1.021   5.880
  120SOL    HW1 1259   5.145   1.014   5.956
  120SOL    HW2 1260   5.243   0.931   5.856
  121SOL     OW 1261   2.103   3.028   0.037
  121SOL    HW1 1262   2.187   3.083   0.035
  121SOL    HW2 1263   2.093   2.980   6.979
  122SOL     OW 1264   1.422   3.530   6.493
  122SOL    HW1 1265   1.447   3.434   6.478
  122SOL    HW2 1266   1.417   3.577   6.405
  123SOL     OW 1267   0.905   1.155   2.844
  123SOL    HW1 1268   0.995   1.111   2.839
  123SOL    HW2 1269   0.891   1.193   2.935
  124SOL     OW 1270   3.948   2.598   1.029
  124SOL    HW1 1271   4.022   2.645   0.981
  124SOL    HW2 1272   3.969   2.500   1.036
  125SOL     OW 1273   3.658   2.514   0.288
  125SOL    HW1 1274   3.644   2.429   0.338
  125SOL    HW2 1275   3.666   2.494   0.190
  126SOL     OW 1276   2.915   4.011   1.401
  126SOL    HW1 1277   2.876   3.933   1.352
  126SOL    HW2 1278   2.870   4.021   1.490
  127SOL     OW 1279   0.919   4.811   6.683
  127SOL    HW1 1280   0.914   4.803   6.583
  127SOL    HW2 1281   1.005   4.855   6.709
  128SOL     OW 1282   4.547   2.779   1.352
  128SOL    HW1 1283   4.466   2.835   1.334
  128SOL    HW2 1284   4.571   2.784   1.449
  129SOL     OW 1285   3.348   3.890   6.281
  129SOL    HW1 1286   3.346   3.882   6.381
  129SOL    HW2 1287   3.441   3.908   6.251
  130SOL     OW 1288   1.473   1.602   4.566
  130SOL    HW1 1289   1.500   1.690   4.526
  130SOL    HW2 1290   1.511   1.527   4.512
  131SOL     OW 1291   4.475   0.688   3.317
  131SOL    HW1 1292   4.506   0.613   3.376
  131SOL    HW2 1293   4.466   0.655   3.223
  132SOL     OW 1294   3.105   2.704   1.747
  132SOL    HW1 1295   3.052   2.638   1.801
  132SOL    HW2 1296   3.193   2.721   1.791
  133SOL     OW 1297   4.972   0.469   4.107
  133SOL    HW1 1298   4.953   0.563   4.136
  133SOL    HW2 1299   4.907   0.443   4.036
  134SOL     OW 1300   6.797   1.430   2.616
  134SOL    HW1 1301   6.778   1.369   2.693
  134SOL    HW2 1302   6.770   1.385   2.531
  135SOL     OW 1303   5.108   3.876   3.663
  135SOL    HW1 1304   5.010   3.863   3.680
  135SOL    HW2 1305   5.157   3.791   3.684
  136SOL     OW 1306   1.500   5.424   4.987
  136SOL    HW1 1307   1.573   5.427   5.055
  136SOL    HW2 1308   1.517   5.351   4.922
  137SOL     OW 1309   4.930   1.689   2.921
  137SOL    HW1 1310   4.850   1.630   2.916
  137SOL    HW2 1311   4.967   1.688   3.014
  138SOL     OW 1312   1.188   3.816   3.045
  138SOL    HW1 1313   1.170   3.718   3.037
  138SOL    HW2 1314   1.256   3.832   3.116
  139SOL     OW 1315   1.517   0.263   5.438
  139SOL    HW1 1316   1.536   0.165   5.428
  139SOL    HW2 1317   1.603   0.313   5.444
  140SOL     OW 1318   1.596   6.947   3.966
  140SOL    HW1 1319   1.534   6.873   3.941
  140SOL    HW2 1320   1.690   6.923   3.940
  141SOL     OW 1321   0.427   2.655   4.963
  141SOL    HW1 1322   0.389   2.661   4.870
  141SOL    HW2 1323   0.426   2.745   5.006
  142SOL     OW 1324   1.475   4.735   1.265
  142SOL    HW1 1325   1.494   4.784   1.351
  142SOL    HW2 1326   1.562   4.718   1.218
  143SOL     OW 1327   6.047   4.379   0.326
  143SOL    HW1 1328   6.001   4.447   0.269
  143SOL    HW2 1329   6.017   4.288   0.301
  144SOL     OW 1330   1.254   4.433   5.620
  144SOL    HW1 1331   1.287   4.524   5.595
  144SOL    HW2 1332   1.259   4.372   5.540
  145SOL     OW 1333   1.694   5.104   1.450
  145SOL    HW1 1334   1.753   5.127   1.527
  145SOL    HW2 1335   1.598   5.113   1.477
  146SOL     OW 1336   5.088   0.267   5.764
  146SOL    HW1 1337   4.989   0.255   5.768
  146SOL    HW2 1338   5.128   0.235   5.850
  147SOL     OW 1339   5.409   2.393   5.847
  147SOL    HW1 1340   5.494   2.353   5.815
  147SOL    HW2 1341   5.406   2.391   5.947
  148SOL     OW 1342   6.744   5.242   0.668
  148SOL    HW1 1343   6.817   5.197   0.617
  148SOL    HW2 1344   6.670   5.267   0.606
  149SOL     OW 1345   3.731   2.160   4.003
  149SOL    HW1 1346   3.798   2.220   3.960
  149SOL    HW2 1347   3.776   2.106   4.074
  150SOL     OW 1348   5.806   0.041   7.015
  150SOL    HW1 1349   5.817   7.005   0.059
  150SOL    HW2 1350   5.888   0.098   7.008
  151SOL     OW 1351   3.284   1.407   1.946
  151SOL    HW1 1352   3.285   1.499   1.907
  151SOL    HW2 1353   3.233   1.407   2.032
  152SOL     OW 1354   0.078   0.981   1.833
  152SOL    HW1 1355   0.084   1.080   1.831
  152SOL    HW2 1356   0.043   0.948   1.745
  153SOL     OW 1357   2.879   0.369   3.614
  153SOL    HW1 1358   2.843   0.300   3.678
  153SOL    HW2 1359   2.905   0.451   3.665
  154SOL     OW 1360   0.883   3.289   1.152
  154SOL    HW1 1361   0.948   3.319   1.081
  154SOL    HW2 1362   0.933   3.245   1.227
  155SOL     OW 1363   0.808   1.531   5.537
  155SOL    HW1 1364   0.833   1.566   5.627
  155SOL    HW2 1365   0.727   1.581   5.503
  156SOL     OW 1366   7.003   0.808   0.835
  156SOL    HW1 1367   0.059   0.759   0.825
  156SOL    HW2 1368   7.005   0.864   0.918
  157SOL     OW 1369   5.562   3.058   1.535
  157SOL    HW1 1370   5.494   3.005   1.486
  157SOL    HW2 1371   5.614   3.114   1.470
  158SOL     OW 1372   1.243   3.154   1.916
  158SOL    HW1 1373   1.202   3.107   1.838
  158SOL    HW2 1374   1.316   3.098   1.955
  159SOL     OW 1375   4.273   4.905   2.742
  159SOL    HW1 1376   4.260   4.829   2.678
  159SOL    HW2 1377   4.213   4.981   2.718
  160SOL     OW 1378   5.342   6.847   0.754
  160SOL    HW1 1379   5.314   6.895   0.670
  160SOL    HW2 1380   5.274   6.862   0.825
  161SOL     OW 1381   1.278   6.434   3.421
  161SOL    HW1 1382   1.269   6.380   3.338
  161SOL    HW2 1383   1.190   6.474   3.445
  162SOL     OW 1384   3.772   6.593   6.916
  162SOL    HW1 1385   3.869   6.598   6.941
  162SOL    HW2 1386   3.726   6.524   6.972
  163SOL     OW 1387   6.467   5.664   2.044
  163SOL    HW1 1388   6.433   5.757   2.029
  163SOL    HW2 1389   6.562   5.667   2.076
  164SOL     OW 1390   0.534   4.384   2.747
  164SOL    HW1 1391   0.473   4.356   2.821
  164SOL    HW2 1392   0.543   4.483   2.747
  165SOL     OW 1393   4.874   3.953   1.165
  165SOL    HW1 1394   4.897   3.883   1.098
  165SOL    HW2 1395   4.957   3.985   1.211
  166SOL     OW 1396   1.668   3.321   2.314
  166SOL    HW1 1397   1.624   3.398   2.267
  166SOL    HW2 1398   1.765   3.342   2.328
  167SOL     OW 1399   5.338   2.799   6.753
  167SOL    HW1 1400   5.404   2.867   6.723
  167SOL    HW2 1401   5.339   2.721   6.690
  168SOL     OW 1402   3.380   2.694   0.934
  168SOL    HW1 1403   3.391   2.675   1.031
  168SOL    HW2 1404   3.298   2.647   0.901
  169SOL     OW 1405   6.630   2.017   1.506
  169SOL    HW1 1406   6.697   2.088   1.484
  169SOL    HW2 1407   6.597   1.975   1.421
  170SOL     OW 1408   0.126   6.722   2.437
  170SOL    HW1 1409   0.082   6.812   2.434
  170SOL    HW2 1410   0.065   6.656   2.482
  171SOL     OW 1411   2.372   3.863   6.775
  171SOL    HW1 1412   2.407   3.889   6.685
  171SOL    HW2 1413   2.345   3.767   6.775
  172SOL     OW 1414   6.288   1.018   2.995
  172SOL    HW1 1415   6.230   1.050   3.069
  172SOL    HW2 1416   6.369   1.076   2.987
  173SOL     OW 1417   6.701   1.159   3.895
  173SOL    HW1 1418   6.654   1.102   3.962
  173SOL    HW2 1419   6.681   1.256   3.913
  174SOL     OW 1420   3.817   5.258   3.659
  174SOL    HW1 1421   3.908   5.218   3.651
  174SOL    HW2 1422   3.770   5.253   3.571
  175SOL     OW 1423   2.788   0.209   1.337
  175SOL    HW1 1424   2.790   0.205   1.437
  175SOL    HW2 1425   2.857   0.146   1.300
  176SOL     OW 1426   6.730   4.701   1.046
  176SOL    HW1 1427   6.750   4.671   1.140
  176SOL    HW2 1428   6.746   4.626   0.983
  177SOL     OW 1429   5.604   3.363   3.703
  177SOL    HW1 1430   5.615   3.448   3.650
  177SOL    HW2 1431   5.618   3.383   3.800
  178SOL     OW 1432   3.337   4.265   5.701
  178SOL    HW1 1433   3.289   4.257   5.788
  178SOL    HW2 1434   3.392   4.183   5.685
  179SOL     OW 1435   4.205   1.327   6.171
  179SOL    HW1 1436   4.276   1.271   6.130
  179SOL    HW2 1437   4.123   1.272   6.186
  180SOL     OW 1438   2.062   6.756   0.433
  180SOL    HW1 1439   2.022   6.694   0.366
  180SOL    HW2 1440   2.118   6.703   0.498
  181SOL     OW 1441   3.781   3.648   5.984
  181SOL    HW1 1442   3.727   3.682   6.061
  181SOL    HW2 1443   3.829   3.565   6.012
  182SOL     OW 1444   3.657   1.996   5.514
  182SOL    HW1 1445   3.650   2.004   5.414
  182SOL    HW2 1446   3.582   1.940   5.548
  183SOL     OW 1447   3.464   1.592   3.491
  183SOL    HW1 1448   3.481   1.690   3.484
  183SOL    HW2 1449   3.428   1.559   3.403
  184SOL     OW 1450   0.858   6.782   4.171
  184SOL    HW1 1451   0.761   6.781   4.198
  184SOL    HW2 1452   0.872   6.723   4.092
  185SOL     OW 1453   0.404   0.507   5.539
  185SOL    HW1 1454   0.405   0.583   5.604
  185SOL    HW2 1455   0.397   0.543   5.446
  186SOL     OW 1456   6.231   1.077   4.087
  186SOL    HW1 1457   6.191   1.015   4.154
  186SOL    HW2 1458   6.225   1.037   3.996
  187SOL     OW 1459   5.053   6.606   2.530
  187SOL    HW1 1460   5.013   6.650   2.449
  187SOL    HW2 1461   5.137   6.559   2.504
  188SOL     OW 1462   1.556   3.327   2.933
  188SOL    HW1 1463   1.518   3.301   2.845
  188SOL    HW2 1464   1.505   3.283   3.006
  189SOL     OW 1465   2.780   5.746   0.462
  189SOL    HW1 1466   2.684   5.719   0.450
  189SOL    HW2 1467   2.814   5.709   0.549
  190SOL     OW 1468   5.818   3.394   5.535
  190SOL    HW1 1469   5.799   3.491   5.522
  190SOL    HW2 1470   5.732   3.344   5.543
  191SOL     OW 1471   5.890   0.371   6.291
  191SOL    HW1 1472   5.962   0.363   6.222
  191SOL    HW2 1473   5.879   0.282   6.337
  192SOL     OW 1474   0.432   5.002   2.513
  192SOL    HW1 1475   0.474   4.921   2.472
  192SOL    HW2 1476   0.463   5.010   2.608
  193SOL     OW 1477   4.506   3.607   5.404
  193SOL    HW1 1478   4.490   3.516   5.441
  193SOL    HW2 1479   4.564   3.600   5.322
  194SOL     OW 1480   3.955   0.192   2.812
  194SOL    HW1 1481   3.895   0.111   2.820
  194SOL    HW2 1482   3.967   0.214   2.715
  195SOL     OW 1483   1.813   0.299   4.146
  195SOL    HW1 1484   1.742   0.239   4.110
  195SOL    HW2 1485   1.771   0.373   4.199
  196SOL     OW 1486   2.837   0.617   0.564
  196SOL    HW1 1487   2.930   0.619   0.601
  196SOL    HW2 1488   2.824   0.696   0.504
  197SOL     OW 1489   2.622   0.466   1.637
  197SOL    HW1 1490   2.596   0.490   1.730
  197SOL    HW2 1491   2.540   0.462   1.579
  198SOL     OW 1492   5.003   0.075   1.972
  198SOL    HW1 1493   5.071   0.003   1.960
  198SOL    HW2 1494   4.939   0.075   1.895
  199SOL     OW 1495   6.688   1.381   3.564
  199SOL    HW1 1496   6.747   1.313   3.520
  199SOL    HW2 1497   6.740   1.431   3.633
  200SOL     OW 1498   1.106   4.139   1.878
  200SOL    HW1 1499   1.168   4.159   1.953
  200SOL    HW2 1500   1.048   4.061   1.901
  201SOL     OW 1501   6.877   6.928   6.423
  201SOL    HW1 1502   6.789   6.912   6.378
  201SOL    HW2 1503   6.866   6.916   6.522
  202SOL     OW 1504   4.824   0.331   5.871
  202SOL    HW1 1505   4.877   0.410   5.842
  202SOL    HW2 1506   4.734   0.334   5.828
  203SOL     OW 1507   4.446   2.427   4.337
  203SOL    HW1 1508   4.387   2.349   4.316
  203SOL    HW2 1509   4.457   2.434   4.436
  204SOL     OW 1510   0.368   1.103   6.392
  204SOL    HW1 1511   0.457   1.126   6.431
  204SOL    HW2 1512   0.339   1.013   6.426
  205SOL     OW 1513   0.494   0.970   3.327
  205SOL    HW1 1514   0.442   0.927   3.253
  205SOL    HW2 1515   0.592   0.961   3.308
  206SOL     OW 1516   0.163   4.928   1.728
  206SOL    HW1 1517   0.112   4.900   1.810
  206SOL    HW2 1518   0.235   4.991   1.754
  207SOL     OW 1519   5.138   1.079   3.755
  207SOL    HW1 1520   5.174   1.026   3.677
  207SOL    HW2 1521   5.039   1.089   3.746
  208SOL     OW 1522   5.709   2.533   5.075
  208SOL    HW1 1523   5.695   2.436   5.098
  208SOL    HW2 1524   5.652   2.556   4.996
  209SOL     OW 1525   0.450   4.644   4.634
  209SOL    HW1 1526   0.460   4.549   4.664
  209SOL    HW2 1527   0.363   4.655   4.585
  210SOL     OW 1528   4.479   2.015   0.602
  210SOL    HW1 1529   4.570   1.979   0.581
  210SOL    HW2 1530   4.426   1.945   0.651
  211SOL     OW 1531   2.634   5.956   3.532
  211SOL    HW1 1532   2.700   5.884   3.553
  211SOL    HW2 1533   2.542   5.925   3.556
  212SOL     OW 1534   1.637   4.490   1.489
  212SOL    HW1 1535   1.728   4.497   1.529
  212SOL    HW2 1536   1.572   4.459   1.559
  213SOL     OW 1537   2.893   0.782   6.294
  213SOL    HW1 1538   2.971   0.777   6.232
  213SOL    HW2 1539   2.874   0.691   6.331
  214SOL     OW 1540   4.844   5.429   1.827
  214SOL    HW1 1541   4.913   5.488   1.784
  214SOL    HW2 1542   4.863   5.420   1.925
  215SOL     OW 1543   2.236   3.721   0.760
  215SOL    HW1 1544   2.279   3.655   0.822
  215SOL    HW2 1545   2.137   3.720   0.774
  216SOL     OW 1546   2.310   5.866   4.533
  216SOL    HW1 1547   2.288   5.838   4.440
  216SOL    HW2 1548   2.403   5.836   4.556
  217SOL     OW 1549   2.103   2.659   4.304
  217SOL    HW1 1550   2.064   2.584   4.356
  217SOL    HW2 1551   2.036   2.694   4.239
  218SOL     OW 1552   1.006   3.048   4.425
  218SOL    HW1 1553   0.971   3.127   4.474
  218SOL    HW2 1554   0.938   3.016   4.359
  219SOL     OW 1555   4.177   6.415   5.860
  219SOL    HW1 1556   4.112   6.491   5.864
  219SOL    HW2 1557   4.244   6.432   5.788
  220SOL     OW 1558   3.734   6.704   0.596
  220SOL    HW1 1559   3.646   6.692   0.643
  220SOL    HW2 1560   3.806   6.716   0.663
  221SOL     OW 1561   6.414   2.950   1.855
  221SOL    HW1 1562   6.456   2.878   1.799
  221SOL    HW2 1563   6.467   3.035   1.845
  222SOL     OW 1564   2.779   4.887   5.891
  222SOL    HW1 1565   2.703   4.883   5.956
  222SOL    HW2 1566   2.783   4.801   5.839
  223SOL     OW 1567   5.644   3.148   0.967
  223SOL    HW1 1568   5.555   3.191   0.982
  223SOL    HW2 1569   5.660   3.079   1.037
  224SOL     OW 1570   2.037   2.250   4.390
  224SOL    HW1 1571   2.076   2.248   4.298
  224SOL    HW2 1572   2.036   2.158   4.428
  225SOL     OW 1573   5.070   2.613   6.133
  225SOL    HW1 1574   5.146   2.649   6.079
  225SOL    HW2 1575   5.051   2.519   6.104
  226SOL     OW 1576   1.371   0.665   6.290
  226SOL    HW1 1577   1.342   0.728   6.363
  226SOL    HW2 1578   1.461   0.692   6.257
  227SOL     OW 1579   1.564   3.532   3.519
  227SOL    HW1 1580   1.528   3.559   3.430
  227SOL    HW2 1581   1.494   3.548   3.589
  228SOL     OW 1582   3.145   6.133   3.549
  228SOL    HW1 1583   3.132   6.069   3.625
  228SOL    HW2 1584   3.203   6.091   3.479
  229SOL     OW 1585   4.600   6.056   6.854
  229SOL    HW1 1586   4.669   6.118   6.817
  229SOL    HW2 1587   4.620   5.962   6.825
  230SOL     OW 1588   2.800   4.876   3.098
  230SOL    HW1 1589   2.827   4.827   3.016
  230SOL    HW2 1590   2.706   4.910   3.088
  231SOL     OW 1591   6.097   1.856   6.685
  231SOL    HW1 1592   6.189   1.839   6.720
  231SOL    HW2 1593   6.031   1.806   6.741
  232SOL     OW 1594   1.242   3.755   6.172
  232SOL    HW1 1595   1.241   3.825   6.101
  232SOL    HW2 1596   1.152   3.712   6.179
  233SOL     OW 1597   2.193   2.343   4.169
  233SOL    HW1 1598   2.229   2.254   4.143
  233SOL    HW2 1599   2.104   2.357   4.124
  234SOL     OW 1600   4.082   6.644   4.980
  234SOL    HW1 1601   4.050   6.555   4.948
  234SOL    HW2 1602   4.017   6.715   4.953
  235SOL     OW 1603   3.790   3.067   1.751
  235SOL    HW1 1604   3.709   3.026   1.709
  235SOL    HW2 1605   3.776   3.076   1.849
  236SOL     OW 1606   5.410   3.050   0.000
  236SOL    HW1 1607   5.379   2.956   7.014
  236SOL    HW2 1608   5.352   3.093   0.068
  237SOL     OW 1609   6.121   5.195   2.021
  237SOL    HW1 1610   6.182   5.272   2.038
  237SOL    HW2 1611   6.174   5.110   2.019
  238SOL     OW 1612   5.335   2.378   0.010
  238SOL    HW1 1613   5.420   2.348   0.053
  238SOL    HW2 1614   5.336   2.353   6.943
  239SOL     OW 1615   0.049   5.819   6.190
  239SOL    HW1 1616   0.091   5.730   6.171
  239SOL    HW2 1617   0.025   5.824   6.287
  240SOL     OW 1618   0.515   2.469   3.982
  240SOL    HW1 1619   0.485   2.383   4.023
  240SOL    HW2 1620   0.465   2.545   4.023
  241SOL     OW 1621   1.671   0.353   5.150
  241SOL    HW1 1622   1.724   0.347   5.066
  241SOL    HW2 1623   1.614   0.272   5.160
  242SOL     OW 1624   2.804   3.062   5.572
  242SOL    HW1 1625   2.750   3.086   5.491
  242SOL    HW2 1626   2.901   3.058   5.548
  243SOL     OW 1627   4.533   0.305   5.735
  243SOL    HW1 1628   4.434   0.314   5.727
  243SOL    HW2 1629   4.559   0.209   5.726
  244SOL     OW 1630   5.544   2.401   4.444
  244SOL    HW1 1631   5.519   2.311   4.480
  244SOL    HW2 1632   5.494   2.472   4.493
  245SOL     OW 1633   6.411   3.708   4.732
  245SOL    HW1 1634   6.335   3.770   4.749
  245SOL    HW2 1635   6.422   3.695   4.633
  246SOL     OW 1636   4.888   2.673   2.922
  246SOL    HW1 1637   4.834   2.652   3.003
  246SOL    HW2 1638   4.874   2.602   2.852
  247SOL     OW 1639   3.343   1.674   1.827
  247SOL    HW1 1640   3.437   1.643   1.814
  247SOL    HW2 1641   3.288   1.648   1.747
  248SOL     OW 1642   3.777   2.058   2.553
  248SOL    HW1 1643   3.707   2.102   2.610
  248SOL    HW2 1644   3.736   2.024   2.469
  249SOL     OW 1645   4.278   6.936   5.869
  249SOL    HW1 1646   4.365   6.931   5.820
  249SOL    HW2 1647   4.269   7.026   5.911
  250SOL     OW 1648   5.453   2.776   0.985
  250SOL    HW1 1649   5.393   2.707   1.026
  250SOL    HW2 1650   5.546   2.765   1.019
  251SOL     OW 1651   4.921   3.796   5.489
  251SOL    HW1 1652   4.877   3.732   5.552
  251SOL    HW2 1653   4.858   3.816   5.413
  252SOL     OW 1654   6.356   0.005   6.336
  252SOL    HW1 1655   6.326   0.008   6.431
  252SOL    HW2 1656   6.409   0.087   6.315
  253SOL     OW 1657   2.363   4.167   6.877
  253SOL    HW1 1658   2.427   4.091   6.886
  253SOL    HW2 1659   2.321   4.186   6.965
  254SOL     OW 1660   4.874   3.266   2.942
  254SOL    HW1 1661   4.919   3.271   2.853
  254SOL    HW2 1662   4.865   3.170   2.970
  255SOL     OW 1663   2.095   3.418   4.670
  255SOL    HW1 1664   1.997   3.403   4.665
  255SOL    HW2 1665   2.135   3.355   4.738
  256SOL     OW 1666   6.196   4.032   6.169
  256SOL    HW1 1667   6.139   4.102   6.126
  256SOL    HW2 1668   6.203   4.050   6.267
  257SOL     OW 1669   4.606   7.019   4.135
  257SOL    HW1 1670   4.684   6.995   4.193
  257SOL    HW2 1671   4.604   6.958   4.055
  258SOL     OW 1672   0.345   4.901   5.128
  258SOL    HW1 1673   0.329   4.951   5.213
  258SOL    HW2 1674   0.306   4.953   5.051
  259SOL     OW 1675   1.196   2.077   2.116
  259SOL    HW1 1676   1.235   2.014   2.182
  259SOL    HW2 1677   1.173   2.028   2.032
  260SOL     OW 1678   4.540   1.089   0.742
  260SOL    HW1 1679   4.503   1.092   0.835
  260SOL    HW2 1680   4.522   1.175   0.695
  261SOL     OW 1681   6.676   3.597   0.148
  261SOL    HW1 1682   6.662   3.500   0.132
  261SOL    HW2 1683   6.595   3.648   0.120
  262SOL     OW 1684   7.012   4.238   0.599
  262SOL    HW1 1685   0.042   4.178   0.545
  262SOL    HW2 1686   6.921   4.197   0.607
  263SOL     OW 1687   0.569   0.797   3.985
  263SOL    HW1 1688   0.543   0.719   3.928
  263SOL    HW2 1689   0.665   0.789   4.011
  264SOL     OW 1690   4.697   3.016   5.900
  264SOL    HW1 1691   4.612   3.002   5.849
  264SOL    HW2 1692   4.715   2.935   5.957
  265SOL     OW 1693   5.160   5.091   3.362
  265SOL    HW1 1694   5.157   5.035   3.279
  265SOL    HW2 1695   5.127   5.038   3.440
  266SOL     OW 1696   3.855   3.431   5.770
  266SOL    HW1 1697   3.768   3.404   5.810
  266SOL    HW2 1698   3.846   3.435   5.670
  267SOL     OW 1699   6.206   2.126   5.991
  267SOL    HW1 1700   6.258   2.041   5.985
  267SOL    HW2 1701   6.176   2.140   6.086
  268SOL     OW 1702   4.032   0.168   5.265
  268SOL    HW1 1703   4.042   0.145   5.168
  268SOL    HW2 1704   4.109   0.227   5.292
  269SOL     OW 1705   1.724   3.250   1.181
  269SOL    HW1 1706   1.682   3.215   1.097
  269SOL    HW2 1707   1.746   3.347   1.168
  270SOL     OW 1708   0.257   0.420   0.747
  270SOL    HW1 1709   0.182   0.463   0.698
  270SOL    HW2 1710   0.221   0.356   0.815
  271SOL     OW 1711   2.805   1.233   0.816
  271SOL    HW1 1712   2.724   1.257   0.763
  271SOL    HW2 1713   2.885   1.280   0.778
  272SOL     OW 1714   3.264   4.950   4.210
  272SOL    HW1 1715   3.229   4.919   4.122
  272SOL    HW2 1716   3.189   4.957   4.276
  273SOL     OW 1717   2.282   4.935   4.588
  273SOL    HW1 1718   2.224   4.959   4.665
  273SOL    HW2 1719   2.330   5.016   4.555
  274SOL     OW 1720   4.939   2.465   3.700
  274SOL    HW1 1721   4.963   2.456   3.603
  274SOL    HW2 1722   5.020   2.492   3.752
  275SOL     OW 1723   6.155   4.877   5.871
  275SOL    HW1 1724   6.142   4.810   5.945
  275SOL    HW2 1725   6.177   4.966   5.911
  276SOL     OW 1726   6.867   5.108   2.549
  276SOL    HW1 1727   6.874   5.088   2.451
  276SOL    HW2 1728   6.951   5.153   2.580
  277SOL     OW 1729   2.584   3.824   0.297
  277SOL    HW1 1730   2.549   3.834   0.205
  277SOL    HW2 1731   2.552   3.737   0.335
  278SOL     OW 1732   0.007   5.531   1.780
  278SOL    HW1 1733   0.025   5.575   1.869
  278SOL    HW2 1734   6.965   5.462   1.791
  279SOL     OW 1735   6.652   3.228   4.233
  279SOL    HW1 1736   6.569   3.275   4.203
  279SOL    HW2 1737   6.655   3.227   4.333
  280SOL     OW 1738   2.081   6.843   2.826
  280SOL    HW1 1739   2.091   6.747   2.849
  280SOL    HW2 1740   2.098   6.856   2.729
  281SOL     OW 1741   3.393   4.884   1.974
  281SOL    HW1 1742   3.378   4.872   2.072
  281SOL    HW2 1743   3.474   4.833   1.946
  282SOL     OW 1744   3.771   1.529   5.681
  282SOL    HW1 1745   3.808   1.437   5.668
  282SOL    HW2 1746   3.846   1.596   5.677
  283SOL     OW 1747   6.765   1.265   5.965
  283SOL    HW1 1748   6.771   1.210   5.882
  283SOL    HW2 1749   6.686   1.236   6.019
  284SOL     OW 1750   0.764   4.466   4.461
  284SOL    HW1 1751   0.776   4.512   4.373
  284SOL    HW2 1752   0.749   4.535   4.532
  285SOL     OW 1753   5.699   5.171   6.262
  285SOL    HW1 1754   5.792   5.135   6.269
  285SOL    HW2 1755   5.668   5.163   6.167
  286SOL     OW 1756   3.525   5.241   5.235
  286SOL    HW1 1757   3.606   5.266   5.288
  286SOL    HW2 1758   3.469   5.323   5.220
  287SOL     OW 1759   0.813   4.655   0.018
  287SOL    HW1 1760   0.834   4.566   7.008
  287SOL    HW2 1761   0.889   4.718   0.002
  288SOL     OW 1762   4.336   2.393   6.485
  288SOL    HW1 1763   4.254   2.346   6.516
  288SOL    HW2 1764   4.328   2.415   6.388
  289SOL     OW 1765   6.899   5.444   5.511
  289SOL    HW1 1766   6.908   5.480   5.418
  289SOL    HW2 1767   6.989   5.415   5.544
  290SOL     OW 1768   4.872   1.576   3.807
  290SOL    HW1 1769   4.824   1.541   3.887
  290SOL    HW2 1770   4.966   1.601   3.833
  291SOL     OW 1771   2.607   1.595   4.818
  291SOL    HW1 1772   2.629   1.592   4.720
  291SOL    HW2 1773   2.682   1.641   4.867
  292SOL     OW 1774   2.322   1.845   2.436
  292SOL    HW1 1775   2.373   1.928   2.417
  292SOL    HW2 1776   2.385   1.767   2.441
  293SOL     OW 1777   4.895   4.924   1.869
  293SOL    HW1 1778   4.886   5.006   1.813
  293SOL    HW2 1779   4.942   4.853   1.817
  294SOL     OW 1780   6.461   5.703   6.490
  294SOL    HW1 1781   6.492   5.697   6.585
  294SOL    HW2 1782   6.395   5.778   6.481
  295SOL     OW 1783   3.027   1.423   4.506
  295SOL    HW1 1784   3.094   1.491   4.477
  295SOL    HW2 1785   3.067   1.332   4.497
  296SOL     OW 1786   5.992   1.966   2.567
  296SOL    HW1 1787   5.931   1.956   2.488
  296SOL    HW2 1788   5.970   1.896   2.635
  297SOL     OW 1789   2.885   4.777   2.825
  297SOL    HW1 1790   2.969   4.738   2.786
  297SOL    HW2 1791   2.856   4.856   2.770
  298SOL     OW 1792   2.945   6.250   0.739
  298SOL    HW1 1793   2.878   6.209   0.801
  298SOL    HW2 1794   3.032   6.200   0.746
  299SOL     OW 1795   4.001   3.352   6.630
  299SOL    HW1 1796   4.050   3.413   6.569
  299SOL    HW2 1797   3.904   3.379   6.634
  300SOL     OW 1798   5.515   0.626   1.991
  300SOL    HW1 1799   5.504   0.682   1.909
  300SOL    HW2 1800   5.541   0.684   2.068
  301SOL     OW 1801   5.824   3.435   1.026
  301SOL    HW1 1802   5.854   3.345   1.059
  301SOL    HW2 1803   5.749   3.424   0.962
  302SOL     OW 1804   0.274   0.873   3.816
  302SOL    HW1 1805   0.349   0.877   3.883
  302SOL    HW2 1806   0.311   0.847   3.727
  303SOL     OW 1807   6.513   6.744   1.998
  303SOL    HW1 1808   6.507   6.689   1.915
  303SOL    HW2 1809   6.608   6.750   2.028
  304SOL     OW 1810   1.646   6.598   5.370
  304SOL    HW1 1811   1.732   6.630   5.330
  304SOL    HW2 1812   1.665   6.520   5.430
  305SOL     OW 1813   1.315   3.187   6.930
  305SOL    HW1 1814   1.278   3.131   6.856
  305SOL    HW2 1815   1.290   3.146   7.018
  306SOL     OW 1816   1.715   7.002   3.666
  306SOL    HW1 1817   1.807   6.980   3.631
  306SOL    HW2 1818   1.656   6.922   3.655
  307SOL     OW 1819   4.960   5.929   0.306
  307SOL    HW1 1820   5.035   5.993   0.317
  307SOL    HW2 1821   4.982   5.863   0.234
  308SOL     OW 1822   6.075   3.567   4.212
  308SOL    HW1 1823   5.983   3.554   4.175
  308SOL    HW2 1824   6.083   3.518   4.299
  309SOL     OW 1825   2.584   6.075   7.003
  309SOL    HW1 1826   2.610   6.073   6.907
  309SOL    HW2 1827   2.584   6.169   0.006
  310SOL     OW 1828   5.567   6.354   5.294
  310SOL    HW1 1829   5.573   6.286   5.366
  310SOL    HW2 1830   5.576   6.310   5.205
  311SOL     OW 1831   4.477   4.874   3.098
  311SOL    HW1 1832   4.476   4.952   3.036
  311SOL    HW2 1833   4.435   4.795   3.053
  312SOL     OW 1834   4.164   1.025   4.631
  312SOL    HW1 1835   4.078   0.988   4.595
  312SOL    HW2 1836   4.168   1.010   4.730
  313SOL     OW 1837   3.064   3.959   2.217
  313SOL    HW1 1838   3.034   3.864   2.209
  313SOL    HW2 1839   2.990   4.014   2.254
  314SOL     OW 1840   2.985   5.297   6.860
  314SOL    HW1 1841   2.917   5.277   6.930
  314SOL    HW2 1842   2.962   5.384   6.815
  315SOL     OW 1843   1.066   2.913   3.976
  315SOL    HW1 1844   1.111   2.884   3.891
  315SOL    HW2 1845   1.120   2.986   4.018
  316SOL     OW 1846   2.758   1.500   4.187
  316SOL    HW1 1847   2.732   1.590   4.223
  316SOL    HW2 1848   2.726   1.429   4.249
  317SOL     OW 1849   7.010   1.599   0.757
  317SOL    HW1 1850   0.046   1.528   0.783
  317SOL    HW2 1851   6.917   1.562   0.762
  318SOL     OW 1852   1.015   5.886   6.670
  318SOL    HW1 1853   1.035   5.984   6.671
  318SOL    HW2 1854   0.936   5.868   6.730
  319SOL     OW 1855   6.504   1.009   3.377
  319SOL    HW1 1856   6.462   1.099   3.383
  319SOL    HW2 1857   6.433   0.939   3.384
  320SOL     OW 1858   6.738   2.374   1.695
  320SOL    HW1 1859   6.781   2.361   1.784
  320SOL    HW2 1860   6.779   2.451   1.648
  321SOL     OW 1861   4.004   2.027   0.078
  321SOL    HW1 1862   4.031   1.994   0.168
  321SOL    HW2 1863   4.014   2.126   0.075
  322SOL     OW 1864   3.694   2.908   4.185
  322SOL    HW1 1865   3.668   2.943   4.095
  322SOL    HW2 1866   3.621   2.926   4.251
  323SOL     OW 1867   1.107   2.778   6.564
  323SOL    HW1 1868   1.122   2.824   6.476
  323SOL    HW2 1869   1.144   2.685   6.559
  324SOL     OW 1870   2.899   1.306   4.956
  324SOL    HW1 1871   2.901   1.405   4.939
  324SOL    HW2 1872   2.814   1.282   5.003
  325SOL     OW 1873   0.680   2.904   2.042
  325SOL    HW1 1874   0.657   2.920   1.946
  325SOL    HW2 1875   0.629   2.825   2.076
  326SOL     OW 1876   1.280   4.748   6.711
  326SOL    HW1 1877   1.264   4.651   6.733
  326SOL    HW2 1878   1.336   4.754   6.629
  327SOL     OW 1879   1.443   4.702   3.355
  327SOL    HW1 1880   1.410   4.748   3.273
  327SOL    HW2 1881   1.539   4.676   3.342
  328SOL     OW 1882   1.236   5.755   1.967
  328SOL    HW1 1883   1.238   5.703   1.882
  328SOL    HW2 1884   1.265   5.849   1.950
  329SOL     OW 1885   3.741   3.339   4.840
  329SOL    HW1 1886   3.808   3.281   4.887
  329SOL    HW2 1887   3.770   3.434   4.844
  330SOL     OW 1888   3.870   6.831   1.493
  330SOL    HW1 1889   3.845   6.828   1.396
  330SOL    HW2 1890   3.919   6.917   1.511
  331SOL     OW 1891   3.624   5.354   6.850
  331SOL    HW1 1892   3.692   5.324   6.783
  331SOL    HW2 1893   3.572   5.275   6.882
  332SOL     OW 1894   4.301   1.689   5.267
  332SOL    HW1 1895   4.232   1.650   5.329
  332SOL    HW2 1896   4.303   1.788   5.278
  333SOL     OW 1897   2.810   0.384   6.013
  333SOL    HW1 1898   2.897   0.374   5.964
  333SOL    HW2 1899   2.744   0.428   5.952
  334SOL     OW 1900   3.347   0.323   1.677
  334SOL    HW1 1901   3.317   0.410   1.640
  334SOL    HW2 1902   3.268   0.266   1.700
  335SOL     OW 1903   3.890   0.048   5.564
  335SOL    HW1 1904   3.940   0.131   5.586
  335SOL    HW2 1905   3.935   0.000   5.489
  336SOL     OW 1906   1.674   0.526   3.612
  336SOL    HW1 1907   1.769   0.537   3.585
  336SOL    HW2 1908   1.639   0.613   3.647
  337SOL     OW 1909   0.330   2.584   0.033
  337SOL    HW1 1910   0.254   2.645   0.055
  337SOL    HW2 1911   0.347   2.523   0.110
  338SOL     OW 1912   2.889   2.533   1.484
  338SOL    HW1 1913   2.874   2.631   1.478
  338SOL    HW2 1914   2.970   2.508   1.431
  339SOL     OW 1915   3.025   6.312   3.730
  339SOL    HW1 1916   3.046   6.245   3.658
  339SOL    HW2 1917   2.985   6.394   3.688
  340SOL     OW 1918   4.918   4.414   5.345
  340SOL    HW1 1919   4.960   4.327   5.320
  340SOL    HW2 1920   4.976   4.489   5.312
  341SOL     OW 1921   6.355   1.047   4.697
  341SOL    HW1 1922   6.294   1.081   4.625
  341SOL    HW2 1923   6.309   1.056   4.786
  342SOL     OW 1924   6.129   3.515   0.293
  342SOL    HW1 1925   6.053   3.517   0.359
  342SOL    HW2 1926   6.114   3.586   0.224
  343SOL     OW 1927   2.210   5.823   0.374
  343SOL    HW1 1928   2.208   5.787   0.280
  343SOL    HW2 1929   2.298   5.866   0.391
  344SOL     OW 1930   1.286   4.543   2.146
  344SOL    HW1 1931   1.247   4.467   2.093
  344SOL    HW2 1932   1.282   4.521   2.243
  345SOL     OW 1933   4.396   1.590   3.175
  345SOL    HW1 1934   4.448   1.510   3.147
  345SOL    HW2 1935   4.299   1.567   3.181
  346SOL     OW 1936   2.195   0.609   2.978
  346SOL    HW1 1937   2.115   0.604   3.037
  346SOL    HW2 1938   2.179   0.676   2.905
  347SOL     OW 1939   2.660   5.399   6.321
  347SOL    HW1 1940   2.659   5.357   6.230
  347SOL    HW2 1941   2.755   5.415   6.349
  348SOL     OW 1942   5.248   4.139   2.054
  348SOL    HW1 1943   5.192   4.062   2.086
  348SOL    HW2 1944   5.189   4.218   2.038
  349SOL     OW 1945   6.980   5.269   0.851
  349SOL    HW1 1946   6.960   5.214   0.932
  349SOL    HW2 1947   6.929   5.234   0.772
  350SOL     OW 1948   3.583   3.517   0.971
  350SOL    HW1 1949   3.550   3.581   1.041
  350SOL    HW2 1950   3.514   3.447   0.954
  351SOL     OW 1951   2.000   2.879   1.024
  351SOL    HW1 1952   1.963   2.952   1.082
  351SOL    HW2 1953   2.098   2.871   1.038
  352SOL     OW 1954   2.687   0.928   4.710
  352SOL    HW1 1955   2.780   0.964   4.716
  352SOL    HW2 1956   2.688   0.842   4.658
  353SOL     OW 1957   2.493   0.090   0.772
  353SOL    HW1 1958   2.469   0.187   0.773
  353SOL    HW2 1959   2.483   0.054   0.679
  354SOL     OW 1960   3.589   2.454   0.735
  354SOL    HW1 1961   3.534   2.534   0.758
  354SOL    HW2 1962   3.534   2.371   0.749
  355SOL     OW 1963   0.837   3.506   2.560
  355SOL    HW1 1964   0.856   3.576   2.630
  355SOL    HW2 1965   0.896   3.427   2.575
  356SOL     OW 1966   3.047   0.118   5.983
  356SOL    HW1 1967   3.070   0.196   6.041
  356SOL    HW2 1968   3.117   0.047   5.994
  357SOL     OW 1969   6.732   6.410   5.368
  357SOL    HW1 1970   6.665   6.337   5.350
  357SOL    HW2 1971   6.693   6.476   5.431
  358SOL     OW 1972   4.131   0.086   0.527
  358SOL    HW1 1973   4.075   0.028   0.467
  358SOL    HW2 1974   4.096   0.081   0.620
  359SOL     OW 1975   1.728   2.633   2.043
  359SOL    HW1 1976   1.823   2.642   2.071
  359SOL    HW2 1977   1.702   2.537   2.044
  360SOL     OW 1978   1.048   5.280   6.601
  360SOL    HW1 1979   1.025   5.262   6.697
  360SOL    HW2 1980   1.122   5.219   6.573
  361SOL     OW 1981   5.840   5.689   3.066
  361SOL    HW1 1982   5.782   5.609   3.081
  361SOL    HW2 1983   5.852   5.704   2.968
  362SOL     OW 1984   3.732   3.899   1.490
  362SOL    HW1 1985   3.794   3.948   1.429
  362SOL    HW2 1986   3.778   3.819   1.529
  363SOL     OW 1987   5.372   4.409   3.353
  363SOL    HW1 1988   5.279   4.443   3.339
  363SOL    HW2 1989   5.433   4.455   3.289
  364SOL     OW 1990   6.176   5.276   6.177
  364SOL    HW1 1991   6.083   5.269   6.142
  364SOL    HW2 1992   6.174   5.291   6.276
  365SOL     OW 1993   5.989   6.097   2.395
  365SOL    HW1 1994   5.945   6.144   2.472
  365SOL    HW2 1995   5.919   6.054   2.338
  366SOL     OW 1996   6.264   0.753   6.059
  366SOL    HW1 1997   6.188   0.805   6.018
  366SOL    HW2 1998   6.240   0.727   6.152
  367SOL     OW 1999   4.867   2.741   0.958
  367SOL    HW1 2000   4.952   2.692   0.974
  367SOL    HW2 2001   4.836   2.724   0.865
  368SOL     OW 2002   0.122   4.102   4.894
  368SOL    HW1 2003   0.155   4.061   4.810
  368SOL    HW2 2004   0.197   4.109   4.960
  369SOL     OW 2005   6.675   5.535   1.689
  369SOL    HW1 2006   6.661   5.437   1.705
  369SOL    HW2 2007   6.591   5.574   1.650
  370SOL     OW 2008   2.850   1.211   5.807
  370SOL    HW1 2009   2.770   1.155   5.827
  370SOL    HW2 2010   2.820   1.298   5.767
  371SOL     OW 2011   2.371   3.680   5.970
  371SOL    HW1 2012   2.319   3.759   5.935
  371SOL    HW2 2013   2.310   3.600   5.974
  372SOL     OW 2014   1.128   6.325   6.209
  372SOL    HW1 2015   1.030   6.305   6.199
  372SOL    HW2 2016   1.181   6.251   6.168
  373SOL     OW 2017   6.850   6.963   4.591
  373SOL    HW1 2018   6.923   6.900   4.616
  373SOL    HW2 2019   6.884   0.001   4.525
  374SOL     OW 2020   2.398   1.869   3.209
  374SOL    HW1 2021   2.325   1.808   3.180
  374SOL    HW2 2022   2.372   1.964   3.190
  375SOL     OW 2023   1.250   4.226   3.639
  375SOL    HW1 2024   1.251   4.255   3.543
  375SOL    HW2 2025   1.167   4.261   3.683
  376SOL     OW 2026   2.346   1.630   4.948
  376SOL    HW1 2027   2.346   1.590   5.039
  376SOL    HW2 2028   2.441   1.640   4.916
  377SOL     OW 2029   1.272   2.114   1.259
  377SOL    HW1 2030   1.353   2.138   1.206
  377SOL    HW2 2031   1.190   2.137   1.207
  378SOL     OW 2032   3.472   2.243   5.904
  378SOL    HW1 2033   3.376   2.264   5.921
  378SOL    HW2 2034   3.527   2.268   5.984
  379SOL     OW 2035   6.468   4.085   1.179
  379SOL    HW1 2036   6.393   4.132   1.224
  379SOL    HW2 2037   6.514   4.024   1.243
  380SOL     OW 2038   2.716   1.382   1.426
  380SOL    HW1 2039   2.718   1.328   1.342
  380SOL    HW2 2040   2.738   1.323   1.504
  381SOL     OW 2041   1.523   3.735   2.676
  381SOL    HW1 2042   1.573   3.651   2.652
  381SOL    HW2 2043   1.574   3.784   2.746
  382SOL     OW 2044   5.619   6.544   6.224
  382SOL    HW1 2045   5.644   6.462   6.275
  382SOL    HW2 2046   5.698   6.606   6.220
  383SOL     OW 2047   4.722   3.258   5.708
  383SOL    HW1 2048   4.707   3.160   5.720
  383SOL    HW2 2049   4.795   3.288   5.770
  384SOL     OW 2050   6.905   5.740   4.481
  384SOL    HW1 2051   6.844   5.787   4.416
  384SOL    HW2 2052   6.996   5.782   4.477
  385SOL     OW 2053   4.243   5.741   5.123
  385SOL    HW1 2054   4.299   5.738   5.040
  385SOL    HW2 2055   4.171   5.671   5.116
  386SOL     OW 2056   2.448   6.234   5.752
  386SOL    HW1 2057   2.352   6.214   5.771
  386SOL    HW2 2058   2.489   6.158   5.702
  387SOL     OW 2059   0.932   6.733   3.644
  387SOL    HW1 2060   0.846   6.724   3.594
  387SOL    HW2 2061   0.914   6.776   3.733
  388SOL     OW 2062   1.429   1.688   4.247
  388SOL    HW1 2063   1.489   1.703   4.169
  388SOL    HW2 2064   1.423   1.590   4.266
  389SOL     OW 2065   3.996   4.637   0.887
  389SOL    HW1 2066   4.004   4.608   0.792
  389SOL    HW2 2067   4.066   4.591   0.942
  390SOL     OW 2068   3.199   1.535   0.161
  390SOL    HW1 2069   3.155   1.475   0.094
  390SOL    HW2 2070   3.285   1.494   0.191
  391SOL     OW 2071   2.096   3.850   5.332
  391SOL    HW1 2072   2.095   3.819   5.237
  391SOL    HW2 2073   2.185   3.892   5.352
  392SOL     OW 2074   2.081   4.440   1.454
  392SOL    HW1 2075   2.031   4.468   1.536
  392SOL    HW2 2076   2.112   4.346   1.464
  393SOL     OW 2077   1.396   4.435   6.769
  393SOL    HW1 2078   1.349   4.371   6.708
  393SOL    HW2 2079   1.483   4.395   6.799
  394SOL     OW 2080   6.883   2.725   0.624
  394SOL    HW1 2081   6.948   2.794   0.656
  394SOL    HW2 2082   6.790   2.756   0.643
  395SOL     OW 2083   4.780   5.080   3.460
  395SOL    HW1 2084   4.759   5.028   3.377
  395SOL    HW2 2085   4.696   5.091   3.514
  396SOL     OW 2086   2.819   3.484   2.258
  396SOL    HW1 2087   2.777   3.395   2.280
  396SOL    HW2 2088   2.816   3.498   2.159
  397SOL     OW 2089   5.702   1.371   5.959
  397SOL    HW1 2090   5.669   1.400   5.869
  397SOL    HW2 2091   5.624   1.350   6.017
  398SOL     OW 2092   1.176   7.010   3.863
  398SOL    HW1 2093   1.141   6.940   3.925
  398SOL    HW2 2094   1.274   7.022   3.880
  399SOL     OW 2095   5.237   6.822   3.970
  399SOL    HW1 2096   5.214   6.877   4.050
  399SOL    HW2 2097   5.167   6.752   3.956
  400SOL     OW 2098   6.498   6.746   5.555
  400SOL    HW1 2099   6.484   6.822   5.619
  400SOL    HW2 2100   6.564   6.774   5.485
  401SOL     OW 2101   4.990   0.469   6.668
  401SOL    HW1 2102   5.087   0.489   6.681
  401SOL    HW2 2103   4.978   0.372   6.648
  402SOL     OW 2104   6.709   0.620   3.466
  402SOL    HW1 2105   6.755   0.592   3.382
  402SOL    HW2 2106   6.770   0.607   3.544
  403SOL     OW 2107   3.616   1.080   5.018
  403SOL    HW1 2108   3.674   1.000   5.034
  403SOL    HW2 2109   3.650   1.157   5.072
  404SOL     OW 2110   1.615   4.424   3.662
  404SOL    HW1 2111   1.676   4.501   3.680
  404SOL    HW2 2112   1.666   4.338   3.667
  405SOL     OW 2113   2.128   3.099   3.298
  405SOL    HW1 2114   2.210   3.047   3.324
  405SOL    HW2 2115   2.132   3.120   3.201
  406SOL     OW 2116   0.370   4.394   4.720
  406SOL    HW1 2117   0.297   4.370   4.784
  406SOL    HW2 2118   0.443   4.326   4.724
  407SOL     OW 2119   1.200   1.880   5.295
  407SOL    HW1 2120   1.182   1.782   5.286
  407SOL    HW2 2121   1.276   1.906   5.235
  408SOL     OW 2122   3.053   2.204   3.109
  408SOL    HW1 2123   3.027   2.244   3.197
  408SOL    HW2 2124   3.006   2.252   3.035
  409SOL     OW 2125   6.157   3.223   1.831
  409SOL    HW1 2126   6.080   3.286   1.830
  409SOL    HW2 2127   6.159   3.173   1.917
  410SOL     OW 2128   0.923   1.708   1.046
  410SOL    HW1 2129   0.984   1.766   0.993
  410SOL    HW2 2130   0.900   1.754   1.132
  411SOL     OW 2131   7.028   0.873   1.594
  411SOL    HW1 2132   6.937   0.858   1.556
  411SOL    HW2 2133   0.030   0.789   1.639
  412SOL     OW 2134   3.772   5.624   2.647
  412SOL    HW1 2135   3.789   5.648   2.743
  412SOL    HW2 2136   3.712   5.544   2.644
  413SOL     OW 2137   5.745   4.341   1.941
  413SOL    HW1 2138   5.773   4.301   2.028
  413SOL    HW2 2139   5.659   4.300   1.911
  414SOL     OW 2140   3.837   5.956   3.378
  414SOL    HW1 2141   3.866   5.891   3.448
  414SOL    HW2 2142   3.797   5.906   3.301
  415SOL     OW 2143   0.028   0.556   0.181
  415SOL    HW1 2144   6.983   0.583   0.242
  415SOL    HW2 2145   0.115   0.566   0.229
  416SOL     OW 2146   5.133   5.648   5.210
  416SOL    HW1 2147   5.075   5.595   5.148
  416SOL    HW2 2148   5.173   5.725   5.160
  417SOL     OW 2149   1.892   6.762   5.611
  417SOL    HW1 2150   1.854   6.670   5.612
  417SOL    HW2 2151   1.965   6.769   5.679
  418SOL     OW 2152   3.442   6.494   6.622
  418SOL    HW1 2153   3.401   6.475   6.711
  418SOL    HW2 2154   3.523   6.436   6.609
  419SOL     OW 2155   1.059   6.786   2.666
  419SOL    HW1 2156   1.014   6.770   2.754
  419SOL    HW2 2157   1.157   6.794   2.680
  420SOL     OW 2158   5.836   1.355   6.527
  420SOL    HW1 2159   5.809   1.317   6.616
  420SOL    HW2 2160   5.906   1.425   6.540
  421SOL     OW 2161   5.639   4.128   4.719
  421SOL    HW1 2162   5.621   4.166   4.810
  421SOL    HW2 2163   5.679   4.037   4.727
  422SOL     OW 2164   4.962   3.471   1.104
  422SOL    HW1 2165   5.061   3.480   1.096
  422SOL    HW2 2166   4.919   3.559   1.086
  423SOL     OW 2167   1.514   2.346   0.252
  423SOL    HW1 2168   1.444   2.358   0.322
  423SOL    HW2 2169   1.511   2.423   0.188
  424SOL     OW 2170   1.963   5.044   2.167
  424SOL    HW1 2171   2.054   5.083   2.177
  424SOL    HW2 2172   1.928   5.066   2.075
  425SOL     OW 2173   4.859   1.758   4.058
  425SOL    HW1 2174   4.840   1.757   3.960
  425SOL    HW2 2175   4.773   1.763   4.109
  426SOL     OW 2176   2.596   1.954   4.542
  426SOL    HW1 2177   2.648   2.018   4.599
  426SOL    HW2 2178   2.591   1.865   4.587
  427SOL     OW 2179   6.531   6.976   3.678
  427SOL    HW1 2180   6.526   7.009   3.772
  427SOL    HW2 2181   6.543   0.024   3.616
  428SOL     OW 2182   3.782   0.270   3.654
  428SOL    HW1 2183   3.786   0.368   3.672
  428SOL    HW2 2184   3.841   0.222   3.718
  429SOL     OW 2185   0.575   4.912   3.482
  429SOL    HW1 2186   0.590   4.945   3.389
  429SOL    HW2 2187   0.495   4.852   3.483
  430SOL     OW 2188   1.151   6.605   4.662
  430SOL    HW1 2189   1.090   6.664   4.715
  430SOL    HW2 2190   1.225   6.573   4.721
  431SOL     OW 2191   3.049   0.695   1.348
  431SOL    HW1 2192   2.969   0.732   1.301
  431SOL    HW2 2193   3.021   0.626   1.414
  432SOL     OW 2194   6.750   2.257   1.439
  432SOL    HW1 2195   6.681   2.296   1.378
  432SOL    HW2 2196   6.768   2.320   1.514
  433SOL     OW 2197   1.965   6.394   5.913
  433SOL    HW1 2198   1.902   6.468   5.936
  433SOL    HW2 2199   1.935   6.310   5.959
  434SOL     OW 2200   4.390   5.966   3.525
  434SOL    HW1 2201   4.397   5.901   3.601
  434SOL    HW2 2202   4.468   6.028   3.527
  435SOL     OW 2203   3.984   2.010   5.867
  435SOL    HW1 2204   3.931   1.997   5.784
  435SOL    HW2 2205   4.076   2.042   5.842
  436SOL     OW 2206   2.967   5.640   1.881
  436SOL    HW1 2207   3.014   5.704   1.942
  436SOL    HW2 2208   2.947   5.685   1.794
  437SOL     OW 2209   0.644   0.871   6.419
  437SOL    HW1 2210   0.653   0.818   6.503
  437SOL    HW2 2211   0.644   0.968   6.441
  438SOL     OW 2212   1.362   3.628   4.187
  438SOL    HW1 2213   1.367   3.711   4.133
  438SOL    HW2 2214   1.343   3.651   4.283
  439SOL     OW 2215   5.666   6.131   2.533
  439SOL    HW1 2216   5.756   6.153   2.570
  439SOL    HW2 2217   5.611   6.085   2.602
  440SOL     OW 2218   2.853   1.917   5.594
  440SOL    HW1 2219   2.771   1.967   5.569
  440SOL    HW2 2220   2.834   1.860   5.673
  441SOL     OW 2221   6.806   3.475   3.554
  441SOL    HW1 2222   6.728   3.437   3.504
  441SOL    HW2 2223   6.796   3.574   3.562
  442SOL     OW 2224   4.632   5.556   5.263
  442SOL    HW1 2225   4.619   5.655   5.251
  442SOL    HW2 2226   4.582   5.507   5.192
  443SOL     OW 2227   5.823   3.867   4.368
  443SOL    HW1 2228   5.877   3.880   4.451
  443SOL    HW2 2229   5.733   3.908   4.380
  444SOL     OW 2230   4.651   6.702   5.937
  444SOL    HW1 2231   4.738   6.701   5.889
  444SOL    HW2 2232   4.662   6.660   6.027
  445SOL     OW 2233   2.020   6.270   3.079
  445SOL    HW1 2234   2.010   6.234   3.172
  445SOL    HW2 2235   2.099   6.228   3.035
  446SOL     OW 2236   4.664   5.714   2.446
  446SOL    HW1 2237   4.625   5.803   2.472
  446SOL    HW2 2238   4.643   5.696   2.350
  447SOL     OW 2239   6.041   3.970   5.277
  447SOL    HW1 2240   6.101   4.043   5.310
  447SOL    HW2 2241   6.094   3.889   5.254
  448SOL     OW 2242   2.462   0.645   3.037
  448SOL    HW1 2243   2.509   0.695   2.965
  448SOL    HW2 2244   2.364   0.640   3.016
  449SOL     OW 2245   2.930   1.071   4.200
  449SOL    HW1 2246   2.917   0.992   4.140
  449SOL    HW2 2247   2.950   1.152   4.144
  450SOL     OW 2248   1.670   4.667   3.237
  450SOL    HW1 2249   1.665   4.599   3.164
  450SOL    HW2 2250   1.741   4.640   3.302
  451SOL     OW 2251   1.576   2.119   4.447
  451SOL    HW1 2252   1.496   2.126   4.387
  451SOL    HW2 2253   1.659   2.140   4.394
  452SOL     OW 2254   4.727   6.468   1.649
  452SOL    HW1 2255   4.745   6.503   1.557
  452SOL    HW2 2256   4.639   6.418   1.649
  453SOL     OW 2257   3.796   0.079   6.574
  453SOL    HW1 2258   3.841   0.096   6.486
  453SOL    HW2 2259   3.724   0.147   6.588
  454SOL     OW 2260   6.893   3.141   6.395
  454SOL    HW1 2261   6.841   3.055   6.397
  454SOL    HW2 2262   6.834   3.215   6.426
  455SOL     OW 2263   5.140   2.270   4.774
  455SOL    HW1 2264   5.051   2.280   4.730
  455SOL    HW2 2265   5.130   2.218   4.859
  456SOL     OW 2266   0.935   0.453   4.788
  456SOL    HW1 2267   0.997   0.531   4.798
  456SOL    HW2 2268   0.988   0.368   4.790
  457SOL     OW 2269   2.100   4.506   4.404
  457SOL    HW1 2270   2.077   4.434   4.469
  457SOL    HW2 2271   2.017   4.553   4.374
  458SOL     OW 2272   3.019   0.129   2.978
  458SOL    HW1 2273   3.114   0.135   2.947
  458SOL    HW2 2274   2.961   0.094   2.904
  459SOL     OW 2275   1.644   0.164   5.788
  459SOL    HW1 2276   1.721   0.227   5.782
  459SOL    HW2 2277   1.558   0.214   5.778
  460SOL     OW 2278   1.585   0.177   4.870
  460SOL    HW1 2279   1.675   0.217   4.887
  460SOL    HW2 2280   1.593   0.107   4.799
  461SOL     OW 2281   6.609   4.441   6.057
  461SOL    HW1 2282   6.533   4.395   6.105
  461SOL    HW2 2283   6.658   4.499   6.122
  462SOL     OW 2284   3.969   3.515   6.170
  462SOL    HW1 2285   4.029   3.587   6.205
  462SOL    HW2 2286   4.016   3.466   6.097
  463SOL     OW 2287   0.010   0.414   3.923
  463SOL    HW1 2288   7.004   0.486   3.983
  463SOL    HW2 2289   0.056   0.344   3.979
  464SOL     OW 2290   2.143   0.686   5.747
  464SOL    HW1 2291   2.212   0.615   5.763
  464SOL    HW2 2292   2.188   0.775   5.738
  465SOL     OW 2293   0.415   2.112   6.882
  465SOL    HW1 2294   0.361   2.170   6.821
  465SOL    HW2 2295   0.465   2.170   6.947
  466SOL     OW 2296   2.715   6.501   3.948
  466SOL    HW1 2297   2.708   6.518   3.850
  466SOL    HW2 2298   2.728   6.403   3.963
  467SOL     OW 2299   1.572   1.155   2.287
  467SOL    HW1 2300   1.519   1.185   2.366
  467SOL    HW2 2301   1.619   1.069   2.309
  468SOL     OW 2302   3.978   5.207   5.121
  468SOL    HW1 2303   3.880   5.204   5.098
  468SOL    HW2 2304   4.024   5.272   5.060
  469SOL     OW 2305   3.075   3.490   5.865
  469SOL    HW1 2306   3.114   3.520   5.778
  469SOL    HW2 2307   3.146   3.444   5.919
  470SOL     OW 2308   4.324   6.189   1.339
  470SOL    HW1 2309   4.266   6.270   1.328
  470SOL    HW2 2310   4.406   6.199   1.283
  471SOL     OW 2311   2.617   2.466   4.192
  471SOL    HW1 2312   2.708   2.446   4.228
  471SOL    HW2 2313   2.556   2.492   4.267
  472SOL     OW 2314   5.936   4.515   0.114
  472SOL    HW1 2315   5.967   4.515   0.019
  472SOL    HW2 2316   5.911   4.609   0.141
  473SOL     OW 2317   1.033   1.467   2.063
  473SOL    HW1 2318   1.101   1.427   2.124
  473SOL    HW2 2319   1.039   1.567   2.067
  474SOL     OW 2320   5.563   5.463   5.088
  474SOL    HW1 2321   5.508   5.546   5.073
  474SOL    HW2 2322   5.589   5.425   5.000
  475SOL     OW 2323   6.143   2.585   0.864
  475SOL    HW1 2324   6.137   2.587   0.764
  475SOL    HW2 2325   6.051   2.580   0.903
  476SOL     OW 2326   6.980   3.827   1.901
  476SOL    HW1 2327   0.034   3.826   1.846
  476SOL    HW2 2328   7.001   3.802   1.995
  477SOL     OW 2329   2.833   5.814   3.621
  477SOL    HW1 2330   2.821   5.723   3.660
  477SOL    HW2 2331   2.838   5.881   3.696
  478SOL     OW 2332   3.979   6.202   3.353
  478SOL    HW1 2333   3.915   6.125   3.356
  478SOL    HW2 2334   3.969   6.251   3.266
  479SOL     OW 2335   3.850   2.985   5.065
  479SOL    HW1 2336   3.834   2.888   5.047
  479SOL    HW2 2337   3.903   3.025   4.990
  480SOL     OW 2338   3.092   0.449   1.101
  480SOL    HW1 2339   2.999   0.486   1.100
  480SOL    HW2 2340   3.115   0.416   1.192
  481SOL     OW 2341   0.552   6.618   1.514
  481SOL    HW1 2342   0.589   6.593   1.424
  481SOL    HW2 2343   0.604   6.695   1.551
  482SOL     OW 2344   4.664   5.234   2.488
  482SOL    HW1 2345   4.613   5.166   2.436
  482SOL    HW2 2346   4.611   5.319   2.492
  483SOL     OW 2347   0.121   2.512   2.624
  483SOL    HW1 2348   0.157   2.587   2.569
  483SOL    HW2 2349   0.116   2.540   2.720
  484SOL     OW 2350   1.671   4.110   4.718
  484SOL    HW1 2351   1.749   4.048   4.709
  484SOL    HW2 2352   1.654   4.157   4.632
  485SOL     OW 2353   4.599   4.946   2.467
  485SOL    HW1 2354   4.697   4.954   2.487
  485SOL    HW2 2355   4.564   4.862   2.508
  486SOL     OW 2356   5.941   1.652   6.825
  486SOL    HW1 2357   5.932   1.631   6.728
  486SOL    HW2 2358   5.869   1.716   6.852
  487SOL     OW 2359   0.858   0.504   3.335
  487SOL    HW1 2360   0.958   0.510   3.339
  487SOL    HW2 2361   0.832   0.435   3.267
  488SOL     OW 2362   0.563   6.694   2.258
  488SOL    HW1 2363   0.474   6.686   2.303
  488SOL    HW2 2364   0.605   6.782   2.283
  489SOL     OW 2365   5.867   6.081   5.619
  489SOL    HW1 2366   5.937   6.012   5.640
  489SOL    HW2 2367   5.906   6.172   5.628
  490SOL     OW 2368   1.871   5.979   3.805
  490SOL    HW1 2369   1.809   5.901   3.807
  490SOL    HW2 2370   1.847   6.039   3.729
  491SOL     OW 2371   1.007   3.090   1.335
  491SOL    HW1 2372   1.083   3.026   1.342
  491SOL    HW2 2373   0.922   3.043   1.358
  492SOL     OW 2374   1.339   1.109   5.736
  492SOL    HW1 2375   1.246   1.080   5.713
  492SOL    HW2 2376   1.351   1.104   5.835
  493SOL     OW 2377   2.881   6.724   5.534
  493SOL    HW1 2378   2.893   6.821   5.557
  493SOL    HW2 2379   2.811   6.714   5.464
  494SOL     OW 2380   1.528   6.890   6.456
  494SOL    HW1 2381   1.486   6.847   6.536
  494SOL    HW2 2382   1.532   6.989   6.469
  495SOL     OW 2383   3.400   6.039   3.903
  495SOL    HW1 2384   3.474   6.102   3.928
  495SOL    HW2 2385   3.396   6.029   3.803
  496SOL     OW 2386   6.639   2.597   1.995
  496SOL    HW1 2387   6.564   2.533   2.009
  496SOL    HW2 2388   6.726   2.552   2.015
  497SOL     OW 2389   3.408   1.278   4.875
  497SOL    HW1 2390   3.321   1.257   4.919
  497SOL    HW2 2391   3.445   1.195   4.834
  498SOL     OW 2392   0.514   4.578   2.246
  498SOL    HW1 2393   0.439   4.554   2.184
  498SOL    HW2 2394   0.518   4.511   2.320
  499SOL     OW 2395   1.540   5.260   4.729
  499SOL    HW1 2396   1.493   5.334   4.681
  499SOL    HW2 2397   1.612   5.223   4.670
  500SOL     OW 2398   5.753   2.391   6.976
  500SOL    HW1 2399   5.844   2.381   7.016
  500SOL    HW2 2400   5.750   2.473   6.920
  501SOL     OW 2401   4.220   6.837   0.853
  501SOL    HW1 2402   4.172   6.923   0.834
  501SOL    HW2 2403   4.319   6.853   0.851
  502SOL     OW 2404   0.962   4.517   5.992
  502SOL    HW1 2405   0.911   4.598   5.962
  502SOL    HW2 2406   0.981   4.458   5.913
  503SOL     OW 2407   1.725   4.990   5.920
  503SOL    HW1 2408   1.677   5.073   5.949
  503SOL    HW2 2409   1.723   4.983   5.820
  504SOL     OW 2410   1.273   5.338   2.311
  504SOL    HW1 2411   1.252   5.247   2.276
  504SOL    HW2 2412   1.260   5.406   2.239
  505SOL     OW 2413   4.071   6.569   4.679
  505SOL    HW1 2414   4.137   6.497   4.656
  505SOL    HW2 2415   3.987   6.555   4.625
  506SOL     OW 2416   3.052   6.204   2.620
  506SOL    HW1 2417   2.963   6.244   2.643
  506SOL    HW2 2418   3.110   6.203   2.701
  507SOL     OW 2419   3.237   6.232   2.888
  507SOL    HW1 2420   3.274   6.193   2.973
  507SOL    HW2 2421   3.215   6.329   2.902
  508SOL     OW 2422   7.022   3.211   2.088
  508SOL    HW1 2423   0.033   3.301   2.072
  508SOL    HW2 2424   0.057   3.154   2.139
  509SOL     OW 2425   3.633   1.097   1.115
  509SOL    HW1 2426   3.569   1.174   1.121
  509SOL    HW2 2427   3.622   1.051   1.027
  510SOL     OW 2428   7.024   4.308   6.341
  510SOL    HW1 2429   7.010   4.212   6.365
  510SOL    HW2 2430   0.020   4.315   6.244
  511SOL     OW 2431   1.064   2.394   6.743
  511SOL    HW1 2432   1.022   2.303   6.739
  511SOL    HW2 2433   1.006   2.454   6.798
  512SOL     OW 2434   6.348   2.270   0.046
  512SOL    HW1 2435   6.256   2.261   0.084
  512SOL    HW2 2436   6.405   2.322   0.109
  513SOL     OW 2437   5.094   6.972   3.180
  513SOL    HW1 2438   5.122   7.017   3.265
  513SOL    HW2 2439   4.996   6.985   3.166
  514SOL     OW 2440   6.702   1.018   4.561
  514SOL    HW1 2441   6.641   0.946   4.594
  514SOL    HW2 2442   6.770   1.038   4.631
  515SOL     OW 2443   1.758   0.574   0.357
  515SOL    HW1 2444   1.822   0.619   0.418
  515SOL    HW2 2445   1.778   0.600   0.263
  516SOL     OW 2446   2.935   4.833   2.051
  516SOL    HW1 2447   2.898   4.741   2.061
  516SOL    HW2 2448   2.862   4.900   2.065
  517SOL     OW 2449   3.334   4.709   1.632
  517SOL    HW1 2450   3.388   4.664   1.702
  517SOL    HW2 2451   3.241   4.672   1.632
  518SOL     OW 2452   2.369   2.134   3.165
  518SOL    HW1 2453   2.388   2.211   3.225
  518SOL    HW2 2454   2.273   2.134   3.138
  519SOL     OW 2455   0.210   6.689   3.246
  519SOL    HW1 2456   0.136   6.750   3.276
  519SOL    HW2 2457   0.177   6.629   3.174
  520SOL     OW 2458   6.352   3.409   6.659
  520SOL    HW1 2459   6.277   3.472   6.639
  520SOL    HW2 2460   6.433   3.437   6.607
  521SOL     OW 2461   5.948   5.719   5.637
  521SOL    HW1 2462   5.984   5.811   5.654
  521SOL    HW2 2463   6.020   5.660   5.602
  522SOL     OW 2464   4.123   3.668   3.002
  522SOL    HW1 2465   4.221   3.686   3.001
  522SOL    HW2 2466   4.092   3.652   3.096
  523SOL     OW 2467   0.226   5.861   1.336
  523SOL    HW1 2468   0.126   5.858   1.336
  523SOL    HW2 2469   0.261   5.846   1.244
  524SOL     OW 2470   1.717   2.649   2.718
  524SOL    HW1 2471   1.776   2.682   2.792
  524SOL    HW2 2472   1.759   2.671   2.630
  525SOL     OW 2473   1.950   4.292   5.587
  525SOL    HW1 2474   2.023   4.346   5.546
  525SOL    HW2 2475   1.895   4.250   5.514
  526SOL     OW 2476   3.327   6.527   3.823
  526SOL    HW1 2477   3.427   6.529   3.830
  526SOL    HW2 2478   3.298   6.434   3.799
  527SOL     OW 2479   6.831   2.372   0.592
  527SOL    HW1 2480   6.857   2.374   0.689
  527SOL    HW2 2481   6.913   2.369   0.536
  528SOL     OW 2482   1.757   2.688   3.706
  528SOL    HW1 2483   1.847   2.726   3.682
  528SOL    HW2 2484   1.745   2.692   3.805
  529SOL     OW 2485   1.700   6.852   5.141
  529SOL    HW1 2486   1.733   6.858   5.047
  529SOL    HW2 2487   1.760   6.792   5.194
  530SOL     OW 2488   4.096   3.695   2.710
  530SOL    HW1 2489   4.038   3.775   2.696
  530SOL    HW2 2490   4.107   3.679   2.808
  531SOL     OW 2491   1.147   1.040   2.806
  531SOL    HW1 2492   1.184   0.999   2.890
  531SOL    HW2 2493   1.218   1.039   2.736
  532SOL     OW 2494   1.328   3.304   0.296
  532SOL    HW1 2495   1.355   3.268   0.207
  532SOL    HW2 2496   1.404   3.297   0.360
  533SOL     OW 2497   4.202   0.029   3.463
  533SOL    HW1 2498   4.173   0.066   3.375
  533SOL    HW2 2499   4.252   0.099   3.514
  534SOL     OW 2500   5.561   5.710   2.891
  534SOL    HW1 2501   5.591   5.627   2.937
  534SOL    HW2 2502   5.461   5.714   2.893
  535SOL     OW 2503   6.827   4.137   3.439
  535SOL    HW1 2504   6.791   4.218   3.393
  535SOL    HW2 2505   6.771   4.116   3.519
  536SOL     OW 2506   6.515   4.524   2.675
  536SOL    HW1 2507   6.511   4.609   2.727
  536SOL    HW2 2508   6.504   4.543   2.578
  537SOL     OW 2509   3.119   6.786   4.629
  537SOL    HW1 2510   3.074   6.745   4.709
  537SOL    HW2 2511   3.098   6.884   4.626
  538SOL     OW 2512   0.475   4.658   4.205
  538SOL    HW1 2513   0.566   4.651   4.246
  538SOL    HW2 2514   0.421   4.725   4.255
  539SOL     OW 2515   2.129   4.879   1.949
  539SOL    HW1 2516   2.210   4.824   1.926
  539SOL    HW2 2517   2.158   4.963   1.994
  540SOL     OW 2518   1.412   1.479   2.869
  540SOL    HW1 2519   1.466   1.537   2.809
  540SOL    HW2 2520   1.426   1.507   2.964
  541SOL     OW 2521   5.323   5.642   3.845
  541SOL    HW1 2522   5.229   5.629   3.812
  541SOL    HW2 2523   5.351   5.736   3.830
  542SOL     OW 2524   4.520   6.343   6.887
  542SOL    HW1 2525   4.472   6.381   6.966
  542SOL    HW2 2526   4.618   6.344   6.904
  543SOL     OW 2527   6.253   3.863   3.772
  543SOL    HW1 2528   6.218   3.906   3.855
  543SOL    HW2 2529   6.250   3.764   3.782
  544SOL     OW 2530   1.055   5.021   7.028
  544SOL    HW1 2531   1.060   4.923   7.007
  544SOL    HW2 2532   1.147   5.057   0.013
  545SOL     OW 2533   3.552   0.648   1.403
  545SOL    HW1 2534   3.598   0.657   1.491
  545SOL    HW2 2535   3.549   0.738   1.358
  546SOL     OW 2536   0.957   3.902   1.190
  546SOL    HW1 2537   1.049   3.890   1.230
  546SOL    HW2 2538   0.892   3.847   1.242
  547SOL     OW 2539   3.416   2.174   1.005
  547SOL    HW1 2540   3.499   2.134   1.044
  547SOL    HW2 2541   3.356   2.101   0.972
  548SOL     OW 2542   3.384   3.300   1.556
  548SOL    HW1 2543   3.337   3.253   1.631
  548SOL    HW2 2544   3.374   3.248   1.471
  549SOL     OW 2545   5.414   2.396   2.053
  549SOL    HW1 2546   5.421   2.420   2.150
  549SOL    HW2 2547   5.503   2.366   2.019
  550SOL     OW 2548   0.980   5.466   3.413
  550SOL    HW1 2549   1.044   5.542   3.417
  550SOL    HW2 2550   0.892   5.494   3.449
  551SOL     OW 2551   0.296   6.882   1.557
  551SOL    HW1 2552   0.374   6.914   1.611
  551SOL    HW2 2553   0.322   6.876   1.461
  552SOL     OW 2554   5.791   3.715   6.931
  552SOL    HW1 2555   5.887   3.714   6.960
  552SOL    HW2 2556   5.737   3.661   6.995
  553SOL     OW 2557   2.684   6.743   4.400
  553SOL    HW1 2558   2.623   6.680   4.351
  553SOL    HW2 2559   2.776   6.705   4.400
  554SOL     OW 2560   6.043   0.300   0.121
  554SOL    HW1 2561   6.096   0.222   0.088
  554SOL    HW2 2562   6.011   0.282   0.214
  555SOL     OW 2563   3.424   5.012   4.885
  555SOL    HW1 2564   3.387   5.100   4.912
  555SOL    HW2 2565   3.420   4.949   4.963
  556SOL     OW 2566   5.048   2.084   3.759
  556SOL    HW1 2567   5.042   2.113   3.855
  556SOL    HW2 2568   4.966   2.112   3.710
  557SOL     OW 2569   6.807   5.681   0.391
  557SOL    HW1 2570   6.899   5.677   0.431
  557SOL    HW2 2571   6.739   5.662   0.462
  558SOL     OW 2572   3.565   3.217   3.501
  558SOL    HW1 2573   3.604   3.299   3.545
  558SOL    HW2 2574   3.598   3.136   3.548
  559SOL     OW 2575   7.015   5.413   6.086
  559SOL    HW1 2576   0.076   5.376   6.103
  559SOL    HW2 2577   6.983   5.464   6.166
  560SOL     OW 2578   6.557   3.689   3.747
  560SOL    HW1 2579   6.562   3.750   3.667
  560SOL    HW2 2580   6.481   3.625   3.735
  561SOL     OW 2581   0.503   2.429   0.828
  561SOL    HW1 2582   0.573   2.433   0.899
  561SOL    HW2 2583   0.544   2.397   0.742
  562SOL     OW 2584   4.291   0.149   6.000
  562SOL    HW1 2585   4.215   0.145   6.065
  562SOL    HW2 2586   4.300   0.242   5.965
  563SOL     OW 2587   2.976   0.573   3.781
  563SOL    HW1 2588   2.935   0.663   3.770
  563SOL    HW2 2589   3.072   0.576   3.755
  564SOL     OW 2590   0.885   3.184   0.182
  564SOL    HW1 2591   0.923   3.276   0.170
  564SOL    HW2 2592   0.788   3.191   0.204
  565SOL     OW 2593   3.671   3.934   4.533
  565SOL    HW1 2594   3.634   3.844   4.510
  565SOL    HW2 2595   3.684   3.940   4.632
  566SOL     OW 2596   0.601   4.049   3.170
  566SOL    HW1 2597   0.607   3.979   3.241
  566SOL    HW2 2598   0.532   4.117   3.196
  567SOL     OW 2599   2.997   2.966   1.667
  567SOL    HW1 2600   3.018   2.878   1.711
  567SOL    HW2 2601   3.059   2.980   1.590
  568SOL     OW 2602   4.786   0.039   0.044
  568SOL    HW1 2603   4.732   7.016   0.109
  568SOL    HW2 2604   4.879   0.050   0.080
  569SOL     OW 2605   1.331   2.989   0.111
  569SOL    HW1 2606   1.259   2.974   0.179
  569SOL    HW2 2607   1.381   2.904   0.097
  570SOL     OW 2608   3.778   0.217   6.272
  570SOL    HW1 2609   3.729   0.200   6.358
  570SOL    HW2 2610   3.712   0.235   6.199
  571SOL     OW 2611   3.160   4.936   3.078
  571SOL    HW1 2612   3.238   4.949   3.017
  571SOL    HW2 2613   3.092   4.878   3.034
  572SOL     OW 2614   2.602   4.860   5.410
  572SOL    HW1 2615   2.660   4.926   5.457
  572SOL    HW2 2616   2.515   4.851   5.458
  573SOL     OW 2617   5.452   0.805   5.452
  573SOL    HW1 2618   5.408   0.810   5.362
  573SOL    HW2 2619   5.540   0.854   5.448
  574SOL     OW 2620   3.406   1.664   4.583
  574SOL    HW1 2621   3.432   1.610   4.663
  574SOL    HW2 2622   3.309   1.687   4.588
  575SOL     OW 2623   4.951   3.759   1.587
  575SOL    HW1 2624   5.037   3.714   1.612
  575SOL    HW2 2625   4.911   3.714   1.507
  576SOL     OW 2626   1.466   2.537   2.755
  576SOL    HW1 2627   1.512   2.451   2.776
  576SOL    HW2 2628   1.535   2.610   2.747
  577SOL     OW 2629   1.289   1.296   2.699
  577SOL    HW1 2630   1.319   1.366   2.763
  577SOL    HW2 2631   1.189   1.294   2.697
  578SOL     OW 2632   6.793   5.120   4.860
  578SOL    HW1 2633   6.706   5.104   4.814
  578SOL    HW2 2634   6.816   5.217   4.857
  579SOL     OW 2635   1.788   3.605   4.153
  579SOL    HW1 2636   1.873   3.575   4.195
  579SOL    HW2 2637   1.726   3.639   4.224
  580SOL     OW 2638   4.903   4.932   5.248
  580SOL    HW1 2639   4.929   4.973   5.161
  580SOL    HW2 2640   4.933   4.991   5.323
  581SOL     OW 2641   1.980   2.268   1.932
  581SOL    HW1 2642   1.942   2.183   1.970
  581SOL    HW2 2643   2.080   2.260   1.929
  582SOL     OW 2644   5.019   6.157   2.606
  582SOL    HW1 2645   5.093   6.184   2.667
  582SOL    HW2 2646   5.055   6.143   2.514
  583SOL     OW 2647   2.772   6.193   4.989
  583SOL    HW1 2648   2.829   6.150   4.919
  583SOL    HW2 2649   2.771   6.292   4.974
  584SOL     OW 2650   2.742   5.859   6.733
  584SOL    HW1 2651   2.693   5.943   6.753
  584SOL    HW2 2652   2.681   5.781   6.747
  585SOL     OW 2653   4.550   1.643   6.728
  585SOL    HW1 2654   4.463   1.690   6.743
  585SOL    HW2 2655   4.565   1.577   6.802
  586SOL     OW 2656   3.157   0.332   6.144
  586SOL    HW1 2657   3.228   0.301   6.208
  586SOL    HW2 2658   3.084   0.376   6.195
  587SOL     OW 2659   4.745   2.341   4.074
  587SOL    HW1 2660   4.750   2.318   3.977
  587SOL    HW2 2661   4.780   2.264   4.128
  588SOL     OW 2662   2.470   5.419   1.298
  588SOL    HW1 2663   2.456   5.321   1.315
  588SOL    HW2 2664   2.463   5.469   1.384
  589SOL     OW 2665   3.652   4.933   1.433
  589SOL    HW1 2666   3.605   4.853   1.396
  589SOL    HW2 2667   3.660   4.923   1.532
  590SOL     OW 2668   5.465   2.785   2.110
  590SOL    HW1 2669   5.392   2.791   2.178
  590SOL    HW2 2670   5.533   2.856   2.127
  591SOL     OW 2671   3.806   5.649   3.370
  591SOL    HW1 2672   3.725   5.667   3.426
  591SOL    HW2 2673   3.799   5.699   3.284
  592SOL     OW 2674   3.998   1.278   1.181
  592SOL    HW1 2675   4.067   1.222   1.227
  592SOL    HW2 2676   3.994   1.255   1.084
  593SOL     OW 2677   4.043   2.211   4.358
  593SOL    HW1 2678   4.005   2.293   4.314
  593SOL    HW2 2679   4.061   2.229   4.454
  594SOL     OW 2680   6.133   1.033   0.727
  594SOL    HW1 2681   6.088   1.053   0.640
  594SOL    HW2 2682   6.232   1.022   0.712
  595SOL     OW 2683   5.583   0.621   3.497
  595SOL    HW1 2684   5.596   0.715   3.466
  595SOL    HW2 2685   5.670   0.571   3.489
  596SOL     OW 2686   0.530   5.616   3.682
  596SOL    HW1 2687   0.455   5.641   3.621
  596SOL    HW2 2688   0.579   5.698   3.710
  597SOL     OW 2689   2.026   0.172   0.332
  597SOL    HW1 2690   2.000   0.085   0.375
  597SOL    HW2 2691   2.106   0.209   0.378
  598SOL     OW 2692   3.634   3.732   5.225
  598SOL    HW1 2693   3.657   3.679   5.307
  598SOL    HW2 2694   3.703   3.803   5.212
  599SOL     OW 2695   2.611   6.348   2.236
  599SOL    HW1 2696   2.705   6.375   2.215
  599SOL    HW2 2697   2.547   6.413   2.196
  600SOL     OW 2698   6.198   1.577   6.464
  600SOL    HW1 2699   6.249   1.543   6.385
  600SOL    HW2 2700   6.185   1.503   6.530
  601SOL     OW 2701   1.272   0.740   4.262
  601SOL    HW1 2702   1.179   0.768   4.288
  601SOL    HW2 2703   1.325   0.822   4.239
  602SOL     OW 2704   1.288   1.263   6.438
  602SOL    HW1 2705   1.231   1.341   6.412
  602SOL    HW2 2706   1.237   1.203   6.500
  603SOL     OW 2707   3.028   2.753   5.308
  603SOL    HW1 2708   3.066   2.661   5.310
  603SOL    HW2 2709   2.953   2.759   5.374
  604SOL     OW 2710   0.985   2.011   1.354
  604SOL    HW1 2711   1.040   2.007   1.271
  604SOL    HW2 2712   1.015   1.940   1.417
  605SOL     OW 2713   6.598   5.162   6.915
  605SOL    HW1 2714   6.631   5.218   6.839
  605SOL    HW2 2715   6.648   5.075   6.918
  606SOL     OW 2716   4.998   6.501   6.082
  606SOL    HW1 2717   4.977   6.577   6.144
  606SOL    HW2 2718   5.080   6.524   6.029
  607SOL     OW 2719   6.080   5.155   5.008
  607SOL    HW1 2720   6.011   5.180   5.076
  607SOL    HW2 2721   6.162   5.123   5.055
  608SOL     OW 2722   3.742   6.253   6.880
  608SOL    HW1 2723   3.679   6.257   6.803
  608SOL    HW2 2724   3.779   6.344   6.897
  609SOL     OW 2725   3.870   3.119   2.617
  609SOL    HW1 2726   3.925   3.165   2.687
  609SOL    HW2 2727   3.839   3.031   2.652
  610SOL     OW 2728   5.950   3.990   1.921
  610SOL    HW1 2729   5.998   4.000   2.009
  610SOL    HW2 2730   5.856   3.963   1.938
  611SOL     OW 2731   4.226   6.970   1.943
  611SOL    HW1 2732   4.280   6.936   2.020
  611SOL    HW2 2733   4.288   7.008   1.874
  612SOL     OW 2734   4.136   6.404   4.362
  612SOL    HW1 2735   4.205   6.354   4.309
  612SOL    HW2 2736   4.083   6.339   4.416
  613SOL     OW 2737   5.049   5.499   5.454
  613SOL    HW1 2738   5.083   5.543   5.372
  613SOL    HW2 2739   5.045   5.566   5.529
  614SOL     OW 2740   4.907   5.458   6.747
  614SOL    HW1 2741   4.956   5.518   6.684
  614SOL    HW2 2742   4.833   5.509   6.791
  615SOL     OW 2743   0.138   2.226   2.153
  615SOL    HW1 2744   0.202   2.162   2.196
  615SOL    HW2 2745   0.090   2.277   2.224
  616SOL     OW 2746   0.727   3.204   3.200
  616SOL    HW1 2747   0.799   3.264   3.236
  616SOL    HW2 2748   0.739   3.112   3.237
  617SOL     OW 2749   0.449   4.241   6.509
  617SOL    HW1 2750   0.482   4.189   6.587
  617SOL    HW2 2751   0.398   4.321   6.540
  618SOL     OW 2752   6.708   2.237   0.363
  618SOL    HW1 2753   6.621   2.266   0.323
  618SOL    HW2 2754   6.734   2.300   0.436
  619SOL     OW 2755   4.146   1.230   7.011
  619SOL    HW1 2756   4.163   1.173   0.061
  619SOL    HW2 2757   4.188   1.319   7.025
  620SOL     OW 2758   3.911   2.546   1.604
  620SOL    HW1 2759   3.937   2.531   1.509
  620SOL    HW2 2760   3.909   2.458   1.652
  621SOL     OW 2761   2.296   6.913   6.893
  621SOL    HW1 2762   2.348   6.929   6.977
  621SOL    HW2 2763   2.307   6.818   6.865
  622SOL     OW 2764   1.031   0.723   6.749
  622SOL    HW1 2765   1.012   0.717   6.847
  622SOL    HW2 2766   0.974   0.794   6.707
  623SOL     OW 2767   0.525   5.449   5.519
  623SOL    HW1 2768   0.481   5.373   5.471
  623SOL    HW2 2769   0.591   5.493   5.458
  624SOL     OW 2770   0.181   2.368   0.972
  624SOL    HW1 2771   0.081   2.372   0.966
  624SOL    HW2 2772   0.212   2.414   1.055
  625SOL     OW 2773   1.970   1.836   1.820
  625SOL    HW1 2774   1.978   1.738   1.838
  625SOL    HW2 2775   1.934   1.883   1.900
  626SOL     OW 2776   1.986   6.162   3.346
  626SOL    HW1 2777   1.909   6.219   3.375
  626SOL    HW2 2778   2.064   6.179   3.407
  627SOL     OW 2779   5.412   6.556   0.378
  627SOL    HW1 2780   5.441   6.466   0.346
  627SOL    HW2 2781   5.472   6.586   0.453
  628SOL     OW 2782   6.211   5.741   6.204
  628SOL    HW1 2783   6.256   5.755   6.116
  628SOL    HW2 2784   6.235   5.650   6.239
  629SOL     OW 2785   6.744   6.564   0.405
  629SOL    HW1 2786   6.781   6.639   0.349
  629SOL    HW2 2787   6.818   6.524   0.459
  630SOL     OW 2788   6.555   1.874   2.295
  630SOL    HW1 2789   6.638   1.879   2.352
  630SOL    HW2 2790   6.554   1.788   2.244
  631SOL     OW 2791   3.010   6.605   5.302
  631SOL    HW1 2792   3.043   6.519   5.339
  631SOL    HW2 2793   2.966   6.658   5.374
  632SOL     OW 2794   2.368   1.151   0.732
  632SOL    HW1 2795   2.459   1.191   0.720
  632SOL    HW2 2796   2.299   1.219   0.709
  633SOL     OW 2797   4.793   4.238   0.265
  633SOL    HW1 2798   4.743   4.251   0.179
  633SOL    HW2 2799   4.888   4.269   0.254
  634SOL     OW 2800   4.693   4.549   1.512
  634SOL    HW1 2801   4.687   4.518   1.607
  634SOL    HW2 2802   4.605   4.586   1.484
  635SOL     OW 2803   4.819   5.118   0.915
  635SOL    HW1 2804   4.894   5.155   0.859
  635SOL    HW2 2805   4.756   5.067   0.856
  636SOL     OW 2806   4.252   5.551   6.353
  636SOL    HW1 2807   4.240   5.453   6.366
  636SOL    HW2 2808   4.164   5.597   6.366
  637SOL     OW 2809   6.627   3.922   2.668
  637SOL    HW1 2810   6.536   3.890   2.695
  637SOL    HW2 2811   6.635   3.920   2.569
  638SOL     OW 2812   5.416   2.070   3.201
  638SOL    HW1 2813   5.443   2.150   3.147
  638SOL    HW2 2814   5.461   2.074   3.290
  639SOL     OW 2815   5.144   4.106   2.642
  639SOL    HW1 2816   5.126   4.009   2.631
  639SOL    HW2 2817   5.239   4.120   2.671
  640SOL     OW 2818   0.510   5.331   4.245
  640SOL    HW1 2819   0.580   5.286   4.191
  640SOL    HW2 2820   0.551   5.405   4.298
  641SOL     OW 2821   6.711   6.297   4.712
  641SOL    HW1 2822   6.615   6.291   4.683
  641SOL    HW2 2823   6.721   6.369   4.780
  642SOL     OW 2824   0.340   3.372   4.647
  642SOL    HW1 2825   0.430   3.333   4.630
  642SOL    HW2 2826   0.298   3.399   4.560
  643SOL     OW 2827   5.065   5.423   5.064
  643SOL    HW1 2828   5.075   5.462   4.972
  643SOL    HW2 2829   5.123   5.341   5.071
  644SOL     OW 2830   0.958   5.936   4.366
  644SOL    HW1 2831   0.960   5.873   4.444
  644SOL    HW2 2832   1.050   5.974   4.352
  645SOL     OW 2833   4.790   1.333   4.803
  645SOL    HW1 2834   4.771   1.241   4.835
  645SOL    HW2 2835   4.888   1.346   4.791
  646SOL     OW 2836   3.293   1.450   4.419
  646SOL    HW1 2837   3.346   1.507   4.483
  646SOL    HW2 2838   3.353   1.382   4.378
  647SOL     OW 2839   5.389   1.865   4.833
  647SOL    HW1 2840   5.487   1.885   4.823
  647SOL    HW2 2841   5.379   1.777   4.880
  648SOL     OW 2842   0.156   4.276   4.180
  648SOL    HW1 2843   0.200   4.355   4.224
  648SOL    HW2 2844   0.070   4.256   4.226
  649SOL     OW 2845   3.650   4.068   0.414
  649SOL    HW1 2846   3.746   4.095   0.421
  649SOL    HW2 2847   3.625   4.014   0.494
  650SOL     OW 2848   6.375   4.685   0.836
  650SOL    HW1 2849   6.420   4.603   0.799
  650SOL    HW2 2850   6.377   4.680   0.936
  651SOL     OW 2851   6.623   6.868   6.328
  651SOL    HW1 2852   6.549   6.887   6.264
  651SOL    HW2 2853   6.614   6.776   6.364
  652SOL     OW 2854   5.193   6.190   3.875
  652SOL    HW1 2855   5.104   6.151   3.852
  652SOL    HW2 2856   5.239   6.221   3.792
  653SOL     OW 2857   2.947   6.087   4.778
  653SOL    HW1 2858   2.871   6.052   4.724
  653SOL    HW2 2859   3.012   6.134   4.719
  654SOL     OW 2860   0.512   3.963   5.926
  654SOL    HW1 2861   0.441   3.959   5.855
  654SOL    HW2 2862   0.543   4.057   5.937
  655SOL     OW 2863   0.739   6.232   1.974
  655SOL    HW1 2864   0.653   6.184   1.954
  655SOL    HW2 2865   0.749   6.309   1.911
  656SOL     OW 2866   1.689   6.085   1.978
  656SOL    HW1 2867   1.592   6.097   1.999
  656SOL    HW2 2868   1.714   5.989   1.991
  657SOL     OW 2869   1.486   2.285   1.539
  657SOL    HW1 2870   1.430   2.203   1.541
  657SOL    HW2 2871   1.583   2.260   1.534
  658SOL     OW 2872   2.844   3.403   5.916
  658SOL    HW1 2873   2.936   3.436   5.894
  658SOL    HW2 2874   2.776   3.467   5.881
  659SOL     OW 2875   2.320   5.784   5.788
  659SOL    HW1 2876   2.349   5.814   5.879
  659SOL    HW2 2877   2.231   5.823   5.767
  660SOL     OW 2878   5.064   4.472   2.277
  660SOL    HW1 2879   5.107   4.387   2.308
  660SOL    HW2 2880   4.966   4.468   2.294
  661SOL     OW 2881   4.204   5.636   3.050
  661SOL    HW1 2882   4.212   5.698   2.972
  661SOL    HW2 2883   4.118   5.585   3.043
  662SOL     OW 2884   3.757   0.718   5.764
  662SOL    HW1 2885   3.767   0.657   5.843
  662SOL    HW2 2886   3.776   0.812   5.793
  663SOL     OW 2887   2.304   4.141   6.227
  663SOL    HW1 2888   2.291   4.043   6.244
  663SOL    HW2 2889   2.390   4.155   6.179
  664SOL     OW 2890   6.841   5.237   6.234
  664SOL    HW1 2891   6.899   5.297   6.178
  664SOL    HW2 2892   6.780   5.293   6.290
  665SOL     OW 2893   5.438   5.662   2.250
  665SOL    HW1 2894   5.456   5.687   2.155
  665SOL    HW2 2895   5.341   5.677   2.270
  666SOL     OW 2896   5.222   2.154   2.425
  666SOL    HW1 2897   5.261   2.218   2.491
  666SOL    HW2 2898   5.266   2.168   2.336
  667SOL     OW 2899   1.119   4.896   3.077
  667SOL    HW1 2900   1.057   4.973   3.061
  667SOL    HW2 2901   1.067   4.820   3.117
  668SOL     OW 2902   5.295   6.832   5.847
  668SOL    HW1 2903   5.275   6.744   5.890
  668SOL    HW2 2904   5.370   6.877   5.895
  669SOL     OW 2905   4.064   0.674   2.741
  669SOL    HW1 2906   4.132   0.651   2.672
  669SOL    HW2 2907   4.106   0.732   2.811
  670SOL     OW 2908   3.176   2.662   1.465
  670SOL    HW1 2909   3.144   2.676   1.559
  670SOL    HW2 2910   3.275   2.650   1.466
  671SOL     OW 2911   1.488   6.457   0.056
  671SOL    HW1 2912   1.585   6.459   0.032
  671SOL    HW2 2913   1.450   6.368   0.033
  672SOL     OW 2914   0.265   5.539   2.229
  672SOL    HW1 2915   0.362   5.515   2.234
  672SOL    HW2 2916   0.251   5.629   2.271
  673SOL     OW 2917   6.792   6.492   1.420
  673SOL    HW1 2918   6.888   6.486   1.449
  673SOL    HW2 2919   6.757   6.583   1.443
  674SOL     OW 2920   1.270   1.373   5.048
  674SOL    HW1 2921   1.203   1.445   5.028
  674SOL    HW2 2922   1.297   1.379   5.144
  675SOL     OW 2923   0.880   0.842   3.005
  675SOL    HW1 2924   0.823   0.858   2.924
  675SOL    HW2 2925   0.832   0.873   3.087
  676SOL     OW 2926   3.086   6.168   2.333
  676SOL    HW1 2927   3.056   6.162   2.429
  676SOL    HW2 2928   3.006   6.163   2.273
  677SOL     OW 2929   5.819   2.003   0.733
  677SOL    HW1 2930   5.881   2.060   0.679
  677SOL    HW2 2931   5.725   2.024   0.708
  678SOL     OW 2932   2.090   0.419   5.500
  678SOL    HW1 2933   2.095   0.371   5.412
  678SOL    HW2 2934   2.011   0.481   5.499
  679SOL     OW 2935   4.527   2.201   3.299
  679SOL    HW1 2936   4.561   2.106   3.302
  679SOL    HW2 2937   4.428   2.200   3.291
  680SOL     OW 2938   5.727   5.403   6.022
  680SOL    HW1 2939   5.716   5.471   5.950
  680SOL    HW2 2940   5.653   5.337   6.018
  681SOL     OW 2941   5.458   4.549   1.747
  681SOL    HW1 2942   5.479   4.642   1.719
  681SOL    HW2 2943   5.535   4.489   1.724
  682SOL     OW 2944   6.921   1.502   1.168
  682SOL    HW1 2945   6.842   1.563   1.176
  682SOL    HW2 2946   7.005   1.557   1.167
  683SOL     OW 2947   4.948   3.597   0.552
  683SOL    HW1 2948   4.973   3.540   0.474
  683SOL    HW2 2949   4.945   3.540   0.635
  684SOL     OW 2950   6.382   1.335   0.069
  684SOL    HW1 2951   6.411   1.336   7.003
  684SOL    HW2 2952   6.453   1.293   0.125
  685SOL     OW 2953   3.864   1.246   3.422
  685SOL    HW1 2954   3.925   1.301   3.479
  685SOL    HW2 2955   3.788   1.303   3.390
  686SOL     OW 2956   4.816   3.125   3.809
  686SOL    HW1 2957   4.862   3.037   3.819
  686SOL    HW2 2958   4.844   3.168   3.723
  687SOL     OW 2959   0.442   2.112   4.342
  687SOL    HW1 2960   0.499   2.052   4.286
  687SOL    HW2 2961   0.346   2.091   4.326
  688SOL     OW 2962   0.416   1.456   6.936
  688SOL    HW1 2963   0.477   1.530   6.962
  688SOL    HW2 2964   0.361   1.428   7.016
  689SOL     OW 2965   0.400   5.134   6.530
  689SOL    HW1 2966   0.414   5.207   6.463
  689SOL    HW2 2967   0.458   5.056   6.507
  690SOL     OW 2968   0.776   4.084   2.355
  690SOL    HW1 2969   0.764   4.047   2.447
  690SOL    HW2 2970   0.686   4.106   2.316
  691SOL     OW 2971   2.575   0.277   0.365
  691SOL    HW1 2972   2.656   0.227   0.333
  691SOL    HW2 2973   2.602   0.347   0.430
  692SOL     OW 2974   3.562   0.615   3.819
  692SOL    HW1 2975   3.479   0.638   3.768
  692SOL    HW2 2976   3.539   0.605   3.916
  693SOL     OW 2977   5.555   0.677   3.754
  693SOL    HW1 2978   5.625   0.743   3.780
  693SOL    HW2 2979   5.567   0.650   3.658
  694SOL     OW 2980   4.001   6.546   3.529
  694SOL    HW1 2981   4.091   6.506   3.509
  694SOL    HW2 2982   3.980   6.616   3.461
  695SOL     OW 2983   4.382   6.812   4.184
  695SOL    HW1 2984   4.457   6.875   4.163
  695SOL    HW2 2985   4.394   6.727   4.132
  696SOL     OW 2986   4.794   5.051   2.888
  696SOL    HW1 2987   4.700   5.019   2.876
  696SOL    HW2 2988   4.830   5.016   2.975
  697SOL     OW 2989   1.853   3.955   3.557
  697SOL    HW1 2990   1.880   3.889   3.627
  697SOL    HW2 2991   1.839   3.908   3.470
  698SOL     OW 2992   4.487   6.924   0.871
  698SOL    HW1 2993   4.537   7.011   0.869
  698SOL    HW2 2994   4.537   6.858   0.926
  699SOL     OW 2995   2.186   3.623   6.447
  699SOL    HW1 2996   2.198   3.536   6.398
  699SOL    HW2 2997   2.090   3.650   6.443
  700SOL     OW 2998   2.766   0.730   2.449
  700SOL    HW1 2999   2.721   0.714   2.361
  700SOL    HW2 3000   2.817   0.816   2.446
  701SOL     OW 3001   6.474   4.074   6.134
  701SOL    HW1 3002   6.376   4.053   6.124
  701SOL    HW2 3003   6.504   4.046   6.225
  702SOL     OW 3004   1.298   5.840   4.919
  702SOL    HW1 3005   1.378   5.786   4.945
  702SOL    HW2 3006   1.313   5.881   4.829
  703SOL     OW 3007   3.729   3.744   6.827
  703SOL    HW1 3008   3.655   3.783   6.771
  703SOL    HW2 3009   3.772   3.668   6.778
  704SOL     OW 3010   1.584   2.695   0.237
  704SOL    HW1 3011   1.558   2.745   0.155
  704SOL    HW2 3012   1.516   2.711   0.309
  705SOL     OW 3013   6.193   5.177   3.032
  705SOL    HW1 3014   6.286   5.140   3.032
  705SOL    HW2 3015   6.197   5.275   3.053
  706SOL     OW 3016   4.406   2.014   4.890
  706SOL    HW1 3017   4.441   1.940   4.948
  706SOL    HW2 3018   4.413   2.101   4.939
  707SOL     OW 3019   4.470   5.053   2.889
  707SOL    HW1 3020   4.410   5.131   2.905
  707SOL    HW2 3021   4.425   4.986   2.830
  708SOL     OW 3022   3.772   0.395   1.995
  708SOL    HW1 3023   3.673   0.406   1.984
  708SOL    HW2 3024   3.791   0.321   2.059
  709SOL     OW 3025   0.594   5.949   0.805
  709SOL    HW1 3026   0.588   5.851   0.788
  709SOL    HW2 3027   0.587   5.967   0.903
  710SOL     OW 3028   3.826   2.715   1.233
  710SOL    HW1 3029   3.873   2.686   1.149
  710SOL    HW2 3030   3.766   2.641   1.265
  711SOL     OW 3031   0.107   3.369   5.796
  711SOL    HW1 3032   0.064   3.313   5.725
  711SOL    HW2 3033   0.135   3.310   5.872
  712SOL     OW 3034   4.018   2.396   1.368
  712SOL    HW1 3035   3.955   2.319   1.358
  712SOL    HW2 3036   4.049   2.425   1.278
  713SOL     OW 3037   4.278   2.513   5.963
  713SOL    HW1 3038   4.249   2.454   6.038
  713SOL    HW2 3039   4.202   2.528   5.901
  714SOL     OW 3040   0.075   4.579   3.572
  714SOL    HW1 3041   7.030   4.642   3.554
  714SOL    HW2 3042   0.088   4.519   3.493
  715SOL     OW 3043   5.207   6.450   0.065
  715SOL    HW1 3044   5.112   6.465   0.037
  715SOL    HW2 3045   5.210   6.433   0.163
  716SOL     OW 3046   0.269   0.755   2.160
  716SOL    HW1 3047   0.277   0.829   2.227
  716SOL    HW2 3048   0.261   0.667   2.207
  717SOL     OW 3049   6.826   4.613   4.112
  717SOL    HW1 3050   6.800   4.666   4.032
  717SOL    HW2 3051   6.905   4.656   4.156
  718SOL     OW 3052   4.382   3.111   6.085
  718SOL    HW1 3053   4.366   3.022   6.041
  718SOL    HW2 3054   4.326   3.118   6.168
  719SOL     OW 3055   6.509   0.818   2.727
  719SOL    HW1 3056   6.546   0.725   2.724
  719SOL    HW2 3057   6.585   0.884   2.730
  720SOL     OW 3058   2.137   0.342   6.112
  720SOL    HW1 3059   2.058   0.360   6.052
  720SOL    HW2 3060   2.130   0.250   6.150
  721SOL     OW 3061   2.569   1.726   2.888
  721SOL    HW1 3062   2.482   1.746   2.841
  721SOL    HW2 3063   2.552   1.664   2.964
  722SOL     OW 3064   2.709   0.586   5.511
  722SOL    HW1 3065   2.684   0.673   5.467
  722SOL    HW2 3066   2.715   0.514   5.441
  723SOL     OW 3067   1.458   4.448   3.450
  723SOL    HW1 3068   1.452   4.542   3.416
  723SOL    HW2 3069   1.518   4.446   3.530
  724SOL     OW 3070   1.290   2.175   3.922
  724SOL    HW1 3071   1.243   2.187   4.009
  724SOL    HW2 3072   1.273   2.254   3.863
  725SOL     OW 3073   2.235   5.474   1.702
  725SOL    HW1 3074   2.321   5.430   1.728
  725SOL    HW2 3075   2.183   5.497   1.783
  726SOL     OW 3076   3.753   4.741   1.010
  726SOL    HW1 3077   3.742   4.707   1.103
  726SOL    HW2 3078   3.841   4.709   0.973
  727SOL     OW 3079   6.427   4.542   5.819
  727SOL    HW1 3080   6.467   4.499   5.900
  727SOL    HW2 3081   6.410   4.639   5.838
  728SOL     OW 3082   6.240   3.152   3.856
  728SOL    HW1 3083   6.267   3.248   3.848
  728SOL    HW2 3084   6.322   3.095   3.868
  729SOL     OW 3085   0.649   1.882   1.503
  729SOL    HW1 3086   0.695   1.816   1.563
  729SOL    HW2 3087   0.675   1.975   1.530
  730SOL     OW 3088   5.973   0.402   4.492
  730SOL    HW1 3089   5.917   0.424   4.412
  730SOL    HW2 3090   5.936   0.321   4.537
  731SOL     OW 3091   4.749   4.912   6.615
  731SOL    HW1 3092   4.785   5.005   6.605
  731SOL    HW2 3093   4.771   4.877   6.706
  732SOL     OW 3094   5.357   2.891   1.444
  732SOL    HW1 3095   5.286   2.906   1.375
  732SOL    HW2 3096   5.320   2.837   1.519
  733SOL     OW 3097   5.549   0.152   4.487
  733SOL    HW1 3098   5.589   0.227   4.539
  733SOL    HW2 3099   5.497   0.092   4.548
  734SOL     OW 3100   6.160   4.451   3.123
  734SOL    HW1 3101   6.118   4.383   3.062
  734SOL    HW2 3102   6.131   4.543   3.096
  735SOL     OW 3103   4.341   1.748   0.377
  735SOL    HW1 3104   4.412   1.680   0.396
  735SOL    HW2 3105   4.254   1.718   0.417
  736SOL     OW 3106   0.209   1.928   3.249
  736SOL    HW1 3107   0.136   1.949   3.315
  736SOL    HW2 3108   0.259   2.012   3.227
  737SOL     OW 3109   4.930   1.710   4.904
  737SOL    HW1 3110   5.012   1.657   4.924
  737SOL    HW2 3111   4.889   1.742   4.989
  738SOL     OW 3112   2.864   3.667   0.904
  738SOL    HW1 3113   2.806   3.588   0.924
  738SOL    HW2 3114   2.887   3.714   0.989
  739SOL     OW 3115   4.703   1.063   4.162
  739SOL    HW1 3116   4.684   1.155   4.196
  739SOL    HW2 3117   4.652   0.996   4.215
  740SOL     OW 3118   6.446   1.399   1.592
  740SOL    HW1 3119   6.389   1.447   1.659
  740SOL    HW2 3120   6.442   1.448   1.504
  741SOL     OW 3121   1.568   0.321   3.473
  741SOL    HW1 3122   1.613   0.390   3.530
  741SOL    HW2 3123   1.530   0.250   3.532
  742SOL     OW 3124   2.596   6.706   1.774
  742SOL    HW1 3125   2.498   6.707   1.794
  742SOL    HW2 3126   2.612   6.740   1.682
  743SOL     OW 3127   1.244   5.005   3.319
  743SOL    HW1 3128   1.213   4.952   3.240
  743SOL    HW2 3129   1.183   5.083   3.333
  744SOL     OW 3130   5.500   0.559   1.300
  744SOL    HW1 3131   5.533   0.624   1.369
  744SOL    HW2 3132   5.400   0.565   1.295
  745SOL     OW 3133   1.365   5.462   4.529
  745SOL    HW1 3134   1.317   5.436   4.445
  745SOL    HW2 3135   1.441   5.523   4.506
  746SOL     OW 3136   6.498   3.770   6.889
  746SOL    HW1 3137   6.555   3.850   6.906
  746SOL    HW2 3138   6.491   3.716   6.973
  747SOL     OW 3139   3.807   6.361   4.072
  747SOL    HW1 3140   3.869   6.438   4.090
  747SOL    HW2 3141   3.791   6.310   4.156
  748SOL     OW 3142   3.982   4.906   1.998
  748SOL    HW1 3143   3.948   4.937   1.909
  748SOL    HW2 3144   4.026   4.817   1.987
  749SOL     OW 3145   5.746   3.607   4.427
  749SOL    HW1 3146   5.764   3.702   4.401
  749SOL    HW2 3147   5.832   3.560   4.446
  750SOL     OW 3148   2.342   1.699   1.424
  750SOL    HW1 3149   2.358   1.606   1.393
  750SOL    HW2 3150   2.261   1.703   1.482
  751SOL     OW 3151   4.139   1.545   7.029
  751SOL    HW1 3152   4.123   1.475   6.959
  751SOL    HW2 3153   4.238   1.556   0.012
  752SOL     OW 3154   3.070   1.319   1.544
  752SOL    HW1 3155   3.015   1.309   1.462
  752SOL    HW2 3156   3.072   1.232   1.594
  753SOL     OW 3157   0.893   3.505   5.731
  753SOL    HW1 3158   0.866   3.596   5.700
  753SOL    HW2 3159   0.899   3.444   5.652
  754SOL     OW 3160   4.533   1.931   5.953
  754SOL    HW1 3161   4.527   1.958   6.049
  754SOL    HW2 3162   4.491   1.841   5.941
  755SOL     OW 3163   1.796   5.115   4.948
  755SOL    HW1 3164   1.798   5.027   4.901
  755SOL    HW2 3165   1.807   5.101   5.046
  756SOL     OW 3166   3.093   6.479   6.727
  756SOL    HW1 3167   3.067   6.386   6.751
  756SOL    HW2 3168   3.172   6.507   6.782
  757SOL     OW 3169   0.404   0.569   4.683
  757SOL    HW1 3170   0.345   0.611   4.614
  757SOL    HW2 3171   0.401   0.469   4.673
  758SOL     OW 3172   3.275   0.637   3.172
  758SOL    HW1 3173   3.289   0.552   3.122
  758SOL    HW2 3174   3.245   0.709   3.109
  759SOL     OW 3175   0.686   2.551   1.984
  759SOL    HW1 3176   0.649   2.519   1.897
  759SOL    HW2 3177   0.611   2.574   2.046
  760SOL     OW 3178   6.439   6.610   4.030
  760SOL    HW1 3179   6.474   6.523   4.063
  760SOL    HW2 3180   6.349   6.597   3.988
  761SOL     OW 3181   5.639   3.658   6.293
  761SOL    HW1 3182   5.663   3.711   6.374
  761SOL    HW2 3183   5.632   3.719   6.214
  762SOL     OW 3184   2.648   6.963   4.722
  762SOL    HW1 3185   2.565   6.978   4.775
  762SOL    HW2 3186   2.662   6.865   4.708
  763SOL     OW 3187   4.139   5.218   6.121
  763SOL    HW1 3188   4.164   5.313   6.102
  763SOL    HW2 3189   4.040   5.208   6.121
  764SOL     OW 3190   5.444   0.854   5.141
  764SOL    HW1 3191   5.433   0.947   5.105
  764SOL    HW2 3192   5.540   0.829   5.141
  765SOL     OW 3193   1.347   5.998   1.477
  765SOL    HW1 3194   1.373   5.902   1.470
  765SOL    HW2 3195   1.253   6.005   1.511
  766SOL     OW 3196   2.386   2.184   6.297
  766SOL    HW1 3197   2.320   2.128   6.248
  766SOL    HW2 3198   2.345   2.273   6.320
  767SOL     OW 3199   6.451   5.844   3.523
  767SOL    HW1 3200   6.500   5.796   3.596
  767SOL    HW2 3201   6.478   5.940   3.522
  768SOL     OW 3202   2.483   5.768   2.793
  768SOL    HW1 3203   2.385   5.785   2.784
  768SOL    HW2 3204   2.510   5.776   2.889
  769SOL     OW 3205   2.527   1.324   5.109
  769SOL    HW1 3206   2.549   1.228   5.128
  769SOL    HW2 3207   2.609   1.380   5.121
  770SOL     OW 3208   1.628   5.010   3.213
  770SOL    HW1 3209   1.583   5.060   3.286
  770SOL    HW2 3210   1.562   4.952   3.165
  771SOL     OW 3211   0.862   5.117   2.471
  771SOL    HW1 3212   0.770   5.148   2.447
  771SOL    HW2 3213   0.917   5.195   2.500
  772SOL     OW 3214   5.394   4.577   6.715
  772SOL    HW1 3215   5.380   4.490   6.668
  772SOL    HW2 3216   5.310   4.631   6.711
  773SOL     OW 3217   0.137   4.739   4.093
  773SOL    HW1 3218   0.184   4.653   4.113
  773SOL    HW2 3219   0.110   4.740   3.997
  774SOL     OW 3220   1.773   1.533   1.129
  774SOL    HW1 3221   1.850   1.476   1.157
  774SOL    HW2 3222   1.743   1.589   1.207
  775SOL     OW 3223   1.788   2.394   4.113
  775SOL    HW1 3224   1.815   2.485   4.143
  775SOL    HW2 3225   1.688   2.389   4.110
  776SOL     OW 3226   0.684   0.369   5.336
  776SOL    HW1 3227   0.690   0.346   5.433
  776SOL    HW2 3228   0.599   0.332   5.299
  777SOL     OW 3229   1.674   4.835   1.475
  777SOL    HW1 3230   1.701   4.929   1.453
  777SOL    HW2 3231   1.755   4.780   1.492
  778SOL     OW 3232   2.556   1.140   1.915
  778SOL    HW1 3233   2.562   1.230   1.960
  778SOL    HW2 3234   2.646   1.117   1.877
  779SOL     OW 3235   0.015   2.821   2.679
  779SOL    HW1 3236   6.970   2.880   2.649
  779SOL    HW2 3237   7.026   2.786   2.770
  780SOL     OW 3238   0.579   3.081   4.108
  780SOL    HW1 3239   0.532   3.062   4.194
  780SOL    HW2 3240   0.543   3.023   4.036
  781SOL     OW 3241   6.014   6.878   0.239
  781SOL    HW1 3242   6.090   6.824   0.276
  781SOL    HW2 3243   5.928   6.847   0.281
  782SOL     OW 3244   1.469   3.584   6.148
  782SOL    HW1 3245   1.372   3.578   6.171
  782SOL    HW2 3246   1.506   3.492   6.133
  783SOL     OW 3247   5.198   4.882   2.107
  783SOL    HW1 3248   5.238   4.794   2.131
  783SOL    HW2 3249   5.230   4.952   2.172
  784SOL     OW 3250   4.737   4.972   0.581
  784SOL    HW1 3251   4.773   4.925   0.500
  784SOL    HW2 3252   4.641   4.994   0.567
  785SOL     OW 3253   0.638   1.986   3.637
  785SOL    HW1 3254   0.686   2.074   3.641
  785SOL    HW2 3255   0.551   1.993   3.686
  786SOL     OW 3256   0.580   7.016   3.275
  786SOL    HW1 3257   0.599   0.082   3.255
  786SOL    HW2 3258   0.500   6.986   3.223
  787SOL     OW 3259   1.137   0.528   0.196
  787SOL    HW1 3260   1.123   0.539   0.294
  787SOL    HW2 3261   1.233   0.540   0.173
  788SOL     OW 3262   4.032   1.347   0.314
  788SOL    HW1 3263   4.045   1.415   0.386
  788SOL    HW2 3264   3.956   1.376   0.255
  789SOL     OW 3265   3.820   4.446   1.139
  789SOL    HW1 3266   3.883   4.522   1.153
  789SOL    HW2 3267   3.872   4.364   1.114
  790SOL     OW 3268   1.912   1.777   2.982
  790SOL    HW1 3269   1.861   1.742   3.060
  790SOL    HW2 3270   1.849   1.817   2.915
  791SOL     OW 3271   1.259   5.589   4.219
  791SOL    HW1 3272   1.308   5.654   4.277
  791SOL    HW2 3273   1.237   5.507   4.272
  792SOL     OW 3274   0.403   0.773   1.371
  792SOL    HW1 3275   0.386   0.842   1.442
  792SOL    HW2 3276   0.438   0.818   1.289
  793SOL     OW 3277   5.239   5.029   4.337
  793SOL    HW1 3278   5.332   4.991   4.344
  793SOL    HW2 3279   5.244   5.129   4.338
  794SOL     OW 3280   2.789   3.874   5.891
  794SOL    HW1 3281   2.847   3.832   5.820
  794SOL    HW2 3282   2.739   3.951   5.852
  795SOL     OW 3283   3.783   6.988   4.520
  795SOL    HW1 3284   3.875   6.988   4.558
  795SOL    HW2 3285   3.772   0.035   4.457
  796SOL     OW 3286   1.164   2.616   5.786
  796SOL    HW1 3287   1.073   2.655   5.779
  796SOL    HW2 3288   1.210   2.621   5.697
  797SOL     OW 3289   5.875   1.910   1.008
  797SOL    HW1 3290   5.880   1.952   0.918
  797SOL    HW2 3291   5.814   1.830   1.005
  798SOL     OW 3292   3.519   6.543   1.839
  798SOL    HW1 3293   3.495   6.451   1.809
  798SOL    HW2 3294   3.447   6.579   1.898
  799SOL     OW 3295   0.333   7.010   6.501
  799SOL    HW1 3296   0.293   0.069   6.523
  799SOL    HW2 3297   0.431   7.020   6.484
  800SOL     OW 3298   5.922   1.116   2.435
  800SOL    HW1 3299   5.914   1.140   2.338
  800SOL    HW2 3300   6.010   1.071   2.451
  801SOL     OW 3301   2.319   4.371   4.318
  801SOL    HW1 3302   2.234   4.415   4.346
  801SOL    HW2 3303   2.306   4.272   4.313
  802SOL     OW 3304   3.068   1.332   0.835
  802SOL    HW1 3305   2.983   1.369   0.872
  802SOL    HW2 3306   3.115   1.402   0.781
  803SOL     OW 3307   1.215   0.254   6.230
  803SOL    HW1 3308   1.243   0.175   6.175
  803SOL    HW2 3309   1.120   0.277   6.211
  804SOL     OW 3310   5.896   6.685   0.419
  804SOL    HW1 3311   5.880   6.588   0.401
  804SOL    HW2 3312   5.810   6.735   0.414
  805SOL     OW 3313   2.847   0.894   4.014
  805SOL    HW1 3314   2.874   0.887   3.918
  805SOL    HW2 3315   2.771   0.832   4.031
  806SOL     OW 3316   5.484   0.918   4.502
  806SOL    HW1 3317   5.474   0.818   4.496
  806SOL    HW2 3318   5.581   0.942   4.495
  807SOL     OW 3319   0.856   0.747   5.499
  807SOL    HW1 3320   0.796   0.677   5.461
  807SOL    HW2 3321   0.835   0.759   5.596
  808SOL     OW 3322   3.972   4.045   6.272
  808SOL    HW1 3323   3.986   3.994   6.187
  808SOL    HW2 3324   3.924   4.131   6.252
  809SOL     OW 3325   0.407   5.151   1.525
  809SOL    HW1 3326   0.417   5.237   1.474
  809SOL    HW2 3327   0.321   5.107   1.500
  810SOL     OW 3328   3.598   4.211   0.745
  810SOL    HW1 3329   3.596   4.189   0.842
  810SOL    HW2 3330   3.514   4.180   0.701
  811SOL     OW 3331   5.235   6.025   5.381
  811SOL    HW1 3332   5.268   5.931   5.387
  811SOL    HW2 3333   5.275   6.080   5.454
  812SOL     OW 3334   6.767   0.485   2.869
  812SOL    HW1 3335   6.854   0.438   2.855
  812SOL    HW2 3336   6.770   0.536   2.955
  813SOL     OW 3337   4.336   6.572   4.014
  813SOL    HW1 3338   4.386   6.487   3.995
  813SOL    HW2 3339   4.240   6.551   4.032
  814SOL     OW 3340   5.813   5.852   2.813
  814SOL    HW1 3341   5.730   5.796   2.809
  814SOL    HW2 3342   5.790   5.942   2.850
  815SOL     OW 3343   6.804   3.749   3.561
  815SOL    HW1 3344   6.745   3.808   3.505
  815SOL    HW2 3345   6.813   3.789   3.652
  816SOL     OW 3346   6.009   5.910   0.392
  816SOL    HW1 3347   5.960   5.975   0.449
  816SOL    HW2 3348   6.071   5.856   0.448
  817SOL     OW 3349   1.408   5.683   1.550
  817SOL    HW1 3350   1.357   5.762   1.585
  817SOL    HW2 3351   1.367   5.599   1.586
  818SOL     OW 3352   5.949   2.465   3.514
  818SOL    HW1 3353   5.880   2.534   3.540
  818SOL    HW2 3354   6.014   2.506   3.450
  819SOL     OW 3355   5.810   2.974   2.375
  819SOL    HW1 3356   5.738   3.004   2.312
  819SOL    HW2 3357   5.818   2.875   2.371
  820SOL     OW 3358   3.256   2.104   4.819
  820SOL    HW1 3359   3.208   2.178   4.868
  820SOL    HW2 3360   3.290   2.037   4.885
  821SOL     OW 3361   6.604   3.943   0.118
  821SOL    HW1 3362   6.646   3.988   0.197
  821SOL    HW2 3363   6.611   4.003   0.038
  822SOL     OW 3364   0.397   3.664   3.784
  822SOL    HW1 3365   0.401   3.690   3.687
  822SOL    HW2 3366   0.307   3.626   3.804
  823SOL     OW 3367   5.920   3.981   6.367
  823SOL    HW1 3368   5.949   4.028   6.283
  823SOL    HW2 3369   5.941   4.039   6.446
  824SOL     OW 3370   4.572   1.354   6.420
  824SOL    HW1 3371   4.519   1.293   6.360
  824SOL    HW2 3372   4.665   1.320   6.428
  825SOL     OW 3373   0.131   5.088   1.133
  825SOL    HW1 3374   0.196   5.161   1.112
  825SOL    HW2 3375   0.040   5.115   1.101
  826SOL     OW 3376   3.875   2.293   5.917
  826SOL    HW1 3377   3.866   2.194   5.932
  826SOL    HW2 3378   3.791   2.339   5.946
  827SOL     OW 3379   2.799   4.509   5.398
  827SOL    HW1 3380   2.849   4.526   5.313
  827SOL    HW2 3381   2.862   4.516   5.475
  828SOL     OW 3382   5.191   6.390   6.684
  828SOL    HW1 3383   5.242   6.452   6.625
  828SOL    HW2 3384   5.252   6.348   6.751
  829SOL     OW 3385   4.156   3.654   2.211
  829SOL    HW1 3386   4.093   3.666   2.288
  829SOL    HW2 3387   4.238   3.606   2.243
  830SOL     OW 3388   6.030   4.612   6.478
  830SOL    HW1 3389   5.951   4.604   6.418
  830SOL    HW2 3390   6.058   4.708   6.484
  831SOL     OW 3391   5.861   0.312   6.800
  831SOL    HW1 3392   5.876   0.374   6.877
  831SOL    HW2 3393   5.800   0.356   6.734
  832SOL     OW 3394   4.191   1.190   2.821
  832SOL    HW1 3395   4.223   1.254   2.751
  832SOL    HW2 3396   4.226   1.098   2.800
  833SOL     OW 3397   1.867   3.624   6.644
  833SOL    HW1 3398   1.915   3.683   6.579
  833SOL    HW2 3399   1.906   3.636   6.735
  834SOL     OW 3400   4.278   4.150   0.814
  834SOL    HW1 3401   4.270   4.053   0.793
  834SOL    HW2 3402   4.356   4.164   0.875
  835SOL     OW 3403   3.231   0.098   5.406
  835SOL    HW1 3404   3.255   0.046   5.324
  835SOL    HW2 3405   3.252   0.044   5.487
  836SOL     OW 3406   3.441   6.765   5.090
  836SOL    HW1 3407   3.457   6.841   5.153
  836SOL    HW2 3408   3.465   6.792   4.997
  837SOL     OW 3409   6.625   0.140   0.910
  837SOL    HW1 3410   6.597   0.236   0.913
  837SOL    HW2 3411   6.715   0.133   0.867
  838SOL     OW 3412   2.385   0.752   4.541
  838SOL    HW1 3413   2.481   0.773   4.521
  838SOL    HW2 3414   2.330   0.834   4.526
  839SOL     OW 3415   1.599   1.486   1.932
  839SOL    HW1 3416   1.647   1.551   1.991
  839SOL    HW2 3417   1.601   1.395   1.974
  840SOL     OW 3418   6.150   5.910   0.073
  840SOL    HW1 3419   6.148   5.819   0.113
  840SOL    HW2 3420   6.234   5.922   0.020
  841SOL     OW 3421   2.896   5.333   6.153
  841SOL    HW1 3422   2.965   5.265   6.130
  841SOL    HW2 3423   2.847   5.361   6.070
  842SOL     OW 3424   3.570   0.175   4.896
  842SOL    HW1 3425   3.477   0.211   4.886
  842SOL    HW2 3426   3.625   0.240   4.948
  843SOL     OW 3427   0.864   1.445   1.189
  843SOL    HW1 3428   0.914   1.503   1.125
  843SOL    HW2 3429   0.780   1.490   1.218
  844SOL     OW 3430   6.039   0.105   0.391
  844SOL    HW1 3431   6.062   0.137   0.483
  844SOL    HW2 3432   6.049   0.005   0.387
  845SOL     OW 3433   4.819   4.033   3.976
  845SOL    HW1 3434   4.766   4.053   4.059
  845SOL    HW2 3435   4.798   3.941   3.945
  846SOL     OW 3436   2.063   1.182   5.856
  846SOL    HW1 3437   2.079   1.249   5.929
  846SOL    HW2 3438   1.997   1.219   5.790
  847SOL     OW 3439   1.598   3.645   1.081
  847SOL    HW1 3440   1.621   3.731   1.037
  847SOL    HW2 3441   1.510   3.655   1.128
  848SOL     OW 3442   6.905   6.979   6.153
  848SOL    HW1 3443   6.884   6.917   6.228
  848SOL    HW2 3444   6.941   0.035   6.190
  849SOL     OW 3445   6.409   3.634   6.203
  849SOL    HW1 3446   6.441   3.631   6.109
  849SOL    HW2 3447   6.355   3.553   6.224
  850SOL     OW 3448   4.660   1.310   4.272
  850SOL    HW1 3449   4.728   1.327   4.343
  850SOL    HW2 3450   4.578   1.364   4.291
  851SOL     OW 3451   0.251   2.844   1.428
  851SOL    HW1 3452   0.330   2.810   1.377
  851SOL    HW2 3453   0.172   2.787   1.408
  852SOL     OW 3454   1.731   4.165   0.315
  852SOL    HW1 3455   1.750   4.198   0.407
  852SOL    HW2 3456   1.659   4.096   0.318
  853SOL     OW 3457   0.698   4.798   1.006
  853SOL    HW1 3458   0.763   4.729   1.038
  853SOL    HW2 3459   0.624   4.753   0.955
  854SOL     OW 3460   5.550   5.022   0.756
  854SOL    HW1 3461   5.528   4.968   0.675
  854SOL    HW2 3462   5.561   5.118   0.729
  855SOL     OW 3463   6.897   0.275   1.404
  855SOL    HW1 3464   6.828   0.286   1.476
  855SOL    HW2 3465   6.853   0.280   1.315
  856SOL     OW 3466   1.415   1.969   6.553
  856SOL    HW1 3467   1.385   2.001   6.643
  856SOL    HW2 3468   1.411   2.046   6.488
  857SOL     OW 3469   6.347   4.951   2.083
  857SOL    HW1 3470   6.327   4.996   2.170
  857SOL    HW2 3471   6.394   4.865   2.099
  858SOL     OW 3472   3.197   4.077   1.428
  858SOL    HW1 3473   3.216   4.166   1.386
  858SOL    HW2 3474   3.099   4.058   1.424
  859SOL     OW 3475   5.917   0.205   4.686
  859SOL    HW1 3476   5.879   0.115   4.667
  859SOL    HW2 3477   6.003   0.195   4.735
  860SOL     OW 3478   6.435   2.376   0.561
  860SOL    HW1 3479   6.515   2.428   0.593
  860SOL    HW2 3480   6.437   2.285   0.603
  861SOL     OW 3481   2.598   5.475   4.170
  861SOL    HW1 3482   2.534   5.518   4.234
  861SOL    HW2 3483   2.655   5.545   4.128
  862SOL     OW 3484   1.100   3.561   4.080
  862SOL    HW1 3485   1.185   3.555   4.133
  862SOL    HW2 3486   1.076   3.657   4.066
  863SOL     OW 3487   5.678   1.305   6.811
  863SOL    HW1 3488   5.737   1.330   6.888
  863SOL    HW2 3489   5.648   1.210   6.821
  864SOL     OW 3490   3.884   5.644   4.180
  864SOL    HW1 3491   3.833   5.633   4.265
  864SOL    HW2 3492   3.973   5.685   4.200
  865SOL     OW 3493   1.307   6.771   5.995
  865SOL    HW1 3494   1.383   6.783   6.059
  865SOL    HW2 3495   1.343   6.752   5.904
  866SOL     OW 3496   2.116   1.522   1.478
  866SOL    HW1 3497   2.148   1.458   1.548
  866SOL    HW2 3498   2.092   1.609   1.522
  867SOL     OW 3499   5.342   3.794   0.394
  867SOL    HW1 3500   5.345   3.703   0.435
  867SOL    HW2 3501   5.383   3.791   0.303
  868SOL     OW 3502   6.382   1.378   0.774
  868SOL    HW1 3503   6.387   1.375   0.674
  868SOL    HW2 3504   6.409   1.469   0.806
  869SOL     OW 3505   0.391   4.277   2.943
  869SOL    HW1 3506   0.353   4.186   2.927
  869SOL    HW2 3507   0.427   4.282   3.037
  870SOL     OW 3508   3.932   3.587   0.029
  870SOL    HW1 3509   3.975   3.516   7.003
  870SOL    HW2 3510   3.943   3.676   7.014
  871SOL     OW 3511   4.925   2.185   2.378
  871SOL    HW1 3512   5.017   2.149   2.388
  871SOL    HW2 3513   4.867   2.150   2.453
  872SOL     OW 3514   5.356   3.290   4.014
  872SOL    HW1 3515   5.306   3.220   3.964
  872SOL    HW2 3516   5.451   3.291   3.985
  873SOL     OW 3517   6.166   6.301   5.115
  873SOL    HW1 3518   6.196   6.308   5.020
  873SOL    HW2 3519   6.098   6.373   5.133
  874SOL     OW 3520   0.771   3.739   6.123
  874SOL    HW1 3521   0.781   3.787   6.036
  874SOL    HW2 3522   0.677   3.748   6.156
  875SOL     OW 3523   5.490   4.422   0.600
  875SOL    HW1 3524   5.525   4.388   0.513
  875SOL    HW2 3525   5.481   4.522   0.595
  876SOL     OW 3526   1.283   4.774   1.995
  876SOL    HW1 3527   1.192   4.815   1.984
  876SOL    HW2 3528   1.276   4.694   2.055
  877SOL     OW 3529   3.825   4.557   5.451
  877SOL    HW1 3530   3.893   4.484   5.465
  877SOL    HW2 3531   3.832   4.623   5.526
  878SOL     OW 3532   3.872   5.617   4.808
  878SOL    HW1 3533   3.804   5.681   4.771
  878SOL    HW2 3534   3.931   5.585   4.733
  879SOL     OW 3535   3.555   1.765   0.940
  879SOL    HW1 3536   3.554   1.823   1.021
  879SOL    HW2 3537   3.642   1.778   0.891
  880SOL     OW 3538   2.876   3.514   4.724
  880SOL    HW1 3539   2.790   3.564   4.723
  880SOL    HW2 3540   2.916   3.514   4.632
  881SOL     OW 3541   5.808   3.341   5.854
  881SOL    HW1 3542   5.883   3.276   5.861
  881SOL    HW2 3543   5.812   3.388   5.765
  882SOL     OW 3544   0.939   2.411   4.639
  882SOL    HW1 3545   0.986   2.494   4.669
  882SOL    HW2 3546   0.994   2.364   4.570
  883SOL     OW 3547   3.833   0.883   0.418
  883SOL    HW1 3548   3.796   0.896   0.510
  883SOL    HW2 3549   3.880   0.794   0.413
  884SOL     OW 3550   6.932   4.290   0.129
  884SOL    HW1 3551   6.883   4.354   0.069
  884SOL    HW2 3552   7.014   4.333   0.165
  885SOL     OW 3553   4.117   6.640   5.276
  885SOL    HW1 3554   4.079   6.716   5.330
  885SOL    HW2 3555   4.064   6.629   5.192
  886SOL     OW 3556   4.733   0.562   0.846
  886SOL    HW1 3557   4.771   0.490   0.904
  886SOL    HW2 3558   4.649   0.529   0.802
  887SOL     OW 3559   4.149   5.410   3.611
  887SOL    HW1 3560   4.110   5.443   3.525
  887SOL    HW2 3561   4.117   5.317   3.629
  888SOL     OW 3562   0.081   6.468   3.072
  888SOL    HW1 3563   0.135   6.487   2.990
  888SOL    HW2 3564   7.018   6.441   3.045
  889SOL     OW 3565   7.021   0.995   6.434
  889SOL    HW1 3566   7.003   1.039   6.522
  889SOL    HW2 3567   0.042   1.058   6.375
  890SOL     OW 3568   2.451   5.001   2.269
  890SOL    HW1 3569   2.408   4.929   2.322
  890SOL    HW2 3570   2.506   4.960   2.196
  891SOL     OW 3571   6.860   3.543   0.382
  891SOL    HW1 3572   6.825   3.515   0.471
  891SOL    HW2 3573   6.786   3.584   0.328
  892SOL     OW 3574   3.352   3.536   5.398
  892SOL    HW1 3575   3.294   3.482   5.337
  892SOL    HW2 3576   3.370   3.625   5.358
  893SOL     OW 3577   1.886   0.216   2.756
  893SOL    HW1 3578   1.833   0.291   2.794
  893SOL    HW2 3579   1.959   0.191   2.820
  894SOL     OW 3580   1.229   2.470   2.918
  894SOL    HW1 3581   1.298   2.520   2.865
  894SOL    HW2 3582   1.147   2.458   2.862
  895SOL     OW 3583   1.183   4.969   3.797
  895SOL    HW1 3584   1.203   4.882   3.843
  895SOL    HW2 3585   1.239   4.977   3.715
  896SOL     OW 3586   6.098   5.532   1.437
  896SOL    HW1 3587   6.106   5.433   1.432
  896SOL    HW2 3588   6.002   5.556   1.456
  897SOL     OW 3589   4.263   0.337   6.296
  897SOL    HW1 3590   4.339   0.389   6.256
  897SOL    HW2 3591   4.291   0.300   6.385
  898SOL     OW 3592   4.097   5.767   2.126
  898SOL    HW1 3593   4.140   5.793   2.040
  898SOL    HW2 3594   4.132   5.826   2.199
  899SOL     OW 3595   0.229   5.586   0.583
  899SOL    HW1 3596   0.320   5.620   0.560
  899SOL    HW2 3597   0.229   5.486   0.576
  900SOL     OW 3598   4.927   6.465   6.669
  900SOL    HW1 3599   4.896   6.442   6.577
  900SOL    HW2 3600   5.006   6.408   6.693
  901SOL     OW 3601   0.993   0.938   4.287
  901SOL    HW1 3602   0.970   0.937   4.190
  901SOL    HW2 3603   0.993   0.844   4.322
  902SOL     OW 3604   1.551   2.601   0.937
  902SOL    HW1 3605   1.485   2.537   0.977
  902SOL    HW2 3606   1.571   2.674   1.003
  903SOL     OW 3607   0.194   2.852   6.854
  903SOL    HW1 3608   0.133   2.822   6.928
  903SOL    HW2 3609   0.231   2.772   6.806
  904SOL     OW 3610   2.181   2.861   2.565
  904SOL    HW1 3611   2.176   2.867   2.465
  904SOL    HW2 3612   2.188   2.765   2.592
  905SOL     OW 3613   5.081   4.418   6.065
  905SOL    HW1 3614   5.166   4.373   6.089
  905SOL    HW2 3615   5.070   4.417   5.966
  906SOL     OW 3616   1.088   2.521   6.264
  906SOL    HW1 3617   1.096   2.620   6.260
  906SOL    HW2 3618   1.112   2.481   6.175
  907SOL     OW 3619   5.393   2.611   1.869
  907SOL    HW1 3620   5.398   2.696   1.921
  907SOL    HW2 3621   5.364   2.537   1.929
  908SOL     OW 3622   2.159   5.001   2.967
  908SOL    HW1 3623   2.245   4.992   2.917
  908SOL    HW2 3624   2.099   4.924   2.945
  909SOL     OW 3625   3.566   6.022   2.229
  909SOL    HW1 3626   3.475   6.062   2.241
  909SOL    HW2 3627   3.587   5.963   2.307
  910SOL     OW 3628   3.245   0.866   0.787
  910SOL    HW1 3629   3.290   0.950   0.820
  910SOL    HW2 3630   3.186   0.830   0.859
  911SOL     OW 3631   0.830   5.758   6.823
  911SOL    HW1 3632   0.765   5.765   6.748
  911SOL    HW2 3633   0.794   5.696   6.893
  912SOL     OW 3634   4.554   0.472   3.492
  912SOL    HW1 3635   4.586   0.377   3.493
  912SOL    HW2 3636   4.602   0.524   3.563
  913SOL     OW 3637   2.487   0.997   4.004
  913SOL    HW1 3638   2.470   0.944   4.087
  913SOL    HW2 3639   2.528   0.938   3.934
  914SOL     OW 3640   2.616   6.047   5.129
  914SOL    HW1 3641   2.675   6.111   5.079
  914SOL    HW2 3642   2.533   6.094   5.159
  915SOL     OW 3643   0.030   3.379   0.874
  915SOL    HW1 3644   6.963   3.366   0.896
  915SOL    HW2 3645   0.063   3.302   0.819
  916SOL     OW 3646   1.897   2.891   2.612
  916SOL    HW1 3647   1.865   2.984   2.594
  916SOL    HW2 3648   1.962   2.864   2.540
  917SOL     OW 3649   6.475   0.796   2.433
  917SOL    HW1 3650   6.544   0.860   2.398
  917SOL    HW2 3651   6.471   0.804   2.533
  918SOL     OW 3652   3.368   6.976   1.091
  918SOL    HW1 3653   3.304   0.022   1.076
  918SOL    HW2 3654   3.325   6.890   1.063
  919SOL     OW 3655   6.555   6.908   3.413
  919SOL    HW1 3656   6.561   6.859   3.500
  919SOL    HW2 3657   6.576   7.005   3.428
  920SOL     OW 3658   2.618   4.795   2.555
  920SOL    HW1 3659   2.528   4.779   2.514
  920SOL    HW2 3660   2.674   4.712   2.546
  921SOL     OW 3661   3.951   4.965   3.211
  921SOL    HW1 3662   4.020   4.902   3.176
  921SOL    HW2 3663   3.970   5.058   3.177
  922SOL     OW 3664   3.097   3.433   4.881
  922SOL    HW1 3665   3.031   3.492   4.835
  922SOL    HW2 3666   3.190   3.467   4.864
  923SOL     OW 3667   2.481   4.284   5.572
  923SOL    HW1 3668   2.552   4.235   5.522
  923SOL    HW2 3669   2.396   4.231   5.569
  924SOL     OW 3670   6.110   2.918   3.361
  924SOL    HW1 3671   6.109   2.821   3.384
  924SOL    HW2 3672   6.091   2.972   3.443
  925SOL     OW 3673   6.918   2.154   6.489
  925SOL    HW1 3674   6.935   2.198   6.577
  925SOL    HW2 3675   6.820   2.161   6.467
  926SOL     OW 3676   6.706   1.402   1.017
  926SOL    HW1 3677   6.761   1.468   1.068
  926SOL    HW2 3678   6.633   1.367   1.076
  927SOL     OW 3679   5.236   4.200   3.064
  927SOL    HW1 3680   5.200   4.186   3.157
  927SOL    HW2 3681   5.333   4.177   3.063
  928SOL     OW 3682   1.257   6.641   0.013
  928SOL    HW1 3683   1.180   6.692   0.053
  928SOL    HW2 3684   1.286   6.570   0.076
  929SOL     OW 3685   0.465   0.222   0.695
  929SOL    HW1 3686   0.453   0.155   0.622
  929SOL    HW2 3687   0.395   0.293   0.686
  930SOL     OW 3688   5.360   6.032   4.410
  930SOL    HW1 3689   5.336   5.972   4.334
  930SOL    HW2 3690   5.297   6.017   4.486
  931SOL     OW 3691   5.514   1.497   4.483
  931SOL    HW1 3692   5.469   1.517   4.396
  931SOL    HW2 3693   5.519   1.398   4.497
  932SOL     OW 3694   2.940   0.156   3.446
  932SOL    HW1 3695   2.947   0.233   3.509
  932SOL    HW2 3696   2.848   0.154   3.406
  933SOL     OW 3697   1.888   5.668   3.601
  933SOL    HW1 3698   1.970   5.726   3.599
  933SOL    HW2 3699   1.812   5.718   3.561
  934SOL     OW 3700   1.544   0.126   6.382
  934SOL    HW1 3701   1.510   0.220   6.373
  934SOL    HW2 3702   1.548   0.083   6.292
  935SOL     OW 3703   5.126   4.155   3.622
  935SOL    HW1 3704   5.059   4.175   3.551
  935SOL    HW2 3705   5.145   4.057   3.624
  936SOL     OW 3706   0.376   0.560   6.383
  936SOL    HW1 3707   0.374   0.624   6.307
  936SOL    HW2 3708   0.325   0.598   6.461
  937SOL     OW 3709   5.048   1.626   5.318
  937SOL    HW1 3710   4.962   1.579   5.339
  937SOL    HW2 3711   5.087   1.662   5.403
  938SOL     OW 3712   6.292   5.020   6.060
  938SOL    HW1 3713   6.345   5.035   6.144
  938SOL    HW2 3714   6.232   5.098   6.044
  939SOL     OW 3715   6.774   6.441   4.945
  939SOL    HW1 3716   6.827   6.414   5.026
  939SOL    HW2 3717   6.798   6.535   4.920
  940SOL     OW 3718   1.098   4.060   1.586
  940SOL    HW1 3719   1.008   4.102   1.572
  940SOL    HW2 3720   1.122   4.063   1.683
  941SOL     OW 3721   5.116   1.105   6.398
  941SOL    HW1 3722   5.179   1.027   6.395
  941SOL    HW2 3723   5.148   1.171   6.465
  942SOL     OW 3724   5.493   6.900   2.925
  942SOL    HW1 3725   5.539   6.859   3.003
  942SOL    HW2 3726   5.395   6.906   2.943
  943SOL     OW 3727   2.042   4.032   3.894
  943SOL    HW1 3728   1.967   4.092   3.921
  943SOL    HW2 3729   2.018   3.937   3.914
  944SOL     OW 3730   0.522   4.890   6.430
  944SOL    HW1 3731   0.588   4.865   6.358
  944SOL    HW2 3732   0.432   4.855   6.406
  945SOL     OW 3733   6.455   3.628   5.954
  945SOL    HW1 3734   6.362   3.654   5.927
  945SOL    HW2 3735   6.487   3.553   5.897
  946SOL     OW 3736   5.558   3.343   5.500
  946SOL    HW1 3737   5.525   3.339   5.406
  946SOL    HW2 3738   5.492   3.299   5.561
  947SOL     OW 3739   3.850   2.958   3.670
  947SOL    HW1 3740   3.903   3.024   3.616
  947SOL    HW2 3741   3.897   2.870   3.670
  948SOL     OW 3742   3.899   0.926   2.867
  948SOL    HW1 3743   3.981   0.877   2.896
  948SOL    HW2 3744   3.820   0.890   2.916
  949SOL     OW 3745   0.936   5.993   0.117
  949SOL    HW1 3746   1.019   5.947   0.084
  949SOL    HW2 3747   0.875   5.927   0.160
  950SOL     OW 3748   4.917   5.858   2.139
  950SOL    HW1 3749   4.970   5.932   2.098
  950SOL    HW2 3750   4.822   5.887   2.150
  951SOL     OW 3751   1.904   0.728   3.962
  951SOL    HW1 3752   1.977   0.672   4.001
  951SOL    HW2 3753   1.852   0.772   4.035
  952SOL     OW 3754   4.279   2.322   3.254
  952SOL    HW1 3755   4.184   2.354   3.252
  952SOL    HW2 3756   4.330   2.374   3.322
  953SOL     OW 3757   5.375   4.799   4.062
  953SOL    HW1 3758   5.287   4.847   4.053
  953SOL    HW2 3759   5.425   4.805   3.975
  954SOL     OW 3760   4.193   5.622   1.291
  954SOL    HW1 3761   4.094   5.634   1.292
  954SOL    HW2 3762   4.231   5.666   1.210
  955SOL     OW 3763   0.402   3.622   1.912
  955SOL    HW1 3764   0.423   3.610   1.815
  955SOL    HW2 3765   0.352   3.542   1.945
  956SOL     OW 3766   6.472   0.493   2.510
  956SOL    HW1 3767   6.388   0.521   2.463
  956SOL    HW2 3768   6.551   0.515   2.452
  957SOL     OW 3769   5.823   3.395   4.170
  957SOL    HW1 3770   5.842   3.331   4.244
  957SOL    HW2 3771   5.834   3.349   4.082
  958SOL     OW 3772   4.153   2.043   1.570
  958SOL    HW1 3773   4.173   2.141   1.566
  958SOL    HW2 3774   4.106   2.023   1.656
  959SOL     OW 3775   4.001   6.130   3.022
  959SOL    HW1 3776   3.902   6.128   3.036
  959SOL    HW2 3777   4.022   6.111   2.927
  960SOL     OW 3778   0.413   6.380   2.517
  960SOL    HW1 3779   0.410   6.475   2.548
  960SOL    HW2 3780   0.477   6.328   2.573
  961SOL     OW 3781   4.210   6.452   3.249
  961SOL    HW1 3782   4.190   6.413   3.339
  961SOL    HW2 3783   4.219   6.379   3.181
  962SOL     OW 3784   0.609   1.626   5.373
  962SOL    HW1 3785   0.595   1.599   5.278
  962SOL    HW2 3786   0.548   1.575   5.433
  963SOL     OW 3787   5.608   1.406   6.401
  963SOL    HW1 3788   5.617   1.482   6.337
  963SOL    HW2 3789   5.698   1.377   6.433
  964SOL     OW 3790   5.727   4.321   0.031
  964SOL    HW1 3791   5.798   4.356   0.092
  964SOL    HW2 3792   5.769   4.293   6.974
  965SOL     OW 3793   5.508   2.107   1.683
  965SOL    HW1 3794   5.551   2.159   1.609
  965SOL    HW2 3795   5.455   2.168   1.741
  966SOL     OW 3796   5.855   2.218   2.870
  966SOL    HW1 3797   5.846   2.118   2.879
  966SOL    HW2 3798   5.765   2.258   2.853
  967SOL     OW 3799   2.815   4.522   1.362
  967SOL    HW1 3800   2.775   4.433   1.382
  967SOL    HW2 3801   2.912   4.521   1.386
  968SOL     OW 3802   3.519   0.095   2.149
  968SOL    HW1 3803   3.536   0.121   2.244
  968SOL    HW2 3804   3.606   0.077   2.103
  969SOL     OW 3805   2.521   5.186   5.636
  969SOL    HW1 3806   2.568   5.101   5.616
  969SOL    HW2 3807   2.557   5.259   5.577
  970SOL     OW 3808   5.566   1.001   5.969
  970SOL    HW1 3809   5.487   1.054   5.939
  970SOL    HW2 3810   5.602   0.948   5.892
  971SOL     OW 3811   0.202   2.661   2.897
  971SOL    HW1 3812   0.140   2.586   2.920
  971SOL    HW2 3813   0.155   2.748   2.907
  972SOL     OW 3814   5.562   2.568   1.564
  972SOL    HW1 3815   5.635   2.529   1.508
  972SOL    HW2 3816   5.486   2.503   1.571
  973SOL     OW 3817   0.038   5.217   6.762
  973SOL    HW1 3818   7.018   5.302   6.747
  973SOL    HW2 3819   0.133   5.238   6.787
  974SOL     OW 3820   5.369   6.272   2.304
  974SOL    HW1 3821   5.385   6.359   2.351
  974SOL    HW2 3822   5.450   6.248   2.250
  975SOL     OW 3823   1.861   0.308   6.337
  975SOL    HW1 3824   1.798   0.325   6.260
  975SOL    HW2 3825   1.814   0.326   6.423
  976SOL     OW 3826   0.094   3.463   2.684
  976SOL    HW1 3827   0.156   3.450   2.607
  976SOL    HW2 3828   0.119   3.548   2.732
  977SOL     OW 3829   0.656   6.500   1.835
  977SOL    HW1 3830   0.743   6.528   1.875
  977SOL    HW2 3831   0.589   6.573   1.845
  978SOL     OW 3832   5.245   3.026   5.508
  978SOL    HW1 3833   5.223   3.070   5.595
  978SOL    HW2 3834   5.338   2.990   5.510
  979SOL     OW 3835   0.659   2.100   0.321
  979SOL    HW1 3836   0.699   2.069   0.235
  979SOL    HW2 3837   0.560   2.086   0.319
  980SOL     OW 3838   4.224   2.280   3.917
  980SOL    HW1 3839   4.183   2.225   3.990
  980SOL    HW2 3840   4.314   2.313   3.946
  981SOL     OW 3841   0.393   2.063   4.612
  981SOL    HW1 3842   0.323   1.996   4.637
  981SOL    HW2 3843   0.399   2.069   4.513
  982SOL     OW 3844   1.736   1.911   4.719
  982SOL    HW1 3845   1.736   1.842   4.791
  982SOL    HW2 3846   1.731   2.002   4.760
  983SOL     OW 3847   5.793   3.092   3.818
  983SOL    HW1 3848   5.849   3.113   3.737
  983SOL    HW2 3849   5.749   3.003   3.806
  984SOL     OW 3850   2.431   2.288   4.820
  984SOL    HW1 3851   2.364   2.304   4.749
  984SOL    HW2 3852   2.388   2.299   4.910
  985SOL     OW 3853   6.365   2.964   5.049
  985SOL    HW1 3854   6.322   2.960   5.139
  985SOL    HW2 3855   6.327   2.893   4.990
  986SOL     OW 3856   5.114   4.806   1.193
  986SOL    HW1 3857   5.090   4.894   1.236
  986SOL    HW2 3858   5.144   4.742   1.263
  987SOL     OW 3859   4.703   0.040   2.559
  987SOL    HW1 3860   4.767   0.114   2.582
  987SOL    HW2 3861   4.695   7.008   2.638
  988SOL     OW 3862   3.491   3.610   1.745
  988SOL    HW1 3863   3.497   3.682   1.814
  988SOL    HW2 3864   3.568   3.547   1.756
  989SOL     OW 3865   6.570   1.572   6.282
  989SOL    HW1 3866   6.574   1.608   6.375
  989SOL    HW2 3867   6.655   1.592   6.235
  990SOL     OW 3868   4.396   1.154   2.278
  990SOL    HW1 3869   4.398   1.062   2.239
  990SOL    HW2 3870   4.381   1.221   2.204
  991SOL     OW 3871   0.740   3.952   4.800
  991SOL    HW1 3872   0.796   4.033   4.783
  991SOL    HW2 3873   0.780   3.899   4.875
  992SOL     OW 3874   0.502   3.439   1.066
  992SOL    HW1 3875   0.520   3.380   1.144
  992SOL    HW2 3876   0.403   3.449   1.053
  993SOL     OW 3877   6.975   5.142   0.522
  993SOL    HW1 3878   0.007   5.176   0.452
  993SOL    HW2 3879   6.938   5.053   0.494
  994SOL     OW 3880   4.331   5.042   1.286
  994SOL    HW1 3881   4.275   5.072   1.208
  994SOL    HW2 3882   4.425   5.026   1.256
  995SOL     OW 3883   3.546   2.790   5.514
  995SOL    HW1 3884   3.619   2.775   5.581
  995SOL    HW2 3885   3.554   2.724   5.440
  996SOL     OW 3886   3.371   5.189   4.565
  996SOL    HW1 3887   3.461   5.229   4.549
  996SOL    HW2 3888   3.374   5.091   4.548
  997SOL     OW 3889   1.041   0.177   3.706
  997SOL    HW1 3890   0.957   0.126   3.685
  997SOL    HW2 3891   1.108   0.114   3.746
  998SOL     OW 3892   5.167   0.639   4.874
  998SOL    HW1 3893   5.261   0.609   4.860
  998SOL    HW2 3894   5.162   0.698   4.955
  999SOL     OW 3895   5.153   4.614   2.835
  999SOL    HW1 3896   5.070   4.660   2.802
  999SOL    HW2 3897   5.215   4.600   2.758
 1000SOL     OW 3898   3.178   1.584   1.600
 1000SOL    HW1 3899   3.088   1.620   1.624
 1000SOL    HW2 3900   3.171   1.485   1.583
 1001SOL     OW 3901   5.037   5.962   1.046
 1001SOL    HW1 3902   5.083   6.032   0.991
 1001SOL    HW2 3903   5.074   5.963   1.139
 1002SOL     OW 3904   5.928   2.161   1.380
 1002SOL    HW1 3905   5.956   2.073   1.416
 1002SOL    HW2 3906   5.915   2.154   1.281
 1003SOL     OW 3907   1.699   6.333   2.609
 1003SOL    HW1 3908   1.599   6.327   2.599
 1003SOL    HW2 3909   1.727   6.281   2.690
 1004SOL     OW 3910   0.256   0.463   1.708
 1004SOL    HW1 3911   0.204   0.411   1.640
 1004SOL    HW2 3912   0.301   0.400   1.771
 1005SOL     OW 3913   2.188   2.911   4.201
 1005SOL    HW1 3914   2.098   2.903   4.243
 1005SOL    HW2 3915   2.230   2.820   4.194
 1006SOL     OW 3916   1.170   4.509   0.889
 1006SOL    HW1 3917   1.178   4.590   0.948
 1006SOL    HW2 3918   1.256   4.458   0.891
 1007SOL     OW 3919   4.189   0.482   5.115
 1007SOL    HW1 3920   4.169   0.432   5.030
 1007SOL    HW2 3921   4.138   0.568   5.115
 1008SOL     OW 3922   0.775   2.992   5.824
 1008SOL    HW1 3923   0.733   3.051   5.755
 1008SOL    HW2 3924   0.759   3.030   5.915
 1009SOL     OW 3925   0.304   4.715   5.360
 1009SOL    HW1 3926   0.273   4.737   5.452
 1009SOL    HW2 3927   0.336   4.799   5.315
 1010SOL     OW 3928   3.576   1.743   0.020
 1010SOL    HW1 3929   3.676   1.746   0.016
 1010SOL    HW2 3930   3.546   1.648   0.025
 1011SOL     OW 3931   1.842   5.467   2.667
 1011SOL    HW1 3932   1.808   5.374   2.677
 1011SOL    HW2 3933   1.920   5.467   2.605
 1012SOL     OW 3934   6.990   6.947   2.451
 1012SOL    HW1 3935   6.928   6.978   2.522
 1012SOL    HW2 3936   6.967   6.992   2.364
 1013SOL     OW 3937   1.341   1.584   6.201
 1013SOL    HW1 3938   1.311   1.670   6.159
 1013SOL    HW2 3939   1.374   1.601   6.293
 1014SOL     OW 3940   6.733   4.304   5.837
 1014SOL    HW1 3941   6.683   4.220   5.816
 1014SOL    HW2 3942   6.691   4.348   5.916
 1015SOL     OW 3943   2.674   6.644   5.904
 1015SOL    HW1 3944   2.606   6.581   5.940
 1015SOL    HW2 3945   2.714   6.606   5.820
 1016SOL     OW 3946   4.300   3.690   6.932
 1016SOL    HW1 3947   4.381   3.748   6.946
 1016SOL    HW2 3948   4.218   3.746   6.939
 1017SOL     OW 3949   4.233   2.772   1.359
 1017SOL    HW1 3950   4.240   2.785   1.458
 1017SOL    HW2 3951   4.218   2.676   1.339
 1018SOL     OW 3952   0.764   4.650   4.233
 1018SOL    HW1 3953   0.795   4.576   4.174
 1018SOL    HW2 3954   0.736   4.728   4.178
 1019SOL     OW 3955   6.977   6.387   0.903
 1019SOL    HW1 3956   0.045   6.371   0.888
 1019SOL    HW2 3957   6.924   6.326   0.844
 1020SOL     OW 3958   6.492   1.309   1.210
 1020SOL    HW1 3959   6.516   1.378   1.277
 1020SOL    HW2 3960   6.423   1.345   1.147
 1021SOL     OW 3961   5.688   0.081   1.620
 1021SOL    HW1 3962   5.591   0.083   1.646
 1021SOL    HW2 3963   5.710   0.165   1.569
 1022SOL     OW 3964   3.070   4.330   5.257
 1022SOL    HW1 3965   3.051   4.233   5.240
 1022SOL    HW2 3966   3.020   4.385   5.191
 1023SOL     OW 3967   0.237   0.474   2.939
 1023SOL    HW1 3968   0.251   0.468   2.841
 1023SOL    HW2 3969   0.325   0.487   2.985
 1024SOL     OW 3970   0.419   2.891   3.955
 1024SOL    HW1 3971   0.386   2.819   4.017
 1024SOL    HW2 3972   0.341   2.929   3.904
 1025SOL     OW 3973   3.878   3.726   1.671
 1025SOL    HW1 3974   3.823   3.644   1.686
 1025SOL    HW2 3975   3.902   3.766   1.759
 1026SOL     OW 3976   2.625   2.772   1.569
 1026SOL    HW1 3977   2.663   2.714   1.641
 1026SOL    HW2 3978   2.700   2.810   1.513
 1027SOL     OW 3979   3.495   6.472   2.190
 1027SOL    HW1 3980   3.499   6.536   2.267
 1027SOL    HW2 3981   3.423   6.405   2.206
 1028SOL     OW 3982   2.293   6.923   1.644
 1028SOL    HW1 3983   2.322   6.854   1.578
 1028SOL    HW2 3984   2.309   7.014   1.606
 1029SOL     OW 3985   1.665   0.385   6.146
 1029SOL    HW1 3986   1.584   0.377   6.203
 1029SOL    HW2 3987   1.640   0.423   6.057
 1030SOL     OW 3988   3.453   2.942   2.101
 1030SOL    HW1 3989   3.415   2.903   2.185
 1030SOL    HW2 3990   3.502   2.871   2.050
 1031SOL     OW 3991   4.418   4.134   1.088
 1031SOL    HW1 3992   4.446   4.191   1.165
 1031SOL    HW2 3993   4.319   4.120   1.091
 1032SOL     OW 3994   2.420   1.842   5.924
 1032SOL    HW1 3995   2.444   1.785   5.846
 1032SOL    HW2 3996   2.397   1.783   6.002
 1033SOL     OW 3997   1.243   6.230   1.794
 1033SOL    HW1 3998   1.178   6.209   1.867
 1033SOL    HW2 3999   1.219   6.318   1.752
 1034SOL     OW 4000   0.250   5.300   4.387
 1034SOL    HW1 4001   0.336   5.281   4.339
 1034SOL    HW2 4002   0.265   5.373   4.454
 1035SOL     OW 4003   0.375   1.440   5.079
 1035SOL    HW1 4004   0.420   1.422   5.167
 1035SOL    HW2 4005   0.435   1.412   5.004
 1036SOL     OW 4006   4.110   0.420   1.731
 1036SOL    HW1 4007   4.137   0.392   1.823
 1036SOL    HW2 4008   4.033   0.364   1.700
 1037SOL     OW 4009   1.470   1.117   1.808
 1037SOL    HW1 4010   1.421   1.196   1.770
 1037SOL    HW2 4011   1.537   1.085   1.741
 1038SOL     OW 4012   1.830   0.945   5.288
 1038SOL    HW1 4013   1.839   1.023   5.350
 1038SOL    HW2 4014   1.858   0.862   5.335
 1039SOL     OW 4015   3.588   3.682   4.449
 1039SOL    HW1 4016   3.594   3.592   4.493
 1039SOL    HW2 4017   3.534   3.674   4.365
 1040SOL     OW 4018   5.398   1.317   2.731
 1040SOL    HW1 4019   5.457   1.256   2.784
 1040SOL    HW2 4020   5.437   1.327   2.639
 1041SOL     OW 4021   0.105   6.603   3.845
 1041SOL    HW1 4022   0.173   6.676   3.860
 1041SOL    HW2 4023   0.104   6.543   3.925
 1042SOL     OW 4024   4.452   5.411   2.470
 1042SOL    HW1 4025   4.471   5.395   2.373
 1042SOL    HW2 4026   4.380   5.348   2.500
 1043SOL     OW 4027   2.992   2.141   4.314
 1043SOL    HW1 4028   3.045   2.132   4.230
 1043SOL    HW2 4029   2.932   2.221   4.307
 1044SOL     OW 4030   5.931   5.357   2.584
 1044SOL    HW1 4031   5.871   5.356   2.504
 1044SOL    HW2 4032   5.877   5.369   2.667
 1045SOL     OW 4033   4.008   0.453   2.930
 1045SOL    HW1 4034   4.015   0.520   2.856
 1045SOL    HW2 4035   3.997   0.362   2.891
 1046SOL     OW 4036   1.696   0.619   0.634
 1046SOL    HW1 4037   1.759   0.551   0.671
 1046SOL    HW2 4038   1.691   0.609   0.535
 1047SOL     OW 4039   2.026   0.148   4.134
 1047SOL    HW1 4040   1.939   0.194   4.150
 1047SOL    HW2 4041   2.013   0.073   4.070
 1048SOL     OW 4042   4.264   6.230   3.102
 1048SOL    HW1 4043   4.327   6.177   3.044
 1048SOL    HW2 4044   4.172   6.192   3.095
 1049SOL     OW 4045   6.609   6.808   3.983
 1049SOL    HW1 4046   6.537   6.742   4.003
 1049SOL    HW2 4047   6.679   6.764   3.927
 1050SOL     OW 4048   3.958   4.914   1.372
 1050SOL    HW1 4049   3.866   4.927   1.408
 1050SOL    HW2 4050   3.968   4.964   1.286
 1051SOL     OW 4051   0.865   5.653   0.590
 1051SOL    HW1 4052   0.791   5.647   0.657
 1051SOL    HW2 4053   0.842   5.599   0.509
 1052SOL     OW 4054   4.044   0.699   5.083
 1052SOL    HW1 4055   3.964   0.654   5.043
 1052SOL    HW2 4056   4.016   0.753   5.162
 1053SOL     OW 4057   6.005   4.670   2.797
 1053SOL    HW1 4058   6.102   4.648   2.811
 1053SOL    HW2 4059   5.994   4.768   2.785
 1054SOL     OW 4060   3.499   3.431   0.439
 1054SOL    HW1 4061   3.429   3.425   0.510
 1054SOL    HW2 4062   3.475   3.371   0.363
 1055SOL     OW 4063   3.850   6.226   4.782
 1055SOL    HW1 4064   3.830   6.128   4.781
 1055SOL    HW2 4065   3.764   6.277   4.782
 1056SOL     OW 4066   2.690   3.982   6.990
 1056SOL    HW1 4067   2.700   3.927   6.907
 1056SOL    HW2 4068   2.624   3.939   0.021
 1057SOL     OW 4069   3.236   3.548   1.480
 1057SOL    HW1 4070   3.272   3.456   1.492
 1057SOL    HW2 4071   3.310   3.614   1.491
 1058SOL     OW 4072   4.634   2.475   3.325
 1058SOL    HW1 4073   4.584   2.396   3.360
 1058SOL    HW2 4074   4.640   2.545   3.396
 1059SOL     OW 4075   3.002   0.554   2.122
 1059SOL    HW1 4076   2.988   0.649   2.149
 1059SOL    HW2 4077   3.095   0.525   2.147
 1060SOL     OW 4078   0.256   4.987   4.191
 1060SOL    HW1 4079   0.346   5.029   4.181
 1060SOL    HW2 4080   0.246   4.915   4.123
 1061SOL     OW 4081   6.633   2.862   0.591
 1061SOL    HW1 4082   6.609   2.848   0.495
 1061SOL    HW2 4083   6.624   2.959   0.613
 1062SOL     OW 4084   5.455   4.729   5.976
 1062SOL    HW1 4085   5.381   4.789   6.006
 1062SOL    HW2 4086   5.419   4.638   5.957
 1063SOL     OW 4087   1.084   5.404   1.186
 1063SOL    HW1 4088   1.095   5.497   1.221
 1063SOL    HW2 4089   1.003   5.362   1.227
 1064SOL     OW 4090   1.836   4.538   2.710
 1064SOL    HW1 4091   1.811   4.446   2.681
 1064SOL    HW2 4092   1.765   4.602   2.682
 1065SOL     OW 4093   4.095   1.006   3.797
 1065SOL    HW1 4094   4.032   0.928   3.808
 1065SOL    HW2 4095   4.170   0.981   3.736
 1066SOL     OW 4096   5.124   6.741   2.785
 1066SOL    HW1 4097   5.207   6.757   2.732
 1066SOL    HW2 4098   5.060   6.687   2.730
 1067SOL     OW 4099   0.992   3.075   0.829
 1067SOL    HW1 4100   0.927   3.006   0.860
 1067SOL    HW2 4101   1.082   3.055   0.865
 1068SOL     OW 4102   6.567   4.770   2.805
 1068SOL    HW1 4103   6.597   4.854   2.761
 1068SOL    HW2 4104   6.472   4.780   2.835
 1069SOL     OW 4105   4.770   5.482   0.763
 1069SOL    HW1 4106   4.841   5.518   0.823
 1069SOL    HW2 4107   4.802   5.483   0.668
 1070SOL     OW 4108   0.032   0.609   1.716
 1070SOL    HW1 4109   0.122   0.565   1.712
 1070SOL    HW2 4110   7.018   0.588   1.803
 1071SOL     OW 4111   1.422   0.972   4.178
 1071SOL    HW1 4112   1.491   0.900   4.185
 1071SOL    HW2 4113   1.455   1.054   4.224
 1072SOL     OW 4114   1.672   1.249   0.836
 1072SOL    HW1 4115   1.667   1.344   0.868
 1072SOL    HW2 4116   1.761   1.233   0.795
 1073SOL     OW 4117   4.540   0.311   2.772
 1073SOL    HW1 4118   4.548   0.390   2.712
 1073SOL    HW2 4119   4.487   0.240   2.727
 1074SOL     OW 4120   2.320   5.125   1.699
 1074SOL    HW1 4121   2.395   5.128   1.765
 1074SOL    HW2 4122   2.242   5.176   1.734
 1075SOL     OW 4123   5.295   0.508   3.477
 1075SOL    HW1 4124   5.299   0.419   3.523
 1075SOL    HW2 4125   5.388   0.538   3.456
 1076SOL     OW 4126   0.277   2.483   5.501
 1076SOL    HW1 4127   0.237   2.400   5.464
 1076SOL    HW2 4128   0.237   2.563   5.456
 1077SOL     OW 4129   5.815   0.425   1.208
 1077SOL    HW1 4130   5.873   0.345   1.220
 1077SOL    HW2 4131   5.733   0.400   1.156
 1078SOL     OW 4132   0.504   0.433   2.288
 1078SOL    HW1 4133   0.551   0.370   2.225
 1078SOL    HW2 4134   0.554   0.520   2.291
 1079SOL     OW 4135   1.605   6.816   2.107
 1079SOL    HW1 4136   1.627   6.775   2.019
 1079SOL    HW2 4137   1.687   6.860   2.145
 1080SOL     OW 4138   1.580   5.647   3.284
 1080SOL    HW1 4139   1.585   5.688   3.193
 1080SOL    HW2 4140   1.485   5.625   3.306
 1081SOL     OW 4141   6.892   4.986   6.181
 1081SOL    HW1 4142   6.854   5.067   6.227
 1081SOL    HW2 4143   6.817   4.927   6.151
 1082SOL     OW 4144   4.979   1.879   4.658
 1082SOL    HW1 4145   4.886   1.868   4.623
 1082SOL    HW2 4146   4.998   1.809   4.726
 1083SOL     OW 4147   4.835   4.086   0.644
 1083SOL    HW1 4148   4.815   4.173   0.600
 1083SOL    HW2 4149   4.796   4.012   0.589
 1084SOL     OW 4150   6.036   6.159   6.825
 1084SOL    HW1 4151   5.994   6.078   6.866
 1084SOL    HW2 4152   5.965   6.217   6.785
 1085SOL     OW 4153   2.064   3.681   4.804
 1085SOL    HW1 4154   2.081   3.628   4.721
 1085SOL    HW2 4155   2.090   3.777   4.787
 1086SOL     OW 4156   0.884   5.344   0.625
 1086SOL    HW1 4157   0.801   5.288   0.636
 1086SOL    HW2 4158   0.962   5.285   0.604
 1087SOL     OW 4159   6.150   2.242   5.197
 1087SOL    HW1 4160   6.204   2.161   5.174
 1087SOL    HW2 4161   6.127   2.291   5.113
 1088SOL     OW 4162   0.709   3.980   2.611
 1088SOL    HW1 4163   0.761   4.012   2.690
 1088SOL    HW2 4164   0.612   3.976   2.633
 1089SOL     OW 4165   0.692   5.890   4.994
 1089SOL    HW1 4166   0.754   5.838   4.935
 1089SOL    HW2 4167   0.713   5.988   4.987
 1090SOL     OW 4168   2.722   2.331   3.099
 1090SOL    HW1 4169   2.776   2.337   3.015
 1090SOL    HW2 4170   2.733   2.239   3.138
 1091SOL     OW 4171   2.911   1.959   4.826
 1091SOL    HW1 4172   2.833   1.934   4.769
 1091SOL    HW2 4173   2.982   2.001   4.769
 1092SOL     OW 4174   0.980   4.381   1.042
 1092SOL    HW1 4175   1.026   4.413   0.959
 1092SOL    HW2 4176   0.920   4.304   1.019
 1093SOL     OW 4177   1.959   1.006   1.981
 1093SOL    HW1 4178   1.919   0.971   1.896
 1093SOL    HW2 4179   2.058   1.006   1.973
 1094SOL     OW 4180   0.406   6.651   2.505
 1094SOL    HW1 4181   0.317   6.682   2.473
 1094SOL    HW2 4182   0.461   6.730   2.533
 1095SOL     OW 4183   1.097   2.881   6.306
 1095SOL    HW1 4184   1.168   2.917   6.246
 1095SOL    HW2 4185   1.011   2.872   6.256
 1096SOL     OW 4186   3.522   4.370   1.695
 1096SOL    HW1 4187   3.529   4.464   1.729
 1096SOL    HW2 4188   3.439   4.328   1.731
 1097SOL     OW 4189   2.491   4.491   4.147
 1097SOL    HW1 4190   2.434   4.553   4.093
 1097SOL    HW2 4191   2.434   4.440   4.211
 1098SOL     OW 4192   4.772   3.716   6.441
 1098SOL    HW1 4193   4.776   3.815   6.427
 1098SOL    HW2 4194   4.676   3.688   6.451
 1099SOL     OW 4195   3.262   1.015   5.875
 1099SOL    HW1 4196   3.310   1.092   5.917
 1099SOL    HW2 4197   3.309   0.930   5.899
 1100SOL     OW 4198   4.101   1.661   4.288
 1100SOL    HW1 4199   4.042   1.696   4.361
 1100SOL    HW2 4200   4.079   1.707   4.202
 1101SOL     OW 4201   5.670   3.058   5.864
 1101SOL    HW1 4202   5.730   3.137   5.872
 1101SOL    HW2 4203   5.644   3.027   5.955
 1102SOL     OW 4204   0.685   0.201   4.800
 1102SOL    HW1 4205   0.728   0.194   4.710
 1102SOL    HW2 4206   0.634   0.117   4.819
 1103SOL     OW 4207   4.317   1.883   6.962
 1103SOL    HW1 4208   4.256   1.879   0.012
 1103SOL    HW2 4209   4.396   1.940   6.983
 1104SOL     OW 4210   2.052   3.273   5.638
 1104SOL    HW1 4211   2.024   3.360   5.678
 1104SOL    HW2 4212   2.142   3.247   5.674
 1105SOL     OW 4213   5.993   4.234   4.943
 1105SOL    HW1 4214   5.959   4.198   5.030
 1105SOL    HW2 4215   6.004   4.159   4.878
 1106SOL     OW 4216   0.392   2.478   1.466
 1106SOL    HW1 4217   0.400   2.538   1.546
 1106SOL    HW2 4218   0.466   2.411   1.468
 1107SOL     OW 4219   0.865   0.736   0.180
 1107SOL    HW1 4220   0.859   0.733   0.280
 1107SOL    HW2 4221   0.846   0.828   0.148
 1108SOL     OW 4222   3.229   7.011   5.148
 1108SOL    HW1 4223   3.320   6.971   5.139
 1108SOL    HW2 4224   3.160   6.938   5.147
 1109SOL     OW 4225   5.108   0.869   3.939
 1109SOL    HW1 4226   5.097   0.965   3.914
 1109SOL    HW2 4227   5.200   0.838   3.914
 1110SOL     OW 4228   3.436   1.984   3.234
 1110SOL    HW1 4229   3.407   2.042   3.158
 1110SOL    HW2 4230   3.501   1.916   3.202
 1111SOL     OW 4231   4.763   5.117   6.354
 1111SOL    HW1 4232   4.708   5.106   6.437
 1111SOL    HW2 4233   4.772   5.214   6.332
 1112SOL     OW 4234   5.613   0.951   2.579
 1112SOL    HW1 4235   5.522   0.917   2.559
 1112SOL    HW2 4236   5.676   0.925   2.506
 1113SOL     OW 4237   5.935   4.559   1.790
 1113SOL    HW1 4238   5.911   4.517   1.703
 1113SOL    HW2 4239   5.872   4.527   1.861
 1114SOL     OW 4240   3.387   2.062   6.107
 1114SOL    HW1 4241   3.344   1.972   6.103
 1114SOL    HW2 4242   3.336   2.126   6.049
 1115SOL     OW 4243   3.896   3.184   6.068
 1115SOL    HW1 4244   3.967   3.248   6.039
 1115SOL    HW2 4245   3.806   3.218   6.041
 1116SOL     OW 4246   4.903   6.713   5.774
 1116SOL    HW1 4247   4.975   6.768   5.731
 1116SOL    HW2 4248   4.877   6.638   5.714
 1117SOL     OW 4249   2.186   2.570   2.248
 1117SOL    HW1 4250   2.158   2.572   2.344
 1117SOL    HW2 4251   2.285   2.561   2.242
 1118SOL     OW 4252   3.072   4.831   0.230
 1118SOL    HW1 4253   3.148   4.806   0.169
 1118SOL    HW2 4254   3.077   4.777   0.314
 1119SOL     OW 4255   4.186   4.711   1.948
 1119SOL    HW1 4256   4.246   4.783   1.984
 1119SOL    HW2 4257   4.239   4.628   1.931
 1120SOL     OW 4258   5.825   6.435   0.360
 1120SOL    HW1 4259   5.907   6.400   0.315
 1120SOL    HW2 4260   5.743   6.395   0.318
 1121SOL     OW 4261   6.122   4.462   4.309
 1121SOL    HW1 4262   6.214   4.435   4.338
 1121SOL    HW2 4263   6.055   4.409   4.360
 1122SOL     OW 4264   5.351   2.306   1.176
 1122SOL    HW1 4265   5.351   2.318   1.077
 1122SOL    HW2 4266   5.268   2.257   1.204
 1123SOL     OW 4267   5.216   1.916   3.086
 1123SOL    HW1 4268   5.199   1.844   3.153
 1123SOL    HW2 4269   5.292   1.973   3.117
 1124SOL     OW 4270   7.003   3.634   5.427
 1124SOL    HW1 4271   6.953   3.608   5.344
 1124SOL    HW2 4272   6.944   3.689   5.486
 1125SOL     OW 4273   2.597   2.514   3.740
 1125SOL    HW1 4274   2.504   2.480   3.750
 1125SOL    HW2 4275   2.656   2.470   3.807
 1126SOL     OW 4276   5.477   5.311   0.162
 1126SOL    HW1 4277   5.437   5.318   0.254
 1126SOL    HW2 4278   5.405   5.324   0.094
 1127SOL     OW 4279   5.329   5.279   4.507
 1127SOL    HW1 4280   5.319   5.378   4.493
 1127SOL    HW2 4281   5.412   5.247   4.460
 1128SOL     OW 4282   6.056   1.354   5.154
 1128SOL    HW1 4283   6.121   1.424   5.182
 1128SOL    HW2 4284   6.056   1.348   5.054
 1129SOL     OW 4285   1.610   7.004   0.782
 1129SOL    HW1 4286   1.575   7.009   0.876
 1129SOL    HW2 4287   1.569   6.925   0.736
 1130SOL     OW 4288   3.023   5.307   0.374
 1130SOL    HW1 4289   3.061   5.231   0.321
 1130SOL    HW2 4290   3.017   5.281   0.470
 1131SOL     OW 4291   1.153   6.038   5.748
 1131SOL    HW1 4292   1.124   6.008   5.657
 1131SOL    HW2 4293   1.208   6.121   5.739
 1132SOL     OW 4294   5.162   6.992   2.350
 1132SOL    HW1 4295   5.111   0.032   2.301
 1132SOL    HW2 4296   5.146   6.903   2.309
 1133SOL     OW 4297   0.624   1.209   0.496
 1133SOL    HW1 4298   0.601   1.156   0.414
 1133SOL    HW2 4299   0.663   1.148   0.565
 1134SOL     OW 4300   5.102   0.077   2.636
 1134SOL    HW1 4301   5.126   0.003   2.575
 1134SOL    HW2 4302   5.125   0.052   2.730
 1135SOL     OW 4303   2.378   0.168   3.337
 1135SOL    HW1 4304   2.345   0.076   3.358
 1135SOL    HW2 4305   2.371   0.184   3.239
 1136SOL     OW 4306   4.223   4.689   3.430
 1136SOL    HW1 4307   4.291   4.745   3.381
 1136SOL    HW2 4308   4.248   4.593   3.423
 1137SOL     OW 4309   1.057   6.778   0.145
 1137SOL    HW1 4310   1.065   6.825   0.233
 1137SOL    HW2 4311   0.971   6.726   0.144
 1138SOL     OW 4312   0.192   0.902   6.194
 1138SOL    HW1 4313   0.200   0.870   6.288
 1138SOL    HW2 4314   0.131   0.981   6.190
 1139SOL     OW 4315   3.117   4.823   2.644
 1139SOL    HW1 4316   3.089   4.771   2.563
 1139SOL    HW2 4317   3.102   4.921   2.627
 1140SOL     OW 4318   2.821   1.136   2.222
 1140SOL    HW1 4319   2.757   1.203   2.260
 1140SOL    HW2 4320   2.878   1.180   2.153
 1141SOL     OW 4321   0.803   6.506   6.855
 1141SOL    HW1 4322   0.818   6.455   6.940
 1141SOL    HW2 4323   0.859   6.467   6.782
 1142SOL     OW 4324   3.191   6.794   4.314
 1142SOL    HW1 4325   3.121   6.853   4.274
 1142SOL    HW2 4326   3.189   6.803   4.414
 1143SOL     OW 4327   2.301   2.892   3.349
 1143SOL    HW1 4328   2.380   2.870   3.291
 1143SOL    HW2 4329   2.257   2.807   3.377
 1144SOL     OW 4330   6.115   4.681   4.446
 1144SOL    HW1 4331   6.018   4.697   4.461
 1144SOL    HW2 4332   6.129   4.587   4.412
 1145SOL     OW 4333   6.319   3.957   1.947
 1145SOL    HW1 4334   6.302   3.890   2.019
 1145SOL    HW2 4335   6.344   3.910   1.862
 1146SOL     OW 4336   6.661   0.785   2.982
 1146SOL    HW1 4337   6.598   0.764   2.906
 1146SOL    HW2 4338   6.729   0.851   2.951
 1147SOL     OW 4339   2.839   5.747   1.661
 1147SOL    HW1 4340   2.823   5.834   1.613
 1147SOL    HW2 4341   2.853   5.674   1.594
 1148SOL     OW 4342   4.254   6.196   0.282
 1148SOL    HW1 4343   4.322   6.167   0.214
 1148SOL    HW2 4344   4.243   6.124   0.351
 1149SOL     OW 4345   5.689   3.374   2.680
 1149SOL    HW1 4346   5.747   3.297   2.706
 1149SOL    HW2 4347   5.723   3.414   2.595
 1150SOL     OW 4348   0.873   3.504   0.361
 1150SOL    HW1 4349   0.957   3.464   0.325
 1150SOL    HW2 4350   0.844   3.451   0.441
 1151SOL     OW 4351   5.218   4.112   6.430
 1151SOL    HW1 4352   5.261   4.036   6.382
 1151SOL    HW2 4353   5.124   4.123   6.397
 1152SOL     OW 4354   5.212   5.333   0.024
 1152SOL    HW1 4355   5.149   5.279   6.998
 1152SOL    HW2 4356   5.191   5.320   0.120
 1153SOL     OW 4357   0.746   0.416   1.754
 1153SOL    HW1 4358   0.707   0.326   1.735
 1153SOL    HW2 4359   0.691   0.486   1.708
 1154SOL     OW 4360   6.690   4.199   1.636
 1154SOL    HW1 4361   6.594   4.171   1.644
 1154SOL    HW2 4362   6.738   4.176   1.720
 1155SOL     OW 4363   2.262   4.816   5.957
 1155SOL    HW1 4364   2.249   4.739   5.895
 1155SOL    HW2 4365   2.191   4.815   6.027
 1156SOL     OW 4366   4.529   1.768   4.927
 1156SOL    HW1 4367   4.575   1.724   4.850
 1156SOL    HW2 4368   4.463   1.705   4.967
 1157SOL     OW 4369   4.975   1.886   6.043
 1157SOL    HW1 4370   4.902   1.818   6.052
 1157SOL    HW2 4371   5.050   1.862   6.106
 1158SOL     OW 4372   6.975   4.742   5.716
 1158SOL    HW1 4373   6.955   4.799   5.636
 1158SOL    HW2 4374   6.889   4.721   5.764
 1159SOL     OW 4375   6.609   0.140   3.495
 1159SOL    HW1 4376   6.567   0.198   3.425
 1159SOL    HW2 4377   6.704   0.170   3.510
 1160SOL     OW 4378   5.242   4.560   1.345
 1160SOL    HW1 4379   5.240   4.486   1.412
 1160SOL    HW2 4380   5.240   4.522   1.253
 1161SOL     OW 4381   5.803   6.091   6.032
 1161SOL    HW1 4382   5.901   6.087   6.051
 1161SOL    HW2 4383   5.772   6.003   5.996
 1162SOL     OW 4384   3.416   3.022   6.844
 1162SOL    HW1 4385   3.316   3.020   6.842
 1162SOL    HW2 4386   3.450   2.946   6.899
 1163SOL     OW 4387   6.627   3.924   1.758
 1163SOL    HW1 4388   6.702   3.891   1.700
 1163SOL    HW2 4389   6.663   3.944   1.849
 1164SOL     OW 4390   5.947   2.897   4.087
 1164SOL    HW1 4391   5.895   2.815   4.109
 1164SOL    HW2 4392   5.893   2.956   4.026
 1165SOL     OW 4393   3.872   5.166   3.917
 1165SOL    HW1 4394   3.818   5.085   3.940
 1165SOL    HW2 4395   3.822   5.220   3.849
 1166SOL     OW 4396   3.839   0.017   6.836
 1166SOL    HW1 4397   3.789   6.964   6.864
 1166SOL    HW2 4398   3.837   0.023   6.736
 1167SOL     OW 4399   4.441   6.484   0.084
 1167SOL    HW1 4400   4.449   6.462   0.182
 1167SOL    HW2 4401   4.491   6.568   0.065
 1168SOL     OW 4402   5.600   2.278   2.820
 1168SOL    HW1 4403   5.526   2.271   2.887
 1168SOL    HW2 4404   5.580   2.351   2.754
 1169SOL     OW 4405   4.704   2.681   5.796
 1169SOL    HW1 4406   4.716   2.724   5.885
 1169SOL    HW2 4407   4.787   2.693   5.741
 1170SOL     OW 4408   5.200   6.956   2.936
 1170SOL    HW1 4409   5.171   6.975   3.030
 1170SOL    HW2 4410   5.160   6.870   2.905
 1171SOL     OW 4411   2.104   6.443   7.026
 1171SOL    HW1 4412   2.100   6.533   6.982
 1171SOL    HW2 4413   2.166   6.448   0.075
 1172SOL     OW 4414   3.513   4.084   1.470
 1172SOL    HW1 4415   3.587   4.025   1.437
 1172SOL    HW2 4416   3.440   4.028   1.509
 1173SOL     OW 4417   3.036   0.924   0.580
 1173SOL    HW1 4418   3.083   0.891   0.498
 1173SOL    HW2 4419   3.103   0.941   0.653
 1174SOL     OW 4420   2.612   5.023   1.772
 1174SOL    HW1 4421   2.590   4.971   1.855
 1174SOL    HW2 4422   2.704   5.000   1.741
 1175SOL     OW 4423   4.466   4.518   6.481
 1175SOL    HW1 4424   4.475   4.592   6.415
 1175SOL    HW2 4425   4.387   4.533   6.539
 1176SOL     OW 4426   5.984   3.790   6.658
 1176SOL    HW1 4427   5.953   3.698   6.635
 1176SOL    HW2 4428   6.017   3.837   6.576
 1177SOL     OW 4429   0.074   3.556   4.718
 1177SOL    HW1 4430   0.086   3.457   4.707
 1177SOL    HW2 4431   0.090   3.601   4.630
 1178SOL     OW 4432   3.958   4.127   0.479
 1178SOL    HW1 4433   4.034   4.188   0.504
 1178SOL    HW2 4434   3.991   4.033   0.475
 1179SOL     OW 4435   2.186   6.300   1.288
 1179SOL    HW1 4436   2.210   6.236   1.215
 1179SOL    HW2 4437   2.089   6.288   1.312
 1180SOL     OW 4438   2.768   5.928   4.626
 1180SOL    HW1 4439   2.677   5.917   4.665
 1180SOL    HW2 4440   2.792   5.846   4.574
 1181SOL     OW 4441   0.172   4.185   5.699
 1181SOL    HW1 4442   0.080   4.158   5.726
 1181SOL    HW2 4443   0.202   4.263   5.755
 1182SOL     OW 4444   4.193   5.038   3.368
 1182SOL    HW1 4445   4.233   4.947   3.355
 1182SOL    HW2 4446   4.257   5.097   3.417
 1183SOL     OW 4447   3.090   4.552   1.469
 1183SOL    HW1 4448   3.074   4.596   1.557
 1183SOL    HW2 4449   3.086   4.620   1.396
 1184SOL     OW 4450   0.122   1.418   5.307
 1184SOL    HW1 4451   0.062   1.368   5.245
 1184SOL    HW2 4452   0.199   1.456   5.256
 1185SOL     OW 4453   1.277   0.781   0.457
 1185SOL    HW1 4454   1.238   0.690   0.469
 1185SOL    HW2 4455   1.317   0.789   0.366
 1186SOL     OW 4456   4.836   6.293   5.065
 1186SOL    HW1 4457   4.758   6.356   5.063
 1186SOL    HW2 4458   4.917   6.343   5.097
 1187SOL     OW 4459   5.258   0.232   4.761
 1187SOL    HW1 4460   5.264   0.206   4.857
 1187SOL    HW2 4461   5.324   0.304   4.741
 1188SOL     OW 4462   2.593   5.115   6.180
 1188SOL    HW1 4463   2.667   5.124   6.247
 1188SOL    HW2 4464   2.589   5.021   6.147
 1189SOL     OW 4465   6.565   1.975   1.909
 1189SOL    HW1 4466   6.540   2.031   1.989
 1189SOL    HW2 4467   6.663   1.985   1.891
 1190SOL     OW 4468   3.044   5.581   2.771
 1190SOL    HW1 4469   3.097   5.661   2.801
 1190SOL    HW2 4470   2.966   5.568   2.833
 1191SOL     OW 4471   4.512   5.955   4.451
 1191SOL    HW1 4472   4.429   5.995   4.490
 1191SOL    HW2 4473   4.566   6.026   4.406
 1192SOL     OW 4474   5.372   4.844   3.368
 1192SOL    HW1 4475   5.354   4.935   3.404
 1192SOL    HW2 4476   5.469   4.822   3.380
 1193SOL     OW 4477   0.003   2.316   5.700
 1193SOL    HW1 4478   0.041   2.320   5.607
 1193SOL    HW2 4479   6.935   2.295   5.695
 1194SOL     OW 4480   6.373   1.104   1.593
 1194SOL    HW1 4481   6.437   1.049   1.540
 1194SOL    HW2 4482   6.404   1.199   1.594
 1195SOL     OW 4483   0.144   3.710   0.304
 1195SOL    HW1 4484   0.071   3.700   0.237
 1195SOL    HW2 4485   0.135   3.639   0.374
 1196SOL     OW 4486   6.898   4.956   3.545
 1196SOL    HW1 4487   6.878   4.858   3.539
 1196SOL    HW2 4488   6.825   5.002   3.596
 1197SOL     OW 4489   4.625   6.406   4.383
 1197SOL    HW1 4490   4.611   6.445   4.474
 1197SOL    HW2 4491   4.642   6.479   4.317
 1198SOL     OW 4492   1.936   3.363   2.333
 1198SOL    HW1 4493   1.984   3.450   2.338
 1198SOL    HW2 4494   1.997   3.292   2.297
 1199SOL     OW 4495   3.449   3.862   2.590
 1199SOL    HW1 4496   3.369   3.919   2.577
 1199SOL    HW2 4497   3.433   3.797   2.664
 1200SOL     OW 4498   3.152   4.000   4.883
 1200SOL    HW1 4499   3.061   3.959   4.875
 1200SOL    HW2 4500   3.168   4.061   4.806
 1201SOL     OW 4501   0.721   1.233   4.085
 1201SOL    HW1 4502   0.742   1.295   4.160
 1201SOL    HW2 4503   0.642   1.268   4.034
 1202SOL     OW 4504   0.217   5.933   5.632
 1202SOL    HW1 4505   0.293   5.996   5.642
 1202SOL    HW2 4506   0.132   5.977   5.664
 1203SOL     OW 4507   0.493   5.357   0.789
 1203SOL    HW1 4508   0.537   5.305   0.862
 1203SOL    HW2 4509   0.512   5.455   0.801
 1204SOL     OW 4510   4.765   1.648   0.910
 1204SOL    HW1 4511   4.668   1.630   0.896
 1204SOL    HW2 4512   4.799   1.594   0.986
 1205SOL     OW 4513   4.001   3.857   0.481
 1205SOL    HW1 4514   3.934   3.796   0.438
 1205SOL    HW2 4515   4.087   3.809   0.493
 1206SOL     OW 4516   2.612   2.644   5.480
 1206SOL    HW1 4517   2.580   2.579   5.548
 1206SOL    HW2 4518   2.543   2.655   5.409
 1207SOL     OW 4519   1.060   0.077   1.016
 1207SOL    HW1 4520   0.989   0.008   1.035
 1207SOL    HW2 4521   1.131   0.036   0.959
 1208SOL     OW 4522   3.445   3.720   1.504
 1208SOL    HW1 4523   3.480   3.696   1.594
 1208SOL    HW2 4524   3.517   3.707   1.436
 1209SOL     OW 4525   4.782   0.357   3.917
 1209SOL    HW1 4526   4.802   0.311   3.830
 1209SOL    HW2 4527   4.710   0.306   3.965
 1210SOL     OW 4528   3.995   6.790   3.404
 1210SOL    HW1 4529   4.091   6.764   3.408
 1210SOL    HW2 4530   3.981   6.876   3.453
 1211SOL     OW 4531   1.419   3.284   3.172
 1211SOL    HW1 4532   1.336   3.228   3.173
 1211SOL    HW2 4533   1.452   3.296   3.265
 1212SOL     OW 4534   6.416   0.338   6.017
 1212SOL    HW1 4535   6.344   0.354   5.949
 1212SOL    HW2 4536   6.458   0.426   6.042
 1213SOL     OW 4537   6.284   2.691   1.291
 1213SOL    HW1 4538   6.264   2.737   1.205
 1213SOL    HW2 4539   6.206   2.635   1.319
 1214SOL     OW 4540   1.090   3.372   0.192
 1214SOL    HW1 4541   1.136   3.401   0.108
 1214SOL    HW2 4542   1.156   3.374   0.268
 1215SOL     OW 4543   0.827   4.920   3.204
 1215SOL    HW1 4544   0.807   4.982   3.128
 1215SOL    HW2 4545   0.892   4.964   3.266
 1216SOL     OW 4546   5.420   0.913   0.513
 1216SOL    HW1 4547   5.378   0.863   0.589
 1216SOL    HW2 4548   5.520   0.913   0.524
 1217SOL     OW 4549   2.877   4.203   0.999
 1217SOL    HW1 4550   2.843   4.109   0.990
 1217SOL    HW2 4551   2.864   4.234   1.093
 1218SOL     OW 4552   1.184   2.996   5.092
 1218SOL    HW1 4553   1.172   2.917   5.153
 1218SOL    HW2 4554   1.242   3.064   5.137
 1219SOL     OW 4555   5.875   6.238   1.643
 1219SOL    HW1 4556   5.865   6.312   1.710
 1219SOL    HW2 4557   5.965   6.197   1.653
 1220SOL     OW 4558   0.783   4.718   2.576
 1220SOL    HW1 4559   0.829   4.783   2.637
 1220SOL    HW2 4560   0.701   4.683   2.621
 1221SOL     OW 4561   4.289   3.745   6.348
 1221SOL    HW1 4562   4.370   3.793   6.314
 1221SOL    HW2 4563   4.249   3.692   6.273
 1222SOL     OW 4564   6.542   1.113   6.725
 1222SOL    HW1 4565   6.516   1.018   6.739
 1222SOL    HW2 4566   6.597   1.121   6.642
 1223SOL     OW 4567   4.085   1.638   0.535
 1223SOL    HW1 4568   4.046   1.703   0.600
 1223SOL    HW2 4569   4.074   1.545   0.570
 1224SOL     OW 4570   3.424   6.050   0.339
 1224SOL    HW1 4571   3.358   5.975   0.340
 1224SOL    HW2 4572   3.485   6.042   0.418
 1225SOL     OW 4573   3.328   3.339   6.667
 1225SOL    HW1 4574   3.287   3.334   6.758
 1225SOL    HW2 4575   3.368   3.251   6.643
 1226SOL     OW 4576   2.875   6.857   1.416
 1226SOL    HW1 4577   2.951   6.846   1.481
 1226SOL    HW2 4578   2.896   6.932   1.353
 1227SOL     OW 4579   5.319   4.704   6.360
 1227SOL    HW1 4580   5.290   4.615   6.396
 1227SOL    HW2 4581   5.257   4.731   6.286
 1228SOL     OW 4582   2.776   2.284   5.963
 1228SOL    HW1 4583   2.777   2.350   5.888
 1228SOL    HW2 4584   2.721   2.320   6.038
 1229SOL     OW 4585   3.093   5.717   5.985
 1229SOL    HW1 4586   3.142   5.631   5.998
 1229SOL    HW2 4587   3.149   5.793   6.017
 1230SOL     OW 4588   5.476   6.778   2.377
 1230SOL    HW1 4589   5.458   6.685   2.347
 1230SOL    HW2 4590   5.436   6.842   2.311
 1231SOL     OW 4591   1.738   2.058   5.339
 1231SOL    HW1 4592   1.671   1.994   5.301
 1231SOL    HW2 4593   1.822   2.055   5.285
 1232SOL     OW 4594   0.137   1.955   5.565
 1232SOL    HW1 4595   0.208   2.006   5.517
 1232SOL    HW2 4596   0.126   1.993   5.658
 1233SOL     OW 4597   0.811   5.153   5.090
 1233SOL    HW1 4598   0.722   5.191   5.115
 1233SOL    HW2 4599   0.798   5.068   5.040
 1234SOL     OW 4600   6.536   2.724   5.615
 1234SOL    HW1 4601   6.515   2.627   5.627
 1234SOL    HW2 4602   6.471   2.780   5.665
 1235SOL     OW 4603   6.236   5.462   3.104
 1235SOL    HW1 4604   6.289   5.528   3.158
 1235SOL    HW2 4605   6.208   5.504   3.018
 1236SOL     OW 4606   4.843   0.980   6.833
 1236SOL    HW1 4607   4.856   1.014   6.740
 1236SOL    HW2 4608   4.749   0.996   6.862
 1237SOL     OW 4609   2.379   4.548   6.220
 1237SOL    HW1 4610   2.371   4.519   6.315
 1237SOL    HW2 4611   2.467   4.595   6.206
 1238SOL     OW 4612   0.988   0.967   0.713
 1238SOL    HW1 4613   0.976   0.948   0.615
 1238SOL    HW2 4614   1.065   1.029   0.725
 1239SOL     OW 4615   6.843   6.640   6.674
 1239SOL    HW1 4616   6.921   6.590   6.637
 1239SOL    HW2 4617   6.787   6.579   6.730
 1240SOL     OW 4618   5.385   6.244   1.154
 1240SOL    HW1 4619   5.437   6.168   1.116
 1240SOL    HW2 4620   5.292   6.214   1.176
 1241SOL     OW 4621   5.225   3.518   4.148
 1241SOL    HW1 4622   5.282   3.453   4.098
 1241SOL    HW2 4623   5.246   3.611   4.117
 1242SOL     OW 4624   0.714   3.448   1.330
 1242SOL    HW1 4625   0.764   3.396   1.261
 1242SOL    HW2 4626   0.760   3.440   1.418
 1243SOL     OW 4627   0.297   0.116   5.045
 1243SOL    HW1 4628   0.376   0.068   5.082
 1243SOL    HW2 4629   0.327   0.189   4.984
 1244SOL     OW 4630   5.678   6.871   4.950
 1244SOL    HW1 4631   5.660   6.893   5.046
 1244SOL    HW2 4632   5.762   6.916   4.921
 1245SOL     OW 4633   5.651   4.254   0.745
 1245SOL    HW1 4634   5.689   4.180   0.690
 1245SOL    HW2 4635   5.576   4.297   0.696
 1246SOL     OW 4636   2.786   0.486   1.052
 1246SOL    HW1 4637   2.771   0.494   1.151
 1246SOL    HW2 4638   2.725   0.550   1.004
 1247SOL     OW 4639   0.916   0.013   6.308
 1247SOL    HW1 4640   0.972   6.968   6.343
 1247SOL    HW2 4641   0.826   7.008   6.284
 1248SOL     OW 4642   2.027   0.343   5.231
 1248SOL    HW1 4643   1.974   0.406   5.174
 1248SOL    HW2 4644   1.968   0.270   5.264
 1249SOL     OW 4645   6.179   1.830   2.295
 1249SOL    HW1 4646   6.199   1.869   2.385
 1249SOL    HW2 4647   6.086   1.794   2.294
 1250SOL     OW 4648   5.955   5.343   4.089
 1250SOL    HW1 4649   5.920   5.301   4.173
 1250SOL    HW2 4650   6.055   5.343   4.092
 1251SOL     OW 4651   2.497   0.447   3.625
 1251SOL    HW1 4652   2.537   0.355   3.625
 1251SOL    HW2 4653   2.424   0.452   3.693
 1252SOL     OW 4654   4.761   3.233   6.072
 1252SOL    HW1 4655   4.836   3.197   6.127
 1252SOL    HW2 4656   4.722   3.160   6.017
 1253SOL     OW 4657   2.846   5.949   2.447
 1253SOL    HW1 4658   2.818   6.045   2.455
 1253SOL    HW2 4659   2.808   5.910   2.363
 1254SOL     OW 4660   1.034   2.956   2.547
 1254SOL    HW1 4661   1.112   2.958   2.609
 1254SOL    HW2 4662   1.060   3.001   2.461
 1255SOL     OW 4663   5.670   1.497   5.656
 1255SOL    HW1 4664   5.692   1.399   5.650
 1255SOL    HW2 4665   5.660   1.534   5.564
 1256SOL     OW 4666   7.014   6.820   3.331
 1256SOL    HW1 4667   7.008   6.910   3.375
 1256SOL    HW2 4668   6.949   6.757   3.374
 1257SOL     OW 4669   6.444   6.227   5.729
 1257SOL    HW1 4670   6.507   6.194   5.800
 1257SOL    HW2 4671   6.442   6.161   5.653
 1258SOL     OW 4672   1.874   5.158   2.734
 1258SOL    HW1 4673   1.789   5.108   2.724
 1258SOL    HW2 4674   1.932   5.142   2.653
 1259SOL     OW 4675   3.962   0.763   3.795
 1259SOL    HW1 4676   3.947   0.761   3.696
 1259SOL    HW2 4677   3.966   0.670   3.830
 1260SOL     OW 4678   2.020   1.478   0.234
 1260SOL    HW1 4679   2.074   1.557   0.265
 1260SOL    HW2 4680   2.069   1.432   0.160
 1261SOL     OW 4681   0.002   5.893   6.934
 1261SOL    HW1 4682   0.095   5.928   6.921
 1261SOL    HW2 4683   6.993   5.868   6.845
 1262SOL     OW 4684   5.934   4.420   1.336
 1262SOL    HW1 4685   5.873   4.485   1.291
 1262SOL    HW2 4686   5.957   4.347   1.273
 1263SOL     OW 4687   0.188   2.675   1.907
 1263SOL    HW1 4688   0.099   2.707   1.873
 1263SOL    HW2 4689   0.233   2.749   1.956
 1264SOL     OW 4690   6.755   4.480   0.896
 1264SOL    HW1 4691   6.734   4.514   0.804
 1264SOL    HW2 4692   6.680   4.420   0.927
 1265SOL     OW 4693   5.685   5.419   4.825
 1265SOL    HW1 4694   5.756   5.474   4.782
 1265SOL    HW2 4695   5.603   5.420   4.768
 1266SOL     OW 4696   0.512   1.659   4.151
 1266SOL    HW1 4697   0.606   1.653   4.116
 1266SOL    HW2 4698   0.493   1.578   4.208
 1267SOL     OW 4699   4.607   6.994   1.448
 1267SOL    HW1 4700   4.681   7.023   1.508
 1267SOL    HW2 4701   4.519   7.023   1.486
 1268SOL     OW 4702   2.862   2.257   0.790
 1268SOL    HW1 4703   2.780   2.233   0.739
 1268SOL    HW2 4704   2.915   2.325   0.739
 1269SOL     OW 4705   5.586   4.219   5.014
 1269SOL    HW1 4706   5.529   4.152   5.062
 1269SOL    HW2 4707   5.666   4.241   5.069
 1270SOL     OW 4708   1.479   2.906   3.809
 1270SOL    HW1 4709   1.469   2.868   3.716
 1270SOL    HW2 4710   1.475   2.831   3.875
 1271SOL     OW 4711   2.654   2.056   3.202
 1271SOL    HW1 4712   2.563   2.076   3.165
 1271SOL    HW2 4713   2.686   1.969   3.166
 1272SOL     OW 4714   5.937   4.167   0.212
 1272SOL    HW1 4715   5.847   4.184   0.253
 1272SOL    HW2 4716   5.930   4.090   0.148
 1273SOL     OW 4717   0.544   2.757   7.018
 1273SOL    HW1 4718   0.504   2.668   6.996
 1273SOL    HW2 4719   0.639   2.745   0.016
 1274SOL     OW 4720   6.992   4.195   1.641
 1274SOL    HW1 4721   6.893   4.195   1.630
 1274SOL    HW2 4722   0.001   4.268   1.585
 1275SOL     OW 4723   3.789   1.371   4.403
 1275SOL    HW1 4724   3.834   1.439   4.346
 1275SOL    HW2 4725   3.825   1.280   4.381
 1276SOL     OW 4726   6.548   5.082   5.377
 1276SOL    HW1 4727   6.578   5.029   5.298
 1276SOL    HW2 4728   6.627   5.114   5.428
 1277SOL     OW 4729   1.600   5.426   5.876
 1277SOL    HW1 4730   1.609   5.342   5.822
 1277SOL    HW2 4731   1.626   5.505   5.821
 1278SOL     OW 4732   0.829   6.606   5.359
 1278SOL    HW1 4733   0.880   6.520   5.353
 1278SOL    HW2 4734   0.809   6.640   5.267
 1279SOL     OW 4735   2.300   4.951   0.294
 1279SOL    HW1 4736   2.357   4.985   0.219
 1279SOL    HW2 4737   2.358   4.925   0.371
 1280SOL     OW 4738   4.527   6.306   3.765
 1280SOL    HW1 4739   4.466   6.380   3.737
 1280SOL    HW2 4740   4.526   6.297   3.865
 1281SOL     OW 4741   2.291   6.681   3.246
 1281SOL    HW1 4742   2.220   6.722   3.188
 1281SOL    HW2 4743   2.352   6.626   3.189
 1282SOL     OW 4744   6.751   2.578   0.244
 1282SOL    HW1 4745   6.723   2.658   0.191
 1282SOL    HW2 4746   6.841   2.594   0.284
 1283SOL     OW 4747   6.624   3.508   5.151
 1283SOL    HW1 4748   6.535   3.526   5.191
 1283SOL    HW2 4749   6.622   3.421   5.102
 1284SOL     OW 4750   4.848   1.877   1.416
 1284SOL    HW1 4751   4.893   1.917   1.496
 1284SOL    HW2 4752   4.916   1.861   1.344
 1285SOL     OW 4753   4.372   2.041   6.142
 1285SOL    HW1 4754   4.293   1.985   6.164
 1285SOL    HW2 4755   4.347   2.110   6.074
 1286SOL     OW 4756   4.372   4.044   1.391
 1286SOL    HW1 4757   4.348   4.000   1.304
 1286SOL    HW2 4758   4.471   4.053   1.398
 1287SOL     OW 4759   5.874   4.912   4.908
 1287SOL    HW1 4760   5.838   5.005   4.905
 1287SOL    HW2 4761   5.887   4.884   5.003
 1288SOL     OW 4762   4.001   3.085   6.952
 1288SOL    HW1 4763   4.005   3.132   0.010
 1288SOL    HW2 4764   3.941   3.006   6.959
 1289SOL     OW 4765   6.823   6.832   0.965
 1289SOL    HW1 4766   6.724   6.826   0.978
 1289SOL    HW2 4767   6.855   6.754   0.912
 1290SOL     OW 4768   0.887   6.543   0.198
 1290SOL    HW1 4769   0.919   6.449   0.182
 1290SOL    HW2 4770   0.788   6.547   0.185
 1291SOL     OW 4771   0.873   4.473   4.054
 1291SOL    HW1 4772   0.834   4.386   4.022
 1291SOL    HW2 4773   0.961   4.488   4.010
 1292SOL     OW 4774   0.324   6.029   2.427
 1292SOL    HW1 4775   0.363   5.997   2.514
 1292SOL    HW2 4776   0.398   6.060   2.367
 1293SOL     OW 4777   1.793   2.245   0.386
 1293SOL    HW1 4778   1.846   2.199   0.315
 1293SOL    HW2 4779   1.752   2.178   0.446
 1294SOL     OW 4780   0.560   3.221   6.351
 1294SOL    HW1 4781   0.539   3.312   6.318
 1294SOL    HW2 4782   0.657   3.201   6.336
 1295SOL     OW 4783   0.330   3.746   1.517
 1295SOL    HW1 4784   0.426   3.722   1.501
 1295SOL    HW2 4785   0.295   3.798   1.440
 1296SOL     OW 4786   3.718   6.317   5.115
 1296SOL    HW1 4787   3.801   6.283   5.158
 1296SOL    HW2 4788   3.720   6.417   5.112
 1297SOL     OW 4789   6.876   6.986   1.643
 1297SOL    HW1 4790   6.806   0.006   1.592
 1297SOL    HW2 4791   6.960   6.981   1.588
 1298SOL     OW 4792   5.546   5.440   3.738
 1298SOL    HW1 4793   5.448   5.456   3.730
 1298SOL    HW2 4794   5.594   5.493   3.668
 1299SOL     OW 4795   2.200   3.126   3.707
 1299SOL    HW1 4796   2.109   3.147   3.741
 1299SOL    HW2 4797   2.225   3.033   3.735
 1300SOL     OW 4798   1.609   3.132   0.529
 1300SOL    HW1 4799   1.614   3.070   0.450
 1300SOL    HW2 4800   1.700   3.143   0.568
 1301SOL     OW 4801   0.256   6.576   0.847
 1301SOL    HW1 4802   0.173   6.617   0.811
 1301SOL    HW2 4803   0.243   6.477   0.856
 1302SOL     OW 4804   4.526   0.027   5.711
 1302SOL    HW1 4805   4.604   7.001   5.683
 1302SOL    HW2 4806   4.463   0.037   5.634
 1303SOL     OW 4807   3.721   1.988   1.878
 1303SOL    HW1 4808   3.728   2.077   1.923
 1303SOL    HW2 4809   3.638   1.984   1.823
 1304SOL     OW 4810   1.568   0.796   0.112
 1304SOL    HW1 4811   1.514   0.781   0.028
 1304SOL    HW2 4812   1.665   0.800   0.089
 1305SOL     OW 4813   5.601   3.439   0.785
 1305SOL    HW1 4814   5.628   3.501   0.712
 1305SOL    HW2 4815   5.545   3.366   0.747
 1306SOL     OW 4816   0.885   5.456   3.793
 1306SOL    HW1 4817   0.845   5.503   3.872
 1306SOL    HW2 4818   0.909   5.363   3.818
 1307SOL     OW 4819   1.777   4.118   4.010
 1307SOL    HW1 4820   1.742   4.042   3.954
 1307SOL    HW2 4821   1.701   4.159   4.061
 1308SOL     OW 4822   6.591   0.289   5.245
 1308SOL    HW1 4823   6.594   0.208   5.186
 1308SOL    HW2 4824   6.648   0.361   5.205
 1309SOL     OW 4825   5.837   4.810   5.172
 1309SOL    HW1 4826   5.874   4.884   5.229
 1309SOL    HW2 4827   5.857   4.722   5.216
 1310SOL     OW 4828   6.698   4.220   4.353
 1310SOL    HW1 4829   6.668   4.125   4.354
 1310SOL    HW2 4830   6.636   4.276   4.408
 1311SOL     OW 4831   0.010   5.710   5.796
 1311SOL    HW1 4832   7.021   5.791   5.851
 1311SOL    HW2 4833   0.107   5.688   5.800
 1312SOL     OW 4834   0.932   6.531   6.599
 1312SOL    HW1 4835   1.007   6.473   6.567
 1312SOL    HW2 4836   0.969   6.612   6.644
 1313SOL     OW 4837   0.244   4.906   2.700
 1313SOL    HW1 4838   0.290   4.923   2.613
 1313SOL    HW2 4839   0.211   4.812   2.703
 1314SOL     OW 4840   4.178   1.459   4.896
 1314SOL    HW1 4841   4.137   1.536   4.847
 1314SOL    HW2 4842   4.107   1.411   4.947
 1315SOL     OW 4843   0.214   1.742   2.729
 1315SOL    HW1 4844   0.163   1.663   2.763
 1315SOL    HW2 4845   0.281   1.712   2.661
 1316SOL     OW 4846   2.831   6.821   6.082
 1316SOL    HW1 4847   2.777   6.762   6.023
 1316SOL    HW2 4848   2.813   6.917   6.059
 1317SOL     OW 4849   2.234   4.442   5.980
 1317SOL    HW1 4850   2.280   4.488   6.056
 1317SOL    HW2 4851   2.157   4.389   6.015
 1318SOL     OW 4852   0.989   2.363   0.976
 1318SOL    HW1 4853   1.073   2.321   0.941
 1318SOL    HW2 4854   1.012   2.430   1.047
 1319SOL     OW 4855   6.737   6.206   0.187
 1319SOL    HW1 4856   6.721   6.166   0.277
 1319SOL    HW2 4857   6.834   6.228   0.177
 1320SOL     OW 4858   3.777   4.916   6.625
 1320SOL    HW1 4859   3.793   4.958   6.714
 1320SOL    HW2 4860   3.832   4.832   6.617
 1321SOL     OW 4861   5.942   2.281   6.534
 1321SOL    HW1 4862   5.945   2.183   6.514
 1321SOL    HW2 4863   5.853   2.318   6.506
 1322SOL     OW 4864   3.983   1.738   3.510
 1322SOL    HW1 4865   4.015   1.643   3.517
 1322SOL    HW2 4866   4.054   1.793   3.467
 1323SOL     OW 4867   3.951   0.341   5.910
 1323SOL    HW1 4868   3.964   0.255   5.960
 1323SOL    HW2 4869   4.039   0.375   5.878
 1324SOL     OW 4870   1.161   3.902   0.107
 1324SOL    HW1 4871   1.226   3.892   0.031
 1324SOL    HW2 4872   1.068   3.906   0.071
 1325SOL     OW 4873   2.597   6.603   4.161
 1325SOL    HW1 4874   2.592   6.518   4.213
 1325SOL    HW2 4875   2.633   6.584   4.069
 1326SOL     OW 4876   4.851   3.408   5.284
 1326SOL    HW1 4877   4.775   3.353   5.320
 1326SOL    HW2 4878   4.815   3.490   5.241
 1327SOL     OW 4879   1.140   6.410   1.255
 1327SOL    HW1 4880   1.053   6.402   1.303
 1327SOL    HW2 4881   1.213   6.373   1.312
 1328SOL     OW 4882   2.421   3.274   1.230
 1328SOL    HW1 4883   2.354   3.262   1.303
 1328SOL    HW2 4884   2.419   3.195   1.169
 1329SOL     OW 4885   0.771   2.230   2.118
 1329SOL    HW1 4886   0.681   2.270   2.138
 1329SOL    HW2 4887   0.835   2.303   2.094
 1330SOL     OW 4888   1.019   1.043   2.102
 1330SOL    HW1 4889   1.010   1.090   2.189
 1330SOL    HW2 4890   0.945   1.071   2.041
 1331SOL     OW 4891   4.931   3.537   2.496
 1331SOL    HW1 4892   4.900   3.602   2.426
 1331SOL    HW2 4893   4.920   3.444   2.462
 1332SOL     OW 4894   2.940   0.111   6.859
 1332SOL    HW1 4895   2.973   0.023   6.825
 1332SOL    HW2 4896   2.952   0.181   6.788
 1333SOL     OW 4897   3.606   3.632   3.772
 1333SOL    HW1 4898   3.631   3.669   3.862
 1333SOL    HW2 4899   3.518   3.668   3.744
 1334SOL     OW 4900   5.990   1.780   4.275
 1334SOL    HW1 4901   6.047   1.860   4.297
 1334SOL    HW2 4902   5.989   1.766   4.176
 1335SOL     OW 4903   2.570   1.995   2.194
 1335SOL    HW1 4904   2.546   2.074   2.138
 1335SOL    HW2 4905   2.591   1.917   2.135
 1336SOL     OW 4906   2.394   2.321   5.139
 1336SOL    HW1 4907   2.489   2.318   5.106
 1336SOL    HW2 4908   2.360   2.415   5.132
 1337SOL     OW 4909   1.678   1.332   3.489
 1337SOL    HW1 4910   1.767   1.377   3.489
 1337SOL    HW2 4911   1.680   1.254   3.427
 1338SOL     OW 4912   6.256   2.176   4.736
 1338SOL    HW1 4913   6.202   2.244   4.687
 1338SOL    HW2 4914   6.345   2.215   4.759
 1339SOL     OW 4915   6.277   2.211   6.687
 1339SOL    HW1 4916   6.271   2.231   6.589
 1339SOL    HW2 4917   6.210   2.266   6.737
 1340SOL     OW 4918   6.158   2.209   3.190
 1340SOL    HW1 4919   6.060   2.227   3.194
 1340SOL    HW2 4920   6.198   2.263   3.115
 1341SOL     OW 4921   5.266   6.851   6.772
 1341SOL    HW1 4922   5.220   6.867   6.685
 1341SOL    HW2 4923   5.199   6.857   6.847
 1342SOL     OW 4924   2.834   5.840   5.927
 1342SOL    HW1 4925   2.904   5.786   5.973
 1342SOL    HW2 4926   2.851   5.937   5.941
 1343SOL     OW 4927   5.693   5.792   2.154
 1343SOL    HW1 4928   5.689   5.728   2.231
 1343SOL    HW2 4929   5.788   5.802   2.125
 1344SOL     OW 4930   0.722   6.065   4.557
 1344SOL    HW1 4931   0.784   6.083   4.481
 1344SOL    HW2 4932   0.774   6.035   4.637
 1345SOL     OW 4933   0.969   6.415   3.230
 1345SOL    HW1 4934   0.937   6.406   3.136
 1345SOL    HW2 4935   1.064   6.383   3.236
 1346SOL     OW 4936   0.944   5.746   4.572
 1346SOL    HW1 4937   0.868   5.771   4.633
 1346SOL    HW2 4938   0.997   5.673   4.615
 1347SOL     OW 4939   0.235   6.682   5.983
 1347SOL    HW1 4940   0.280   6.661   5.897
 1347SOL    HW2 4941   0.297   6.733   6.043
 1348SOL     OW 4942   5.846   6.456   3.962
 1348SOL    HW1 4943   5.759   6.431   3.920
 1348SOL    HW2 4944   5.913   6.384   3.946
 1349SOL     OW 4945   4.735   2.898   5.409
 1349SOL    HW1 4946   4.722   2.863   5.316
 1349SOL    HW2 4947   4.832   2.894   5.433
 1350SOL     OW 4948   5.506   5.238   6.030
 1350SOL    HW1 4949   5.495   5.228   5.931
 1350SOL    HW2 4950   5.416   5.246   6.073
 1351SOL     OW 4951   5.508   1.638   2.967
 1351SOL    HW1 4952   5.478   1.732   2.982
 1351SOL    HW2 4953   5.430   1.582   2.938
 1352SOL     OW 4954   6.736   6.247   3.279
 1352SOL    HW1 4955   6.820   6.204   3.312
 1352SOL    HW2 4956   6.751   6.283   3.187
 1353SOL     OW 4957   0.327   2.407   0.234
 1353SOL    HW1 4958   0.397   2.338   0.249
 1353SOL    HW2 4959   0.285   2.432   0.321
 1354SOL     OW 4960   1.098   4.509   1.530
 1354SOL    HW1 4961   1.077   4.603   1.556
 1354SOL    HW2 4962   1.190   4.486   1.562
 1355SOL     OW 4963   5.595   2.472   4.177
 1355SOL    HW1 4964   5.581   2.422   4.263
 1355SOL    HW2 4965   5.556   2.564   4.186
 1356SOL     OW 4966   3.492   3.517   2.469
 1356SOL    HW1 4967   3.538   3.428   2.469
 1356SOL    HW2 4968   3.559   3.590   2.480
 1357SOL     OW 4969   0.557   3.595   6.564
 1357SOL    HW1 4970   0.600   3.517   6.609
 1357SOL    HW2 4971   0.615   3.626   6.489
 1358SOL     OW 4972   4.287   6.539   6.227
 1358SOL    HW1 4973   4.308   6.485   6.308
 1358SOL    HW2 4974   4.189   6.558   6.223
 1359SOL     OW 4975   6.000   4.907   2.421
 1359SOL    HW1 4976   6.051   4.973   2.477
 1359SOL    HW2 4977   5.903   4.929   2.423
 1360SOL     OW 4978   3.117   3.226   0.094
 1360SOL    HW1 4979   3.101   3.222   0.192
 1360SOL    HW2 4980   3.030   3.242   0.047
 1361SOL     OW 4981   6.385   4.613   6.232
 1361SOL    HW1 4982   6.379   4.676   6.310
 1361SOL    HW2 4983   6.380   4.519   6.266
 1362SOL     OW 4984   3.190   4.079   4.185
 1362SOL    HW1 4985   3.168   4.170   4.151
 1362SOL    HW2 4986   3.270   4.083   4.245
 1363SOL     OW 4987   6.618   4.996   2.658
 1363SOL    HW1 4988   6.577   5.062   2.720
 1363SOL    HW2 4989   6.701   5.035   2.617
 1364SOL     OW 4990   6.399   4.294   0.970
 1364SOL    HW1 4991   6.422   4.230   1.044
 1364SOL    HW2 4992   6.336   4.364   1.005
 1365SOL     OW 4993   0.939   4.145   6.405
 1365SOL    HW1 4994   0.903   4.221   6.351
 1365SOL    HW2 4995   0.870   4.117   6.472
 1366SOL     OW 4996   1.467   4.919   0.077
 1366SOL    HW1 4997   1.404   4.995   0.090
 1366SOL    HW2 4998   1.498   4.916   7.012
 1367SOL     OW 4999   1.362   0.059   3.396
 1367SOL    HW1 5000   1.444   0.015   3.359
 1367SOL    HW2 5001   1.357   0.044   3.495
 1368SOL     OW 5002   5.991   0.393   3.355
 1368SOL    HW1 5003   6.048   0.473   3.338
 1368SOL    HW2 5004   6.041   0.327   3.410
 1369SOL     OW 5005   2.575   6.806   1.502
 1369SOL    HW1 5006   2.531   6.859   1.429
 1369SOL    HW2 5007   2.671   6.791   1.479
 1370SOL     OW 5008   3.986   0.545   1.103
 1370SOL    HW1 5009   3.951   0.597   1.181
 1370SOL    HW2 5010   3.958   0.590   1.018
 1371SOL     OW 5011   5.960   2.136   4.449
 1371SOL    HW1 5012   5.946   2.225   4.491
 1371SOL    HW2 5013   5.948   2.144   4.350
 1372SOL     OW 5014   1.547   3.164   0.166
 1372SOL    HW1 5015   1.475   3.095   0.171
 1372SOL    HW2 5016   1.619   3.143   0.232
 1373SOL     OW 5017   5.628   3.300   0.223
 1373SOL    HW1 5018   5.624   3.290   0.123
 1373SOL    HW2 5019   5.723   3.289   0.254
 1374SOL     OW 5020   4.576   2.418   0.033
 1374SOL    HW1 5021   4.634   2.407   6.982
 1374SOL    HW2 5022   4.562   2.329   0.076
 1375SOL     OW 5023   0.034   3.774   6.305
 1375SOL    HW1 5024   6.997   3.773   6.230
 1375SOL    HW2 5025   0.029   3.687   6.354
 1376SOL     OW 5026   4.852   4.426   4.631
 1376SOL    HW1 5027   4.797   4.505   4.657
 1376SOL    HW2 5028   4.905   4.447   4.549
 1377SOL     OW 5029   6.894   3.843   5.904
 1377SOL    HW1 5030   6.991   3.843   5.930
 1377SOL    HW2 5031   6.848   3.766   5.948
 1378SOL     OW 5032   6.179   1.372   4.640
 1378SOL    HW1 5033   6.243   1.440   4.605
 1378SOL    HW2 5034   6.192   1.285   4.592
 1379SOL     OW 5035   3.293   6.810   2.574
 1379SOL    HW1 5036   3.263   6.860   2.656
 1379SOL    HW2 5037   3.392   6.817   2.566
 1380SOL     OW 5038   0.282   0.107   2.522
 1380SOL    HW1 5039   0.347   0.182   2.536
 1380SOL    HW2 5040   0.189   0.143   2.524
 1381SOL     OW 5041   5.716   2.041   6.755
 1381SOL    HW1 5042   5.796   2.036   6.696
 1381SOL    HW2 5043   5.671   2.129   6.743
 1382SOL     OW 5044   4.824   4.587   0.303
 1382SOL    HW1 5045   4.884   4.507   0.310
 1382SOL    HW2 5046   4.880   4.670   0.309
 1383SOL     OW 5047   0.581   0.055   0.870
 1383SOL    HW1 5048   0.548   0.116   0.798
 1383SOL    HW2 5049   0.594   6.993   0.832
 1384SOL     OW 5050   3.983   0.538   2.228
 1384SOL    HW1 5051   3.914   0.556   2.298
 1384SOL    HW2 5052   4.040   0.620   2.216
 1385SOL     OW 5053   1.189   3.127   2.844
 1385SOL    HW1 5054   1.105   3.133   2.898
 1385SOL    HW2 5055   1.239   3.044   2.868
 1386SOL     OW 5056   2.262   1.001   4.830
 1386SOL    HW1 5057   2.278   1.054   4.747
 1386SOL    HW2 5058   2.342   1.006   4.889
 1387SOL     OW 5059   3.835   6.315   2.812
 1387SOL    HW1 5060   3.910   6.261   2.774
 1387SOL    HW2 5061   3.870   6.404   2.842
 1388SOL     OW 5062   0.228   6.275   3.543
 1388SOL    HW1 5063   0.169   6.355   3.550
 1388SOL    HW2 5064   0.216   6.232   3.453
 1389SOL     OW 5065   0.417   1.015   4.029
 1389SOL    HW1 5066   0.493   0.951   4.015
 1389SOL    HW2 5067   0.414   1.080   3.954
 1390SOL     OW 5068   4.810   2.319   6.065
 1390SOL    HW1 5069   4.808   2.319   5.965
 1390SOL    HW2 5070   4.717   2.328   6.100
 1391SOL     OW 5071   6.302   0.493   5.478
 1391SOL    HW1 5072   6.324   0.567   5.541
 1391SOL    HW2 5073   6.202   0.483   5.472
 1392SOL     OW 5074   5.530   5.549   6.163
 1392SOL    HW1 5075   5.473   5.562   6.082
 1392SOL    HW2 5076   5.601   5.481   6.143
 1393SOL     OW 5077   5.805   3.288   6.573
 1393SOL    HW1 5078   5.732   3.250   6.630
 1393SOL    HW2 5079   5.770   3.308   6.482
 1394SOL     OW 5080   3.741   6.478   3.570
 1394SOL    HW1 5081   3.835   6.511   3.561
 1394SOL    HW2 5082   3.741   6.383   3.599
 1395SOL     OW 5083   1.581   4.228   3.313
 1395SOL    HW1 5084   1.638   4.210   3.393
 1395SOL    HW2 5085   1.546   4.322   3.318
 1396SOL     OW 5086   1.492   6.831   3.717
 1396SOL    HW1 5087   1.433   6.780   3.780
 1396SOL    HW2 5088   1.443   6.911   3.683
 1397SOL     OW 5089   0.568   6.343   4.354
 1397SOL    HW1 5090   0.474   6.315   4.374
 1397SOL    HW2 5091   0.600   6.296   4.273
 1398SOL     OW 5092   1.215   1.749   6.717
 1398SOL    HW1 5093   1.185   1.751   6.622
 1398SOL    HW2 5094   1.224   1.843   6.751
 1399SOL     OW 5095   4.260   0.140   0.201
 1399SOL    HW1 5096   4.256   0.239   0.214
 1399SOL    HW2 5097   4.277   0.096   0.289
 1400SOL     OW 5098   6.467   1.365   4.122
 1400SOL    HW1 5099   6.494   1.271   4.142
 1400SOL    HW2 5100   6.422   1.404   4.202
 1401SOL     OW 5101   6.250   6.711   4.674
 1401SOL    HW1 5102   6.308   6.785   4.640
 1401SOL    HW2 5103   6.302   6.626   4.675
 1402SOL     OW 5104   5.479   4.075   6.989
 1402SOL    HW1 5105   5.557   4.107   6.936
 1402SOL    HW2 5106   5.395   4.115   6.952
 1403SOL     OW 5107   2.117   2.228   0.873
 1403SOL    HW1 5108   2.116   2.164   0.796
 1403SOL    HW2 5109   2.176   2.193   0.945
 1404SOL     OW 5110   5.475   0.101   0.451
 1404SOL    HW1 5111   5.409   0.157   0.401
 1404SOL    HW2 5112   5.442   0.087   0.545
 1405SOL     OW 5113   2.725   3.485   0.141
 1405SOL    HW1 5114   2.797   3.535   0.189
 1405SOL    HW2 5115   2.641   3.487   0.196
 1406SOL     OW 5116   2.412   5.493   0.685
 1406SOL    HW1 5117   2.389   5.540   0.770
 1406SOL    HW2 5118   2.460   5.408   0.706
 1407SOL     OW 5119   1.822   3.750   3.369
 1407SOL    HW1 5120   1.906   3.736   3.316
 1407SOL    HW2 5121   1.806   3.671   3.428
 1408SOL     OW 5122   5.466   6.491   0.012
 1408SOL    HW1 5123   5.368   6.489   0.031
 1408SOL    HW2 5124   5.503   6.581   0.038
 1409SOL     OW 5125   0.197   0.992   4.927
 1409SOL    HW1 5126   0.170   1.088   4.937
 1409SOL    HW2 5127   0.266   0.985   4.855
 1410SOL     OW 5128   3.424   3.977   0.028
 1410SOL    HW1 5129   3.520   3.969   0.054
 1410SOL    HW2 5130   3.415   3.960   6.959
 1411SOL     OW 5131   3.719   6.365   5.966
 1411SOL    HW1 5132   3.691   6.454   6.003
 1411SOL    HW2 5133   3.759   6.310   6.040
 1412SOL     OW 5134   0.645   4.644   1.881
 1412SOL    HW1 5135   0.566   4.701   1.859
 1412SOL    HW2 5136   0.675   4.595   1.799
 1413SOL     OW 5137   1.713   1.738   4.310
 1413SOL    HW1 5138   1.651   1.780   4.376
 1413SOL    HW2 5139   1.717   1.639   4.327
 1414SOL     OW 5140   1.418   2.493   1.709
 1414SOL    HW1 5141   1.442   2.435   1.631
 1414SOL    HW2 5142   1.378   2.436   1.781
 1415SOL     OW 5143   3.099   1.829   4.290
 1415SOL    HW1 5144   3.034   1.867   4.224
 1415SOL    HW2 5145   3.155   1.902   4.328
 1416SOL     OW 5146   4.024   0.284   4.330
 1416SOL    HW1 5147   4.073   0.372   4.334
 1416SOL    HW2 5148   4.078   0.214   4.377
 1417SOL     OW 5149   3.261   3.066   6.270
 1417SOL    HW1 5150   3.323   3.107   6.203
 1417SOL    HW2 5151   3.169   3.101   6.256
 1418SOL     OW 5152   3.354   3.484   0.132
 1418SOL    HW1 5153   3.418   3.548   0.088
 1418SOL    HW2 5154   3.270   3.532   0.156
 1419SOL     OW 5155   1.944   5.736   4.510
 1419SOL    HW1 5156   1.895   5.650   4.494
 1419SOL    HW2 5157   1.938   5.793   4.427
 1420SOL     OW 5158   3.601   5.404   2.563
 1420SOL    HW1 5159   3.535   5.332   2.584
 1420SOL    HW2 5160   3.635   5.391   2.470
 1421SOL     OW 5161   1.642   4.531   4.299
 1421SOL    HW1 5162   1.607   4.595   4.231
 1421SOL    HW2 5163   1.731   4.563   4.332
 1422SOL     OW 5164   3.061   4.533   5.464
 1422SOL    HW1 5165   3.104   4.612   5.421
 1422SOL    HW2 5166   3.063   4.455   5.400
 1423SOL     OW 5167   3.788   1.777   5.200
 1423SOL    HW1 5168   3.827   1.825   5.121
 1423SOL    HW2 5169   3.706   1.824   5.230
 1424SOL     OW 5170   6.241   3.276   0.320
 1424SOL    HW1 5171   6.230   3.222   0.236
 1424SOL    HW2 5172   6.229   3.373   0.300
 1425SOL     OW 5173   2.505   5.861   4.945
 1425SOL    HW1 5174   2.454   5.812   5.017
 1425SOL    HW2 5175   2.579   5.913   4.987
 1426SOL     OW 5176   1.950   1.886   5.931
 1426SOL    HW1 5177   1.897   1.955   5.882
 1426SOL    HW2 5178   1.971   1.920   6.023
 1427SOL     OW 5179   0.097   0.615   3.764
 1427SOL    HW1 5180   0.141   0.693   3.809
 1427SOL    HW2 5181   0.094   0.537   3.827
 1428SOL     OW 5182   7.016   2.275   1.883
 1428SOL    HW1 5183   0.052   2.213   1.926
 1428SOL    HW2 5184   0.020   2.303   1.793
 1429SOL     OW 5185   5.761   1.838   6.949
 1429SOL    HW1 5186   5.737   1.914   6.889
 1429SOL    HW2 5187   5.690   1.825   7.018
 1430SOL     OW 5188   1.996   3.926   4.340
 1430SOL    HW1 5189   2.039   3.906   4.251
 1430SOL    HW2 5190   1.905   3.964   4.325
 1431SOL     OW 5191   2.321   2.255   6.677
 1431SOL    HW1 5192   2.323   2.354   6.662
 1431SOL    HW2 5193   2.248   2.214   6.623
 1432SOL     OW 5194   2.215   0.756   1.491
 1432SOL    HW1 5195   2.148   0.825   1.519
 1432SOL    HW2 5196   2.288   0.752   1.559
 1433SOL     OW 5197   3.606   6.218   3.974
 1433SOL    HW1 5198   3.520   6.255   4.011
 1433SOL    HW2 5199   3.682   6.275   4.004
 1434SOL     OW 5200   6.772   1.607   6.556
 1434SOL    HW1 5201   6.835   1.534   6.528
 1434SOL    HW2 5202   6.716   1.575   6.633
 1435SOL     OW 5203   6.903   0.808   4.200
 1435SOL    HW1 5204   6.983   0.868   4.211
 1435SOL    HW2 5205   6.870   0.814   4.106
 1436SOL     OW 5206   5.932   3.530   0.810
 1436SOL    HW1 5207   5.852   3.549   0.753
 1436SOL    HW2 5208   5.903   3.516   0.904
 1437SOL     OW 5209   3.325   0.411   5.510
 1437SOL    HW1 5210   3.307   0.483   5.577
 1437SOL    HW2 5211   3.376   0.449   5.434
 1438SOL     OW 5212   3.273   0.723   1.752
 1438SOL    HW1 5213   3.342   0.692   1.818
 1438SOL    HW2 5214   3.251   0.819   1.771
 1439SOL     OW 5215   0.573   5.164   0.978
 1439SOL    HW1 5216   0.668   5.193   0.986
 1439SOL    HW2 5217   0.552   5.096   1.048
 1440SOL     OW 5218   3.799   3.342   5.125
 1440SOL    HW1 5219   3.866   3.415   5.108
 1440SOL    HW2 5220   3.757   3.355   5.215
 1441SOL     OW 5221   6.125   3.481   3.941
 1441SOL    HW1 5222   6.149   3.505   4.035
 1441SOL    HW2 5223   6.025   3.477   3.932
 1442SOL     OW 5224   6.508   4.752   0.093
 1442SOL    HW1 5225   6.425   4.700   0.071
 1442SOL    HW2 5226   6.572   4.694   0.142
 1443SOL     OW 5227   1.359   2.164   4.256
 1443SOL    HW1 5228   1.291   2.097   4.285
 1443SOL    HW2 5229   1.312   2.245   4.219
 1444SOL     OW 5230   4.303   6.221   1.872
 1444SOL    HW1 5231   4.323   6.317   1.855
 1444SOL    HW2 5232   4.218   6.213   1.924
 1445SOL     OW 5233   0.746   2.890   2.638
 1445SOL    HW1 5234   0.717   2.804   2.597
 1445SOL    HW2 5235   0.841   2.908   2.616
 1446SOL     OW 5236   5.752   2.801   6.541
 1446SOL    HW1 5237   5.657   2.827   6.556
 1446SOL    HW2 5238   5.769   2.789   6.443
 1447SOL     OW 5239   6.613   6.865   4.682
 1447SOL    HW1 5240   6.685   6.933   4.669
 1447SOL    HW2 5241   6.652   6.783   4.726
 1448SOL     OW 5242   5.881   1.961   0.241
 1448SOL    HW1 5243   5.942   1.934   0.167
 1448SOL    HW2 5244   5.910   1.915   0.325
 1449SOL     OW 5245   6.028   6.915   6.685
 1449SOL    HW1 5246   5.940   6.958   6.703
 1449SOL    HW2 5247   6.063   6.876   6.770
 1450SOL     OW 5248   0.241   2.792   2.527
 1450SOL    HW1 5249   0.159   2.798   2.585
 1450SOL    HW2 5250   0.312   2.853   2.564
 1451SOL     OW 5251   3.298   0.669   2.331
 1451SOL    HW1 5252   3.276   0.696   2.425
 1451SOL    HW2 5253   3.249   0.585   2.308
 1452SOL     OW 5254   4.968   1.948   4.354
 1452SOL    HW1 5255   4.927   1.857   4.351
 1452SOL    HW2 5256   5.024   1.956   4.437
 1453SOL     OW 5257   6.270   3.859   5.143
 1453SOL    HW1 5258   6.273   3.906   5.055
 1453SOL    HW2 5259   6.358   3.869   5.189
 1454SOL     OW 5260   6.064   2.732   2.229
 1454SOL    HW1 5261   6.111   2.651   2.263
 1454SOL    HW2 5262   6.114   2.770   2.151
 1455SOL     OW 5263   1.756   0.444   1.912
 1455SOL    HW1 5264   1.751   0.349   1.942
 1455SOL    HW2 5265   1.696   0.457   1.833
 1456SOL     OW 5266   6.471   6.946   5.344
 1456SOL    HW1 5267   6.551   6.890   5.325
 1456SOL    HW2 5268   6.437   6.926   5.436
 1457SOL     OW 5269   1.524   0.407   1.760
 1457SOL    HW1 5270   1.445   0.367   1.712
 1457SOL    HW2 5271   1.508   0.505   1.775
 1458SOL     OW 5272   4.815   6.380   3.859
 1458SOL    HW1 5273   4.742   6.403   3.795
 1458SOL    HW2 5274   4.780   6.383   3.953
 1459SOL     OW 5275   3.138   4.480   6.405
 1459SOL    HW1 5276   3.191   4.557   6.442
 1459SOL    HW2 5277   3.053   4.470   6.456
 1460SOL     OW 5278   0.627   5.141   6.075
 1460SOL    HW1 5279   0.543   5.087   6.069
 1460SOL    HW2 5280   0.627   5.195   6.159
 1461SOL     OW 5281   0.467   4.972   3.158
 1461SOL    HW1 5282   0.515   5.054   3.189
 1461SOL    HW2 5283   0.382   4.962   3.210
 1462SOL     OW 5284   6.493   1.305   6.122
 1462SOL    HW1 5285   6.545   1.379   6.165
 1462SOL    HW2 5286   6.409   1.290   6.173
 1463SOL     OW 5287   0.162   5.862   6.521
 1463SOL    HW1 5288   0.189   5.956   6.499
 1463SOL    HW2 5289   0.068   5.847   6.491
 1464SOL     OW 5290   6.561   6.575   0.853
 1464SOL    HW1 5291   6.482   6.519   0.877
 1464SOL    HW2 5292   6.564   6.655   0.913
 1465SOL     OW 5293   1.399   1.699   2.461
 1465SOL    HW1 5294   1.419   1.727   2.555
 1465SOL    HW2 5295   1.303   1.674   2.453
 1466SOL     OW 5296   1.199   0.501   2.940
 1466SOL    HW1 5297   1.285   0.492   2.890
 1466SOL    HW2 5298   1.124   0.512   2.876
 1467SOL     OW 5299   2.494   0.879   1.889
 1467SOL    HW1 5300   2.504   0.977   1.901
 1467SOL    HW2 5301   2.505   0.833   1.977
 1468SOL     OW 5302   5.330   5.993   2.955
 1468SOL    HW1 5303   5.358   6.007   2.860
 1468SOL    HW2 5304   5.407   6.012   3.016
 1469SOL     OW 5305   0.883   0.632   2.688
 1469SOL    HW1 5306   0.982   0.632   2.671
 1469SOL    HW2 5307   0.836   0.593   2.609
 1470SOL     OW 5308   1.755   0.970   2.663
 1470SOL    HW1 5309   1.824   0.961   2.735
 1470SOL    HW2 5310   1.685   1.036   2.693
 1471SOL     OW 5311   0.642   0.821   0.599
 1471SOL    HW1 5312   0.627   0.919   0.615
 1471SOL    HW2 5313   0.556   0.772   0.616
 1472SOL     OW 5314   4.276   5.537   4.770
 1472SOL    HW1 5315   4.332   5.513   4.690
 1472SOL    HW2 5316   4.297   5.630   4.799
 1473SOL     OW 5317   5.759   6.121   4.090
 1473SOL    HW1 5318   5.672   6.071   4.100
 1473SOL    HW2 5319   5.822   6.091   4.161
 1474SOL     OW 5320   6.426   6.266   4.117
 1474SOL    HW1 5321   6.432   6.268   4.018
 1474SOL    HW2 5322   6.330   6.263   4.145
 1475SOL     OW 5323   6.761   0.306   1.130
 1475SOL    HW1 5324   6.711   0.336   1.049
 1475SOL    HW2 5325   6.838   0.367   1.146
 1476SOL     OW 5326   1.033   1.224   1.094
 1476SOL    HW1 5327   0.935   1.233   1.073
 1476SOL    HW2 5328   1.074   1.314   1.100
 1477SOL     OW 5329   2.594   0.232   6.599
 1477SOL    HW1 5330   2.497   0.252   6.616
 1477SOL    HW2 5331   2.604   0.135   6.575
 1478SOL     OW 5332   5.557   4.418   0.319
 1478SOL    HW1 5333   5.489   4.424   0.246
 1478SOL    HW2 5334   5.604   4.330   0.314
 1479SOL     OW 5335   1.544   3.503   6.879
 1479SOL    HW1 5336   1.587   3.588   6.909
 1479SOL    HW2 5337   1.472   3.524   6.813
 1480SOL     OW 5338   2.569   0.162   0.092
 1480SOL    HW1 5339   2.526   0.226   0.156
 1480SOL    HW2 5340   2.574   0.204   0.002
 1481SOL     OW 5341   6.818   1.807   4.870
 1481SOL    HW1 5342   6.750   1.789   4.941
 1481SOL    HW2 5343   6.772   1.829   4.784
 1482SOL     OW 5344   5.633   1.980   1.238
 1482SOL    HW1 5345   5.533   1.971   1.233
 1482SOL    HW2 5346   5.661   2.063   1.190
 1483SOL     OW 5347   6.737   2.736   6.226
 1483SOL    HW1 5348   6.806   2.670   6.197
 1483SOL    HW2 5349   6.671   2.751   6.152
 1484SOL     OW 5350   6.113   4.417   4.040
 1484SOL    HW1 5351   6.083   4.503   3.999
 1484SOL    HW2 5352   6.135   4.432   4.137
 1485SOL     OW 5353   4.540   1.913   2.940
 1485SOL    HW1 5354   4.461   1.919   2.879
 1485SOL    HW2 5355   4.593   1.998   2.935
 1486SOL     OW 5356   4.689   2.748   2.576
 1486SOL    HW1 5357   4.606   2.710   2.535
 1486SOL    HW2 5358   4.755   2.674   2.593
 1487SOL     OW 5359   6.331   3.075   6.748
 1487SOL    HW1 5360   6.303   3.131   6.670
 1487SOL    HW2 5361   6.414   3.113   6.789
 1488SOL     OW 5362   6.038   1.868   3.041
 1488SOL    HW1 5363   5.948   1.907   3.060
 1488SOL    HW2 5364   6.107   1.940   3.043
 1489SOL     OW 5365   4.246   5.180   4.278
 1489SOL    HW1 5366   4.230   5.190   4.376
 1489SOL    HW2 5367   4.200   5.254   4.229
 1490SOL     OW 5368   1.671   2.836   1.500
 1490SOL    HW1 5369   1.769   2.843   1.485
 1490SOL    HW2 5370   1.647   2.880   1.587
 1491SOL     OW 5371   6.318   3.536   3.739
 1491SOL    HW1 5372   6.243   3.513   3.801
 1491SOL    HW2 5373   6.327   3.464   3.670
 1492SOL     OW 5374   6.123   1.886   1.875
 1492SOL    HW1 5375   6.112   1.787   1.868
 1492SOL    HW2 5376   6.133   1.911   1.972
 1493SOL     OW 5377   5.203   0.201   4.411
 1493SOL    HW1 5378   5.255   0.212   4.327
 1493SOL    HW2 5379   5.150   0.284   4.429
 1494SOL     OW 5380   4.513   2.379   6.134
 1494SOL    HW1 5381   4.413   2.380   6.139
 1494SOL    HW2 5382   4.542   2.388   6.038
 1495SOL     OW 5383   0.673   2.795   4.062
 1495SOL    HW1 5384   0.606   2.831   3.997
 1495SOL    HW2 5385   0.629   2.728   4.122
 1496SOL     OW 5386   1.545   1.164   2.753
 1496SOL    HW1 5387   1.453   1.186   2.721
 1496SOL    HW2 5388   1.607   1.239   2.731
 1497SOL     OW 5389   0.397   3.560   2.677
 1497SOL    HW1 5390   0.410   3.465   2.705
 1497SOL    HW2 5391   0.352   3.610   2.751
 1498SOL     OW 5392   1.718   4.580   6.211
 1498SOL    HW1 5393   1.713   4.658   6.274
 1498SOL    HW2 5394   1.639   4.581   6.151
 1499SOL     OW 5395   1.019   3.250   5.592
 1499SOL    HW1 5396   1.052   3.330   5.542
 1499SOL    HW2 5397   0.955   3.199   5.534
 1500SOL     OW 5398   5.649   6.531   6.839
 1500SOL    HW1 5399   5.565   6.545   6.892
 1500SOL    HW2 5400   5.643   6.581   6.753
 1501SOL     OW 5401   4.255   1.703   6.773
 1501SOL    HW1 5402   4.156   1.689   6.770
 1501SOL    HW2 5403   4.277   1.775   6.837
 1502SOL     OW 5404   5.808   6.954   1.378
 1502SOL    HW1 5405   5.799   6.986   1.284
 1502SOL    HW2 5406   5.752   7.010   1.439
 1503SOL     OW 5407   2.689   1.459   1.852
 1503SOL    HW1 5408   2.706   1.551   1.817
 1503SOL    HW2 5409   2.619   1.462   1.923
 1504SOL     OW 5410   1.641   0.826   4.818
 1504SOL    HW1 5411   1.658   0.896   4.887
 1504SOL    HW2 5412   1.549   0.838   4.781
 1505SOL     OW 5413   5.532   1.131   6.466
 1505SOL    HW1 5414   5.524   1.230   6.479
 1505SOL    HW2 5415   5.492   1.084   6.544
 1506SOL     OW 5416   2.236   5.727   1.963
 1506SOL    HW1 5417   2.256   5.782   2.044
 1506SOL    HW2 5418   2.221   5.788   1.885
 1507SOL     OW 5419   1.352   1.829   5.572
 1507SOL    HW1 5420   1.273   1.769   5.588
 1507SOL    HW2 5421   1.326   1.903   5.512
 1508SOL     OW 5422   6.085   0.962   0.991
 1508SOL    HW1 5423   6.111   0.954   0.894
 1508SOL    HW2 5424   5.992   0.997   0.998
 1509SOL     OW 5425   3.853   2.499   6.284
 1509SOL    HW1 5426   3.810   2.434   6.348
 1509SOL    HW2 5427   3.784   2.533   6.221
 1510SOL     OW 5428   5.731   2.204   3.742
 1510SOL    HW1 5429   5.813   2.260   3.754
 1510SOL    HW2 5430   5.670   2.217   3.821
 1511SOL     OW 5431   2.658   2.777   0.891
 1511SOL    HW1 5432   2.590   2.844   0.863
 1511SOL    HW2 5433   2.650   2.695   0.834
 1512SOL     OW 5434   0.006   6.514   1.531
 1512SOL    HW1 5435   7.029   6.605   1.572
 1512SOL    HW2 5436   0.092   6.508   1.479
 1513SOL     OW 5437   4.592   0.256   4.068
 1513SOL    HW1 5438   4.596   0.161   4.098
 1513SOL    HW2 5439   4.505   0.297   4.096
 1514SOL     OW 5440   5.570   2.607   4.794
 1514SOL    HW1 5441   5.515   2.594   4.711
 1514SOL    HW2 5442   5.665   2.586   4.774
 1515SOL     OW 5443   6.473   3.455   5.736
 1515SOL    HW1 5444   6.383   3.416   5.716
 1515SOL    HW2 5445   6.542   3.407   5.683
 1516SOL     OW 5446   0.930   0.245   1.231
 1516SOL    HW1 5447   0.957   0.211   1.140
 1516SOL    HW2 5448   0.852   0.306   1.222
 1517SOL     OW 5449   4.626   5.871   3.376
 1517SOL    HW1 5450   4.661   5.946   3.319
 1517SOL    HW2 5451   4.533   5.892   3.406
 1518SOL     OW 5452   0.631   3.189   0.210
 1518SOL    HW1 5453   0.591   3.276   0.240
 1518SOL    HW2 5454   0.558   3.121   0.200
 1519SOL     OW 5455   6.931   4.518   1.870
 1519SOL    HW1 5456   6.919   4.612   1.840
 1519SOL    HW2 5457   7.028   4.497   1.881
 1520SOL     OW 5458   1.417   3.206   2.385
 1520SOL    HW1 5459   1.458   3.146   2.454
 1520SOL    HW2 5460   1.484   3.274   2.357
 1521SOL     OW 5461   2.552   3.573   6.961
 1521SOL    HW1 5462   2.514   3.661   6.989
 1521SOL    HW2 5463   2.622   3.544   7.027
 1522SOL     OW 5464   6.807   1.625   5.309
 1522SOL    HW1 5465   6.807   1.568   5.227
 1522SOL    HW2 5466   6.821   1.720   5.283
 1523SOL     OW 5467   4.919   4.065   6.961
 1523SOL    HW1 5468   4.994   3.999   6.955
 1523SOL    HW2 5469   4.956   4.155   6.986
 1524SOL     OW 5470   1.023   1.882   1.685
 1524SOL    HW1 5471   1.053   1.892   1.779
 1524SOL    HW2 5472   0.930   1.846   1.683
 1525SOL     OW 5473   5.670   2.345   6.472
 1525SOL    HW1 5474   5.670   2.259   6.421
 1525SOL    HW2 5475   5.639   2.328   6.565
 1526SOL     OW 5476   1.730   1.413   0.187
 1526SOL    HW1 5477   1.778   1.481   0.242
 1526SOL    HW2 5478   1.795   1.370   0.124
 1527SOL     OW 5479   3.920   0.733   5.503
 1527SOL    HW1 5480   3.872   0.674   5.438
 1527SOL    HW2 5481   3.870   0.736   5.590
 1528SOL     OW 5482   5.281   6.531   2.888
 1528SOL    HW1 5483   5.232   6.617   2.869
 1528SOL    HW2 5484   5.312   6.531   2.983
 1529SOL     OW 5485   3.672   1.308   0.575
 1529SOL    HW1 5486   3.696   1.319   0.672
 1529SOL    HW2 5487   3.590   1.252   0.567
 1530SOL     OW 5488   3.017   0.641   1.776
 1530SOL    HW1 5489   3.116   0.657   1.774
 1530SOL    HW2 5490   2.999   0.546   1.803
 1531SOL     OW 5491   5.714   1.403   4.861
 1531SOL    HW1 5492   5.730   1.305   4.849
 1531SOL    HW2 5493   5.641   1.417   4.928
 1532SOL     OW 5494   2.376   2.900   5.721
 1532SOL    HW1 5495   2.386   2.843   5.803
 1532SOL    HW2 5496   2.357   2.842   5.642
 1533SOL     OW 5497   0.247   3.353   6.438
 1533SOL    HW1 5498   0.302   3.302   6.504
 1533SOL    HW2 5499   0.269   3.450   6.444
 1534SOL     OW 5500   1.559   5.017   6.830
 1534SOL    HW1 5501   1.540   4.920   6.811
 1534SOL    HW2 5502   1.655   5.028   6.856
 1535SOL     OW 5503   5.390   6.218   4.070
 1535SOL    HW1 5504   5.339   6.276   4.135
 1535SOL    HW2 5505   5.341   6.215   3.983
 1536SOL     OW 5506   4.208   4.896   5.484
 1536SOL    HW1 5507   4.303   4.920   5.465
 1536SOL    HW2 5508   4.204   4.823   5.552
 1537SOL     OW 5509   4.104   5.640   2.655
 1537SOL    HW1 5510   4.174   5.668   2.590
 1537SOL    HW2 5511   4.119   5.544   2.680
 1538SOL     OW 5512   2.925   5.454   5.538
 1538SOL    HW1 5513   2.961   5.475   5.446
 1538SOL    HW2 5514   2.883   5.536   5.576
 1539SOL     OW 5515   4.164   4.147   1.208
 1539SOL    HW1 5516   4.106   4.072   1.240
 1539SOL    HW2 5517   4.123   4.190   1.128
 1540SOL     OW 5518   0.899   0.146   5.486
 1540SOL    HW1 5519   0.906   0.103   5.395
 1540SOL    HW2 5520   0.893   0.075   5.556
 1541SOL     OW 5521   3.524   2.975   1.676
 1541SOL    HW1 5522   3.497   3.048   1.738
 1541SOL    HW2 5523   3.452   2.961   1.607
 1542SOL     OW 5524   6.956   5.555   1.156
 1542SOL    HW1 5525   6.859   5.532   1.153
 1542SOL    HW2 5526   6.966   5.653   1.177
 1543SOL     OW 5527   2.980   3.284   4.134
 1543SOL    HW1 5528   2.980   3.202   4.076
 1543SOL    HW2 5529   2.951   3.260   4.226
 1544SOL     OW 5530   3.014   3.747   2.544
 1544SOL    HW1 5531   2.998   3.695   2.627
 1544SOL    HW2 5532   3.102   3.721   2.504
 1545SOL     OW 5533   5.377   0.934   4.739
 1545SOL    HW1 5534   5.424   0.947   4.652
 1545SOL    HW2 5535   5.281   0.912   4.722
 1546SOL     OW 5536   5.324   6.850   6.202
 1546SOL    HW1 5537   5.240   6.834   6.150
 1546SOL    HW2 5538   5.321   6.940   6.245
 1547SOL     OW 5539   2.437   4.361   3.110
 1547SOL    HW1 5540   2.440   4.429   3.037
 1547SOL    HW2 5541   2.491   4.393   3.187
 1548SOL     OW 5542   4.725   3.760   5.709
 1548SOL    HW1 5543   4.630   3.754   5.680
 1548SOL    HW2 5544   4.741   3.699   5.787
 1549SOL     OW 5545   5.496   1.242   2.087
 1549SOL    HW1 5546   5.411   1.269   2.131
 1549SOL    HW2 5547   5.564   1.219   2.157
 1550SOL     OW 5548   3.401   6.456   5.625
 1550SOL    HW1 5549   3.492   6.474   5.663
 1550SOL    HW2 5550   3.334   6.510   5.675
 1551SOL     OW 5551   1.964   3.228   0.879
 1551SOL    HW1 5552   1.960   3.294   0.804
 1551SOL    HW2 5553   1.968   3.277   0.966
 1552SOL     OW 5554   0.334   0.222   1.295
 1552SOL    HW1 5555   0.396   0.233   1.218
 1552SOL    HW2 5556   0.379   0.256   1.378
 1553SOL     OW 5557   6.672   2.055   6.216
 1553SOL    HW1 5558   6.733   1.983   6.184
 1553SOL    HW2 5559   6.581   2.042   6.176
 1554SOL     OW 5560   3.932   1.864   2.392
 1554SOL    HW1 5561   3.917   1.917   2.475
 1554SOL    HW2 5562   3.877   1.780   2.396
 1555SOL     OW 5563   4.426   2.703   5.824
 1555SOL    HW1 5564   4.525   2.704   5.840
 1555SOL    HW2 5565   4.386   2.623   5.869
 1556SOL     OW 5566   3.587   0.900   0.016
 1556SOL    HW1 5567   3.639   0.964   6.989
 1556SOL    HW2 5568   3.542   0.833   6.987
 1557SOL     OW 5569   2.853   1.626   0.471
 1557SOL    HW1 5570   2.949   1.597   0.470
 1557SOL    HW2 5571   2.830   1.659   0.563
 1558SOL     OW 5572   5.709   1.997   4.411
 1558SOL    HW1 5573   5.734   1.900   4.415
 1558SOL    HW2 5574   5.790   2.053   4.430
 1559SOL     OW 5575   0.480   2.718   0.950
 1559SOL    HW1 5576   0.564   2.771   0.937
 1559SOL    HW2 5577   0.500   2.621   0.940
 1560SOL     OW 5578   2.811   1.052   6.630
 1560SOL    HW1 5579   2.819   1.062   6.729
 1560SOL    HW2 5580   2.771   0.964   6.608
 1561SOL     OW 5581   5.285   5.619   3.461
 1561SOL    HW1 5582   5.365   5.560   3.451
 1561SOL    HW2 5583   5.209   5.565   3.499
 1562SOL     OW 5584   4.068   6.612   1.563
 1562SOL    HW1 5585   4.032   6.624   1.471
 1562SOL    HW2 5586   4.011   6.663   1.628
 1563SOL     OW 5587   2.319   1.981   5.656
 1563SOL    HW1 5588   2.414   1.952   5.671
 1563SOL    HW2 5589   2.308   2.075   5.687
 1564SOL     OW 5590   1.807   2.462   2.501
 1564SOL    HW1 5591   1.761   2.426   2.582
 1564SOL    HW2 5592   1.739   2.478   2.429
 1565SOL     OW 5593   3.991   4.956   4.411
 1565SOL    HW1 5594   4.027   4.935   4.320
 1565SOL    HW2 5595   4.038   5.036   4.447
 1566SOL     OW 5596   6.241   5.406   4.942
 1566SOL    HW1 5597   6.192   5.457   5.012
 1566SOL    HW2 5598   6.180   5.338   4.902
 1567SOL     OW 5599   6.335   5.523   0.436
 1567SOL    HW1 5600   6.310   5.521   0.532
 1567SOL    HW2 5601   6.323   5.616   0.400
 1568SOL     OW 5602   2.363   6.521   2.687
 1568SOL    HW1 5603   2.317   6.511   2.775
 1568SOL    HW2 5604   2.338   6.609   2.646
 1569SOL     OW 5605   3.453   6.748   3.246
 1569SOL    HW1 5606   3.473   6.666   3.299
 1569SOL    HW2 5607   3.395   6.724   3.168
 1570SOL     OW 5608   1.443   6.821   7.002
 1570SOL    HW1 5609   1.378   6.747   7.020
 1570SOL    HW2 5610   1.484   6.808   6.912
 1571SOL     OW 5611   6.865   2.294   3.269
 1571SOL    HW1 5612   6.964   2.287   3.258
 1571SOL    HW2 5613   6.830   2.365   3.208
 1572SOL     OW 5614   2.173   5.452   1.985
 1572SOL    HW1 5615   2.164   5.551   1.992
 1572SOL    HW2 5616   2.220   5.416   2.066
 1573SOL     OW 5617   5.857   5.296   2.307
 1573SOL    HW1 5618   5.942   5.257   2.271
 1573SOL    HW2 5619   5.780   5.265   2.251
 1574SOL     OW 5620   6.533   2.430   3.047
 1574SOL    HW1 5621   6.512   2.393   3.138
 1574SOL    HW2 5622   6.519   2.529   3.048
 1575SOL     OW 5623   3.109   1.017   1.913
 1575SOL    HW1 5624   3.192   1.069   1.892
 1575SOL    HW2 5625   3.080   1.036   2.006
 1576SOL     OW 5626   0.635   6.878   3.526
 1576SOL    HW1 5627   0.616   6.928   3.442
 1576SOL    HW2 5628   0.562   6.812   3.543
 1577SOL     OW 5629   1.941   0.677   5.526
 1577SOL    HW1 5630   2.014   0.677   5.595
 1577SOL    HW2 5631   1.856   0.712   5.567
 1578SOL     OW 5632   5.003   1.360   5.949
 1578SOL    HW1 5633   5.044   1.397   6.032
 1578SOL    HW2 5634   4.904   1.360   5.958
 1579SOL     OW 5635   0.248   1.845   1.997
 1579SOL    HW1 5636   0.165   1.882   2.039
 1579SOL    HW2 5637   0.267   1.755   2.036
 1580SOL     OW 5638   3.273   4.103   3.756
 1580SOL    HW1 5639   3.321   4.114   3.670
 1580SOL    HW2 5640   3.198   4.038   3.744
 1581SOL     OW 5641   6.872   4.334   5.599
 1581SOL    HW1 5642   6.943   4.403   5.587
 1581SOL    HW2 5643   6.854   4.321   5.697
 1582SOL     OW 5644   3.115   6.247   4.629
 1582SOL    HW1 5645   3.095   6.312   4.703
 1582SOL    HW2 5646   3.148   6.297   4.549
 1583SOL     OW 5647   0.679   5.841   3.678
 1583SOL    HW1 5648   0.770   5.866   3.713
 1583SOL    HW2 5649   0.626   5.924   3.664
 1584SOL     OW 5650   0.689   5.133   5.770
 1584SOL    HW1 5651   0.665   5.225   5.800
 1584SOL    HW2 5652   0.624   5.067   5.808
 1585SOL     OW 5653   4.342   2.362   2.475
 1585SOL    HW1 5654   4.295   2.336   2.391
 1585SOL    HW2 5655   4.275   2.393   2.543
 1586SOL     OW 5656   3.100   5.096   2.562
 1586SOL    HW1 5657   3.092   5.125   2.466
 1586SOL    HW2 5658   3.064   5.167   2.622
 1587SOL     OW 5659   2.397   5.552   5.059
 1587SOL    HW1 5660   2.496   5.552   5.067
 1587SOL    HW2 5661   2.361   5.461   5.081
 1588SOL     OW 5662   4.900   0.835   1.937
 1588SOL    HW1 5663   4.912   0.738   1.953
 1588SOL    HW2 5664   4.854   0.877   2.016
 1589SOL     OW 5665   0.254   3.385   2.466
 1589SOL    HW1 5666   0.201   3.323   2.409
 1589SOL    HW2 5667   0.333   3.337   2.504
 1590SOL     OW 5668   5.475   0.956   3.551
 1590SOL    HW1 5669   5.395   0.935   3.495
 1590SOL    HW2 5670   5.557   0.956   3.494
 1591SOL     OW 5671   6.833   6.130   1.125
 1591SOL    HW1 5672   6.773   6.138   1.205
 1591SOL    HW2 5673   6.903   6.201   1.129
 1592SOL     OW 5674   2.280   3.601   6.755
 1592SOL    HW1 5675   2.366   3.564   6.791
 1592SOL    HW2 5676   2.277   3.587   6.656
 1593SOL     OW 5677   0.435   6.818   5.456
 1593SOL    HW1 5678   0.410   6.831   5.552
 1593SOL    HW2 5679   0.535   6.814   5.448
 1594SOL     OW 5680   0.392   6.118   2.039
 1594SOL    HW1 5681   0.413   6.216   2.036
 1594SOL    HW2 5682   0.460   6.071   2.095
 1595SOL     OW 5683   0.933   4.971   1.094
 1595SOL    HW1 5684   1.033   4.974   1.082
 1595SOL    HW2 5685   0.893   4.908   1.027
 1596SOL     OW 5686   6.417   3.471   3.119
 1596SOL    HW1 5687   6.438   3.569   3.129
 1596SOL    HW2 5688   6.446   3.422   3.201
 1597SOL     OW 5689   1.580   5.997   1.026
 1597SOL    HW1 5690   1.481   5.988   1.031
 1597SOL    HW2 5691   1.607   6.030   0.936
 1598SOL     OW 5692   1.400   4.754   6.458
 1598SOL    HW1 5693   1.392   4.823   6.386
 1598SOL    HW2 5694   1.381   4.663   6.419
 1599SOL     OW 5695   5.425   5.125   5.387
 1599SOL    HW1 5696   5.420   5.185   5.307
 1599SOL    HW2 5697   5.353   5.056   5.382
 1600SOL     OW 5698   2.700   1.609   3.257
 1600SOL    HW1 5699   2.663   1.575   3.344
 1600SOL    HW2 5700   2.639   1.583   3.183
 1601SOL     OW 5701   6.859   0.271   4.222
 1601SOL    HW1 5702   6.866   0.370   4.207
 1601SOL    HW2 5703   6.776   0.237   4.178
 1602SOL     OW 5704   4.335   4.830   3.811
 1602SOL    HW1 5705   4.236   4.821   3.828
 1602SOL    HW2 5706   4.384   4.818   3.898
 1603SOL     OW 5707   2.935   5.201   3.104
 1603SOL    HW1 5708   2.885   5.184   3.019
 1603SOL    HW2 5709   2.919   5.125   3.168
 1604SOL     OW 5710   4.571   4.807   1.709
 1604SOL    HW1 5711   4.602   4.751   1.785
 1604SOL    HW2 5712   4.503   4.757   1.655
 1605SOL     OW 5713   6.756   5.712   1.894
 1605SOL    HW1 5714   6.736   5.676   1.803
 1605SOL    HW2 5715   6.845   5.757   1.894
 1606SOL     OW 5716   4.009   5.906   5.513
 1606SOL    HW1 5717   3.946   5.982   5.497
 1606SOL    HW2 5718   3.957   5.824   5.534
 1607SOL     OW 5719   3.950   6.994   0.345
 1607SOL    HW1 5720   3.961   0.027   0.268
 1607SOL    HW2 5721   3.882   0.001   0.409
 1608SOL     OW 5722   6.520   1.174   2.973
 1608SOL    HW1 5723   6.545   1.153   3.067
 1608SOL    HW2 5724   6.601   1.172   2.915
 1609SOL     OW 5725   3.476   0.003   0.370
 1609SOL    HW1 5726   3.408   6.964   0.347
 1609SOL    HW2 5727   3.487   0.066   0.292
 1610SOL     OW 5728   5.166   5.898   0.628
 1610SOL    HW1 5729   5.264   5.899   0.648
 1610SOL    HW2 5730   5.116   5.861   0.706
 1611SOL     OW 5731   2.677   3.258   0.435
 1611SOL    HW1 5732   2.696   3.354   0.412
 1611SOL    HW2 5733   2.757   3.219   0.481
 1612SOL     OW 5734   3.581   6.911   1.234
 1612SOL    HW1 5735   3.509   6.957   1.183
 1612SOL    HW2 5736   3.601   6.963   1.317
 1613SOL     OW 5737   1.562   5.810   2.186
 1613SOL    HW1 5738   1.599   5.775   2.272
 1613SOL    HW2 5739   1.469   5.844   2.201
 1614SOL     OW 5740   5.807   1.592   6.068
 1614SOL    HW1 5741   5.801   1.673   6.009
 1614SOL    HW2 5742   5.799   1.510   6.012
 1615SOL     OW 5743   5.778   5.907   0.249
 1615SOL    HW1 5744   5.871   5.895   0.284
 1615SOL    HW2 5745   5.770   5.998   0.207
 1616SOL     OW 5746   3.957   0.951   4.467
 1616SOL    HW1 5747   3.861   0.945   4.496
 1616SOL    HW2 5748   3.963   1.006   4.385
 1617SOL     OW 5749   5.318   6.322   3.399
 1617SOL    HW1 5750   5.345   6.418   3.404
 1617SOL    HW2 5751   5.382   6.273   3.339
 1618SOL     OW 5752   1.731   6.635   3.241
 1618SOL    HW1 5753   1.827   6.617   3.263
 1618SOL    HW2 5754   1.683   6.663   3.324
 1619SOL     OW 5755   0.154   4.660   0.685
 1619SOL    HW1 5756   0.166   4.755   0.658
 1619SOL    HW2 5757   0.069   4.624   0.645
 1620SOL     OW 5758   3.506   4.716   1.405
 1620SOL    HW1 5759   3.458   4.641   1.359
 1620SOL    HW2 5760   3.452   4.747   1.483
 1621SOL     OW 5761   6.244   0.540   1.080
 1621SOL    HW1 5762   6.303   0.588   1.015
 1621SOL    HW2 5763   6.260   0.575   1.172
 1622SOL     OW 5764   0.614   3.402   5.451
 1622SOL    HW1 5765   0.713   3.400   5.463
 1622SOL    HW2 5766   0.591   3.465   5.377
 1623SOL     OW 5767   0.726   2.706   4.833
 1623SOL    HW1 5768   0.725   2.607   4.851
 1623SOL    HW2 5769   0.735   2.755   4.920
 1624SOL     OW 5770   3.967   0.884   5.276
 1624SOL    HW1 5771   3.929   0.832   5.353
 1624SOL    HW2 5772   3.978   0.979   5.302
 1625SOL     OW 5773   1.531   4.741   6.881
 1625SOL    HW1 5774   1.448   4.698   6.844
 1625SOL    HW2 5775   1.609   4.682   6.862
 1626SOL     OW 5776   3.410   0.696   0.975
 1626SOL    HW1 5777   3.345   0.659   1.042
 1626SOL    HW2 5778   3.380   0.674   0.883
 1627SOL     OW 5779   5.319   2.994   3.728
 1627SOL    HW1 5780   5.320   2.963   3.823
 1627SOL    HW2 5781   5.293   2.919   3.668
 1628SOL     OW 5782   4.301   5.784   0.299
 1628SOL    HW1 5783   4.298   5.747   0.206
 1628SOL    HW2 5784   4.296   5.709   0.365
 1629SOL     OW 5785   2.264   1.007   3.853
 1629SOL    HW1 5786   2.197   0.944   3.892
 1629SOL    HW2 5787   2.342   1.015   3.916
 1630SOL     OW 5788   0.832   4.733   5.848
 1630SOL    HW1 5789   0.747   4.755   5.896
 1630SOL    HW2 5790   0.892   4.813   5.850
 1631SOL     OW 5791   0.761   2.954   0.359
 1631SOL    HW1 5792   0.798   2.968   0.268
 1631SOL    HW2 5793   0.728   3.042   0.396
 1632SOL     OW 5794   5.052   2.745   1.985
 1632SOL    HW1 5795   5.067   2.837   2.022
 1632SOL    HW2 5796   4.974   2.747   1.922
 1633SOL     OW 5797   4.884   3.889   4.652
 1633SOL    HW1 5798   4.958   3.868   4.587
 1633SOL    HW2 5799   4.882   3.821   4.724
 1634SOL     OW 5800   4.683   6.141   4.396
 1634SOL    HW1 5801   4.783   6.131   4.403
 1634SOL    HW2 5802   4.661   6.237   4.381
 1635SOL     OW 5803   0.568   5.083   0.118
 1635SOL    HW1 5804   0.598   5.116   0.208
 1635SOL    HW2 5805   0.577   4.983   0.115
 1636SOL     OW 5806   2.683   5.134   1.420
 1636SOL    HW1 5807   2.667   5.101   1.327
 1636SOL    HW2 5808   2.764   5.088   1.457
 1637SOL     OW 5809   0.150   0.373   3.480
 1637SOL    HW1 5810   0.098   0.349   3.562
 1637SOL    HW2 5811   0.230   0.314   3.473
 1638SOL     OW 5812   1.234   3.460   2.438
 1638SOL    HW1 5813   1.270   3.367   2.441
 1638SOL    HW2 5814   1.157   3.465   2.375
 1639SOL     OW 5815   5.499   5.066   1.547
 1639SOL    HW1 5816   5.406   5.101   1.538
 1639SOL    HW2 5817   5.564   5.142   1.541
 1640SOL     OW 5818   6.021   0.750   0.037
 1640SOL    HW1 5819   6.031   0.801   0.122
 1640SOL    HW2 5820   5.969   0.805   7.001
 1641SOL     OW 5821   6.000   1.915   3.637
 1641SOL    HW1 5822   6.003   1.880   3.543
 1641SOL    HW2 5823   5.907   1.906   3.673
 1642SOL     OW 5824   6.241   3.162   0.090
 1642SOL    HW1 5825   6.190   3.196   0.011
 1642SOL    HW2 5826   6.301   3.087   0.061
 1643SOL     OW 5827   2.922   4.844   3.750
 1643SOL    HW1 5828   2.845   4.795   3.709
 1643SOL    HW2 5829   2.887   4.923   3.801
 1644SOL     OW 5830   5.715   3.781   0.181
 1644SOL    HW1 5831   5.628   3.796   0.133
 1644SOL    HW2 5832   5.787   3.832   0.136
 1645SOL     OW 5833   2.571   5.646   6.415
 1645SOL    HW1 5834   2.608   5.559   6.382
 1645SOL    HW2 5835   2.592   5.657   6.512
 1646SOL     OW 5836   3.028   6.954   1.010
 1646SOL    HW1 5837   2.956   6.996   0.954
 1646SOL    HW2 5838   3.012   6.856   1.015
 1647SOL     OW 5839   6.070   2.317   4.202
 1647SOL    HW1 5840   6.099   2.316   4.106
 1647SOL    HW2 5841   6.014   2.237   4.221
 1648SOL     OW 5842   5.047   5.776   0.038
 1648SOL    HW1 5843   5.005   5.797   6.979
 1648SOL    HW2 5844   5.146   5.788   0.032
 1649SOL     OW 5845   3.590   1.857   3.839
 1649SOL    HW1 5846   3.660   1.786   3.831
 1649SOL    HW2 5847   3.561   1.865   3.934
 1650SOL     OW 5848   0.482   5.753   5.331
 1650SOL    HW1 5849   0.416   5.722   5.400
 1650SOL    HW2 5850   0.533   5.831   5.367
 1651SOL     OW 5851   0.497   2.334   2.145
 1651SOL    HW1 5852   0.427   2.362   2.080
 1651SOL    HW2 5853   0.498   2.398   2.223
 1652SOL     OW 5854   1.579   3.132   2.638
 1652SOL    HW1 5855   1.552   3.035   2.640
 1652SOL    HW2 5856   1.505   3.187   2.678
 1653SOL     OW 5857   0.909   6.616   0.468
 1653SOL    HW1 5858   0.968   6.545   0.506
 1653SOL    HW2 5859   0.913   6.612   0.368
 1654SOL     OW 5860   6.778   3.352   1.708
 1654SOL    HW1 5861   6.693   3.388   1.747
 1654SOL    HW2 5862   6.772   3.355   1.608
 1655SOL     OW 5863   0.091   2.269   3.975
 1655SOL    HW1 5864   0.127   2.343   4.032
 1655SOL    HW2 5865   0.122   2.181   4.011
 1656SOL     OW 5866   1.945   5.185   3.000
 1656SOL    HW1 5867   1.921   5.165   2.905
 1656SOL    HW2 5868   2.020   5.126   3.029
 1657SOL     OW 5869   5.898   0.788   4.081
 1657SOL    HW1 5870   5.964   0.752   4.015
 1657SOL    HW2 5871   5.924   0.760   4.174
 1658SOL     OW 5872   6.139   1.254   0.899
 1658SOL    HW1 5873   6.093   1.186   0.842
 1658SOL    HW2 5874   6.212   1.298   0.847
 1659SOL     OW 5875   2.961   0.519   0.283
 1659SOL    HW1 5876   2.972   0.488   0.188
 1659SOL    HW2 5877   3.042   0.492   0.336
 1660SOL     OW 5878   1.943   5.942   2.412
 1660SOL    HW1 5879   1.856   5.989   2.399
 1660SOL    HW2 5880   1.990   5.934   2.324
 1661SOL     OW 5881   1.893   6.652   1.770
 1661SOL    HW1 5882   1.957   6.725   1.793
 1661SOL    HW2 5883   1.937   6.588   1.707
 1662SOL     OW 5884   0.366   1.191   4.403
 1662SOL    HW1 5885   0.323   1.220   4.488
 1662SOL    HW2 5886   0.417   1.106   4.419
 1663SOL     OW 5887   4.415   5.270   3.365
 1663SOL    HW1 5888   4.376   5.268   3.273
 1663SOL    HW2 5889   4.406   5.362   3.403
 1664SOL     OW 5890   2.037   6.245   4.794
 1664SOL    HW1 5891   2.050   6.155   4.751
 1664SOL    HW2 5892   1.962   6.293   4.749
 1665SOL     OW 5893   6.334   3.376   2.679
 1665SOL    HW1 5894   6.322   3.289   2.632
 1665SOL    HW2 5895   6.298   3.450   2.623
 1666SOL     OW 5896   5.434   1.044   6.718
 1666SOL    HW1 5897   5.374   1.121   6.741
 1666SOL    HW2 5898   5.516   1.048   6.774
 1667SOL     OW 5899   0.232   6.273   1.279
 1667SOL    HW1 5900   0.208   6.182   1.313
 1667SOL    HW2 5901   0.159   6.306   1.218
 1668SOL     OW 5902   4.907   5.572   3.987
 1668SOL    HW1 5903   4.977   5.565   3.916
 1668SOL    HW2 5904   4.937   5.521   4.068
 1669SOL     OW 5905   0.101   4.427   5.885
 1669SOL    HW1 5906   0.009   4.448   5.918
 1669SOL    HW2 5907   0.102   4.432   5.786
 1670SOL     OW 5908   6.761   4.249   5.341
 1670SOL    HW1 5909   6.805   4.331   5.305
 1670SOL    HW2 5910   6.798   4.227   5.431
 1671SOL     OW 5911   5.383   1.903   3.491
 1671SOL    HW1 5912   5.435   1.824   3.523
 1671SOL    HW2 5913   5.359   1.891   3.395
 1672SOL     OW 5914   2.306   3.511   0.908
 1672SOL    HW1 5915   2.317   3.503   1.007
 1672SOL    HW2 5916   2.332   3.424   0.865
 1673SOL     OW 5917   1.158   1.956   4.807
 1673SOL    HW1 5918   1.245   2.006   4.801
 1673SOL    HW2 5919   1.151   1.891   4.731
 1674SOL     OW 5920   0.750   3.231   2.363
 1674SOL    HW1 5921   0.709   3.322   2.355
 1674SOL    HW2 5922   0.762   3.209   2.460
 1675SOL     OW 5923   4.678   0.050   6.827
 1675SOL    HW1 5924   4.619   7.002   6.807
 1675SOL    HW2 5925   4.735   0.029   6.906
 1676SOL     OW 5926   2.416   2.725   1.928
 1676SOL    HW1 5927   2.477   2.780   1.872
 1676SOL    HW2 5928   2.441   2.628   1.919
 1677SOL     OW 5929   3.711   3.787   4.044
 1677SOL    HW1 5930   3.786   3.827   3.992
 1677SOL    HW2 5931   3.652   3.861   4.079
 1678SOL     OW 5932   6.819   4.634   2.417
 1678SOL    HW1 5933   6.748   4.633   2.486
 1678SOL    HW2 5934   6.820   4.546   2.369
 1679SOL     OW 5935   2.245   1.439   4.757
 1679SOL    HW1 5936   2.232   1.511   4.825
 1679SOL    HW2 5937   2.324   1.383   4.782
 1680SOL     OW 5938   0.523   3.404   5.164
 1680SOL    HW1 5939   0.567   3.318   5.191
 1680SOL    HW2 5940   0.448   3.384   5.102
 1681SOL     OW 5941   0.329   5.261   6.768
 1681SOL    HW1 5942   0.352   5.353   6.738
 1681SOL    HW2 5943   0.330   5.199   6.689
 1682SOL     OW 5944   1.135   0.420   5.809
 1682SOL    HW1 5945   1.141   0.339   5.751
 1682SOL    HW2 5946   1.041   0.455   5.808
 1683SOL     OW 5947   5.827   5.487   2.808
 1683SOL    HW1 5948   5.767   5.488   2.887
 1683SOL    HW2 5949   5.775   5.511   2.726
 1684SOL     OW 5950   0.612   6.002   2.163
 1684SOL    HW1 5951   0.637   5.918   2.212
 1684SOL    HW2 5952   0.662   6.079   2.202
 1685SOL     OW 5953   1.489   1.222   5.463
 1685SOL    HW1 5954   1.568   1.279   5.489
 1685SOL    HW2 5955   1.442   1.191   5.546
 1686SOL     OW 5956   2.288   6.365   4.126
 1686SOL    HW1 5957   2.272   6.295   4.057
 1686SOL    HW2 5958   2.375   6.347   4.173
 1687SOL     OW 5959   1.644   2.661   1.791
 1687SOL    HW1 5960   1.674   2.640   1.883
 1687SOL    HW2 5961   1.562   2.607   1.770
 1688SOL     OW 5962   2.404   1.929   3.829
 1688SOL    HW1 5963   2.326   1.884   3.873
 1688SOL    HW2 5964   2.470   1.860   3.799
 1689SOL     OW 5965   6.429   0.574   3.162
 1689SOL    HW1 5966   6.474   0.511   3.100
 1689SOL    HW2 5967   6.401   0.656   3.111
 1690SOL     OW 5968   1.456   2.426   4.880
 1690SOL    HW1 5969   1.361   2.454   4.863
 1690SOL    HW2 5970   1.488   2.372   4.802
 1691SOL     OW 5971   5.315   2.960   4.060
 1691SOL    HW1 5972   5.282   2.865   4.063
 1691SOL    HW2 5973   5.332   2.992   4.153
 1692SOL     OW 5974   4.622   6.311   1.340
 1692SOL    HW1 5975   4.707   6.362   1.359
 1692SOL    HW2 5976   4.548   6.350   1.394
 1693SOL     OW 5977   6.656   2.286   2.860
 1693SOL    HW1 5978   6.592   2.333   2.921
 1693SOL    HW2 5979   6.659   2.189   2.883
 1694SOL     OW 5980   6.250   1.769   3.556
 1694SOL    HW1 5981   6.161   1.763   3.601
 1694SOL    HW2 5982   6.254   1.852   3.500
 1695SOL     OW 5983   3.893   0.868   6.513
 1695SOL    HW1 5984   3.851   0.958   6.509
 1695SOL    HW2 5985   3.840   0.809   6.574
 1696SOL     OW 5986   3.911   5.992   1.452
 1696SOL    HW1 5987   3.987   5.928   1.440
 1696SOL    HW2 5988   3.847   5.955   1.518
 1697SOL     OW 5989   6.809   1.683   0.190
 1697SOL    HW1 5990   6.900   1.650   0.165
 1697SOL    HW2 5991   6.817   1.753   0.261
 1698SOL     OW 5992   3.561   6.823   0.852
 1698SOL    HW1 5993   3.553   6.895   0.784
 1698SOL    HW2 5994   3.513   6.850   0.935
 1699SOL     OW 5995   2.346   1.351   6.709
 1699SOL    HW1 5996   2.323   1.366   6.613
 1699SOL    HW2 5997   2.435   1.308   6.716
 1700SOL     OW 5998   6.190   4.189   3.825
 1700SOL    HW1 5999   6.162   4.273   3.871
 1700SOL    HW2 6000   6.168   4.110   3.882
 1701SOL     OW 6001   5.597   5.386   6.400
 1701SOL    HW1 6002   5.555   5.437   6.324
 1701SOL    HW2 6003   5.632   5.299   6.366
 1702SOL     OW 6004   6.333   1.674   0.936
 1702SOL    HW1 6005   6.322   1.602   1.005
 1702SOL    HW2 6006   6.409   1.733   0.961
 1703SOL     OW 6007   3.732   2.225   0.350
 1703SOL    HW1 6008   3.643   2.200   0.388
 1703SOL    HW2 6009   3.736   2.198   0.254
 1704SOL     OW 6010   0.947   2.401   0.237
 1704SOL    HW1 6011   1.003   2.329   0.278
 1704SOL    HW2 6012   0.991   2.490   0.253
 1705SOL     OW 6013   3.260   2.220   1.821
 1705SOL    HW1 6014   3.201   2.169   1.884
 1705SOL    HW2 6015   3.207   2.292   1.776
 1706SOL     OW 6016   4.922   1.538   1.427
 1706SOL    HW1 6017   5.018   1.531   1.400
 1706SOL    HW2 6018   4.910   1.497   1.517
 1707SOL     OW 6019   4.215   1.924   2.852
 1707SOL    HW1 6020   4.266   1.913   2.766
 1707SOL    HW2 6021   4.158   2.006   2.847
 1708SOL     OW 6022   4.838   6.124   1.964
 1708SOL    HW1 6023   4.829   6.223   1.960
 1708SOL    HW2 6024   4.923   6.096   1.921
 1709SOL     OW 6025   3.306   6.730   3.020
 1709SOL    HW1 6026   3.252   6.781   2.954
 1709SOL    HW2 6027   3.375   6.676   2.973
 1710SOL     OW 6028   3.955   4.870   2.828
 1710SOL    HW1 6029   3.857   4.872   2.848
 1710SOL    HW2 6030   4.006   4.901   2.907
 1711SOL     OW 6031   1.713   5.142   4.574
 1711SOL    HW1 6032   1.734   5.187   4.486
 1711SOL    HW2 6033   1.788   5.081   4.599
 1712SOL     OW 6034   6.710   2.237   4.672
 1712SOL    HW1 6035   6.679   2.290   4.593
 1712SOL    HW2 6036   6.802   2.265   4.697
 1713SOL     OW 6037   4.844   2.541   2.041
 1713SOL    HW1 6038   4.849   2.627   1.990
 1713SOL    HW2 6039   4.823   2.561   2.137
 1714SOL     OW 6040   3.829   1.725   6.288
 1714SOL    HW1 6041   3.909   1.752   6.341
 1714SOL    HW2 6042   3.855   1.659   6.218
 1715SOL     OW 6043   2.173   6.119   3.531
 1715SOL    HW1 6044   2.138   6.046   3.591
 1715SOL    HW2 6045   2.239   6.174   3.581
 1716SOL     OW 6046   3.952   6.869   3.702
 1716SOL    HW1 6047   3.938   6.854   3.800
 1716SOL    HW2 6048   4.050   6.868   3.682
 1717SOL     OW 6049   3.657   5.784   4.744
 1717SOL    HW1 6050   3.617   5.704   4.699
 1717SOL    HW2 6051   3.691   5.848   4.675
 1718SOL     OW 6052   3.213   1.707   2.089
 1718SOL    HW1 6053   3.257   1.727   2.177
 1718SOL    HW2 6054   3.282   1.710   2.016
 1719SOL     OW 6055   1.954   2.984   0.778
 1719SOL    HW1 6056   1.968   3.072   0.822
 1719SOL    HW2 6057   1.956   2.911   0.847
 1720SOL     OW 6058   6.789   2.846   6.488
 1720SOL    HW1 6059   6.862   2.798   6.537
 1720SOL    HW2 6060   6.772   2.801   6.401
 1721SOL     OW 6061   1.953   6.692   1.115
 1721SOL    HW1 6062   2.030   6.745   1.152
 1721SOL    HW2 6063   1.907   6.746   1.044
 1722SOL     OW 6064   3.381   1.718   3.742
 1722SOL    HW1 6065   3.453   1.766   3.793
 1722SOL    HW2 6066   3.419   1.682   3.657
 1723SOL     OW 6067   5.580   2.270   6.735
 1723SOL    HW1 6068   5.480   2.279   6.728
 1723SOL    HW2 6069   5.613   2.325   6.812
 1724SOL     OW 6070   0.708   2.897   2.312
 1724SOL    HW1 6071   0.724   2.976   2.371
 1724SOL    HW2 6072   0.729   2.921   2.217
 1725SOL     OW 6073   1.845   5.168   6.127
 1725SOL    HW1 6074   1.767   5.230   6.127
 1725SOL    HW2 6075   1.818   5.079   6.091
 1726SOL     OW 6076   5.643   4.054   4.436
 1726SOL    HW1 6077   5.649   4.128   4.368
 1726SOL    HW2 6078   5.641   4.094   4.528
 1727SOL     OW 6079   4.069   3.236   3.974
 1727SOL    HW1 6080   4.105   3.149   3.941
 1727SOL    HW2 6081   4.020   3.282   3.900
 1728SOL     OW 6082   5.936   5.228   5.247
 1728SOL    HW1 6083   5.935   5.145   5.304
 1728SOL    HW2 6084   5.854   5.282   5.267
 1729SOL     OW 6085   2.161   3.703   2.920
 1729SOL    HW1 6086   2.189   3.786   2.873
 1729SOL    HW2 6087   2.170   3.625   2.857
 1730SOL     OW 6088   2.345   0.489   5.533
 1730SOL    HW1 6089   2.346   0.578   5.579
 1730SOL    HW2 6090   2.250   0.459   5.520
 1731SOL     OW 6091   0.397   4.272   3.514
 1731SOL    HW1 6092   0.475   4.335   3.518
 1731SOL    HW2 6093   0.330   4.298   3.583
 1732SOL     OW 6094   2.539   4.865   6.056
 1732SOL    HW1 6095   2.445   4.861   6.022
 1732SOL    HW2 6096   2.560   4.781   6.105
 1733SOL     OW 6097   1.502   4.025   1.329
 1733SOL    HW1 6098   1.587   3.976   1.342
 1733SOL    HW2 6099   1.506   4.113   1.378
 1734SOL     OW 6100   4.777   2.687   1.225
 1734SOL    HW1 6101   4.795   2.731   1.137
 1734SOL    HW2 6102   4.695   2.728   1.266
 1735SOL     OW 6103   4.496   5.586   6.483
 1735SOL    HW1 6104   4.471   5.631   6.569
 1735SOL    HW2 6105   4.414   5.574   6.427
 1736SOL     OW 6106   3.496   3.859   1.211
 1736SOL    HW1 6107   3.587   3.820   1.198
 1736SOL    HW2 6108   3.428   3.797   1.173
 1737SOL     OW 6109   4.662   0.129   4.685
 1737SOL    HW1 6110   4.640   0.218   4.645
 1737SOL    HW2 6111   4.717   0.143   4.768
 1738SOL     OW 6112   2.512   2.601   4.703
 1738SOL    HW1 6113   2.541   2.582   4.797
 1738SOL    HW2 6114   2.459   2.686   4.701
 1739SOL     OW 6115   6.632   1.699   4.529
 1739SOL    HW1 6116   6.572   1.753   4.589
 1739SOL    HW2 6117   6.656   1.613   4.575
 1740SOL     OW 6118   0.165   2.558   5.043
 1740SOL    HW1 6119   0.099   2.627   5.071
 1740SOL    HW2 6120   0.249   2.602   5.011
 1741SOL     OW 6121   2.706   0.708   4.578
 1741SOL    HW1 6122   2.722   0.651   4.658
 1741SOL    HW2 6123   2.695   0.650   4.497
 1742SOL     OW 6124   6.059   0.547   5.165
 1742SOL    HW1 6125   5.995   0.472   5.148
 1742SOL    HW2 6126   6.066   0.604   5.083
 1743SOL     OW 6127   0.593   1.570   2.327
 1743SOL    HW1 6128   0.559   1.475   2.323
 1743SOL    HW2 6129   0.584   1.612   2.237
 1744SOL     OW 6130   6.387   3.329   3.362
 1744SOL    HW1 6131   6.389   3.313   3.460
 1744SOL    HW2 6132   6.307   3.283   3.322
 1745SOL     OW 6133   5.445   6.061   2.712
 1745SOL    HW1 6134   5.438   6.160   2.724
 1745SOL    HW2 6135   5.396   6.035   2.628
 1746SOL     OW 6136   1.420   4.579   3.916
 1746SOL    HW1 6137   1.350   4.524   3.961
 1746SOL    HW2 6138   1.406   4.577   3.817
 1747SOL     OW 6139   4.337   1.376   2.704
 1747SOL    HW1 6140   4.271   1.442   2.739
 1747SOL    HW2 6141   4.365   1.403   2.612
 1748SOL     OW 6142   6.753   1.987   4.574
 1748SOL    HW1 6143   6.734   2.073   4.622
 1748SOL    HW2 6144   6.706   1.987   4.485
 1749SOL     OW 6145   2.096   6.803   5.839
 1749SOL    HW1 6146   2.115   6.866   5.914
 1749SOL    HW2 6147   2.182   6.771   5.799
 1750SOL     OW 6148   5.402   0.038   3.779
 1750SOL    HW1 6149   5.388   6.992   3.716
 1750SOL    HW2 6150   5.336   0.032   3.854
 1751SOL     OW 6151   4.744   1.794   4.567
 1751SOL    HW1 6152   4.763   1.737   4.487
 1751SOL    HW2 6153   4.731   1.736   4.648
 1752SOL     OW 6154   6.293   0.716   1.989
 1752SOL    HW1 6155   6.313   0.620   1.971
 1752SOL    HW2 6156   6.378   0.764   2.014
 1753SOL     OW 6157   6.878   0.572   1.502
 1753SOL    HW1 6158   6.865   0.480   1.467
 1753SOL    HW2 6159   6.920   0.568   1.593
 1754SOL     OW 6160   1.965   5.020   6.706
 1754SOL    HW1 6161   1.992   5.061   6.619
 1754SOL    HW2 6162   1.977   4.921   6.701
 1755SOL     OW 6163   6.925   5.325   0.032
 1755SOL    HW1 6164   6.946   5.340   6.966
 1755SOL    HW2 6165   6.834   5.360   0.052
 1756SOL     OW 6166   4.242   5.817   5.400
 1756SOL    HW1 6167   4.161   5.864   5.434
 1756SOL    HW2 6168   4.258   5.842   5.304
 1757SOL     OW 6169   3.389   5.491   4.947
 1757SOL    HW1 6170   3.379   5.515   5.044
 1757SOL    HW2 6171   3.487   5.488   4.925
 1758SOL     OW 6172   2.102   1.182   4.595
 1758SOL    HW1 6173   2.055   1.178   4.507
 1758SOL    HW2 6174   2.174   1.251   4.592
 1759SOL     OW 6175   2.423   5.915   5.471
 1759SOL    HW1 6176   2.487   5.951   5.539
 1759SOL    HW2 6177   2.463   5.833   5.429
 1760SOL     OW 6178   6.141   0.939   3.861
 1760SOL    HW1 6179   6.182   0.986   3.783
 1760SOL    HW2 6180   6.043   0.958   3.865
 1761SOL     OW 6181   0.614   1.199   1.770
 1761SOL    HW1 6182   0.526   1.157   1.794
 1761SOL    HW2 6183   0.597   1.287   1.725
 1762SOL     OW 6184   0.208   1.235   4.616
 1762SOL    HW1 6185   0.149   1.293   4.672
 1762SOL    HW2 6186   0.158   1.151   4.593
 1763SOL     OW 6187   0.735   4.855   4.045
 1763SOL    HW1 6188   0.821   4.905   4.051
 1763SOL    HW2 6189   0.659   4.914   4.075
 1764SOL     OW 6190   1.964   3.031   1.863
 1764SOL    HW1 6191   1.933   3.052   1.956
 1764SOL    HW2 6192   2.061   3.055   1.854
 1765SOL     OW 6193   3.632   0.702   1.679
 1765SOL    HW1 6194   3.572   0.766   1.630
 1765SOL    HW2 6195   3.588   0.676   1.765
 1766SOL     OW 6196   5.647   4.599   3.952
 1766SOL    HW1 6197   5.595   4.663   3.894
 1766SOL    HW2 6198   5.727   4.646   3.990
 1767SOL     OW 6199   0.965   4.340   3.689
 1767SOL    HW1 6200   0.954   4.422   3.745
 1767SOL    HW2 6201   0.892   4.275   3.709
 1768SOL     OW 6202   3.013   1.122   6.891
 1768SOL    HW1 6203   3.096   1.070   6.874
 1768SOL    HW2 6204   2.947   1.066   6.941
 1769SOL     OW 6205   5.621   1.551   6.683
 1769SOL    HW1 6206   5.601   1.535   6.586
 1769SOL    HW2 6207   5.641   1.463   6.728
 1770SOL     OW 6208   6.799   4.783   5.029
 1770SOL    HW1 6209   6.705   4.812   5.008
 1770SOL    HW2 6210   6.863   4.855   5.001
 1771SOL     OW 6211   1.763   5.190   0.466
 1771SOL    HW1 6212   1.849   5.158   0.505
 1771SOL    HW2 6213   1.689   5.129   0.493
 1772SOL     OW 6214   3.692   5.409   3.828
 1772SOL    HW1 6215   3.731   5.361   3.749
 1772SOL    HW2 6216   3.669   5.503   3.802
 1773SOL     OW 6217   2.455   2.393   5.956
 1773SOL    HW1 6218   2.390   2.318   5.973
 1773SOL    HW2 6219   2.408   2.480   5.970
 1774SOL     OW 6220   5.469   6.763   1.175
 1774SOL    HW1 6221   5.427   6.696   1.114
 1774SOL    HW2 6222   5.534   6.716   1.235
 1775SOL     OW 6223   1.828   5.552   6.044
 1775SOL    HW1 6224   1.893   5.481   6.017
 1775SOL    HW2 6225   1.737   5.528   6.010
 1776SOL     OW 6226   5.206   0.320   6.207
 1776SOL    HW1 6227   5.158   0.407   6.211
 1776SOL    HW2 6228   5.303   0.334   6.225
 1777SOL     OW 6229   3.037   6.895   6.794
 1777SOL    HW1 6230   3.121   6.862   6.751
 1777SOL    HW2 6231   2.968   6.823   6.791
 1778SOL     OW 6232   4.884   2.169   4.249
 1778SOL    HW1 6233   4.897   2.237   4.321
 1778SOL    HW2 6234   4.896   2.077   4.287
 1779SOL     OW 6235   5.027   0.882   5.612
 1779SOL    HW1 6236   4.940   0.892   5.659
 1779SOL    HW2 6237   5.064   0.790   5.630
 1780SOL     OW 6238   1.712   3.425   5.844
 1780SOL    HW1 6239   1.633   3.458   5.792
 1780SOL    HW2 6240   1.795   3.432   5.788
 1781SOL     OW 6241   5.352   6.280   5.033
 1781SOL    HW1 6242   5.331   6.297   4.937
 1781SOL    HW2 6243   5.445   6.244   5.041
 1782SOL     OW 6244   2.399   0.992   2.948
 1782SOL    HW1 6245   2.427   0.909   2.900
 1782SOL    HW2 6246   2.384   1.066   2.882
 1783SOL     OW 6247   3.139   3.662   6.455
 1783SOL    HW1 6248   3.155   3.606   6.374
 1783SOL    HW2 6249   3.210   3.644   6.523
 1784SOL     OW 6250   2.232   1.346   1.119
 1784SOL    HW1 6251   2.268   1.427   1.074
 1784SOL    HW2 6252   2.195   1.283   1.050
 1785SOL     OW 6253   6.146   6.820   4.083
 1785SOL    HW1 6254   6.176   6.836   3.989
 1785SOL    HW2 6255   6.061   6.767   4.081
 1786SOL     OW 6256   2.160   4.963   6.940
 1786SOL    HW1 6257   2.151   5.045   6.884
 1786SOL    HW2 6258   2.079   4.951   6.997
 1787SOL     OW 6259   2.574   1.942   6.117
 1787SOL    HW1 6260   2.516   1.893   6.051
 1787SOL    HW2 6261   2.517   1.973   6.193
 1788SOL     OW 6262   4.555   3.944   6.726
 1788SOL    HW1 6263   4.525   3.920   6.818
 1788SOL    HW2 6264   4.492   3.905   6.659
 1789SOL     OW 6265   5.778   3.162   1.666
 1789SOL    HW1 6266   5.704   3.102   1.633
 1789SOL    HW2 6267   5.754   3.257   1.648
 1790SOL     OW 6268   2.798   1.004   4.440
 1790SOL    HW1 6269   2.700   1.014   4.419
 1790SOL    HW2 6270   2.852   1.034   4.361
 1791SOL     OW 6271   6.995   1.464   3.448
 1791SOL    HW1 6272   6.932   1.532   3.410
 1791SOL    HW2 6273   0.029   1.510   3.510
 1792SOL     OW 6274   0.091   1.464   4.760
 1792SOL    HW1 6275   0.077   1.503   4.669
 1792SOL    HW2 6276   0.129   1.534   4.820
 1793SOL     OW 6277   6.710   1.973   4.276
 1793SOL    HW1 6278   6.670   2.055   4.236
 1793SOL    HW2 6279   6.685   1.893   4.220
 1794SOL     OW 6280   5.232   6.685   5.406
 1794SOL    HW1 6281   5.144   6.638   5.415
 1794SOL    HW2 6282   5.225   6.755   5.334
 1795SOL     OW 6283   6.744   5.085   2.001
 1795SOL    HW1 6284   6.680   5.023   1.954
 1795SOL    HW2 6285   6.692   5.156   2.048
 1796SOL     OW 6286   2.568   1.784   5.693
 1796SOL    HW1 6287   2.649   1.743   5.735
 1796SOL    HW2 6288   2.592   1.876   5.660
 1797SOL     OW 6289   1.064   6.845   5.858
 1797SOL    HW1 6290   1.146   6.841   5.802
 1797SOL    HW2 6291   1.012   6.761   5.848
 1798SOL     OW 6292   3.467   3.172   4.817
 1798SOL    HW1 6293   3.450   3.096   4.880
 1798SOL    HW2 6294   3.557   3.210   4.834
 1799SOL     OW 6295   4.947   2.852   6.494
 1799SOL    HW1 6296   5.005   2.925   6.530
 1799SOL    HW2 6297   4.860   2.851   6.542
 1800SOL     OW 6298   5.045   5.103   4.149
 1800SOL    HW1 6299   5.095   5.064   4.226
 1800SOL    HW2 6300   4.980   5.171   4.183
 1801SOL     OW 6301   0.875   1.625   2.383
 1801SOL    HW1 6302   0.781   1.603   2.408
 1801SOL    HW2 6303   0.876   1.673   2.295
 1802SOL     OW 6304   6.147   6.093   3.615
 1802SOL    HW1 6305   6.145   5.994   3.601
 1802SOL    HW2 6306   6.115   6.139   3.533
 1803SOL     OW 6307   0.145   6.923   1.854
 1803SOL    HW1 6308   0.085   6.995   1.818
 1803SOL    HW2 6309   0.238   6.937   1.820
 1804SOL     OW 6310   3.982   3.150   4.861
 1804SOL    HW1 6311   4.003   3.167   4.764
 1804SOL    HW2 6312   4.028   3.219   4.917
 1805SOL     OW 6313   0.245   5.356   6.017
 1805SOL    HW1 6314   0.336   5.393   5.996
 1805SOL    HW2 6315   0.206   5.315   5.934
 1806SOL     OW 6316   0.740   2.560   1.576
 1806SOL    HW1 6317   0.674   2.545   1.649
 1806SOL    HW2 6318   0.700   2.621   1.507
 1807SOL     OW 6319   6.110   2.524   6.351
 1807SOL    HW1 6320   6.116   2.425   6.363
 1807SOL    HW2 6321   6.195   2.567   6.381
 1808SOL     OW 6322   6.201   3.819   4.244
 1808SOL    HW1 6323   6.165   3.730   4.215
 1808SOL    HW2 6324   6.134   3.864   4.304
 1809SOL     OW 6325   3.006   2.113   5.513
 1809SOL    HW1 6326   2.975   2.023   5.544
 1809SOL    HW2 6327   2.939   2.151   5.449
 1810SOL     OW 6328   0.693   0.634   5.301
 1810SOL    HW1 6329   0.672   0.661   5.207
 1810SOL    HW2 6330   0.679   0.536   5.311
 1811SOL     OW 6331   5.516   4.640   2.262
 1811SOL    HW1 6332   5.416   4.637   2.253
 1811SOL    HW2 6333   5.558   4.629   2.172
 1812SOL     OW 6334   4.046   6.861   6.305
 1812SOL    HW1 6335   4.142   6.873   6.282
 1812SOL    HW2 6336   3.996   6.825   6.225
 1813SOL     OW 6337   5.249   5.068   2.298
 1813SOL    HW1 6338   5.173   5.094   2.357
 1813SOL    HW2 6339   5.284   5.150   2.251
 1814SOL     OW 6340   5.933   0.415   0.483
 1814SOL    HW1 6341   5.904   0.502   0.443
 1814SOL    HW2 6342   5.860   0.348   0.474
 1815SOL     OW 6343   6.450   0.081   2.771
 1815SOL    HW1 6344   6.369   0.135   2.793
 1815SOL    HW2 6345   6.474   0.094   2.674
 1816SOL     OW 6346   3.454   5.009   6.178
 1816SOL    HW1 6347   3.467   4.955   6.262
 1816SOL    HW2 6348   3.446   4.947   6.100
 1817SOL     OW 6349   3.300   0.937   3.118
 1817SOL    HW1 6350   3.202   0.927   3.140
 1817SOL    HW2 6351   3.345   0.988   3.190
 1818SOL     OW 6352   1.554   0.146   0.178
 1818SOL    HW1 6353   1.542   0.047   0.185
 1818SOL    HW2 6354   1.557   0.186   0.270
 1819SOL     OW 6355   1.616   5.271   2.318
 1819SOL    HW1 6356   1.520   5.287   2.297
 1819SOL    HW2 6357   1.643   5.180   2.286
 1820SOL     OW 6358   3.285   0.212   2.549
 1820SOL    HW1 6359   3.325   0.291   2.596
 1820SOL    HW2 6360   3.350   0.178   2.481
 1821SOL     OW 6361   3.027   0.814   2.194
 1821SOL    HW1 6362   3.124   0.834   2.182
 1821SOL    HW2 6363   2.994   0.857   2.277
 1822SOL     OW 6364   1.057   3.439   1.703
 1822SOL    HW1 6365   1.133   3.474   1.757
 1822SOL    HW2 6366   1.083   3.352   1.661
 1823SOL     OW 6367   2.917   6.077   3.049
 1823SOL    HW1 6368   2.823   6.059   3.078
 1823SOL    HW2 6369   2.942   6.013   2.976
 1824SOL     OW 6370   4.431   4.341   0.451
 1824SOL    HW1 6371   4.430   4.245   0.424
 1824SOL    HW2 6372   4.473   4.396   0.379
 1825SOL     OW 6373   0.652   3.068   4.523
 1825SOL    HW1 6374   0.701   3.139   4.473
 1825SOL    HW2 6375   0.690   3.059   4.615
 1826SOL     OW 6376   3.335   0.931   1.169
 1826SOL    HW1 6377   3.309   0.980   1.086
 1826SOL    HW2 6378   3.282   0.965   1.246
 1827SOL     OW 6379   5.533   5.353   1.011
 1827SOL    HW1 6380   5.505   5.448   1.026
 1827SOL    HW2 6381   5.536   5.304   1.098
 1828SOL     OW 6382   1.890   3.105   6.389
 1828SOL    HW1 6383   1.852   3.080   6.300
 1828SOL    HW2 6384   1.820   3.095   6.460
 1829SOL     OW 6385   3.740   6.839   3.544
 1829SOL    HW1 6386   3.817   6.844   3.609
 1829SOL    HW2 6387   3.734   6.746   3.508
 1830SOL     OW 6388   5.689   6.599   4.776
 1830SOL    HW1 6389   5.700   6.681   4.833
 1830SOL    HW2 6390   5.762   6.535   4.796
 1831SOL     OW 6391   5.125   6.290   2.839
 1831SOL    HW1 6392   5.098   6.236   2.919
 1831SOL    HW2 6393   5.181   6.368   2.868
 1832SOL     OW 6394   3.683   2.650   0.039
 1832SOL    HW1 6395   3.612   2.699   0.089
 1832SOL    HW2 6396   3.744   2.715   7.025
 1833SOL     OW 6397   5.058   0.321   1.491
 1833SOL    HW1 6398   5.060   0.229   1.529
 1833SOL    HW2 6399   5.004   0.321   1.407
 1834SOL     OW 6400   2.407   3.555   1.241
 1834SOL    HW1 6401   2.472   3.577   1.313
 1834SOL    HW2 6402   2.408   3.457   1.223
 1835SOL     OW 6403   0.986   4.816   1.750
 1835SOL    HW1 6404   0.907   4.854   1.702
 1835SOL    HW2 6405   1.068   4.827   1.694
 1836SOL     OW 6406   5.629   2.550   2.159
 1836SOL    HW1 6407   5.674   2.533   2.071
 1836SOL    HW2 6408   5.548   2.607   2.144
 1837SOL     OW 6409   1.729   6.984   5.940
 1837SOL    HW1 6410   1.698   0.029   5.881
 1837SOL    HW2 6411   1.713   6.896   5.895
 1838SOL     OW 6412   5.670   0.520   6.206
 1838SOL    HW1 6413   5.620   0.544   6.288
 1838SOL    HW2 6414   5.746   0.459   6.229
 1839SOL     OW 6415   6.021   0.876   6.006
 1839SOL    HW1 6416   5.993   0.959   6.055
 1839SOL    HW2 6417   5.947   0.809   6.008
 1840SOL     OW 6418   3.966   0.283   2.541
 1840SOL    HW1 6419   4.014   0.370   2.526
 1840SOL    HW2 6420   3.975   0.226   2.459
 1841SOL     OW 6421   2.187   0.274   2.862
 1841SOL    HW1 6422   2.152   0.182   2.845
 1841SOL    HW2 6423   2.122   0.342   2.828
 1842SOL     OW 6424   0.892   5.476   0.855
 1842SOL    HW1 6425   0.941   5.562   0.868
 1842SOL    HW2 6426   0.913   5.439   0.764
 1843SOL     OW 6427   5.343   0.533   4.227
 1843SOL    HW1 6428   5.383   0.570   4.312
 1843SOL    HW2 6429   5.276   0.598   4.191
 1844SOL     OW 6430   4.209   1.032   5.507
 1844SOL    HW1 6431   4.124   0.999   5.548
 1844SOL    HW2 6432   4.191   1.070   5.417
 1845SOL     OW 6433   2.999   6.887   4.066
 1845SOL    HW1 6434   3.047   6.969   4.097
 1845SOL    HW2 6435   3.064   6.826   4.020
 1846SOL     OW 6436   4.649   1.254   3.530
 1846SOL    HW1 6437   4.581   1.225   3.598
 1846SOL    HW2 6438   4.636   1.201   3.446
 1847SOL     OW 6439   1.241   0.057   5.446
 1847SOL    HW1 6440   1.235   0.040   5.544
 1847SOL    HW2 6441   1.150   0.052   5.405
 1848SOL     OW 6442   1.626   5.936   4.263
 1848SOL    HW1 6443   1.624   6.001   4.339
 1848SOL    HW2 6444   1.605   5.984   4.177
 1849SOL     OW 6445   4.507   2.485   1.265
 1849SOL    HW1 6446   4.492   2.397   1.311
 1849SOL    HW2 6447   4.542   2.552   1.332
 1850SOL     OW 6448   5.719   1.659   2.767
 1850SOL    HW1 6449   5.664   1.627   2.844
 1850SOL    HW2 6450   5.665   1.723   2.712
 1851SOL     OW 6451   1.216   3.460   6.977
 1851SOL    HW1 6452   1.140   3.493   6.922
 1851SOL    HW2 6453   1.271   3.396   6.923
 1852SOL     OW 6454   0.289   4.726   2.020
 1852SOL    HW1 6455   0.338   4.741   1.934
 1852SOL    HW2 6456   0.332   4.780   2.092
 1853SOL     OW 6457   6.837   2.528   3.114
 1853SOL    HW1 6458   6.793   2.607   3.070
 1853SOL    HW2 6459   6.905   2.490   3.052
 1854SOL     OW 6460   1.642   4.809   2.888
 1854SOL    HW1 6461   1.739   4.812   2.912
 1854SOL    HW2 6462   1.596   4.739   2.942
 1855SOL     OW 6463   5.196   2.993   5.226
 1855SOL    HW1 6464   5.206   3.020   5.322
 1855SOL    HW2 6465   5.281   2.951   5.194
 1856SOL     OW 6466   3.633   3.230   6.379
 1856SOL    HW1 6467   3.542   3.226   6.419
 1856SOL    HW2 6468   3.685   3.149   6.407
 1857SOL     OW 6469   4.467   1.387   0.391
 1857SOL    HW1 6470   4.508   1.436   0.468
 1857SOL    HW2 6471   4.425   1.302   0.424
 1858SOL     OW 6472   5.493   2.663   3.440
 1858SOL    HW1 6473   5.455   2.585   3.390
 1858SOL    HW2 6474   5.458   2.748   3.400
 1859SOL     OW 6475   4.633   1.802   3.544
 1859SOL    HW1 6476   4.646   1.704   3.556
 1859SOL    HW2 6477   4.548   1.819   3.493
 1860SOL     OW 6478   0.269   1.547   6.045
 1860SOL    HW1 6479   0.334   1.497   5.988
 1860SOL    HW2 6480   0.181   1.499   6.046
 1861SOL     OW 6481   4.666   0.810   3.113
 1861SOL    HW1 6482   4.597   0.751   3.072
 1861SOL    HW2 6483   4.627   0.901   3.128
 1862SOL     OW 6484   1.638   6.532   6.766
 1862SOL    HW1 6485   1.673   6.475   6.841
 1862SOL    HW2 6486   1.538   6.530   6.767
 1863SOL     OW 6487   6.955   3.041   1.562
 1863SOL    HW1 6488   6.972   3.072   1.656
 1863SOL    HW2 6489   7.012   3.093   1.499
 1864SOL     OW 6490   3.776   5.834   4.004
 1864SOL    HW1 6491   3.807   5.920   4.044
 1864SOL    HW2 6492   3.798   5.759   4.065
 1865SOL     OW 6493   3.559   0.893   1.305
 1865SOL    HW1 6494   3.626   0.956   1.266
 1865SOL    HW2 6495   3.475   0.897   1.252
 1866SOL     OW 6496   6.484   4.942   3.971
 1866SOL    HW1 6497   6.554   4.939   4.041
 1866SOL    HW2 6498   6.480   5.034   3.931
 1867SOL     OW 6499   2.253   3.369   1.417
 1867SOL    HW1 6500   2.248   3.453   1.362
 1867SOL    HW2 6501   2.250   3.392   1.514
 1868SOL     OW 6502   5.126   3.357   5.823
 1868SOL    HW1 6503   5.027   3.347   5.834
 1868SOL    HW2 6504   5.146   3.405   5.738
 1869SOL     OW 6505   6.174   3.420   4.424
 1869SOL    HW1 6506   6.132   3.356   4.360
 1869SOL    HW2 6507   6.254   3.378   4.467
 1870SOL     OW 6508   1.113   3.066   4.808
 1870SOL    HW1 6509   1.130   2.990   4.745
 1870SOL    HW2 6510   1.148   3.042   4.898
 1871SOL     OW 6511   6.314   6.703   0.274
 1871SOL    HW1 6512   6.370   6.768   0.224
 1871SOL    HW2 6513   6.365   6.618   0.288
 1872SOL     OW 6514   4.100   2.422   0.731
 1872SOL    HW1 6515   4.054   2.387   0.649
 1872SOL    HW2 6516   4.044   2.401   0.811
 1873SOL     OW 6517   6.212   0.907   5.345
 1873SOL    HW1 6518   6.294   0.852   5.333
 1873SOL    HW2 6519   6.232   0.986   5.402
 1874SOL     OW 6520   0.833   0.723   6.935
 1874SOL    HW1 6521   0.859   0.725   0.002
 1874SOL    HW2 6522   0.759   0.657   6.923
 1875SOL     OW 6523   6.181   6.514   0.458
 1875SOL    HW1 6524   6.203   6.611   0.451
 1875SOL    HW2 6525   6.265   6.459   0.450
 1876SOL     OW 6526   4.869   6.392   6.366
 1876SOL    HW1 6527   4.779   6.435   6.376
 1876SOL    HW2 6528   4.901   6.402   6.272
 1877SOL     OW 6529   0.738   1.648   3.258
 1877SOL    HW1 6530   0.713   1.553   3.278
 1877SOL    HW2 6531   0.790   1.685   3.335
 1878SOL     OW 6532   0.121   4.243   3.791
 1878SOL    HW1 6533   0.191   4.177   3.817
 1878SOL    HW2 6534   0.082   4.218   3.703
 1879SOL     OW 6535   2.817   5.585   3.754
 1879SOL    HW1 6536   2.841   5.604   3.849
 1879SOL    HW2 6537   2.792   5.489   3.744
 1880SOL     OW 6538   0.818   2.522   3.320
 1880SOL    HW1 6539   0.916   2.542   3.324
 1880SOL    HW2 6540   0.797   2.473   3.235
 1881SOL     OW 6541   1.029   1.768   3.152
 1881SOL    HW1 6542   1.030   1.727   3.243
 1881SOL    HW2 6543   0.941   1.814   3.137
 1882SOL     OW 6544   1.031   5.318   0.090
 1882SOL    HW1 6545   0.995   5.411   0.091
 1882SOL    HW2 6546   0.979   5.263   0.025
 1883SOL     OW 6547   0.756   3.695   3.727
 1883SOL    HW1 6548   0.715   3.686   3.637
 1883SOL    HW2 6549   0.733   3.615   3.782
 1884SOL     OW 6550   5.441   1.548   1.141
 1884SOL    HW1 6551   5.532   1.580   1.165
 1884SOL    HW2 6552   5.443   1.507   1.050
 1885SOL     OW 6553   0.186   2.027   0.577
 1885SOL    HW1 6554   0.256   2.090   0.610
 1885SOL    HW2 6555   0.101   2.041   0.628
 1886SOL     OW 6556   1.899   2.001   0.229
 1886SOL    HW1 6557   1.804   1.994   0.200
 1886SOL    HW2 6558   1.955   1.939   0.175
 1887SOL     OW 6559   0.753   4.150   5.727
 1887SOL    HW1 6560   0.849   4.150   5.699
 1887SOL    HW2 6561   0.705   4.076   5.680
 1888SOL     OW 6562   2.426   1.563   6.516
 1888SOL    HW1 6563   2.372   1.620   6.578
 1888SOL    HW2 6564   2.521   1.559   6.547
 1889SOL     OW 6565   4.254   3.508   6.507
 1889SOL    HW1 6566   4.254   3.427   6.449
 1889SOL    HW2 6567   4.257   3.590   6.449
 1890SOL     OW 6568   1.413   5.669   5.949
 1890SOL    HW1 6569   1.400   5.749   5.890
 1890SOL    HW2 6570   1.467   5.600   5.900
 1891SOL     OW 6571   5.015   3.127   4.238
 1891SOL    HW1 6572   5.048   3.186   4.312
 1891SOL    HW2 6573   5.054   3.035   4.248
 1892SOL     OW 6574   3.605   6.408   1.089
 1892SOL    HW1 6575   3.524   6.463   1.109
 1892SOL    HW2 6576   3.581   6.339   1.020
 1893SOL     OW 6577   3.678   2.123   5.082
 1893SOL    HW1 6578   3.627   2.194   5.130
 1893SOL    HW2 6579   3.645   2.116   4.988
 1894SOL     OW 6580   4.669   3.500   1.312
 1894SOL    HW1 6581   4.677   3.437   1.234
 1894SOL    HW2 6582   4.574   3.529   1.322
 1895SOL     OW 6583   5.976   0.627   2.825
 1895SOL    HW1 6584   5.919   0.635   2.743
 1895SOL    HW2 6585   6.065   0.589   2.800
 1896SOL     OW 6586   6.953   1.176   3.022
 1896SOL    HW1 6587   7.016   1.140   3.090
 1896SOL    HW2 6588   6.948   1.276   3.031
 1897SOL     OW 6589   6.819   5.142   2.954
 1897SOL    HW1 6590   6.799   5.231   2.911
 1897SOL    HW2 6591   6.834   5.074   2.882
 1898SOL     OW 6592   3.810   6.246   1.845
 1898SOL    HW1 6593   3.746   6.319   1.871
 1898SOL    HW2 6594   3.855   6.271   1.759
 1899SOL     OW 6595   1.290   2.790   2.679
 1899SOL    HW1 6596   1.371   2.834   2.640
 1899SOL    HW2 6597   1.294   2.794   2.779
 1900SOL     OW 6598   0.961   0.204   5.886
 1900SOL    HW1 6599   1.032   0.191   5.817
 1900SOL    HW2 6600   0.880   0.244   5.843
 1901SOL     OW 6601   2.271   1.229   1.354
 1901SOL    HW1 6602   2.174   1.231   1.379
 1901SOL    HW2 6603   2.280   1.251   1.257
 1902SOL     OW 6604   2.081   2.337   4.874
 1902SOL    HW1 6605   2.131   2.391   4.806
 1902SOL    HW2 6606   2.121   2.245   4.879
 1903SOL     OW 6607   6.862   3.849   4.055
 1903SOL    HW1 6608   6.951   3.850   4.099
 1903SOL    HW2 6609   6.793   3.886   4.117
 1904SOL     OW 6610   6.598   0.442   4.440
 1904SOL    HW1 6611   6.521   0.436   4.504
 1904SOL    HW2 6612   6.632   0.536   4.438
 1905SOL     OW 6613   0.413   2.181   3.989
 1905SOL    HW1 6614   0.503   2.137   3.995
 1905SOL    HW2 6615   0.347   2.131   4.046
 1906SOL     OW 6616   2.491   6.476   5.610
 1906SOL    HW1 6617   2.485   6.397   5.672
 1906SOL    HW2 6618   2.490   6.444   5.516
 1907SOL     OW 6619   3.171   6.529   3.165
 1907SOL    HW1 6620   3.251   6.471   3.150
 1907SOL    HW2 6621   3.191   6.622   3.133
 1908SOL     OW 6622   4.416   0.698   4.836
 1908SOL    HW1 6623   4.376   0.703   4.744
 1908SOL    HW2 6624   4.503   0.648   4.832
 1909SOL     OW 6625   1.745   4.070   3.136
 1909SOL    HW1 6626   1.825   4.053   3.193
 1909SOL    HW2 6627   1.690   4.143   3.177
 1910SOL     OW 6628   6.084   2.366   6.779
 1910SOL    HW1 6629   6.016   2.330   6.716
 1910SOL    HW2 6630   6.065   2.333   6.871
 1911SOL     OW 6631   5.987   1.932   5.773
 1911SOL    HW1 6632   6.057   1.974   5.716
 1911SOL    HW2 6633   5.914   1.896   5.715
 1912SOL     OW 6634   4.049   6.513   2.095
 1912SOL    HW1 6635   4.092   6.574   2.028
 1912SOL    HW2 6636   4.061   6.418   2.065
 1913SOL     OW 6637   1.701   6.370   5.524
 1913SOL    HW1 6638   1.785   6.344   5.476
 1913SOL    HW2 6639   1.671   6.295   5.582
 1914SOL     OW 6640   2.907   2.974   0.123
 1914SOL    HW1 6641   2.977   2.945   0.058
 1914SOL    HW2 6642   2.939   2.961   0.216
 1915SOL     OW 6643   3.517   1.504   5.521
 1915SOL    HW1 6644   3.569   1.549   5.595
 1915SOL    HW2 6645   3.572   1.430   5.483
 1916SOL     OW 6646   3.468   5.935   0.644
 1916SOL    HW1 6647   3.499   5.893   0.729
 1916SOL    HW2 6648   3.542   5.991   0.606
 1917SOL     OW 6649   3.928   3.150   4.604
 1917SOL    HW1 6650   3.924   3.094   4.521
 1917SOL    HW2 6651   3.935   3.246   4.578
 1918SOL     OW 6652   6.530   6.944   6.718
 1918SOL    HW1 6653   6.602   6.975   6.779
 1918SOL    HW2 6654   6.566   6.936   6.625
 1919SOL     OW 6655   1.515   6.784   2.451
 1919SOL    HW1 6656   1.596   6.725   2.459
 1919SOL    HW2 6657   1.494   6.800   2.355
 1920SOL     OW 6658   0.778   5.059   3.750
 1920SOL    HW1 6659   0.681   5.083   3.743
 1920SOL    HW2 6660   0.828   5.102   3.675
 1921SOL     OW 6661   1.197   4.128   0.265
 1921SOL    HW1 6662   1.270   4.095   0.325
 1921SOL    HW2 6663   1.187   4.067   0.187
 1922SOL     OW 6664   3.633   4.166   1.032
 1922SOL    HW1 6665   3.567   4.219   1.085
 1922SOL    HW2 6666   3.726   4.199   1.053
 1923SOL     OW 6667   2.999   0.677   7.022
 1923SOL    HW1 6668   3.040   0.725   6.945
 1923SOL    HW2 6669   3.055   0.598   0.017
 1924SOL     OW 6670   5.774   5.588   2.352
 1924SOL    HW1 6671   5.713   5.594   2.431
 1924SOL    HW2 6672   5.802   5.493   2.339
 1925SOL     OW 6673   2.999   3.708   2.176
 1925SOL    HW1 6674   3.049   3.647   2.115
 1925SOL    HW2 6675   2.921   3.658   2.216
 1926SOL     OW 6676   1.076   6.923   4.118
 1926SOL    HW1 6677   0.998   6.880   4.163
 1926SOL    HW2 6678   1.159   6.907   4.172
 1927SOL     OW 6679   3.431   5.279   6.102
 1927SOL    HW1 6680   3.452   5.198   6.157
 1927SOL    HW2 6681   3.372   5.252   6.025
 1928SOL     OW 6682   6.867   3.306   6.033
 1928SOL    HW1 6683   6.904   3.395   6.060
 1928SOL    HW2 6684   6.828   3.312   5.941
 1929SOL     OW 6685   0.903   5.961   1.242
 1929SOL    HW1 6686   0.934   6.012   1.323
 1929SOL    HW2 6687   0.870   6.025   1.173
 1930SOL     OW 6688   4.061   4.230   0.053
 1930SOL    HW1 6689   4.073   4.151   0.113
 1930SOL    HW2 6690   3.973   4.223   0.006
 1931SOL     OW 6691   0.257   3.315   3.989
 1931SOL    HW1 6692   0.208   3.396   3.958
 1931SOL    HW2 6693   0.230   3.236   3.933
 1932SOL     OW 6694   4.932   4.184   2.214
 1932SOL    HW1 6695   4.966   4.206   2.123
 1932SOL    HW2 6696   4.993   4.223   2.283
 1933SOL     OW 6697   3.250   4.655   0.354
 1933SOL    HW1 6698   3.321   4.633   0.421
 1933SOL    HW2 6699   3.215   4.571   0.313
 1934SOL     OW 6700   0.299   0.674   5.296
 1934SOL    HW1 6701   0.329   0.763   5.261
 1934SOL    HW2 6702   0.310   0.605   5.225
 1935SOL     OW 6703   3.329   0.270   4.865
 1935SOL    HW1 6704   3.261   0.273   4.792
 1935SOL    HW2 6705   3.329   0.357   4.914
 1936SOL     OW 6706   5.968   4.163   4.149
 1936SOL    HW1 6707   6.009   4.247   4.113
 1936SOL    HW2 6708   5.868   4.169   4.141
 1937SOL     OW 6709   4.503   6.546   1.119
 1937SOL    HW1 6710   4.523   6.453   1.148
 1937SOL    HW2 6711   4.417   6.547   1.067
 1938SOL     OW 6712   3.793   1.205   2.728
 1938SOL    HW1 6713   3.838   1.126   2.686
 1938SOL    HW2 6714   3.856   1.248   2.793
 1939SOL     OW 6715   0.247   6.382   4.657
 1939SOL    HW1 6716   0.320   6.375   4.725
 1939SOL    HW2 6717   0.166   6.334   4.689
 1940SOL     OW 6718   5.019   4.777   6.152
 1940SOL    HW1 6719   5.024   4.856   6.213
 1940SOL    HW2 6720   4.962   4.706   6.193
 1941SOL     OW 6721   0.209   3.984   3.398
 1941SOL    HW1 6722   0.164   3.932   3.471
 1941SOL    HW2 6723   0.304   3.953   3.389
 1942SOL     OW 6724   6.154   0.624   3.249
 1942SOL    HW1 6725   6.099   0.708   3.244
 1942SOL    HW2 6726   6.223   0.626   3.177
 1943SOL     OW 6727   2.960   5.904   2.813
 1943SOL    HW1 6728   3.018   5.927   2.734
 1943SOL    HW2 6729   2.864   5.914   2.788
 1944SOL     OW 6730   5.312   2.274   6.723
 1944SOL    HW1 6731   5.309   2.195   6.661
 1944SOL    HW2 6732   5.230   2.276   6.779
 1945SOL     OW 6733   4.183   5.880   2.363
 1945SOL    HW1 6734   4.099   5.885   2.418
 1945SOL    HW2 6735   4.257   5.843   2.419
 1946SOL     OW 6736   6.020   0.645   0.748
 1946SOL    HW1 6737   5.961   0.590   0.807
 1946SOL    HW2 6738   5.968   0.720   0.708
 1947SOL     OW 6739   4.865   6.821   4.022
 1947SOL    HW1 6740   4.917   6.736   4.010
 1947SOL    HW2 6741   4.862   6.843   4.120
 1948SOL     OW 6742   6.148   6.021   4.044
 1948SOL    HW1 6743   6.165   6.072   4.128
 1948SOL    HW2 6744   6.224   5.959   4.026
 1949SOL     OW 6745   4.449   4.174   5.979
 1949SOL    HW1 6746   4.451   4.178   5.880
 1949SOL    HW2 6747   4.536   4.137   6.013
 1950SOL     OW 6748   3.417   4.669   1.071
 1950SOL    HW1 6749   3.475   4.592   1.043
 1950SOL    HW2 6750   3.367   4.704   0.992
 1951SOL     OW 6751   6.484   3.787   0.875
 1951SOL    HW1 6752   6.581   3.764   0.881
 1951SOL    HW2 6753   6.452   3.770   0.781
 1952SOL     OW 6754   3.970   2.345   0.441
 1952SOL    HW1 6755   3.886   2.344   0.387
 1952SOL    HW2 6756   4.022   2.427   0.420
 1953SOL     OW 6757   6.266   2.925   0.329
 1953SOL    HW1 6758   6.196   2.900   0.397
 1953SOL    HW2 6759   6.240   3.012   0.286
 1954SOL     OW 6760   5.449   0.826   4.092
 1954SOL    HW1 6761   5.510   0.752   4.118
 1954SOL    HW2 6762   5.470   0.856   3.999
 1955SOL     OW 6763   1.396   1.332   2.440
 1955SOL    HW1 6764   1.429   1.425   2.452
 1955SOL    HW2 6765   1.340   1.305   2.519
 1956SOL     OW 6766   5.604   0.180   2.387
 1956SOL    HW1 6767   5.693   0.142   2.363
 1956SOL    HW2 6768   5.552   0.112   2.439
 1957SOL     OW 6769   6.569   5.674   5.371
 1957SOL    HW1 6770   6.576   5.630   5.461
 1957SOL    HW2 6771   6.505   5.623   5.314
 1958SOL     OW 6772   5.619   2.877   3.091
 1958SOL    HW1 6773   5.687   2.883   3.164
 1958SOL    HW2 6774   5.535   2.836   3.126
 1959SOL     OW 6775   0.201   1.386   6.334
 1959SOL    HW1 6776   0.286   1.337   6.318
 1959SOL    HW2 6777   0.202   1.473   6.285
 1960SOL     OW 6778   7.006   3.974   1.217
 1960SOL    HW1 6779   6.917   3.932   1.231
 1960SOL    HW2 6780   6.994   4.068   1.184
 1961SOL     OW 6781   6.132   4.860   4.260
 1961SOL    HW1 6782   6.147   4.790   4.330
 1961SOL    HW2 6783   6.087   4.939   4.302
 1962SOL     OW 6784   2.543   6.481   3.400
 1962SOL    HW1 6785   2.601   6.554   3.364
 1962SOL    HW2 6786   2.530   6.411   3.329
 1963SOL     OW 6787   0.771   1.250   1.030
 1963SOL    HW1 6788   0.685   1.269   0.982
 1963SOL    HW2 6789   0.798   1.332   1.082
 1964SOL     OW 6790   4.474   3.243   1.640
 1964SOL    HW1 6791   4.513   3.174   1.701
 1964SOL    HW2 6792   4.528   3.327   1.645
 1965SOL     OW 6793   0.994   3.745   3.575
 1965SOL    HW1 6794   1.062   3.813   3.602
 1965SOL    HW2 6795   0.911   3.757   3.629
 1966SOL     OW 6796   6.705   5.928   5.897
 1966SOL    HW1 6797   6.795   5.910   5.937
 1966SOL    HW2 6798   6.693   6.026   5.887
 1967SOL     OW 6799   4.635   2.377   4.880
 1967SOL    HW1 6800   4.625   2.477   4.883
 1967SOL    HW2 6801   4.709   2.353   4.817
 1968SOL     OW 6802   3.293   6.276   0.534
 1968SOL    HW1 6803   3.360   6.207   0.506
 1968SOL    HW2 6804   3.233   6.237   0.605
 1969SOL     OW 6805   0.787   1.769   1.738
 1969SOL    HW1 6806   0.720   1.825   1.787
 1969SOL    HW2 6807   0.802   1.684   1.787
 1970SOL     OW 6808   2.629   0.155   6.186
 1970SOL    HW1 6809   2.553   0.185   6.245
 1970SOL    HW2 6810   2.695   0.230   6.177
 1971SOL     OW 6811   6.715   0.218   6.185
 1971SOL    HW1 6812   6.647   0.146   6.174
 1971SOL    HW2 6813   6.671   0.301   6.220
 1972SOL     OW 6814   5.562   2.544   3.006
 1972SOL    HW1 6815   5.583   2.582   2.915
 1972SOL    HW2 6816   5.646   2.538   3.059
 1973SOL     OW 6817   2.486   3.463   0.256
 1973SOL    HW1 6818   2.508   3.514   0.339
 1973SOL    HW2 6819   2.388   3.446   0.251
 1974SOL     OW 6820   5.992   6.388   4.264
 1974SOL    HW1 6821   5.948   6.441   4.192
 1974SOL    HW2 6822   6.051   6.448   4.318
 1975SOL     OW 6823   2.502   1.527   3.071
 1975SOL    HW1 6824   2.523   1.440   3.024
 1975SOL    HW2 6825   2.432   1.511   3.140
 1976SOL     OW 6826   0.377   5.862   0.186
 1976SOL    HW1 6827   0.294   5.813   0.159
 1976SOL    HW2 6828   0.438   5.871   0.107
 1977SOL     OW 6829   1.327   3.116   3.465
 1977SOL    HW1 6830   1.388   3.169   3.524
 1977SOL    HW2 6831   1.258   3.071   3.522
 1978SOL     OW 6832   0.940   1.056   3.573
 1978SOL    HW1 6833   0.921   0.961   3.549
 1978SOL    HW2 6834   1.001   1.059   3.653
 1979SOL     OW 6835   6.364   4.284   5.377
 1979SOL    HW1 6836   6.445   4.256   5.430
 1979SOL    HW2 6837   6.380   4.267   5.280
 1980SOL     OW 6838   2.855   0.714   5.986
 1980SOL    HW1 6839   2.813   0.733   5.897
 1980SOL    HW2 6840   2.787   0.675   6.047
 1981SOL     OW 6841   6.356   2.451   2.580
 1981SOL    HW1 6842   6.382   2.547   2.594
 1981SOL    HW2 6843   6.260   2.445   2.554
 1982SOL     OW 6844   0.203   3.705   5.296
 1982SOL    HW1 6845   0.126   3.673   5.351
 1982SOL    HW2 6846   0.208   3.805   5.301
 1983SOL     OW 6847   0.635   1.209   3.040
 1983SOL    HW1 6848   0.540   1.221   3.070
 1983SOL    HW2 6849   0.680   1.298   3.036
 1984SOL     OW 6850   5.638   1.615   4.707
 1984SOL    HW1 6851   5.580   1.571   4.639
 1984SOL    HW2 6852   5.684   1.546   4.763
 1985SOL     OW 6853   0.703   6.946   2.415
 1985SOL    HW1 6854   0.749   6.866   2.454
 1985SOL    HW2 6855   0.605   6.938   2.428
 1986SOL     OW 6856   1.655   0.568   6.908
 1986SOL    HW1 6857   1.556   0.560   6.926
 1986SOL    HW2 6858   1.692   0.478   6.885
 1987SOL     OW 6859   1.197   2.913   0.987
 1987SOL    HW1 6860   1.231   2.839   0.930
 1987SOL    HW2 6861   1.242   2.909   1.076
 1988SOL     OW 6862   5.612   4.980   1.139
 1988SOL    HW1 6863   5.527   4.964   1.090
 1988SOL    HW2 6864   5.619   5.077   1.165
 1989SOL     OW 6865   2.360   6.760   4.687
 1989SOL    HW1 6866   2.454   6.788   4.668
 1989SOL    HW2 6867   2.360   6.694   4.762
 1990SOL     OW 6868   2.964   6.412   0.503
 1990SOL    HW1 6869   2.963   6.349   0.581
 1990SOL    HW2 6870   3.006   6.367   0.424
 1991SOL     OW 6871   4.349   4.818   6.254
 1991SOL    HW1 6872   4.435   4.803   6.301
 1991SOL    HW2 6873   4.355   4.902   6.200
 1992SOL     OW 6874   0.548   0.218   6.786
 1992SOL    HW1 6875   0.600   0.219   6.871
 1992SOL    HW2 6876   0.610   0.233   6.709
 1993SOL     OW 6877   3.638   3.445   4.604
 1993SOL    HW1 6878   3.664   3.428   4.700
 1993SOL    HW2 6879   3.649   3.361   4.552
 1994SOL     OW 6880   1.160   1.569   0.248
 1994SOL    HW1 6881   1.193   1.647   0.194
 1994SOL    HW2 6882   1.232   1.540   0.311
 1995SOL     OW 6883   6.105   2.210   2.318
 1995SOL    HW1 6884   6.059   2.137   2.266
 1995SOL    HW2 6885   6.203   2.192   2.320
 1996SOL     OW 6886   2.463   3.884   0.713
 1996SOL    HW1 6887   2.443   3.978   0.740
 1996SOL    HW2 6888   2.382   3.827   0.726
 1997SOL     OW 6889   4.449   0.551   5.101
 1997SOL    HW1 6890   4.355   0.518   5.101
 1997SOL    HW2 6891   4.478   0.572   5.008
 1998SOL     OW 6892   3.413   3.699   6.039
 1998SOL    HW1 6893   3.432   3.609   6.079
 1998SOL    HW2 6894   3.416   3.768   6.111
 1999SOL     OW 6895   3.676   6.461   1.590
 1999SOL    HW1 6896   3.645   6.371   1.620
 1999SOL    HW2 6897   3.758   6.452   1.534
 2000SOL     OW 6898   4.326   2.254   5.281
 2000SOL    HW1 6899   4.377   2.211   5.356
 2000SOL    HW2 6900   4.387   2.269   5.204
 2001SOL     OW 6901   3.575   1.521   1.744
 2001SOL    HW1 6902   3.658   1.571   1.769
 2001SOL    HW2 6903   3.600   1.442   1.688
 2002SOL     OW 6904   0.931   4.984   5.797
 2002SOL    HW1 6905   0.847   5.037   5.783
 2002SOL    HW2 6906   1.006   5.046   5.822
 2003SOL     OW 6907   5.924   6.545   3.469
 2003SOL    HW1 6908   5.925   6.561   3.567
 2003SOL    HW2 6909   5.842   6.588   3.429
 2004SOL     OW 6910   4.092   1.472   5.250
 2004SOL    HW1 6911   4.016   1.509   5.303
 2004SOL    HW2 6912   4.065   1.464   5.154
 2005SOL     OW 6913   1.144   4.203   6.979
 2005SOL    HW1 6914   1.180   4.245   6.896
 2005SOL    HW2 6915   1.210   4.211   0.023
 2006SOL     OW 6916   5.515   4.948   4.366
 2006SOL    HW1 6917   5.540   5.025   4.308
 2006SOL    HW2 6918   5.525   4.975   4.462
 2007SOL     OW 6919   4.433   5.030   0.806
 2007SOL    HW1 6920   4.488   5.111   0.787
 2007SOL    HW2 6921   4.363   5.052   0.874
 2008SOL     OW 6922   1.168   5.427   3.101
 2008SOL    HW1 6923   1.168   5.442   3.002
 2008SOL    HW2 6924   1.259   5.394   3.129
 2009SOL     OW 6925   6.269   0.108   1.568
 2009SOL    HW1 6926   6.232   0.026   1.524
 2009SOL    HW2 6927   6.228   0.189   1.526
 2010SOL     OW 6928   1.964   1.711   1.036
 2010SOL    HW1 6929   1.925   1.802   1.055
 2010SOL    HW2 6930   1.915   1.643   1.091
 2011SOL     OW 6931   6.550   1.343   5.096
 2011SOL    HW1 6932   6.470   1.381   5.049
 2011SOL    HW2 6933   6.631   1.396   5.071
 2012SOL     OW 6934   1.589   2.969   1.718
 2012SOL    HW1 6935   1.566   2.910   1.796
 2012SOL    HW2 6936   1.562   3.063   1.738
 2013SOL     OW 6937   6.257   0.857   3.408
 2013SOL    HW1 6938   6.280   0.775   3.462
 2013SOL    HW2 6939   6.162   0.852   3.380
 2014SOL     OW 6940   2.118   5.335   2.719
 2014SOL    HW1 6941   2.151   5.426   2.745
 2014SOL    HW2 6942   2.031   5.316   2.765
 2015SOL     OW 6943   2.232   1.802   0.620
 2015SOL    HW1 6944   2.132   1.802   0.625
 2015SOL    HW2 6945   2.262   1.854   0.540
 2016SOL     OW 6946   1.065   5.315   5.144
 2016SOL    HW1 6947   1.002   5.332   5.220
 2016SOL    HW2 6948   1.053   5.220   5.113
 2017SOL     OW 6949   2.475   6.921   4.438
 2017SOL    HW1 6950   2.483   6.992   4.368
 2017SOL    HW2 6951   2.553   6.859   4.432
 2018SOL     OW 6952   5.748   0.132   6.099
 2018SOL    HW1 6953   5.727   0.202   6.168
 2018SOL    HW2 6954   5.663   0.089   6.070
 2019SOL     OW 6955   4.995   2.467   2.417
 2019SOL    HW1 6956   5.038   2.495   2.332
 2019SOL    HW2 6957   4.999   2.368   2.426
 2020SOL     OW 6958   0.740   5.605   5.445
 2020SOL    HW1 6959   0.828   5.648   5.462
 2020SOL    HW2 6960   0.709   5.627   5.352
 2021SOL     OW 6961   2.102   5.335   3.174
 2021SOL    HW1 6962   2.194   5.303   3.151
 2021SOL    HW2 6963   2.039   5.314   3.100
 2022SOL     OW 6964   1.882   3.228   3.382
 2022SOL    HW1 6965   1.971   3.183   3.373
 2022SOL    HW2 6966   1.831   3.220   3.297
 2023SOL     OW 6967   6.338   0.985   6.312
 2023SOL    HW1 6968   6.345   0.953   6.217
 2023SOL    HW2 6969   6.250   0.957   6.349
 2024SOL     OW 6970   6.992   0.064   3.426
 2024SOL    HW1 6971   6.967   0.028   3.516
 2024SOL    HW2 6972   6.957   0.157   3.416
 2025SOL     OW 6973   2.590   2.337   2.279
 2025SOL    HW1 6974   2.665   2.367   2.338
 2025SOL    HW2 6975   2.628   2.299   2.194
 2026SOL     OW 6976   0.905   2.677   5.953
 2026SOL    HW1 6977   0.918   2.737   5.875
 2026SOL    HW2 6978   0.925   2.727   6.038
 2027SOL     OW 6979   0.844   1.505   0.311
 2027SOL    HW1 6980   0.833   1.406   0.310
 2027SOL    HW2 6981   0.941   1.528   0.309
 2028SOL     OW 6982   3.050   1.153   5.991
 2028SOL    HW1 6983   3.114   1.085   5.955
 2028SOL    HW2 6984   2.962   1.144   5.944
 2029SOL     OW 6985   6.589   0.709   0.793
 2029SOL    HW1 6986   6.682   0.707   0.755
 2029SOL    HW2 6987   6.533   0.640   0.747
 2030SOL     OW 6988   2.253   0.438   3.432
 2030SOL    HW1 6989   2.314   0.363   3.403
 2030SOL    HW2 6990   2.303   0.499   3.493
 2031SOL     OW 6991   5.879   6.122   2.047
 2031SOL    HW1 6992   5.787   6.084   2.059
 2031SOL    HW2 6993   5.884   6.211   2.092
 2032SOL     OW 6994   4.241   6.844   1.580
 2032SOL    HW1 6995   4.189   6.759   1.574
 2032SOL    HW2 6996   4.179   6.921   1.592
 2033SOL     OW 6997   3.782   4.284   6.884
 2033SOL    HW1 6998   3.724   4.255   6.961
 2033SOL    HW2 6999   3.776   4.216   6.811
 2034SOL     OW 7000   3.484   6.540   4.457
 2034SOL    HW1 7001   3.442   6.590   4.533
 2034SOL    HW2 7002   3.558   6.483   4.492
 2035SOL     OW 7003   0.232   0.418   2.082
 2035SOL    HW1 7004   0.147   0.470   2.073
 2035SOL    HW2 7005   0.243   0.389   2.177
 2036SOL     OW 7006   1.122   5.140   2.787
 2036SOL    HW1 7007   1.204   5.112   2.837
 2036SOL    HW2 7008   1.105   5.237   2.801
 2037SOL     OW 7009   0.628   2.745   5.887
 2037SOL    HW1 7010   0.677   2.825   5.853
 2037SOL    HW2 7011   0.650   2.666   5.829
 2038SOL     OW 7012   1.860   2.123   6.751
 2038SOL    HW1 7013   1.813   2.160   6.831
 2038SOL    HW2 7014   1.959   2.139   6.760
 2039SOL     OW 7015   0.312   5.468   2.999
 2039SOL    HW1 7016   0.214   5.451   2.999
 2039SOL    HW2 7017   0.361   5.382   2.985
 2040SOL     OW 7018   3.994   3.125   5.272
 2040SOL    HW1 7019   3.977   3.044   5.329
 2040SOL    HW2 7020   3.940   3.118   5.188
 2041SOL     OW 7021   6.969   5.936   5.976
 2041SOL    HW1 7022   6.997   5.896   6.064
 2041SOL    HW2 7023   7.029   6.012   5.953
 2042SOL     OW 7024   5.910   4.495   6.859
 2042SOL    HW1 7025   5.906   4.408   6.809
 2042SOL    HW2 7026   5.854   4.562   6.812
 2043SOL     OW 7027   6.434   4.337   3.071
 2043SOL    HW1 7028   6.408   4.344   2.975
 2043SOL    HW2 7029   6.399   4.417   3.121
 2044SOL     OW 7030   5.101   7.009   1.275
 2044SOL    HW1 7031   5.070   6.930   1.329
 2044SOL    HW2 7032   5.188   0.012   1.312
 2045SOL     OW 7033   3.130   4.870   3.982
 2045SOL    HW1 7034   3.159   4.965   3.971
 2045SOL    HW2 7035   3.131   4.824   3.894
 2046SOL     OW 7036   0.095   1.395   4.022
 2046SOL    HW1 7037   0.111   1.330   4.097
 2046SOL    HW2 7038   0.068   1.484   4.060
 2047SOL     OW 7039   5.343   2.110   0.310
 2047SOL    HW1 7040   5.322   2.200   0.349
 2047SOL    HW2 7041   5.375   2.049   0.382
 2048SOL     OW 7042   1.502   5.944   0.444
 2048SOL    HW1 7043   1.559   5.862   0.439
 2048SOL    HW2 7044   1.500   5.977   0.539
 2049SOL     OW 7045   4.853   1.829   6.341
 2049SOL    HW1 7046   4.801   1.904   6.383
 2049SOL    HW2 7047   4.950   1.843   6.357
 2050SOL     OW 7048   0.634   2.991   2.859
 2050SOL    HW1 7049   0.667   2.957   2.771
 2050SOL    HW2 7050   0.615   2.913   2.919
 2051SOL     OW 7051   1.286   6.020   1.012
 2051SOL    HW1 7052   1.298   5.921   1.003
 2051SOL    HW2 7053   1.190   6.041   1.032
 2052SOL     OW 7054   0.824   4.156   1.028
 2052SOL    HW1 7055   0.753   4.149   1.098
 2052SOL    HW2 7056   0.856   4.064   1.003
 2053SOL     OW 7057   5.496   6.831   5.220
 2053SOL    HW1 7058   5.435   6.900   5.260
 2053SOL    HW2 7059   5.442   6.752   5.193
 2054SOL     OW 7060   4.087   3.312   1.925
 2054SOL    HW1 7061   4.122   3.257   2.001
 2054SOL    HW2 7062   4.027   3.383   1.960
 2055SOL     OW 7063   6.106   3.396   3.526
 2055SOL    HW1 7064   6.104   3.358   3.433
 2055SOL    HW2 7065   6.018   3.379   3.571
 2056SOL     OW 7066   2.369   0.454   2.770
 2056SOL    HW1 7067   2.297   0.387   2.786
 2056SOL    HW2 7068   2.426   0.461   2.852
 2057SOL     OW 7069   5.212   3.261   3.745
 2057SOL    HW1 7070   5.257   3.172   3.755
 2057SOL    HW2 7071   5.144   3.272   3.817
 2058SOL     OW 7072   0.815   1.950   3.130
 2058SOL    HW1 7073   0.735   1.992   3.173
 2058SOL    HW2 7074   0.810   1.962   3.031
 2059SOL     OW 7075   2.666   5.925   6.301
 2059SOL    HW1 7076   2.632   5.846   6.353
 2059SOL    HW2 7077   2.745   5.897   6.247
 2060SOL     OW 7078   5.903   4.662   0.811
 2060SOL    HW1 7079   5.861   4.590   0.867
 2060SOL    HW2 7080   5.929   4.624   0.722
 2061SOL     OW 7081   0.514   2.002   3.337
 2061SOL    HW1 7082   0.505   1.927   3.271
 2061SOL    HW2 7083   0.568   1.971   3.416
 2062SOL     OW 7084   6.149   0.294   3.741
 2062SOL    HW1 7085   6.102   0.275   3.655
 2062SOL    HW2 7086   6.189   0.385   3.739
 2063SOL     OW 7087   1.793   0.030   6.539
 2063SOL    HW1 7088   1.751   0.120   6.555
 2063SOL    HW2 7089   1.772   7.029   6.447
 2064SOL     OW 7090   0.618   2.580   5.646
 2064SOL    HW1 7091   0.634   2.643   5.571
 2064SOL    HW2 7092   0.521   2.579   5.670
 2065SOL     OW 7093   6.600   2.790   4.390
 2065SOL    HW1 7094   6.595   2.847   4.308
 2065SOL    HW2 7095   6.646   2.704   4.368
 2066SOL     OW 7096   0.833   5.615   3.169
 2066SOL    HW1 7097   0.880   5.560   3.237
 2066SOL    HW2 7098   0.748   5.652   3.208
 2067SOL     OW 7099   6.802   5.541   0.834
 2067SOL    HW1 7100   6.885   5.534   0.889
 2067SOL    HW2 7101   6.744   5.461   0.851
 2068SOL     OW 7102   1.364   1.419   5.303
 2068SOL    HW1 7103   1.454   1.448   5.336
 2068SOL    HW2 7104   1.325   1.353   5.367
 2069SOL     OW 7105   0.874   3.514   3.103
 2069SOL    HW1 7106   0.913   3.431   3.143
 2069SOL    HW2 7107   0.886   3.590   3.167
 2070SOL     OW 7108   1.410   0.862   1.955
 2070SOL    HW1 7109   1.323   0.843   2.000
 2070SOL    HW2 7110   1.411   0.957   1.923
 2071SOL     OW 7111   5.686   5.943   5.098
 2071SOL    HW1 7112   5.778   5.905   5.090
 2071SOL    HW2 7113   5.636   5.893   5.169
 2072SOL     OW 7114   4.137   6.924   2.894
 2072SOL    HW1 7115   4.061   6.955   2.951
 2072SOL    HW2 7116   4.221   6.972   2.919
 2073SOL     OW 7117   3.992   6.817   4.305
 2073SOL    HW1 7118   4.047   6.896   4.278
 2073SOL    HW2 7119   4.005   6.800   4.403
 2074SOL     OW 7120   1.683   2.975   0.320
 2074SOL    HW1 7121   1.651   2.881   0.337
 2074SOL    HW2 7122   1.775   2.972   0.281
 2075SOL     OW 7123   5.251   3.160   1.415
 2075SOL    HW1 7124   5.230   3.170   1.512
 2075SOL    HW2 7125   5.343   3.196   1.397
 2076SOL     OW 7126   5.248   0.273   6.668
 2076SOL    HW1 7127   5.172   0.244   6.610
 2076SOL    HW2 7128   5.289   0.193   6.711
 2077SOL     OW 7129   5.762   2.693   2.760
 2077SOL    HW1 7130   5.684   2.642   2.723
 2077SOL    HW2 7131   5.740   2.790   2.767
 2078SOL     OW 7132   1.204   5.386   5.969
 2078SOL    HW1 7133   1.291   5.387   5.919
 2078SOL    HW2 7134   1.222   5.386   6.067
 2079SOL     OW 7135   5.302   2.165   3.837
 2079SOL    HW1 7136   5.236   2.165   3.913
 2079SOL    HW2 7137   5.257   2.199   3.754
 2080SOL     OW 7138   1.808   0.727   4.609
 2080SOL    HW1 7139   1.778   0.764   4.696
 2080SOL    HW2 7140   1.860   0.643   4.624
 2081SOL     OW 7141   1.360   5.137   3.950
 2081SOL    HW1 7142   1.351   5.209   3.881
 2081SOL    HW2 7143   1.285   5.072   3.941
 2082SOL     OW 7144   0.289   7.028   3.460
 2082SOL    HW1 7145   0.198   0.027   3.491
 2082SOL    HW2 7146   0.287   7.014   3.361
 2083SOL     OW 7147   6.128   4.893   6.490
 2083SOL    HW1 7148   6.101   4.916   6.584
 2083SOL    HW2 7149   6.226   4.872   6.488
 2084SOL     OW 7150   1.671   3.649   3.888
 2084SOL    HW1 7151   1.706   3.632   3.980
 2084SOL    HW2 7152   1.656   3.562   3.841
 2085SOL     OW 7153   4.376   0.540   6.773
 2085SOL    HW1 7154   4.327   0.488   6.843
 2085SOL    HW2 7155   4.456   0.488   6.743
 2086SOL     OW 7156   3.773   6.834   5.562
 2086SOL    HW1 7157   3.684   6.826   5.606
 2086SOL    HW2 7158   3.809   6.927   5.575
 2087SOL     OW 7159   4.776   0.206   1.326
 2087SOL    HW1 7160   4.783   0.306   1.334
 2087SOL    HW2 7161   4.683   0.177   1.350
 2088SOL     OW 7162   2.309   5.920   7.026
 2088SOL    HW1 7163   2.246   5.914   6.949
 2088SOL    HW2 7164   2.399   5.951   6.993
 2089SOL     OW 7165   5.386   2.397   6.134
 2089SOL    HW1 7166   5.293   2.370   6.159
 2089SOL    HW2 7167   5.432   2.437   6.213
 2090SOL     OW 7168   3.617   3.264   6.012
 2090SOL    HW1 7169   3.580   3.336   6.072
 2090SOL    HW2 7170   3.598   3.287   5.917
 2091SOL     OW 7171   6.999   5.625   0.614
 2091SOL    HW1 7172   6.957   5.544   0.654
 2091SOL    HW2 7173   0.069   5.618   0.621
 2092SOL     OW 7174   5.816   4.266   6.729
 2092SOL    HW1 7175   5.817   4.172   6.764
 2092SOL    HW2 7176   5.738   4.277   6.667
 2093SOL     OW 7177   2.624   1.984   1.226
 2093SOL    HW1 7178   2.622   2.066   1.284
 2093SOL    HW2 7179   2.685   2.000   1.148
 2094SOL     OW 7180   5.997   1.933   1.529
 2094SOL    HW1 7181   6.095   1.938   1.544
 2094SOL    HW2 7182   5.949   1.966   1.611
 2095SOL     OW 7183   5.300   6.788   4.885
 2095SOL    HW1 7184   5.382   6.844   4.897
 2095SOL    HW2 7185   5.325   6.702   4.839
 2096SOL     OW 7186   4.662   4.333   2.689
 2096SOL    HW1 7187   4.712   4.295   2.612
 2096SOL    HW2 7188   4.680   4.279   2.771
 2097SOL     OW 7189   2.925   2.881   6.583
 2097SOL    HW1 7190   2.910   2.819   6.506
 2097SOL    HW2 7191   2.872   2.848   6.662
 2098SOL     OW 7192   4.350   5.681   2.518
 2098SOL    HW1 7193   4.412   5.758   2.530
 2098SOL    HW2 7194   4.396   5.610   2.465
 2099SOL     OW 7195   2.369   3.231   6.059
 2099SOL    HW1 7196   2.459   3.188   6.050
 2099SOL    HW2 7197   2.298   3.163   6.049
 2100SOL     OW 7198   4.654   2.619   6.228
 2100SOL    HW1 7199   4.617   2.536   6.188
 2100SOL    HW2 7200   4.685   2.601   6.322
 2101SOL     OW 7201   1.054   6.455   2.745
 2101SOL    HW1 7202   1.008   6.530   2.698
 2101SOL    HW2 7203   1.117   6.493   2.814
 2102SOL     OW 7204   6.510   4.683   2.456
 2102SOL    HW1 7205   6.565   4.764   2.435
 2102SOL    HW2 7206   6.415   4.711   2.475
 2103SOL     OW 7207   4.069   4.477   5.557
 2103SOL    HW1 7208   4.081   4.524   5.645
 2103SOL    HW2 7209   4.134   4.401   5.552
 2104SOL     OW 7210   2.174   3.687   1.199
 2104SOL    HW1 7211   2.268   3.662   1.220
 2104SOL    HW2 7212   2.157   3.672   1.101
 2105SOL     OW 7213   5.180   5.741   5.675
 2105SOL    HW1 7214   5.137   5.655   5.702
 2105SOL    HW2 7215   5.159   5.812   5.742
 2106SOL     OW 7216   4.725   4.316   1.341
 2106SOL    HW1 7217   4.731   4.223   1.378
 2106SOL    HW2 7218   4.724   4.382   1.416
 2107SOL     OW 7219   4.910   2.361   5.528
 2107SOL    HW1 7220   4.972   2.437   5.507
 2107SOL    HW2 7221   4.959   2.275   5.514
 2108SOL     OW 7222   6.253   5.707   5.417
 2108SOL    HW1 7223   6.290   5.734   5.505
 2108SOL    HW2 7224   6.197   5.781   5.380
 2109SOL     OW 7225   4.439   6.205   2.501
 2109SOL    HW1 7226   4.348   6.226   2.537
 2109SOL    HW2 7227   4.503   6.276   2.530
 2110SOL     OW 7228   2.422   1.469   6.938
 2110SOL    HW1 7229   2.405   1.437   6.845
 2110SOL    HW2 7230   2.514   1.509   6.943
 2111SOL     OW 7231   1.296   2.306   6.847
 2111SOL    HW1 7232   1.221   2.359   6.806
 2111SOL    HW2 7233   1.279   2.209   6.831
 2112SOL     OW 7234   5.514   3.388   0.473
 2112SOL    HW1 7235   5.503   3.322   0.546
 2112SOL    HW2 7236   5.563   3.346   0.397
 2113SOL     OW 7237   1.998   2.181   5.431
 2113SOL    HW1 7238   2.070   2.133   5.380
 2113SOL    HW2 7239   1.928   2.213   5.367
 2114SOL     OW 7240   1.621   2.075   0.169
 2114SOL    HW1 7241   1.572   1.994   0.200
 2114SOL    HW2 7242   1.607   2.150   0.233
 2115SOL     OW 7243   2.112   3.304   2.555
 2115SOL    HW1 7244   2.145   3.273   2.466
 2115SOL    HW2 7245   2.032   3.249   2.581
 2116SOL     OW 7246   0.203   4.938   3.212
 2116SOL    HW1 7247   0.120   4.958   3.263
 2116SOL    HW2 7248   0.190   4.854   3.158
 2117SOL     OW 7249   7.001   5.145   1.639
 2117SOL    HW1 7250   0.037   5.107   1.704
 2117SOL    HW2 7251   6.929   5.193   1.689
 2118SOL     OW 7252   6.083   3.738   1.866
 2118SOL    HW1 7253   6.100   3.694   1.778
 2118SOL    HW2 7254   6.057   3.833   1.852
 2119SOL     OW 7255   1.509   6.292   1.131
 2119SOL    HW1 7256   1.486   6.287   1.228
 2119SOL    HW2 7257   1.554   6.207   1.102
 2120SOL     OW 7258   6.800   5.262   4.178
 2120SOL    HW1 7259   6.776   5.293   4.086
 2120SOL    HW2 7260   6.897   5.238   4.180
 2121SOL     OW 7261   1.511   4.113   5.701
 2121SOL    HW1 7262   1.558   4.173   5.765
 2121SOL    HW2 7263   1.579   4.060   5.649
 2122SOL     OW 7264   5.638   3.828   6.027
 2122SOL    HW1 7265   5.701   3.881   5.970
 2122SOL    HW2 7266   5.611   3.745   5.978
 2123SOL     OW 7267   6.728   6.199   2.287
 2123SOL    HW1 7268   6.800   6.220   2.222
 2123SOL    HW2 7269   6.662   6.136   2.246
 2124SOL     OW 7270   3.001   1.914   1.776
 2124SOL    HW1 7271   2.964   1.992   1.726
 2124SOL    HW2 7272   3.003   1.934   1.874
 2125SOL     OW 7273   2.137   0.725   2.038
 2125SOL    HW1 7274   2.050   0.675   2.035
 2125SOL    HW2 7275   2.131   0.804   1.978
 2126SOL     OW 7276   3.678   1.539   6.441
 2126SOL    HW1 7277   3.600   1.503   6.391
 2126SOL    HW2 7278   3.726   1.606   6.384
 2127SOL     OW 7279   0.350   3.714   4.758
 2127SOL    HW1 7280   0.280   3.643   4.763
 2127SOL    HW2 7281   0.436   3.673   4.726
 2128SOL     OW 7282   7.002   3.365   3.698
 2128SOL    HW1 7283   6.925   3.393   3.640
 2128SOL    HW2 7284   6.992   3.269   3.722
 2129SOL     OW 7285   4.239   3.466   5.488
 2129SOL    HW1 7286   4.220   3.564   5.492
 2129SOL    HW2 7287   4.305   3.442   5.559
 2130SOL     OW 7288   3.240   0.435   2.209
 2130SOL    HW1 7289   3.316   0.478   2.160
 2130SOL    HW2 7290   3.237   0.338   2.187
 2131SOL     OW 7291   5.561   0.977   0.841
 2131SOL    HW1 7292   5.496   1.024   0.782
 2131SOL    HW2 7293   5.609   0.907   0.788
 2132SOL     OW 7294   3.472   0.604   1.922
 2132SOL    HW1 7295   3.478   0.507   1.947
 2132SOL    HW2 7296   3.486   0.660   2.004
 2133SOL     OW 7297   3.122   2.953   0.651
 2133SOL    HW1 7298   3.072   2.866   0.657
 2133SOL    HW2 7299   3.169   2.958   0.563
 2134SOL     OW 7300   6.935   1.808   6.583
 2134SOL    HW1 7301   6.879   1.856   6.651
 2134SOL    HW2 7302   6.886   1.727   6.551
 2135SOL     OW 7303   1.426   3.400   4.667
 2135SOL    HW1 7304   1.366   3.470   4.707
 2135SOL    HW2 7305   1.392   3.377   4.576
 2136SOL     OW 7306   1.802   3.402   3.583
 2136SOL    HW1 7307   1.832   3.333   3.517
 2136SOL    HW2 7308   1.734   3.462   3.540
 2137SOL     OW 7309   2.839   5.225   4.996
 2137SOL    HW1 7310   2.837   5.322   4.973
 2137SOL    HW2 7311   2.758   5.180   4.960
 2138SOL     OW 7312   6.588   0.327   3.053
 2138SOL    HW1 7313   6.636   0.350   2.968
 2138SOL    HW2 7314   6.651   0.336   3.130
 2139SOL     OW 7315   3.707   0.541   3.611
 2139SOL    HW1 7316   3.647   0.575   3.684
 2139SOL    HW2 7317   3.766   0.615   3.580
 2140SOL     OW 7318   3.971   6.278   3.868
 2140SOL    HW1 7319   3.978   6.191   3.819
 2140SOL    HW2 7320   3.890   6.276   3.927
 2141SOL     OW 7321   6.355   3.785   2.578
 2141SOL    HW1 7322   6.292   3.750   2.648
 2141SOL    HW2 7323   6.387   3.708   2.522
 2142SOL     OW 7324   2.153   1.753   3.125
 2142SOL    HW1 7325   2.080   1.777   3.060
 2142SOL    HW2 7326   2.148   1.655   3.144
 2143SOL     OW 7327   3.324   4.494   1.288
 2143SOL    HW1 7328   3.253   4.513   1.355
 2143SOL    HW2 7329   3.317   4.558   1.212
 2144SOL     OW 7330   1.337   5.381   3.764
 2144SOL    HW1 7331   1.383   5.373   3.676
 2144SOL    HW2 7332   1.274   5.459   3.762
 2145SOL     OW 7333   4.474   6.045   3.836
 2145SOL    HW1 7334   4.472   6.136   3.795
 2145SOL    HW2 7335   4.568   6.022   3.861
 2146SOL     OW 7336   2.346   3.860   1.781
 2146SOL    HW1 7337   2.428   3.909   1.754
 2146SOL    HW2 7338   2.273   3.925   1.800
 2147SOL     OW 7339   6.417   1.310   5.702
 2147SOL    HW1 7340   6.381   1.368   5.775
 2147SOL    HW2 7341   6.510   1.338   5.680
 2148SOL     OW 7342   6.382   3.226   5.227
 2148SOL    HW1 7343   6.477   3.207   5.251
 2148SOL    HW2 7344   6.374   3.244   5.129
 2149SOL     OW 7345   3.263   1.638   1.112
 2149SOL    HW1 7346   3.237   1.543   1.095
 2149SOL    HW2 7347   3.274   1.653   1.210
 2150SOL     OW 7348   2.475   2.461   1.894
 2150SOL    HW1 7349   2.493   2.400   1.816
 2150SOL    HW2 7350   2.387   2.438   1.935
 2151SOL     OW 7351   1.105   0.169   5.649
 2151SOL    HW1 7352   1.194   0.184   5.606
 2151SOL    HW2 7353   1.033   0.188   5.582
 2152SOL     OW 7354   3.225   5.835   1.930
 2152SOL    HW1 7355   3.187   5.899   1.997
 2152SOL    HW2 7356   3.308   5.793   1.967
 2153SOL     OW 7357   3.914   1.463   2.913
 2153SOL    HW1 7358   3.828   1.503   2.945
 2153SOL    HW2 7359   3.942   1.391   2.976
 2154SOL     OW 7360   4.974   0.869   4.919
 2154SOL    HW1 7361   5.066   0.867   4.959
 2154SOL    HW2 7362   4.942   0.964   4.914
 2155SOL     OW 7363   3.072   5.990   0.435
 2155SOL    HW1 7364   2.976   5.986   0.408
 2155SOL    HW2 7365   3.126   6.027   0.359
 2156SOL     OW 7366   1.594   1.381   5.110
 2156SOL    HW1 7367   1.621   1.426   5.025
 2156SOL    HW2 7368   1.494   1.380   5.117
 2157SOL     OW 7369   5.786   0.346   3.147
 2157SOL    HW1 7370   5.773   0.425   3.086
 2157SOL    HW2 7371   5.858   0.366   3.213
 2158SOL     OW 7372   3.721   6.097   1.263
 2158SOL    HW1 7373   3.778   6.076   1.342
 2158SOL    HW2 7374   3.719   6.196   1.249
 2159SOL     OW 7375   0.959   6.393   5.358
 2159SOL    HW1 7376   1.023   6.344   5.297
 2159SOL    HW2 7377   0.982   6.372   5.453
 2160SOL     OW 7378   4.446   4.070   0.277
 2160SOL    HW1 7379   4.362   4.017   0.286
 2160SOL    HW2 7380   4.483   4.089   0.368
 2161SOL     OW 7381   5.606   5.185   2.774
 2161SOL    HW1 7382   5.521   5.132   2.770
 2161SOL    HW2 7383   5.590   5.269   2.826
 2162SOL     OW 7384   2.219   1.004   1.994
 2162SOL    HW1 7385   2.253   1.046   2.079
 2162SOL    HW2 7386   2.296   0.979   1.936
 2163SOL     OW 7387   1.435   4.609   6.128
 2163SOL    HW1 7388   1.460   4.588   6.034
 2163SOL    HW2 7389   1.385   4.532   6.168
 2164SOL     OW 7390   1.838   2.562   6.975
 2164SOL    HW1 7391   1.813   2.658   6.989
 2164SOL    HW2 7392   1.759   2.511   6.942
 2165SOL     OW 7393   0.039   1.909   2.615
 2165SOL    HW1 7394   6.991   1.922   2.677
 2165SOL    HW2 7395   0.110   1.855   2.661
 2166SOL     OW 7396   1.394   2.339   5.263
 2166SOL    HW1 7397   1.447   2.422   5.243
 2166SOL    HW2 7398   1.297   2.359   5.253
 2167SOL     OW 7399   1.546   2.142   3.297
 2167SOL    HW1 7400   1.605   2.073   3.338
 2167SOL    HW2 7401   1.527   2.214   3.364
 2168SOL     OW 7402   0.881   2.156   3.688
 2168SOL    HW1 7403   0.892   2.141   3.589
 2168SOL    HW2 7404   0.875   2.068   3.734
 2169SOL     OW 7405   5.427   1.278   6.969
 2169SOL    HW1 7406   5.524   1.302   6.977
 2169SOL    HW2 7407   5.412   1.188   7.009
 2170SOL     OW 7408   6.948   4.052   5.749
 2170SOL    HW1 7409   6.922   4.002   5.831
 2170SOL    HW2 7410   6.879   4.122   5.730
 2171SOL     OW 7411   0.291   5.288   1.018
 2171SOL    HW1 7412   0.297   5.356   0.945
 2171SOL    HW2 7413   0.380   5.247   1.033
 2172SOL     OW 7414   2.150   2.360   0.202
 2172SOL    HW1 7415   2.119   2.309   0.122
 2172SOL    HW2 7416   2.114   2.453   0.198
 2173SOL     OW 7417   3.633   0.956   5.348
 2173SOL    HW1 7418   3.592   0.906   5.424
 2173SOL    HW2 7419   3.576   1.035   5.326
 2174SOL     OW 7420   5.582   5.916   5.520
 2174SOL    HW1 7421   5.605   5.856   5.443
 2174SOL    HW2 7422   5.599   5.868   5.606
 2175SOL     OW 7423   2.134   3.104   4.412
 2175SOL    HW1 7424   2.186   3.035   4.362
 2175SOL    HW2 7425   2.106   3.068   4.501
 2176SOL     OW 7426   6.541   2.040   0.935
 2176SOL    HW1 7427   6.442   2.047   0.923
 2176SOL    HW2 7428   6.583   2.129   0.914
 2177SOL     OW 7429   6.907   1.958   3.403
 2177SOL    HW1 7430   6.844   2.025   3.443
 2177SOL    HW2 7431   6.865   1.915   3.324
 2178SOL     OW 7432   2.155   2.010   1.395
 2178SOL    HW1 7433   2.221   2.068   1.443
 2178SOL    HW2 7434   2.203   1.946   1.336
 2179SOL     OW 7435   1.864   5.331   4.825
 2179SOL    HW1 7436   1.796   5.405   4.832
 2179SOL    HW2 7437   1.826   5.247   4.862
 2180SOL     OW 7438   1.769   2.285   1.722
 2180SOL    HW1 7439   1.843   2.313   1.784
 2180SOL    HW2 7440   1.751   2.359   1.657
 2181SOL     OW 7441   4.870   4.936   4.340
 2181SOL    HW1 7442   4.850   4.999   4.265
 2181SOL    HW2 7443   4.785   4.901   4.378
 2182SOL     OW 7444   1.569   3.916   3.911
 2182SOL    HW1 7445   1.534   3.986   3.849
 2182SOL    HW2 7446   1.596   3.835   3.859
 2183SOL     OW 7447   2.791   4.306   5.757
 2183SOL    HW1 7448   2.871   4.277   5.704
 2183SOL    HW2 7449   2.774   4.403   5.742
 2184SOL     OW 7450   4.006   1.761   6.496
 2184SOL    HW1 7451   4.100   1.734   6.478
 2184SOL    HW2 7452   3.983   1.740   6.592
 2185SOL     OW 7453   0.286   1.141   1.262
 2185SOL    HW1 7454   0.229   1.084   1.321
 2185SOL    HW2 7455   0.379   1.143   1.299
 2186SOL     OW 7456   0.527   5.975   1.799
 2186SOL    HW1 7457   0.486   6.012   1.882
 2186SOL    HW2 7458   0.456   5.964   1.729
 2187SOL     OW 7459   6.623   6.639   2.737
 2187SOL    HW1 7460   6.549   6.706   2.739
 2187SOL    HW2 7461   6.707   6.680   2.772
 2188SOL     OW 7462   0.217   6.038   4.723
 2188SOL    HW1 7463   0.303   6.088   4.719
 2188SOL    HW2 7464   0.145   6.099   4.757
 2189SOL     OW 7465   1.493   6.510   0.625
 2189SOL    HW1 7466   1.592   6.509   0.638
 2189SOL    HW2 7467   1.465   6.426   0.578
 2190SOL     OW 7468   0.091   3.449   2.008
 2190SOL    HW1 7469   0.078   3.482   1.915
 2190SOL    HW2 7470   0.054   3.515   2.073
 2191SOL     OW 7471   3.102   1.963   6.812
 2191SOL    HW1 7472   3.152   1.878   6.828
 2191SOL    HW2 7473   3.105   1.986   6.715
 2192SOL     OW 7474   5.171   1.039   2.305
 2192SOL    HW1 7475   5.089   1.031   2.250
 2192SOL    HW2 7476   5.213   1.129   2.290
 2193SOL     OW 7477   5.391   5.517   6.908
 2193SOL    HW1 7478   5.379   5.508   6.809
 2193SOL    HW2 7479   5.313   5.476   6.955
 2194SOL     OW 7480   2.436   4.546   5.609
 2194SOL    HW1 7481   2.387   4.591   5.533
 2194SOL    HW2 7482   2.444   4.448   5.590
 2195SOL     OW 7483   0.159   0.475   4.932
 2195SOL    HW1 7484   0.145   0.556   4.875
 2195SOL    HW2 7485   0.244   0.484   4.983
 2196SOL     OW 7486   3.017   6.869   5.179
 2196SOL    HW1 7487   2.924   6.906   5.184
 2196SOL    HW2 7488   3.013   6.769   5.182
 2197SOL     OW 7489   3.350   3.888   0.267
 2197SOL    HW1 7490   3.385   3.891   0.173
 2197SOL    HW2 7491   3.396   3.816   0.318
 2198SOL     OW 7492   5.235   1.126   0.480
 2198SOL    HW1 7493   5.278   1.197   0.423
 2198SOL    HW2 7494   5.296   1.047   0.485
 2199SOL     OW 7495   4.685   1.060   3.325
 2199SOL    HW1 7496   4.745   1.003   3.381
 2199SOL    HW2 7497   4.720   1.064   3.231
 2200SOL     OW 7498   2.780   1.458   5.186
 2200SOL    HW1 7499   2.758   1.551   5.156
 2200SOL    HW2 7500   2.853   1.461   5.254
 2201SOL     OW 7501   6.757   2.757   2.997
 2201SOL    HW1 7502   6.754   2.750   2.897
 2201SOL    HW2 7503   6.813   2.836   3.022
 2202SOL     OW 7504   2.936   5.579   2.281
 2202SOL    HW1 7505   2.861   5.629   2.238
 2202SOL    HW2 7506   2.963   5.502   2.222
 2203SOL     OW 7507   1.760   2.222   1.358
 2203SOL    HW1 7508   1.815   2.138   1.365
 2203SOL    HW2 7509   1.819   2.298   1.330
 2204SOL     OW 7510   4.056   1.391   1.593
 2204SOL    HW1 7511   4.018   1.300   1.574
 2204SOL    HW2 7512   4.068   1.401   1.692
 2205SOL     OW 7513   0.268   0.080   6.005
 2205SOL    HW1 7514   0.185   0.033   5.977
 2205SOL    HW2 7515   0.325   0.018   6.060
 2206SOL     OW 7516   3.488   4.816   6.556
 2206SOL    HW1 7517   3.586   4.798   6.556
 2206SOL    HW2 7518   3.472   4.914   6.541
 2207SOL     OW 7519   2.966   4.706   6.441
 2207SOL    HW1 7520   2.952   4.610   6.465
 2207SOL    HW2 7521   3.018   4.712   6.356
 2208SOL     OW 7522   1.460   6.291   3.050
 2208SOL    HW1 7523   1.528   6.231   3.093
 2208SOL    HW2 7524   1.508   6.361   2.996
 2209SOL     OW 7525   1.333   6.353   5.327
 2209SOL    HW1 7526   1.328   6.337   5.426
 2209SOL    HW2 7527   1.328   6.452   5.309
 2210SOL     OW 7528   6.645   5.033   4.479
 2210SOL    HW1 7529   6.743   5.023   4.463
 2210SOL    HW2 7530   6.605   4.943   4.497
 2211SOL     OW 7531   5.958   0.647   1.156
 2211SOL    HW1 7532   6.043   0.615   1.112
 2211SOL    HW2 7533   5.893   0.571   1.160
 2212SOL     OW 7534   2.111   5.922   6.834
 2212SOL    HW1 7535   2.099   6.017   6.806
 2212SOL    HW2 7536   2.022   5.880   6.847
 2213SOL     OW 7537   3.444   2.444   5.639
 2213SOL    HW1 7538   3.486   2.399   5.718
 2213SOL    HW2 7539   3.349   2.466   5.659
 2214SOL     OW 7540   3.606   2.994   5.210
 2214SOL    HW1 7541   3.689   3.006   5.156
 2214SOL    HW2 7542   3.532   3.049   5.171
 2215SOL     OW 7543   6.100   1.132   0.424
 2215SOL    HW1 7544   6.081   1.223   0.387
 2215SOL    HW2 7545   6.197   1.126   0.449
 2216SOL     OW 7546   1.641   0.663   6.238
 2216SOL    HW1 7547   1.701   0.717   6.297
 2216SOL    HW2 7548   1.686   0.576   6.215
 2217SOL     OW 7549   4.037   0.002   1.593
 2217SOL    HW1 7550   4.073   0.086   1.553
 2217SOL    HW2 7551   4.006   0.020   1.686
 2218SOL     OW 7552   6.950   5.809   0.142
 2218SOL    HW1 7553   6.967   5.842   0.049
 2218SOL    HW2 7554   6.870   5.748   0.141
 2219SOL     OW 7555   5.325   2.007   1.522
 2219SOL    HW1 7556   5.270   1.926   1.545
 2219SOL    HW2 7557   5.400   2.016   1.587
 2220SOL     OW 7558   1.830   0.295   4.909
 2220SOL    HW1 7559   1.848   0.289   4.811
 2220SOL    HW2 7560   1.917   0.293   4.959
 2221SOL     OW 7561   5.976   0.950   5.591
 2221SOL    HW1 7562   5.995   1.008   5.512
 2221SOL    HW2 7563   6.058   0.942   5.647
 2222SOL     OW 7564   4.941   0.954   0.248
 2222SOL    HW1 7565   4.958   0.972   0.345
 2222SOL    HW2 7566   4.843   0.966   0.229
 2223SOL     OW 7567   5.783   0.967   5.031
 2223SOL    HW1 7568   5.865   0.924   5.069
 2223SOL    HW2 7569   5.722   0.995   5.105
 2224SOL     OW 7570   0.577   3.507   0.534
 2224SOL    HW1 7571   0.509   3.480   0.602
 2224SOL    HW2 7572   0.560   3.457   0.449
 2225SOL     OW 7573   6.660   6.477   3.425
 2225SOL    HW1 7574   6.598   6.537   3.374
 2225SOL    HW2 7575   6.657   6.385   3.386
 2226SOL     OW 7576   3.646   5.182   0.769
 2226SOL    HW1 7577   3.630   5.084   0.777
 2226SOL    HW2 7578   3.568   5.231   0.809
 2227SOL     OW 7579   5.300   3.487   6.962
 2227SOL    HW1 7580   5.209   3.506   6.924
 2227SOL    HW2 7581   5.329   3.395   6.934
 2228SOL     OW 7582   3.136   4.687   0.859
 2228SOL    HW1 7583   3.056   4.684   0.799
 2228SOL    HW2 7584   3.202   4.753   0.823
 2229SOL     OW 7585   4.583   2.637   4.861
 2229SOL    HW1 7586   4.563   2.697   4.938
 2229SOL    HW2 7587   4.581   2.691   4.776
 2230SOL     OW 7588   5.788   6.178   0.177
 2230SOL    HW1 7589   5.706   6.207   0.226
 2230SOL    HW2 7590   5.764   6.157   0.082
 2231SOL     OW 7591   0.346   0.721   1.867
 2231SOL    HW1 7592   0.317   0.736   1.961
 2231SOL    HW2 7593   0.311   0.633   1.834
 2232SOL     OW 7594   0.740   2.839   5.063
 2232SOL    HW1 7595   0.807   2.913   5.074
 2232SOL    HW2 7596   0.749   2.774   5.138
 2233SOL     OW 7597   2.196   3.810   0.114
 2233SOL    HW1 7598   2.140   3.727   0.105
 2233SOL    HW2 7599   2.158   3.882   0.056
 2234SOL     OW 7600   4.197   1.779   1.669
 2234SOL    HW1 7601   4.099   1.768   1.687
 2234SOL    HW2 7602   4.214   1.867   1.625
 2235SOL     OW 7603   2.902   0.240   1.022
 2235SOL    HW1 7604   2.870   0.335   1.028
 2235SOL    HW2 7605   2.837   0.186   0.969
 2236SOL     OW 7606   1.933   4.464   6.097
 2236SOL    HW1 7607   1.896   4.416   6.017
 2236SOL    HW2 7608   1.859   4.509   6.146
 2237SOL     OW 7609   6.062   5.009   3.980
 2237SOL    HW1 7610   5.983   5.040   3.928
 2237SOL    HW2 7611   6.032   4.979   4.071
 2238SOL     OW 7612   5.038   4.750   1.734
 2238SOL    HW1 7613   5.130   4.789   1.733
 2238SOL    HW2 7614   5.016   4.715   1.642
 2239SOL     OW 7615   4.066   5.137   3.625
 2239SOL    HW1 7616   4.045   5.051   3.579
 2239SOL    HW2 7617   4.150   5.127   3.679
 2240SOL     OW 7618   5.046   5.800   3.706
 2240SOL    HW1 7619   5.128   5.825   3.655
 2240SOL    HW2 7620   5.005   5.719   3.664
 2241SOL     OW 7621   0.404   6.023   3.330
 2241SOL    HW1 7622   0.503   6.013   3.340
 2241SOL    HW2 7623   0.384   6.108   3.281
 2242SOL     OW 7624   5.515   2.497   2.677
 2242SOL    HW1 7625   5.541   2.499   2.581
 2242SOL    HW2 7626   5.415   2.500   2.684
 2243SOL     OW 7627   1.525   6.809   6.185
 2243SOL    HW1 7628   1.517   6.833   6.281
 2243SOL    HW2 7629   1.619   6.780   6.166
 2244SOL     OW 7630   1.807   6.949   1.904
 2244SOL    HW1 7631   1.763   6.898   1.830
 2244SOL    HW2 7632   1.905   6.956   1.885
 2245SOL     OW 7633   0.398   2.151   1.277
 2245SOL    HW1 7634   0.444   2.081   1.223
 2245SOL    HW2 7635   0.449   2.167   1.361
 2246SOL     OW 7636   0.825   2.313   5.214
 2246SOL    HW1 7637   0.759   2.321   5.289
 2246SOL    HW2 7638   0.780   2.272   5.135
 2247SOL     OW 7639   3.479   3.311   4.291
 2247SOL    HW1 7640   3.510   3.256   4.368
 2247SOL    HW2 7641   3.402   3.266   4.246
 2248SOL     OW 7642   5.138   3.928   5.608
 2248SOL    HW1 7643   5.145   3.881   5.520
 2248SOL    HW2 7644   5.042   3.949   5.627
 2249SOL     OW 7645   6.397   6.427   3.018
 2249SOL    HW1 7646   6.424   6.495   3.087
 2249SOL    HW2 7647   6.299   6.412   3.023
 2250SOL     OW 7648   4.668   3.936   6.014
 2250SOL    HW1 7649   4.724   4.007   5.971
 2250SOL    HW2 7650   4.703   3.846   5.989
 2251SOL     OW 7651   5.219   0.586   6.765
 2251SOL    HW1 7652   5.295   0.533   6.804
 2251SOL    HW2 7653   5.182   0.646   6.836
 2252SOL     OW 7654   4.856   2.989   2.507
 2252SOL    HW1 7655   4.785   2.939   2.556
 2252SOL    HW2 7656   4.853   2.965   2.410
 2253SOL     OW 7657   0.942   3.541   6.527
 2253SOL    HW1 7658   0.985   3.516   6.614
 2253SOL    HW2 7659   0.967   3.635   6.504
 2254SOL     OW 7660   3.908   3.086   5.670
 2254SOL    HW1 7661   3.843   3.117   5.600
 2254SOL    HW2 7662   4.000   3.117   5.645
 2255SOL     OW 7663   4.264   2.805   6.180
 2255SOL    HW1 7664   4.216   2.723   6.212
 2255SOL    HW2 7665   4.284   2.795   6.082
 2256SOL     OW 7666   5.195   5.684   1.288
 2256SOL    HW1 7667   5.216   5.772   1.331
 2256SOL    HW2 7668   5.096   5.669   1.291
 2257SOL     OW 7669   6.962   2.131   4.206
 2257SOL    HW1 7670   6.927   2.049   4.161
 2257SOL    HW2 7671   6.969   2.114   4.305
 2258SOL     OW 7672   0.866   5.430   5.793
 2258SOL    HW1 7673   0.892   5.525   5.812
 2258SOL    HW2 7674   0.926   5.392   5.723
 2259SOL     OW 7675   5.415   3.657   6.724
 2259SOL    HW1 7676   5.381   3.631   6.815
 2259SOL    HW2 7677   5.513   3.635   6.718
 2260SOL     OW 7678   6.370   4.234   2.100
 2260SOL    HW1 7679   6.356   4.329   2.129
 2260SOL    HW2 7680   6.360   4.228   2.001
 2261SOL     OW 7681   6.732   5.987   6.893
 2261SOL    HW1 7682   6.807   6.019   6.835
 2261SOL    HW2 7683   6.705   6.060   6.957
 2262SOL     OW 7684   5.822   1.323   3.030
 2262SOL    HW1 7685   5.826   1.345   2.932
 2262SOL    HW2 7686   5.891   1.375   3.079
 2263SOL     OW 7687   3.554   5.625   6.802
 2263SOL    HW1 7688   3.582   5.529   6.800
 2263SOL    HW2 7689   3.503   5.647   6.719
 2264SOL     OW 7690   2.718   4.402   0.400
 2264SOL    HW1 7691   2.684   4.495   0.409
 2264SOL    HW2 7692   2.812   4.403   0.367
 2265SOL     OW 7693   0.649   1.133   4.605
 2265SOL    HW1 7694   0.657   1.091   4.514
 2265SOL    HW2 7695   0.719   1.204   4.616
 2266SOL     OW 7696   5.076   1.995   0.074
 2266SOL    HW1 7697   5.142   2.068   0.095
 2266SOL    HW2 7698   5.032   1.965   0.158
 2267SOL     OW 7699   5.215   2.498   4.902
 2267SOL    HW1 7700   5.191   2.456   4.814
 2267SOL    HW2 7701   5.161   2.455   4.975
 2268SOL     OW 7702   6.468   3.364   6.994
 2268SOL    HW1 7703   6.484   3.448   6.943
 2268SOL    HW2 7704   6.371   3.355   7.016
 2269SOL     OW 7705   6.105   5.468   5.279
 2269SOL    HW1 7706   6.119   5.502   5.372
 2269SOL    HW2 7707   6.054   5.382   5.282
 2270SOL     OW 7708   3.091   2.677   6.070
 2270SOL    HW1 7709   3.051   2.688   5.980
 2270SOL    HW2 7710   3.046   2.601   6.118
 2271SOL     OW 7711   5.946   3.890   0.954
 2271SOL    HW1 7712   5.861   3.836   0.948
 2271SOL    HW2 7713   6.018   3.833   0.993
 2272SOL     OW 7714   6.281   2.376   5.871
 2272SOL    HW1 7715   6.377   2.392   5.895
 2272SOL    HW2 7716   6.257   2.281   5.892
 2273SOL     OW 7717   1.614   0.377   2.160
 2273SOL    HW1 7718   1.671   0.303   2.124
 2273SOL    HW2 7719   1.664   0.463   2.152
 2274SOL     OW 7720   6.947   2.532   6.608
 2274SOL    HW1 7721   6.972   2.621   6.646
 2274SOL    HW2 7722   6.847   2.524   6.602
 2275SOL     OW 7723   5.992   0.678   4.342
 2275SOL    HW1 7724   6.072   0.619   4.334
 2275SOL    HW2 7725   6.021   0.772   4.359
 2276SOL     OW 7726   2.797   5.257   0.811
 2276SOL    HW1 7727   2.862   5.208   0.753
 2276SOL    HW2 7728   2.704   5.240   0.779
 2277SOL     OW 7729   4.082   3.685   4.875
 2277SOL    HW1 7730   4.131   3.618   4.819
 2277SOL    HW2 7731   4.138   3.709   4.954
 2278SOL     OW 7732   6.689   5.003   4.127
 2278SOL    HW1 7733   6.715   5.099   4.135
 2278SOL    HW2 7734   6.768   4.945   4.146
 2279SOL     OW 7735   5.465   6.225   4.722
 2279SOL    HW1 7736   5.558   6.251   4.698
 2279SOL    HW2 7737   5.404   6.243   4.644
 2280SOL     OW 7738   6.678   6.992   4.371
 2280SOL    HW1 7739   6.672   6.894   4.351
 2280SOL    HW2 7740   6.746   7.008   4.442
 2281SOL     OW 7741   3.602   1.767   2.296
 2281SOL    HW1 7742   3.616   1.760   2.197
 2281SOL    HW2 7743   3.663   1.705   2.344
 2282SOL     OW 7744   4.944   0.264   4.626
 2282SOL    HW1 7745   5.014   0.251   4.696
 2282SOL    HW2 7746   4.981   0.321   4.552
 2283SOL     OW 7747   0.241   4.590   1.639
 2283SOL    HW1 7748   0.241   4.514   1.574
 2283SOL    HW2 7749   0.221   4.555   1.731
 2284SOL     OW 7750   1.402   2.429   6.414
 2284SOL    HW1 7751   1.382   2.333   6.397
 2284SOL    HW2 7752   1.467   2.463   6.345
 2285SOL     OW 7753   2.656   2.140   0.556
 2285SOL    HW1 7754   2.750   2.139   0.519
 2285SOL    HW2 7755   2.608   2.221   0.523
 2286SOL     OW 7756   6.938   0.732   4.502
 2286SOL    HW1 7757   6.977   0.690   4.420
 2286SOL    HW2 7758   6.842   0.753   4.486
 2287SOL     OW 7759   1.632   1.307   3.018
 2287SOL    HW1 7760   1.595   1.389   3.061
 2287SOL    HW2 7761   1.593   1.297   2.926
 2288SOL     OW 7762   6.205   5.360   4.619
 2288SOL    HW1 7763   6.293   5.374   4.664
 2288SOL    HW2 7764   6.141   5.318   4.683
 2289SOL     OW 7765   0.415   4.744   1.762
 2289SOL    HW1 7766   0.453   4.815   1.704
 2289SOL    HW2 7767   0.355   4.685   1.708
 2290SOL     OW 7768   1.159   4.830   1.544
 2290SOL    HW1 7769   1.129   4.834   1.449
 2290SOL    HW2 7770   1.258   4.823   1.548
 2291SOL     OW 7771   2.612   2.451   6.776
 2291SOL    HW1 7772   2.602   2.370   6.719
 2291SOL    HW2 7773   2.525   2.501   6.777
 2292SOL     OW 7774   5.877   2.057   4.894
 2292SOL    HW1 7775   5.924   2.025   4.976
 2292SOL    HW2 7776   5.819   1.984   4.858
 2293SOL     OW 7777   5.378   6.939   1.361
 2293SOL    HW1 7778   5.411   6.880   1.287
 2293SOL    HW2 7779   5.312   6.889   1.416
 2294SOL     OW 7780   3.164   1.173   6.253
 2294SOL    HW1 7781   3.119   1.197   6.167
 2294SOL    HW2 7782   3.105   1.110   6.304
 2295SOL     OW 7783   0.307   2.193   2.951
 2295SOL    HW1 7784   0.352   2.254   3.016
 2295SOL    HW2 7785   0.316   2.230   2.859
 2296SOL     OW 7786   3.926   5.583   1.645
 2296SOL    HW1 7787   3.896   5.488   1.634
 2296SOL    HW2 7788   4.020   5.584   1.680
 2297SOL     OW 7789   4.711   4.835   5.867
 2297SOL    HW1 7790   4.803   4.873   5.857
 2297SOL    HW2 7791   4.644   4.902   5.834
 2298SOL     OW 7792   4.270   3.585   1.513
 2298SOL    HW1 7793   4.226   3.505   1.554
 2298SOL    HW2 7794   4.319   3.636   1.584
 2299SOL     OW 7795   4.536   5.177   5.343
 2299SOL    HW1 7796   4.601   5.195   5.269
 2299SOL    HW2 7797   4.458   5.239   5.333
 2300SOL     OW 7798   2.498   6.203   1.820
 2300SOL    HW1 7799   2.546   6.266   1.759
 2300SOL    HW2 7800   2.410   6.243   1.846
 2301SOL     OW 7801   3.341   2.913   2.820
 2301SOL    HW1 7802   3.388   2.842   2.768
 2301SOL    HW2 7803   3.352   2.896   2.918
 2302SOL     OW 7804   3.709   0.064   0.851
 2302SOL    HW1 7805   3.707   0.137   0.783
 2302SOL    HW2 7806   3.690   0.102   0.941
 2303SOL     OW 7807   2.593   3.435   6.448
 2303SOL    HW1 7808   2.653   3.434   6.528
 2303SOL    HW2 7809   2.628   3.500   6.381
 2304SOL     OW 7810   4.853   6.931   3.529
 2304SOL    HW1 7811   4.769   6.972   3.492
 2304SOL    HW2 7812   4.833   6.888   3.616
 2305SOL     OW 7813   2.484   6.945   2.420
 2305SOL    HW1 7814   2.453   6.934   2.326
 2305SOL    HW2 7815   2.432   7.018   2.464
 2306SOL     OW 7816   2.822   5.085   2.145
 2306SOL    HW1 7817   2.745   5.114   2.201
 2306SOL    HW2 7818   2.907   5.094   2.197
 2307SOL     OW 7819   6.655   3.892   3.247
 2307SOL    HW1 7820   6.623   3.955   3.176
 2307SOL    HW2 7821   6.585   3.885   3.318
 2308SOL     OW 7822   1.439   5.376   1.575
 2308SOL    HW1 7823   1.453   5.299   1.513
 2308SOL    HW2 7824   1.521   5.434   1.576
 2309SOL     OW 7825   1.761   0.714   6.701
 2309SOL    HW1 7826   1.738   0.626   6.743
 2309SOL    HW2 7827   1.711   0.787   6.748
 2310SOL     OW 7828   5.157   6.402   0.624
 2310SOL    HW1 7829   5.060   6.421   0.609
 2310SOL    HW2 7830   5.202   6.385   0.536
 2311SOL     OW 7831   1.833   6.466   1.016
 2311SOL    HW1 7832   1.735   6.476   1.030
 2311SOL    HW2 7833   1.880   6.547   1.052
 2312SOL     OW 7834   4.172   6.524   2.628
 2312SOL    HW1 7835   4.218   6.438   2.651
 2312SOL    HW2 7836   4.234   6.600   2.647
 2313SOL     OW 7837   6.100   6.128   1.243
 2313SOL    HW1 7838   6.172   6.078   1.291
 2313SOL    HW2 7839   6.036   6.064   1.201
 2314SOL     OW 7840   5.918   0.138   4.305
 2314SOL    HW1 7841   5.912   0.121   4.207
 2314SOL    HW2 7842   5.905   0.235   4.324
 2315SOL     OW 7843   4.901   3.313   6.467
 2315SOL    HW1 7844   4.819   3.326   6.523
 2315SOL    HW2 7845   4.883   3.244   6.396
 2316SOL     OW 7846   3.524   1.298   4.350
 2316SOL    HW1 7847   3.604   1.346   4.388
 2316SOL    HW2 7848   3.549   1.203   4.331
 2317SOL     OW 7849   0.522   6.270   3.196
 2317SOL    HW1 7850   0.422   6.277   3.198
 2317SOL    HW2 7851   0.562   6.356   3.167
 2318SOL     OW 7852   1.806   2.973   4.538
 2318SOL    HW1 7853   1.769   3.066   4.527
 2318SOL    HW2 7854   1.895   2.978   4.584
 2319SOL     OW 7855   2.360   4.666   3.951
 2319SOL    HW1 7856   2.352   4.765   3.943
 2319SOL    HW2 7857   2.291   4.622   3.894
 2320SOL     OW 7858   0.970   2.095   4.970
 2320SOL    HW1 7859   1.050   2.054   4.925
 2320SOL    HW2 7860   0.999   2.175   5.022
 2321SOL     OW 7861   2.352   0.483   6.967
 2321SOL    HW1 7862   2.368   0.465   0.034
 2321SOL    HW2 7863   2.277   0.548   6.957
 2322SOL     OW 7864   2.617   1.363   3.831
 2322SOL    HW1 7865   2.697   1.422   3.837
 2322SOL    HW2 7866   2.616   1.299   3.907
 2323SOL     OW 7867   2.884   5.200   1.913
 2323SOL    HW1 7868   2.822   5.181   1.836
 2323SOL    HW2 7869   2.853   5.151   1.994
 2324SOL     OW 7870   6.380   6.856   1.504
 2324SOL    HW1 7871   6.425   6.919   1.567
 2324SOL    HW2 7872   6.377   6.896   1.413
 2325SOL     OW 7873   1.633   5.205   1.765
 2325SOL    HW1 7874   1.642   5.301   1.741
 2325SOL    HW2 7875   1.538   5.176   1.748
 2326SOL     OW 7876   2.792   5.624   5.752
 2326SOL    HW1 7877   2.831   5.704   5.798
 2326SOL    HW2 7878   2.696   5.640   5.731
 2327SOL     OW 7879   6.873   2.442   3.923
 2327SOL    HW1 7880   6.955   2.390   3.946
 2327SOL    HW2 7881   6.849   2.427   3.827
 2328SOL     OW 7882   3.067   2.156   2.590
 2328SOL    HW1 7883   3.122   2.205   2.523
 2328SOL    HW2 7884   3.027   2.074   2.549
 2329SOL     OW 7885   1.246   3.708   5.259
 2329SOL    HW1 7886   1.157   3.752   5.248
 2329SOL    HW2 7887   1.302   3.761   5.323
 2330SOL     OW 7888   0.844   4.119   1.370
 2330SOL    HW1 7889   0.895   4.070   1.300
 2330SOL    HW2 7890   0.747   4.122   1.346
 2331SOL     OW 7891   5.780   4.569   1.150
 2331SOL    HW1 7892   5.682   4.565   1.130
 2331SOL    HW2 7893   5.810   4.665   1.152
 2332SOL     OW 7894   4.740   1.874   5.075
 2332SOL    HW1 7895   4.742   1.971   5.051
 2332SOL    HW2 7896   4.671   1.827   5.019
 2333SOL     OW 7897   0.439   5.233   2.944
 2333SOL    HW1 7898   0.516   5.182   2.983
 2333SOL    HW2 7899   0.357   5.177   2.948
 2334SOL     OW 7900   2.482   6.915   0.081
 2334SOL    HW1 7901   2.537   6.998   0.095
 2334SOL    HW2 7902   2.543   6.836   0.071
 2335SOL     OW 7903   5.852   1.040   3.083
 2335SOL    HW1 7904   5.828   1.134   3.059
 2335SOL    HW2 7905   5.949   1.036   3.109
 2336SOL     OW 7906   4.425   2.258   4.998
 2336SOL    HW1 7907   4.357   2.328   5.017
 2336SOL    HW2 7908   4.502   2.298   4.949
 2337SOL     OW 7909   4.428   0.992   3.141
 2337SOL    HW1 7910   4.485   0.960   3.217
 2337SOL    HW2 7911   4.392   1.083   3.162
 2338SOL     OW 7912   1.594   2.048   6.153
 2338SOL    HW1 7913   1.616   1.954   6.179
 2338SOL    HW2 7914   1.564   2.050   6.058
 2339SOL     OW 7915   3.904   3.904   4.815
 2339SOL    HW1 7916   3.933   3.961   4.738
 2339SOL    HW2 7917   3.965   3.825   4.822
 2340SOL     OW 7918   5.479   4.455   0.048
 2340SOL    HW1 7919   5.417   4.397   7.026
 2340SOL    HW2 7920   5.571   4.415   0.048
 2341SOL     OW 7921   5.241   4.441   1.103
 2341SOL    HW1 7922   5.227   4.351   1.146
 2341SOL    HW2 7923   5.334   4.446   1.066
 2342SOL     OW 7924   0.487   6.685   5.159
 2342SOL    HW1 7925   0.417   6.641   5.215
 2342SOL    HW2 7926   0.455   6.693   5.065
 2343SOL     OW 7927   2.638   6.182   2.792
 2343SOL    HW1 7928   2.557   6.207   2.738
 2343SOL    HW2 7929   2.674   6.094   2.760
 2344SOL     OW 7930   1.638   0.908   1.116
 2344SOL    HW1 7931   1.587   0.971   1.058
 2344SOL    HW2 7932   1.579   0.833   1.145
 2345SOL     OW 7933   3.527   5.743   5.557
 2345SOL    HW1 7934   3.459   5.673   5.580
 2345SOL    HW2 7935   3.529   5.756   5.458
 2346SOL     OW 7936   4.964   2.810   4.872
 2346SOL    HW1 7937   4.937   2.754   4.951
 2346SOL    HW2 7938   4.929   2.768   4.788
 2347SOL     OW 7939   2.658   3.628   1.781
 2347SOL    HW1 7940   2.634   3.712   1.731
 2347SOL    HW2 7941   2.576   3.572   1.793
 2348SOL     OW 7942   3.399   6.364   3.121
 2348SOL    HW1 7943   3.450   6.391   3.040
 2348SOL    HW2 7944   3.459   6.361   3.201
 2349SOL     OW 7945   0.603   4.773   5.994
 2349SOL    HW1 7946   0.542   4.838   6.039
 2349SOL    HW2 7947   0.552   4.691   5.969
 2350SOL     OW 7948   4.936   6.748   6.272
 2350SOL    HW1 7949   4.838   6.748   6.293
 2350SOL    HW2 7950   4.950   6.765   6.175
 2351SOL     OW 7951   3.424   5.180   2.607
 2351SOL    HW1 7952   3.485   5.107   2.637
 2351SOL    HW2 7953   3.335   5.171   2.652
 2352SOL     OW 7954   1.223   4.185   2.119
 2352SOL    HW1 7955   1.285   4.168   2.195
 2352SOL    HW2 7956   1.129   4.192   2.154
 2353SOL     OW 7957   3.120   4.760   5.228
 2353SOL    HW1 7958   3.043   4.697   5.212
 2353SOL    HW2 7959   3.141   4.808   5.143
 2354SOL     OW 7960   2.854   1.861   6.039
 2354SOL    HW1 7961   2.896   1.780   6.078
 2354SOL    HW2 7962   2.766   1.878   6.084
 2355SOL     OW 7963   1.203   5.396   6.901
 2355SOL    HW1 7964   1.277   5.329   6.909
 2355SOL    HW2 7965   1.133   5.376   6.970
 2356SOL     OW 7966   2.443   4.163   0.795
 2356SOL    HW1 7967   2.525   4.218   0.779
 2356SOL    HW2 7968   2.373   4.188   0.729
 2357SOL     OW 7969   4.407   5.429   3.705
 2357SOL    HW1 7970   4.326   5.402   3.654
 2357SOL    HW2 7971   4.404   5.388   3.796
 2358SOL     OW 7972   2.749   5.067   5.506
 2358SOL    HW1 7973   2.769   5.088   5.410
 2358SOL    HW2 7974   2.828   5.091   5.562
 2359SOL     OW 7975   6.923   0.657   6.107
 2359SOL    HW1 7976   6.977   0.582   6.068
 2359SOL    HW2 7977   6.952   0.744   6.067
 2360SOL     OW 7978   5.279   6.170   5.597
 2360SOL    HW1 7979   5.361   6.209   5.639
 2360SOL    HW2 7980   5.212   6.243   5.580
 2361SOL     OW 7981   2.624   0.800   5.355
 2361SOL    HW1 7982   2.670   0.879   5.395
 2361SOL    HW2 7983   2.530   0.826   5.329
 2362SOL     OW 7984   2.716   0.673   5.107
 2362SOL    HW1 7985   2.808   0.683   5.071
 2362SOL    HW2 7986   2.708   0.724   5.194
 2363SOL     OW 7987   3.862   2.646   5.619
 2363SOL    HW1 7988   3.881   2.662   5.522
 2363SOL    HW2 7989   3.832   2.732   5.661
 2364SOL     OW 7990   0.412   2.664   3.156
 2364SOL    HW1 7991   0.425   2.572   3.120
 2364SOL    HW2 7992   0.327   2.668   3.209
 2365SOL     OW 7993   6.191   2.071   5.699
 2365SOL    HW1 7994   6.150   2.158   5.671
 2365SOL    HW2 7995   6.206   2.071   5.798
 2366SOL     OW 7996   1.628   4.310   5.880
 2366SOL    HW1 7997   1.726   4.301   5.865
 2366SOL    HW2 7998   1.602   4.406   5.874
 2367SOL     OW 7999   3.838   3.915   7.007
 2367SOL    HW1 8000   3.807   3.846   6.941
 2367SOL    HW2 8001   3.770   3.925   0.049
 2368SOL     OW 8002   5.138   0.166   3.373
 2368SOL    HW1 8003   5.186   0.205   3.451
 2368SOL    HW2 8004   5.054   0.218   3.355
 2369SOL     OW 8005   2.077   2.594   5.253
 2369SOL    HW1 8006   2.069   2.513   5.195
 2369SOL    HW2 8007   1.999   2.599   5.315
 2370SOL     OW 8008   4.817   3.872   6.785
 2370SOL    HW1 8009   4.858   3.937   6.850
 2370SOL    HW2 8010   4.747   3.918   6.731
 2371SOL     OW 8011   0.940   6.119   1.460
 2371SOL    HW1 8012   0.857   6.107   1.516
 2371SOL    HW2 8013   1.020   6.093   1.514
 2372SOL     OW 8014   0.370   1.894   1.450
 2372SOL    HW1 8015   0.342   1.949   1.529
 2372SOL    HW2 8016   0.469   1.879   1.452
 2373SOL     OW 8017   6.818   0.015   0.139
 2373SOL    HW1 8018   6.774   0.052   0.221
 2373SOL    HW2 8019   6.916   0.035   0.142
 2374SOL     OW 8020   6.215   0.818   4.226
 2374SOL    HW1 8021   6.242   0.752   4.155
 2374SOL    HW2 8022   6.263   0.796   4.311
 2375SOL     OW 8023   1.794   6.354   4.722
 2375SOL    HW1 8024   1.718   6.291   4.737
 2375SOL    HW2 8025   1.774   6.441   4.766
 2376SOL     OW 8026   5.612   2.063   4.174
 2376SOL    HW1 8027   5.641   2.012   4.255
 2376SOL    HW2 8028   5.538   2.014   4.129
 2377SOL     OW 8029   3.634   4.150   2.791
 2377SOL    HW1 8030   3.583   4.068   2.816
 2377SOL    HW2 8031   3.696   4.174   2.866
 2378SOL     OW 8032   5.078   2.349   6.805
 2378SOL    HW1 8033   4.999   2.357   6.745
 2378SOL    HW2 8034   5.085   2.430   6.863
 2379SOL     OW 8035   6.916   1.987   6.803
 2379SOL    HW1 8036   6.997   2.043   6.815
 2379SOL    HW2 8037   6.887   1.950   6.891
 2380SOL     OW 8038   6.834   6.362   5.676
 2380SOL    HW1 8039   6.819   6.453   5.714
 2380SOL    HW2 8040   6.835   6.368   5.576
 2381SOL     OW 8041   2.292   4.127   4.006
 2381SOL    HW1 8042   2.356   4.170   3.943
 2381SOL    HW2 8043   2.214   4.090   3.955
 2382SOL     OW 8044   2.198   5.401   3.523
 2382SOL    HW1 8045   2.118   5.341   3.518
 2382SOL    HW2 8046   2.172   5.488   3.565
 2383SOL     OW 8047   5.443   6.205   0.091
 2383SOL    HW1 8048   5.404   6.285   0.046
 2383SOL    HW2 8049   5.440   6.126   0.029
 2384SOL     OW 8050   6.758   6.694   2.115
 2384SOL    HW1 8051   6.728   6.617   2.172
 2384SOL    HW2 8052   6.796   6.660   2.029
 2385SOL     OW 8053   6.049   6.960   1.476
 2385SOL    HW1 8054   5.970   6.979   1.418
 2385SOL    HW2 8055   6.100   6.882   1.439
 2386SOL     OW 8056   5.286   4.338   4.169
 2386SOL    HW1 8057   5.190   4.312   4.174
 2386SOL    HW2 8058   5.344   4.258   4.187
 2387SOL     OW 8059   0.362   2.219   3.261
 2387SOL    HW1 8060   0.353   2.264   3.350
 2387SOL    HW2 8061   0.437   2.153   3.265
 2388SOL     OW 8062   1.192   1.802   3.803
 2388SOL    HW1 8063   1.287   1.822   3.780
 2388SOL    HW2 8064   1.157   1.873   3.864
 2389SOL     OW 8065   5.525   3.253   3.365
 2389SOL    HW1 8066   5.536   3.195   3.446
 2389SOL    HW2 8067   5.438   3.301   3.370
 2390SOL     OW 8068   3.293   3.750   4.327
 2390SOL    HW1 8069   3.201   3.712   4.320
 2390SOL    HW2 8070   3.306   3.791   4.417
 2391SOL     OW 8071   4.414   4.177   5.716
 2391SOL    HW1 8072   4.409   4.083   5.749
 2391SOL    HW2 8073   4.468   4.181   5.633
 2392SOL     OW 8074   3.646   6.574   5.104
 2392SOL    HW1 8075   3.572   6.641   5.100
 2392SOL    HW2 8076   3.681   6.556   5.012
 2393SOL     OW 8077   4.497   4.943   0.434
 2393SOL    HW1 8078   4.417   5.002   0.446
 2393SOL    HW2 8079   4.503   4.914   0.339
 2394SOL     OW 8080   1.489   3.162   4.412
 2394SOL    HW1 8081   1.537   3.178   4.326
 2394SOL    HW2 8082   1.420   3.233   4.425
 2395SOL     OW 8083   6.176   2.483   0.522
 2395SOL    HW1 8084   6.229   2.566   0.541
 2395SOL    HW2 8085   6.238   2.405   0.517
 2396SOL     OW 8086   4.137   5.640   0.754
 2396SOL    HW1 8087   4.096   5.632   0.663
 2396SOL    HW2 8088   4.084   5.704   0.810
 2397SOL     OW 8089   0.323   3.519   0.076
 2397SOL    HW1 8090   0.229   3.486   0.072
 2397SOL    HW2 8091   0.323   3.614   0.108
 2398SOL     OW 8092   3.281   4.281   6.293
 2398SOL    HW1 8093   3.208   4.320   6.349
 2398SOL    HW2 8094   3.242   4.213   6.231
 2399SOL     OW 8095   5.275   1.533   2.876
 2399SOL    HW1 8096   5.183   1.528   2.916
 2399SOL    HW2 8097   5.302   1.443   2.843
 2400SOL     OW 8098   4.406   5.056   0.063
 2400SOL    HW1 8099   4.342   5.004   0.119
 2400SOL    HW2 8100   4.425   5.144   0.106
 2401SOL     OW 8101   4.315   0.655   6.526
 2401SOL    HW1 8102   4.340   0.589   6.597
 2401SOL    HW2 8103   4.221   0.640   6.498
 2402SOL     OW 8104   0.859   2.000   4.511
 2402SOL    HW1 8105   0.804   1.974   4.589
 2402SOL    HW2 8106   0.889   1.919   4.462
 2403SOL     OW 8107   2.722   2.478   0.426
 2403SOL    HW1 8108   2.765   2.557   0.381
 2403SOL    HW2 8109   2.759   2.469   0.519
 2404SOL     OW 8110   6.107   1.037   1.732
 2404SOL    HW1 8111   6.012   1.056   1.706
 2404SOL    HW2 8112   6.169   1.092   1.676
 2405SOL     OW 8113   3.285   3.506   3.527
 2405SOL    HW1 8114   3.324   3.455   3.603
 2405SOL    HW2 8115   3.209   3.455   3.487
 2406SOL     OW 8116   1.609   6.692   3.508
 2406SOL    HW1 8117   1.596   6.594   3.515
 2406SOL    HW2 8118   1.571   6.737   3.589
 2407SOL     OW 8119   5.641   2.439   2.410
 2407SOL    HW1 8120   5.681   2.350   2.429
 2407SOL    HW2 8121   5.643   2.457   2.312
 2408SOL     OW 8122   3.286   4.967   2.813
 2408SOL    HW1 8123   3.231   4.898   2.766
 2408SOL    HW2 8124   3.378   4.969   2.774
 2409SOL     OW 8125   1.951   2.830   1.481
 2409SOL    HW1 8126   1.948   2.813   1.579
 2409SOL    HW2 8127   2.012   2.763   1.437
 2410SOL     OW 8128   5.089   2.324   6.076
 2410SOL    HW1 8129   5.134   2.267   6.008
 2410SOL    HW2 8130   4.991   2.330   6.055
 2411SOL     OW 8131   4.706   5.261   5.559
 2411SOL    HW1 8132   4.627   5.235   5.504
 2411SOL    HW2 8133   4.771   5.310   5.501
 2412SOL     OW 8134   3.273   4.742   0.032
 2412SOL    HW1 8135   3.256   4.645   0.046
 2412SOL    HW2 8136   3.367   4.755   7.030
 2413SOL     OW 8137   6.495   2.409   0.238
 2413SOL    HW1 8138   6.540   2.497   0.252
 2413SOL    HW2 8139   6.427   2.395   0.310
 2414SOL     OW 8140   5.460   4.256   2.181
 2414SOL    HW1 8141   5.513   4.171   2.178
 2414SOL    HW2 8142   5.368   4.239   2.144
 2415SOL     OW 8143   1.095   6.604   1.074
 2415SOL    HW1 8144   1.120   6.535   1.142
 2415SOL    HW2 8145   1.008   6.647   1.101
 2416SOL     OW 8146   3.321   2.013   5.330
 2416SOL    HW1 8147   3.248   2.030   5.264
 2416SOL    HW2 8148   3.328   2.091   5.393
 2417SOL     OW 8149   4.196   3.011   6.336
 2417SOL    HW1 8150   4.255   3.002   6.416
 2417SOL    HW2 8151   4.204   2.929   6.280
 2418SOL     OW 8152   3.017   3.895   3.983
 2418SOL    HW1 8153   3.076   3.963   4.028
 2418SOL    HW2 8154   3.016   3.911   3.885
 2419SOL     OW 8155   0.602   6.517   3.848
 2419SOL    HW1 8156   0.657   6.486   3.771
 2419SOL    HW2 8157   0.541   6.590   3.818
 2420SOL     OW 8158   3.758   1.405   2.059
 2420SOL    HW1 8159   3.809   1.376   2.140
 2420SOL    HW2 8160   3.770   1.338   1.986
 2421SOL     OW 8161   2.589   1.047   5.058
 2421SOL    HW1 8162   2.689   1.047   5.048
 2421SOL    HW2 8163   2.558   0.953   5.075
 2422SOL     OW 8164   5.929   0.440   2.277
 2422SOL    HW1 8165   5.943   0.538   2.290
 2422SOL    HW2 8166   5.857   0.424   2.210
 2423SOL     OW 8167   1.623   6.350   3.819
 2423SOL    HW1 8168   1.638   6.268   3.876
 2423SOL    HW2 8169   1.694   6.417   3.840
 2424SOL     OW 8170   5.794   6.302   6.223
 2424SOL    HW1 8171   5.797   6.241   6.144
 2424SOL    HW2 8172   5.877   6.358   6.225
 2425SOL     OW 8173   6.213   0.241   4.411
 2425SOL    HW1 8174   6.221   0.160   4.469
 2425SOL    HW2 8175   6.136   0.296   4.441
 2426SOL     OW 8176   0.741   4.683   3.580
 2426SOL    HW1 8177   0.790   4.717   3.660
 2426SOL    HW2 8178   0.669   4.748   3.556
 2427SOL     OW 8179   5.804   5.126   6.699
 2427SOL    HW1 8180   5.782   5.117   6.602
 2427SOL    HW2 8181   5.724   5.161   6.748
 2428SOL     OW 8182   0.008   0.271   3.696
 2428SOL    HW1 8183   0.020   0.318   3.783
 2428SOL    HW2 8184   6.944   0.284   3.663
 2429SOL     OW 8185   6.670   5.914   4.771
 2429SOL    HW1 8186   6.615   5.958   4.842
 2429SOL    HW2 8187   6.633   5.939   4.681
 2430SOL     OW 8188   6.583   2.382   1.276
 2430SOL    HW1 8189   6.546   2.459   1.328
 2430SOL    HW2 8190   6.575   2.401   1.179
 2431SOL     OW 8191   3.489   0.343   1.989
 2431SOL    HW1 8192   3.525   0.282   2.060
 2431SOL    HW2 8193   3.407   0.302   1.949
 2432SOL     OW 8194   3.616   6.413   2.936
 2432SOL    HW1 8195   3.661   6.346   2.876
 2432SOL    HW2 8196   3.668   6.421   3.021
 2433SOL     OW 8197   3.532   6.229   0.886
 2433SOL    HW1 8198   3.497   6.218   0.793
 2433SOL    HW2 8199   3.536   6.140   0.931
 2434SOL     OW 8200   4.425   1.526   3.492
 2434SOL    HW1 8201   4.438   1.585   3.412
 2434SOL    HW2 8202   4.514   1.497   3.527
 2435SOL     OW 8203   4.592   5.763   5.816
 2435SOL    HW1 8204   4.639   5.822   5.881
 2435SOL    HW2 8205   4.589   5.807   5.727
 2436SOL     OW 8206   1.683   6.453   1.359
 2436SOL    HW1 8207   1.637   6.445   1.447
 2436SOL    HW2 8208   1.616   6.443   1.286
 2437SOL     OW 8209   3.930   6.044   1.083
 2437SOL    HW1 8210   3.925   6.113   1.011
 2437SOL    HW2 8211   3.866   6.067   1.156
 2438SOL     OW 8212   3.594   1.499   5.880
 2438SOL    HW1 8213   3.642   1.531   5.798
 2438SOL    HW2 8214   3.657   1.497   5.957
 2439SOL     OW 8215   1.666   4.345   0.115
 2439SOL    HW1 8216   1.692   4.269   0.175
 2439SOL    HW2 8217   1.675   4.431   0.165
 2440SOL     OW 8218   3.579   6.305   4.793
 2440SOL    HW1 8219   3.568   6.250   4.876
 2440SOL    HW2 8220   3.493   6.350   4.771
 2441SOL     OW 8221   6.728   0.406   0.196
 2441SOL    HW1 8222   6.811   0.350   0.206
 2441SOL    HW2 8223   6.673   0.370   0.121
 2442SOL     OW 8224   6.594   6.022   4.209
 2442SOL    HW1 8225   6.538   6.097   4.174
 2442SOL    HW2 8226   6.535   5.947   4.237
 2443SOL     OW 8227   3.482   6.734   6.442
 2443SOL    HW1 8228   3.572   6.775   6.430
 2443SOL    HW2 8229   3.484   6.670   6.519
 2444SOL     OW 8230   3.672   4.510   6.170
 2444SOL    HW1 8231   3.572   4.508   6.162
 2444SOL    HW2 8232   3.709   4.565   6.095
 2445SOL     OW 8233   6.886   0.725   2.313
 2445SOL    HW1 8234   6.829   0.643   2.318
 2445SOL    HW2 8235   6.853   0.783   2.239
 2446SOL     OW 8236   0.299   3.245   4.313
 2446SOL    HW1 8237   0.237   3.221   4.238
 2446SOL    HW2 8238   0.270   3.330   4.356
 2447SOL     OW 8239   2.429   1.148   0.997
 2447SOL    HW1 8240   2.380   1.062   1.014
 2447SOL    HW2 8241   2.435   1.163   0.898
 2448SOL     OW 8242   1.211   0.237   5.088
 2448SOL    HW1 8243   1.121   0.278   5.099
 2448SOL    HW2 8244   1.279   0.289   5.139
 2449SOL     OW 8245   0.323   4.206   2.406
 2449SOL    HW1 8246   0.252   4.150   2.450
 2449SOL    HW2 8247   0.394   4.146   2.369
 2450SOL     OW 8248   2.888   4.851   4.188
 2450SOL    HW1 8249   2.822   4.775   4.184
 2450SOL    HW2 8250   2.949   4.846   4.110
 2451SOL     OW 8251   0.677   0.468   4.237
 2451SOL    HW1 8252   0.751   0.427   4.183
 2451SOL    HW2 8253   0.700   0.463   4.334
 2452SOL     OW 8254   2.380   2.369   3.310
 2452SOL    HW1 8255   2.301   2.413   3.267
 2452SOL    HW2 8256   2.454   2.436   3.318
 2453SOL     OW 8257   6.880   3.625   0.983
 2453SOL    HW1 8258   6.826   3.646   1.065
 2453SOL    HW2 8259   6.964   3.679   0.984
 2454SOL     OW 8260   3.311   1.242   0.253
 2454SOL    HW1 8261   3.393   1.291   0.224
 2454SOL    HW2 8262   3.315   1.148   0.218
 2455SOL     OW 8263   5.198   7.013   0.594
 2455SOL    HW1 8264   5.146   7.009   0.679
 2455SOL    HW2 8265   5.135   7.015   0.516
 2456SOL     OW 8266   5.648   1.030   6.900
 2456SOL    HW1 8267   5.622   0.988   6.987
 2456SOL    HW2 8268   5.747   1.027   6.889
 2457SOL     OW 8269   5.920   5.937   6.943
 2457SOL    HW1 8270   5.987   5.909   7.012
 2457SOL    HW2 8271   5.836   5.966   6.987
 2458SOL     OW 8272   2.472   5.518   4.450
 2458SOL    HW1 8273   2.377   5.488   4.451
 2458SOL    HW2 8274   2.530   5.448   4.492
 2459SOL     OW 8275   2.680   6.165   0.559
 2459SOL    HW1 8276   2.626   6.206   0.632
 2459SOL    HW2 8277   2.773   6.148   0.591
 2460SOL     OW 8278   2.183   1.369   1.709
 2460SOL    HW1 8279   2.256   1.432   1.737
 2460SOL    HW2 8280   2.210   1.275   1.730
 2461SOL     OW 8281   4.071   0.168   3.270
 2461SOL    HW1 8282   4.053   0.144   3.175
 2461SOL    HW2 8283   4.001   0.231   3.303
 2462SOL     OW 8284   2.638   5.083   0.208
 2462SOL    HW1 8285   2.711   5.108   0.144
 2462SOL    HW2 8286   2.555   5.061   0.157
 2463SOL     OW 8287   6.394   2.488   3.825
 2463SOL    HW1 8288   6.315   2.430   3.808
 2463SOL    HW2 8289   6.472   2.455   3.773
 2464SOL     OW 8290   1.792   4.558   1.879
 2464SOL    HW1 8291   1.732   4.509   1.943
 2464SOL    HW2 8292   1.822   4.644   1.922
 2465SOL     OW 8293   0.289   6.556   1.512
 2465SOL    HW1 8294   0.387   6.576   1.513
 2465SOL    HW2 8295   0.241   6.624   1.456
 2466SOL     OW 8296   3.801   1.639   1.766
 2466SOL    HW1 8297   3.825   1.641   1.669
 2466SOL    HW2 8298   3.881   1.614   1.820
 2467SOL     OW 8299   5.403   1.618   4.994
 2467SOL    HW1 8300   5.378   1.697   5.051
 2467SOL    HW2 8301   5.472   1.564   5.042
 2468SOL     OW 8302   5.649   6.341   2.370
 2468SOL    HW1 8303   5.618   6.279   2.442
 2468SOL    HW2 8304   5.730   6.391   2.402
 2469SOL     OW 8305   3.593   4.396   5.480
 2469SOL    HW1 8306   3.519   4.422   5.418
 2469SOL    HW2 8307   3.675   4.449   5.459
 2470SOL     OW 8308   3.610   4.429   5.789
 2470SOL    HW1 8309   3.582   4.434   5.693
 2470SOL    HW2 8310   3.650   4.339   5.807
 2471SOL     OW 8311   2.215   6.793   1.224
 2471SOL    HW1 8312   2.306   6.827   1.249
 2471SOL    HW2 8313   2.224   6.705   1.178
 2472SOL     OW 8314   4.304   1.656   3.710
 2472SOL    HW1 8315   4.323   1.596   3.632
 2472SOL    HW2 8316   4.383   1.655   3.772
 2473SOL     OW 8317   1.931   4.145   5.062
 2473SOL    HW1 8318   1.879   4.064   5.090
 2473SOL    HW2 8319   2.027   4.133   5.087
 2474SOL     OW 8320   0.504   5.665   0.489
 2474SOL    HW1 8321   0.488   5.744   0.430
 2474SOL    HW2 8322   0.510   5.583   0.433
 2475SOL     OW 8323   4.804   1.310   0.848
 2475SOL    HW1 8324   4.840   1.383   0.789
 2475SOL    HW2 8325   4.732   1.261   0.798
 2476SOL     OW 8326   1.115   2.913   3.580
 2476SOL    HW1 8327   1.076   2.972   3.509
 2476SOL    HW2 8328   1.098   2.817   3.557
 2477SOL     OW 8329   5.853   0.635   2.587
 2477SOL    HW1 8330   5.773   0.578   2.601
 2477SOL    HW2 8331   5.927   0.581   2.548
 2478SOL     OW 8332   5.405   0.366   2.335
 2478SOL    HW1 8333   5.326   0.363   2.396
 2478SOL    HW2 8334   5.475   0.302   2.367
 2479SOL     OW 8335   1.452   3.654   1.469
 2479SOL    HW1 8336   1.544   3.693   1.468
 2479SOL    HW2 8337   1.386   3.725   1.496
 2480SOL     OW 8338   5.916   4.419   0.962
 2480SOL    HW1 8339   5.903   4.320   0.961
 2480SOL    HW2 8340   5.843   4.463   1.015
 2481SOL     OW 8341   2.541   6.640   0.275
 2481SOL    HW1 8342   2.572   6.580   0.349
 2481SOL    HW2 8343   2.540   6.734   0.308
 2482SOL     OW 8344   5.003   2.917   5.437
 2482SOL    HW1 8345   5.074   2.968   5.485
 2482SOL    HW2 8346   5.036   2.893   5.346
 2483SOL     OW 8347   2.102   1.021   6.517
 2483SOL    HW1 8348   2.014   1.018   6.563
 2483SOL    HW2 8349   2.121   0.932   6.476
 2484SOL     OW 8350   2.164   0.502   0.524
 2484SOL    HW1 8351   2.104   0.523   0.601
 2484SOL    HW2 8352   2.140   0.560   0.446
 2485SOL     OW 8353   4.774   4.469   2.103
 2485SOL    HW1 8354   4.704   4.413   2.059
 2485SOL    HW2 8355   4.758   4.472   2.202
 2486SOL     OW 8356   3.306   5.407   2.997
 2486SOL    HW1 8357   3.380   5.436   2.936
 2486SOL    HW2 8358   3.248   5.340   2.950
 2487SOL     OW 8359   3.612   5.337   6.338
 2487SOL    HW1 8360   3.647   5.405   6.274
 2487SOL    HW2 8361   3.512   5.337   6.337
 2488SOL     OW 8362   2.298   4.103   2.260
 2488SOL    HW1 8363   2.357   4.032   2.222
 2488SOL    HW2 8364   2.284   4.086   2.357
 2489SOL     OW 8365   2.161   5.727   3.478
 2489SOL    HW1 8366   2.251   5.766   3.458
 2489SOL    HW2 8367   2.122   5.689   3.394
 2490SOL     OW 8368   6.876   5.799   1.048
 2490SOL    HW1 8369   6.904   5.797   0.952
 2490SOL    HW2 8370   6.777   5.814   1.054
 2491SOL     OW 8371   2.537   6.403   1.663
 2491SOL    HW1 8372   2.451   6.419   1.614
 2491SOL    HW2 8373   2.545   6.471   1.737
 2492SOL     OW 8374   4.458   3.284   6.931
 2492SOL    HW1 8375   4.378   3.317   6.880
 2492SOL    HW2 8376   4.539   3.336   6.905
 2493SOL     OW 8377   5.572   0.128   3.012
 2493SOL    HW1 8378   5.645   0.074   3.054
 2493SOL    HW2 8379   5.610   0.185   2.939
 2494SOL     OW 8380   5.849   3.438   2.468
 2494SOL    HW1 8381   5.831   3.492   2.386
 2494SOL    HW2 8382   5.907   3.360   2.445
 2495SOL     OW 8383   5.066   6.982   4.962
 2495SOL    HW1 8384   5.154   6.934   4.959
 2495SOL    HW2 8385   5.022   6.977   4.873
 2496SOL     OW 8386   0.940   4.758   6.383
 2496SOL    HW1 8387   0.857   4.792   6.340
 2496SOL    HW2 8388   0.921   4.669   6.424
 2497SOL     OW 8389   6.986   1.424   0.489
 2497SOL    HW1 8390   6.949   1.344   0.536
 2497SOL    HW2 8391   6.978   1.504   0.549
 2498SOL     OW 8392   3.001   2.246   3.361
 2498SOL    HW1 8393   2.905   2.269   3.380
 2498SOL    HW2 8394   3.047   2.220   3.446
 2499SOL     OW 8395   5.218   1.614   4.733
 2499SOL    HW1 8396   5.264   1.614   4.822
 2499SOL    HW2 8397   5.171   1.526   4.720
 2500SOL     OW 8398   4.242   3.177   5.820
 2500SOL    HW1 8399   4.189   3.161   5.737
 2500SOL    HW2 8400   4.273   3.089   5.857
 2501SOL     OW 8401   0.231   5.948   6.806
 2501SOL    HW1 8402   0.194   5.928   6.716
 2501SOL    HW2 8403   0.331   5.942   6.804
 2502SOL     OW 8404   2.534   6.188   3.346
 2502SOL    HW1 8405   2.531   6.096   3.384
 2502SOL    HW2 8406   2.591   6.188   3.263
 2503SOL     OW 8407   3.569   5.924   5.798
 2503SOL    HW1 8408   3.578   5.869   5.715
 2503SOL    HW2 8409   3.640   5.995   5.800
 2504SOL     OW 8410   3.222   5.791   5.230
 2504SOL    HW1 8411   3.227   5.869   5.168
 2504SOL    HW2 8412   3.146   5.803   5.293
 2505SOL     OW 8413   1.564   6.267   4.199
 2505SOL    HW1 8414   1.579   6.343   4.263
 2505SOL    HW2 8415   1.645   6.256   4.141
 2506SOL     OW 8416   6.354   2.996   6.000
 2506SOL    HW1 8417   6.260   3.028   6.005
 2506SOL    HW2 8418   6.414   3.059   6.050
 2507SOL     OW 8419   7.014   4.054   0.237
 2507SOL    HW1 8420   6.967   4.137   0.206
 2507SOL    HW2 8421   0.076   4.079   0.269
 2508SOL     OW 8422   2.855   1.671   2.537
 2508SOL    HW1 8423   2.859   1.758   2.488
 2508SOL    HW2 8424   2.866   1.595   2.472
 2509SOL     OW 8425   5.416   2.991   2.777
 2509SOL    HW1 8426   5.367   2.933   2.843
 2509SOL    HW2 8427   5.513   2.993   2.800
 2510SOL     OW 8428   3.344   4.302   0.989
 2510SOL    HW1 8429   3.284   4.315   0.910
 2510SOL    HW2 8430   3.432   4.346   0.972
 2511SOL     OW 8431   2.280   2.266   4.589
 2511SOL    HW1 8432   2.181   2.283   4.595
 2511SOL    HW2 8433   2.303   2.236   4.497
 2512SOL     OW 8434   5.430   5.184   5.753
 2512SOL    HW1 8435   5.497   5.204   5.682
 2512SOL    HW2 8436   5.373   5.106   5.725
 2513SOL     OW 8437   1.635   2.675   5.949
 2513SOL    HW1 8438   1.707   2.611   5.925
 2513SOL    HW2 8439   1.657   2.766   5.913
 2514SOL     OW 8440   0.223   3.486   4.415
 2514SOL    HW1 8441   0.134   3.483   4.368
 2514SOL    HW2 8442   0.273   3.568   4.386
 2515SOL     OW 8443   1.217   6.580   0.570
 2515SOL    HW1 8444   1.316   6.580   0.585
 2515SOL    HW2 8445   1.174   6.644   0.634
 2516SOL     OW 8446   6.000   6.258   2.923
 2516SOL    HW1 8447   6.087   6.239   2.878
 2516SOL    HW2 8448   6.009   6.340   2.979
 2517SOL     OW 8449   1.783   5.378   5.462
 2517SOL    HW1 8450   1.875   5.391   5.425
 2517SOL    HW2 8451   1.788   5.343   5.555
 2518SOL     OW 8452   2.208   3.218   0.594
 2518SOL    HW1 8453   2.161   3.143   0.548
 2518SOL    HW2 8454   2.150   3.299   0.592
 2519SOL     OW 8455   4.997   5.416   4.208
 2519SOL    HW1 8456   4.909   5.372   4.189
 2519SOL    HW2 8457   4.984   5.485   4.280
 2520SOL     OW 8458   1.322   3.304   0.734
 2520SOL    HW1 8459   1.322   3.204   0.723
 2520SOL    HW2 8460   1.229   3.339   0.719
 2521SOL     OW 8461   1.059   6.360   5.616
 2521SOL    HW1 8462   1.156   6.338   5.623
 2521SOL    HW2 8463   1.018   6.356   5.707
 2522SOL     OW 8464   0.980   2.839   5.716
 2522SOL    HW1 8465   0.906   2.901   5.740
 2522SOL    HW2 8466   1.047   2.886   5.660
 2523SOL     OW 8467   0.695   3.169   1.007
 2523SOL    HW1 8468   0.764   3.207   1.069
 2523SOL    HW2 8469   0.606   3.173   1.052
 2524SOL     OW 8470   0.629   6.172   4.150
 2524SOL    HW1 8471   0.541   6.128   4.133
 2524SOL    HW2 8472   0.700   6.102   4.159
 2525SOL     OW 8473   1.165   2.302   5.054
 2525SOL    HW1 8474   1.137   2.310   5.150
 2525SOL    HW2 8475   1.119   2.373   5.000
 2526SOL     OW 8476   1.003   4.061   5.647
 2526SOL    HW1 8477   1.026   4.106   5.561
 2526SOL    HW2 8478   1.073   3.992   5.668
 2527SOL     OW 8479   4.837   0.121   4.927
 2527SOL    HW1 8480   4.914   0.062   4.951
 2527SOL    HW2 8481   4.811   0.176   5.006
 2528SOL     OW 8482   6.153   4.456   1.064
 2528SOL    HW1 8483   6.068   4.441   1.012
 2528SOL    HW2 8484   6.163   4.553   1.084
 2529SOL     OW 8485   5.898   4.928   6.277
 2529SOL    HW1 8486   5.858   4.839   6.297
 2529SOL    HW2 8487   5.995   4.927   6.301
 2530SOL     OW 8488   1.267   5.918   5.193
 2530SOL    HW1 8489   1.229   5.837   5.237
 2530SOL    HW2 8490   1.300   5.894   5.102
 2531SOL     OW 8491   5.430   5.523   4.678
 2531SOL    HW1 8492   5.381   5.606   4.705
 2531SOL    HW2 8493   5.489   5.544   4.600
 2532SOL     OW 8494   0.603   6.127   0.606
 2532SOL    HW1 8495   0.591   6.071   0.524
 2532SOL    HW2 8496   0.608   6.068   0.687
 2533SOL     OW 8497   4.983   6.608   3.920
 2533SOL    HW1 8498   4.914   6.544   3.886
 2533SOL    HW2 8499   5.064   6.558   3.947
 2534SOL     OW 8500   2.187   0.213   3.562
 2534SOL    HW1 8501   2.177   0.160   3.478
 2534SOL    HW2 8502   2.209   0.308   3.540
 2535SOL     OW 8503   2.578   2.120   6.966
 2535SOL    HW1 8504   2.615   2.208   6.997
 2535SOL    HW2 8505   2.651   2.065   6.927
 2536SOL     OW 8506   0.988   1.684   3.654
 2536SOL    HW1 8507   1.068   1.729   3.695
 2536SOL    HW2 8508   0.935   1.639   3.726
 2537SOL     OW 8509   5.167   6.079   0.373
 2537SOL    HW1 8510   5.191   6.042   0.463
 2537SOL    HW2 8511   5.207   6.022   0.302
 2538SOL     OW 8512   1.699   4.571   4.985
 2538SOL    HW1 8513   1.636   4.612   4.920
 2538SOL    HW2 8514   1.707   4.473   4.967
 2539SOL     OW 8515   4.004   0.266   5.639
 2539SOL    HW1 8516   4.063   0.344   5.621
 2539SOL    HW2 8517   3.929   0.294   5.699
 2540SOL     OW 8518   4.851   0.799   0.893
 2540SOL    HW1 8519   4.820   0.865   0.825
 2540SOL    HW2 8520   4.796   0.716   0.886
 2541SOL     OW 8521   1.940   0.365   5.898
 2541SOL    HW1 8522   1.893   0.367   5.810
 2541SOL    HW2 8523   1.933   0.455   5.941
 2542SOL     OW 8524   3.831   1.864   4.933
 2542SOL    HW1 8525   3.930   1.851   4.933
 2542SOL    HW2 8526   3.810   1.955   4.897
 2543SOL     OW 8527   2.154   0.745   2.753
 2543SOL    HW1 8528   2.109   0.834   2.750
 2543SOL    HW2 8529   2.200   0.728   2.666
 2544SOL     OW 8530   0.147   4.879   2.377
 2544SOL    HW1 8531   0.064   4.927   2.349
 2544SOL    HW2 8532   0.227   4.929   2.344
 2545SOL     OW 8533   1.481   0.793   1.474
 2545SOL    HW1 8534   1.481   0.742   1.388
 2545SOL    HW2 8535   1.402   0.854   1.477
 2546SOL     OW 8536   6.009   3.077   1.529
 2546SOL    HW1 8537   6.072   3.144   1.567
 2546SOL    HW2 8538   5.916   3.100   1.558
 2547SOL     OW 8539   5.208   5.285   6.651
 2547SOL    HW1 8540   5.221   5.383   6.635
 2547SOL    HW2 8541   5.297   5.240   6.657
 2548SOL     OW 8542   2.377   0.973   5.371
 2548SOL    HW1 8543   2.304   0.947   5.307
 2548SOL    HW2 8544   2.362   1.066   5.403
 2549SOL     OW 8545   2.232   2.012   1.812
 2549SOL    HW1 8546   2.295   1.941   1.844
 2549SOL    HW2 8547   2.142   1.973   1.798
 2550SOL     OW 8548   5.787   1.048   6.609
 2550SOL    HW1 8549   5.823   0.955   6.611
 2550SOL    HW2 8550   5.737   1.064   6.524
 2551SOL     OW 8551   3.246   5.385   0.093
 2551SOL    HW1 8552   3.269   5.352   0.002
 2551SOL    HW2 8553   3.296   5.469   0.112
 2552SOL     OW 8554   1.953   5.553   6.314
 2552SOL    HW1 8555   2.022   5.481   6.326
 2552SOL    HW2 8556   1.911   5.543   6.224
 2553SOL     OW 8557   2.982   3.151   6.472
 2553SOL    HW1 8558   2.995   3.052   6.471
 2553SOL    HW2 8559   2.890   3.173   6.439
 2554SOL     OW 8560   1.367   5.541   6.699
 2554SOL    HW1 8561   1.454   5.588   6.711
 2554SOL    HW2 8562   1.361   5.465   6.763
 2555SOL     OW 8563   6.286   6.226   6.660
 2555SOL    HW1 8564   6.349   6.153   6.632
 2555SOL    HW2 8565   6.219   6.189   6.724
 2556SOL     OW 8566   4.203   6.005   1.062
 2556SOL    HW1 8567   4.218   6.090   1.012
 2556SOL    HW2 8568   4.109   6.003   1.097
 2557SOL     OW 8569   2.357   1.444   6.285
 2557SOL    HW1 8570   2.389   1.497   6.363
 2557SOL    HW2 8571   2.278   1.389   6.311
 2558SOL     OW 8572   4.147   3.779   5.148
 2558SOL    HW1 8573   4.127   3.875   5.128
 2558SOL    HW2 8574   4.241   3.770   5.180
 2559SOL     OW 8575   5.965   3.228   4.003
 2559SOL    HW1 8576   6.053   3.244   3.959
 2559SOL    HW2 8577   5.904   3.181   3.938
 2560SOL     OW 8578   4.845   3.775   3.864
 2560SOL    HW1 8579   4.803   3.755   3.776
 2560SOL    HW2 8580   4.924   3.715   3.878
 2561SOL     OW 8581   3.305   0.585   3.688
 2561SOL    HW1 8582   3.306   0.485   3.692
 2561SOL    HW2 8583   3.335   0.615   3.598
 2562SOL     OW 8584   2.389   5.219   3.053
 2562SOL    HW1 8585   2.440   5.278   2.991
 2562SOL    HW2 8586   2.395   5.255   3.146
 2563SOL     OW 8587   4.085   1.390   6.464
 2563SOL    HW1 8588   4.150   1.460   6.435
 2563SOL    HW2 8589   4.008   1.386   6.401
 2564SOL     OW 8590   1.349   6.282   6.648
 2564SOL    HW1 8591   1.437   6.236   6.639
 2564SOL    HW2 8592   1.362   6.371   6.692
 2565SOL     OW 8593   0.476   0.737   0.972
 2565SOL    HW1 8594   0.406   0.711   1.038
 2565SOL    HW2 8595   0.502   0.658   0.917
 2566SOL     OW 8596   1.474   6.788   0.687
 2566SOL    HW1 8597   1.422   6.805   0.603
 2566SOL    HW2 8598   1.504   6.693   0.689
 2567SOL     OW 8599   1.115   1.400   1.796
 2567SOL    HW1 8600   1.039   1.425   1.736
 2567SOL    HW2 8601   1.083   1.399   1.891
 2568SOL     OW 8602   3.187   0.470   0.428
 2568SOL    HW1 8603   3.147   0.534   0.493
 2568SOL    HW2 8604   3.286   0.463   0.443
 2569SOL     OW 8605   2.095   1.391   2.182
 2569SOL    HW1 8606   2.129   1.345   2.264
 2569SOL    HW2 8607   2.038   1.328   2.130
 2570SOL     OW 8608   5.124   6.597   6.390
 2570SOL    HW1 8609   5.080   6.520   6.437
 2570SOL    HW2 8610   5.056   6.650   6.340
 2571SOL     OW 8611   2.976   3.321   4.427
 2571SOL    HW1 8612   2.965   3.258   4.504
 2571SOL    HW2 8613   3.069   3.358   4.428
 2572SOL     OW 8614   1.564   6.532   0.981
 2572SOL    HW1 8615   1.519   6.500   0.897
 2572SOL    HW2 8616   1.533   6.477   1.058
 2573SOL     OW 8617   6.449   1.093   1.907
 2573SOL    HW1 8618   6.455   1.088   1.807
 2573SOL    HW2 8619   6.477   1.005   1.946
 2574SOL     OW 8620   6.399   3.144   0.482
 2574SOL    HW1 8621   6.348   3.204   0.420
 2574SOL    HW2 8622   6.363   3.051   0.475
 2575SOL     OW 8623   4.959   4.014   1.528
 2575SOL    HW1 8624   5.015   4.014   1.445
 2575SOL    HW2 8625   4.924   3.922   1.546
 2576SOL     OW 8626   4.055   6.583   3.866
 2576SOL    HW1 8627   4.055   6.614   3.771
 2576SOL    HW2 8628   4.010   6.494   3.871
 2577SOL     OW 8629   4.503   0.604   3.042
 2577SOL    HW1 8630   4.405   0.587   3.037
 2577SOL    HW2 8631   4.553   0.518   3.033
 2578SOL     OW 8632   4.157   3.151   5.560
 2578SOL    HW1 8633   4.118   3.060   5.547
 2578SOL    HW2 8634   4.215   3.174   5.482
 2579SOL     OW 8635   1.195   1.708   4.597
 2579SOL    HW1 8636   1.267   1.642   4.616
 2579SOL    HW2 8637   1.111   1.660   4.574
 2580SOL     OW 8638   1.708   3.038   6.582
 2580SOL    HW1 8639   1.718   3.013   6.678
 2580SOL    HW2 8640   1.611   3.039   6.559
 2581SOL     OW 8641   5.943   4.826   1.838
 2581SOL    HW1 8642   5.979   4.846   1.929
 2581SOL    HW2 8643   5.944   4.727   1.823
 2582SOL     OW 8644   1.587   4.697   2.658
 2582SOL    HW1 8645   1.578   4.752   2.575
 2582SOL    HW2 8646   1.611   4.757   2.734
 2583SOL     OW 8647   1.586   1.176   1.349
 2583SOL    HW1 8648   1.641   1.097   1.375
 2583SOL    HW2 8649   1.516   1.149   1.282
 2584SOL     OW 8650   3.861   5.581   6.900
 2584SOL    HW1 8651   3.795   5.576   6.975
 2584SOL    HW2 8652   3.940   5.524   6.921
 2585SOL     OW 8653   3.427   0.607   0.131
 2585SOL    HW1 8654   3.420   0.671   0.054
 2585SOL    HW2 8655   3.344   0.551   0.136
 2586SOL     OW 8656   4.606   1.882   4.181
 2586SOL    HW1 8657   4.549   1.930   4.115
 2586SOL    HW2 8658   4.568   1.894   4.273
 2587SOL     OW 8659   6.434   1.444   4.509
 2587SOL    HW1 8660   6.470   1.351   4.504
 2587SOL    HW2 8661   6.491   1.498   4.571
 2588SOL     OW 8662   4.652   0.209   0.447
 2588SOL    HW1 8663   4.580   0.271   0.480
 2588SOL    HW2 8664   4.632   0.116   0.477
 2589SOL     OW 8665   0.457   6.335   5.969
 2589SOL    HW1 8666   0.477   6.400   6.042
 2589SOL    HW2 8667   0.474   6.242   6.002
 2590SOL     OW 8668   3.268   6.353   2.539
 2590SOL    HW1 8669   3.172   6.332   2.556
 2590SOL    HW2 8670   3.323   6.270   2.554
 2591SOL     OW 8671   5.915   6.175   2.662
 2591SOL    HW1 8672   5.920   6.205   2.757
 2591SOL    HW2 8673   5.956   6.084   2.654
 2592SOL     OW 8674   2.542   0.203   1.180
 2592SOL    HW1 8675   2.640   0.215   1.193
 2592SOL    HW2 8676   2.494   0.285   1.213
 2593SOL     OW 8677   3.307   6.666   1.992
 2593SOL    HW1 8678   3.291   6.595   2.061
 2593SOL    HW2 8679   3.337   6.750   2.038
 2594SOL     OW 8680   0.209   6.273   6.076
 2594SOL    HW1 8681   0.281   6.300   6.012
 2594SOL    HW2 8682   0.126   6.252   6.024
 2595SOL     OW 8683   6.262   1.625   5.513
 2595SOL    HW1 8684   6.362   1.635   5.513
 2595SOL    HW2 8685   6.227   1.649   5.603
 2596SOL     OW 8686   3.891   2.292   1.729
 2596SOL    HW1 8687   3.951   2.264   1.804
 2596SOL    HW2 8688   3.797   2.300   1.763
 2597SOL     OW 8689   2.042   4.242   0.634
 2597SOL    HW1 8690   2.126   4.293   0.615
 2597SOL    HW2 8691   2.005   4.269   0.723
 2598SOL     OW 8692   5.959   1.600   4.463
 2598SOL    HW1 8693   5.979   1.512   4.421
 2598SOL    HW2 8694   5.978   1.673   4.397
 2599SOL     OW 8695   3.165   0.048   0.570
 2599SOL    HW1 8696   3.224   0.092   0.637
 2599SOL    HW2 8697   3.144   0.113   0.496
 2600SOL     OW 8698   4.944   3.656   4.819
 2600SOL    HW1 8699   4.943   3.562   4.785
 2600SOL    HW2 8700   4.892   3.662   4.904
 2601SOL     OW 8701   3.308   1.700   6.707
 2601SOL    HW1 8702   3.334   1.770   6.640
 2601SOL    HW2 8703   3.294   1.744   6.796
 2602SOL     OW 8704   6.700   5.027   3.705
 2602SOL    HW1 8705   6.716   5.080   3.788
 2602SOL    HW2 8706   6.617   5.060   3.661
 2603SOL     OW 8707   2.196   2.714   1.732
 2603SOL    HW1 8708   2.110   2.758   1.761
 2603SOL    HW2 8709   2.269   2.740   1.795
 2604SOL     OW 8710   5.040   1.281   2.959
 2604SOL    HW1 8711   5.118   1.316   3.012
 2604SOL    HW2 8712   5.059   1.188   2.928
 2605SOL     OW 8713   3.346   5.026   3.694
 2605SOL    HW1 8714   3.366   5.077   3.610
 2605SOL    HW2 8715   3.287   5.081   3.753
 2606SOL     OW 8716   6.954   4.705   0.374
 2606SOL    HW1 8717   7.028   4.701   0.307
 2606SOL    HW2 8718   6.970   4.638   0.446
 2607SOL     OW 8719   0.747   1.749   6.038
 2607SOL    HW1 8720   0.734   1.846   6.059
 2607SOL    HW2 8721   0.661   1.709   6.006
 2608SOL     OW 8722   3.877   5.540   2.408
 2608SOL    HW1 8723   3.804   5.480   2.377
 2608SOL    HW2 8724   3.855   5.575   2.499
 2609SOL     OW 8725   0.366   2.631   1.701
 2609SOL    HW1 8726   0.291   2.649   1.765
 2609SOL    HW2 8727   0.406   2.717   1.672
 2610SOL     OW 8728   6.952   5.010   4.514
 2610SOL    HW1 8729   6.963   5.094   4.568
 2610SOL    HW2 8730   0.013   4.971   4.494
 2611SOL     OW 8731   5.761   0.029   1.138
 2611SOL    HW1 8732   5.704   6.990   1.094
 2611SOL    HW2 8733   5.726   0.120   1.116
 2612SOL     OW 8734   0.039   6.701   5.693
 2612SOL    HW1 8735   0.075   6.625   5.746
 2612SOL    HW2 8736   0.106   6.730   5.625
 2613SOL     OW 8737   3.005   6.656   1.072
 2613SOL    HW1 8738   2.966   6.603   0.997
 2613SOL    HW2 8739   2.947   6.647   1.153
 2614SOL     OW 8740   6.956   0.178   6.275
 2614SOL    HW1 8741   6.962   0.235   6.357
 2614SOL    HW2 8742   6.860   0.160   6.255
 2615SOL     OW 8743   6.066   4.281   2.908
 2615SOL    HW1 8744   6.165   4.284   2.896
 2615SOL    HW2 8745   6.021   4.287   2.819
 2616SOL     OW 8746   4.048   3.358   3.717
 2616SOL    HW1 8747   4.083   3.369   3.624
 2616SOL    HW2 8748   4.076   3.436   3.773
 2617SOL     OW 8749   3.858   6.483   1.015
 2617SOL    HW1 8750   3.766   6.450   1.033
 2617SOL    HW2 8751   3.854   6.569   0.964
 2618SOL     OW 8752   0.268   6.808   3.996
 2618SOL    HW1 8753   0.322   6.772   4.071
 2618SOL    HW2 8754   0.296   6.903   3.978
 2619SOL     OW 8755   2.844   1.371   3.506
 2619SOL    HW1 8756   2.919   1.309   3.484
 2619SOL    HW2 8757   2.763   1.343   3.454
 2620SOL     OW 8758   0.924   6.138   3.411
 2620SOL    HW1 8759   0.917   6.198   3.491
 2620SOL    HW2 8760   0.882   6.184   3.332
 2621SOL     OW 8761   2.082   5.931   3.037
 2621SOL    HW1 8762   2.023   5.930   2.956
 2621SOL    HW2 8763   2.026   5.940   3.119
 2622SOL     OW 8764   2.877   1.745   0.014
 2622SOL    HW1 8765   2.806   1.815   0.008
 2622SOL    HW2 8766   2.834   1.655   0.026
 2623SOL     OW 8767   3.491   2.119   4.547
 2623SOL    HW1 8768   3.504   2.040   4.487
 2623SOL    HW2 8769   3.407   2.167   4.523
 2624SOL     OW 8770   6.406   3.440   4.768
 2624SOL    HW1 8771   6.391   3.537   4.747
 2624SOL    HW2 8772   6.382   3.385   4.688
 2625SOL     OW 8773   2.450   2.808   6.196
 2625SOL    HW1 8774   2.413   2.897   6.169
 2625SOL    HW2 8775   2.516   2.820   6.270
 2626SOL     OW 8776   1.004   0.384   5.176
 2626SOL    HW1 8777   1.028   0.417   5.268
 2626SOL    HW2 8778   0.913   0.343   5.178
 2627SOL     OW 8779   0.372   0.475   5.086
 2627SOL    HW1 8780   0.437   0.449   5.015
 2627SOL    HW2 8781   0.384   0.416   5.166
 2628SOL     OW 8782   2.686   5.357   6.707
 2628SOL    HW1 8783   2.725   5.273   6.670
 2628SOL    HW2 8784   2.618   5.335   6.777
 2629SOL     OW 8785   3.231   4.244   1.771
 2629SOL    HW1 8786   3.259   4.148   1.758
 2629SOL    HW2 8787   3.160   4.249   1.841
 2630SOL     OW 8788   3.004   1.587   3.595
 2630SOL    HW1 8789   2.953   1.511   3.555
 2630SOL    HW2 8790   3.040   1.646   3.522
 2631SOL     OW 8791   4.658   0.744   4.237
 2631SOL    HW1 8792   4.751   0.779   4.223
 2631SOL    HW2 8793   4.602   0.766   4.157
 2632SOL     OW 8794   2.664   1.881   6.526
 2632SOL    HW1 8795   2.716   1.917   6.449
 2632SOL    HW2 8796   2.712   1.804   6.567
 2633SOL     OW 8797   6.307   1.908   5.446
 2633SOL    HW1 8798   6.238   1.980   5.457
 2633SOL    HW2 8799   6.288   1.834   5.512
 2634SOL     OW 8800   1.904   4.317   2.528
 2634SOL    HW1 8801   1.865   4.252   2.463
 2634SOL    HW2 8802   1.911   4.274   2.618
 2635SOL     OW 8803   5.714   6.313   4.647
 2635SOL    HW1 8804   5.673   6.400   4.618
 2635SOL    HW2 8805   5.761   6.271   4.569
 2636SOL     OW 8806   4.439   0.876   5.526
 2636SOL    HW1 8807   4.436   0.796   5.466
 2636SOL    HW2 8808   4.350   0.920   5.527
 2637SOL     OW 8809   6.171   1.332   3.543
 2637SOL    HW1 8810   6.171   1.362   3.638
 2637SOL    HW2 8811   6.183   1.411   3.483
 2638SOL     OW 8812   0.127   6.976   2.972
 2638SOL    HW1 8813   0.146   6.980   2.874
 2638SOL    HW2 8814   0.043   6.925   2.989
 2639SOL     OW 8815   1.473   0.198   1.921
 2639SOL    HW1 8816   1.423   0.134   1.863
 2639SOL    HW2 8817   1.478   0.287   1.876
 2640SOL     OW 8818   6.878   5.999   4.612
 2640SOL    HW1 8819   6.832   6.010   4.700
 2640SOL    HW2 8820   6.886   5.901   4.590
 2641SOL     OW 8821   5.083   3.069   2.230
 2641SOL    HW1 8822   4.988   3.044   2.210
 2641SOL    HW2 8823   5.101   3.162   2.200
 2642SOL     OW 8824   4.623   6.948   4.503
 2642SOL    HW1 8825   4.619   7.025   4.567
 2642SOL    HW2 8826   4.554   6.881   4.528
 2643SOL     OW 8827   1.268   4.768   2.733
 2643SOL    HW1 8828   1.228   4.780   2.642
 2643SOL    HW2 8829   1.195   4.773   2.801
 2644SOL     OW 8830   6.490   5.103   6.249
 2644SOL    HW1 8831   6.558   5.177   6.257
 2644SOL    HW2 8832   6.443   5.091   6.336
 2645SOL     OW 8833   4.258   5.700   4.029
 2645SOL    HW1 8834   4.195   5.652   4.090
 2645SOL    HW2 8835   4.243   5.670   3.935
 2646SOL     OW 8836   5.853   0.113   6.431
 2646SOL    HW1 8837   5.921   0.044   6.404
 2646SOL    HW2 8838   5.832   0.103   6.528
 2647SOL     OW 8839   6.298   0.507   1.662
 2647SOL    HW1 8840   6.234   0.433   1.683
 2647SOL    HW2 8841   6.257   0.595   1.685
 2648SOL     OW 8842   0.087   0.365   3.210
 2648SOL    HW1 8843   0.096   0.361   3.309
 2648SOL    HW2 8844   0.171   0.400   3.170
 2649SOL     OW 8845   5.559   3.211   6.195
 2649SOL    HW1 8846   5.554   3.257   6.106
 2649SOL    HW2 8847   5.589   3.117   6.182
 2650SOL     OW 8848   0.892   3.752   4.187
 2650SOL    HW1 8849   0.840   3.669   4.167
 2650SOL    HW2 8850   0.847   3.831   4.147
 2651SOL     OW 8851   0.170   2.342   6.991
 2651SOL    HW1 8852   0.240   2.373   0.026
 2651SOL    HW2 8853   0.111   2.274   0.006
 2652SOL     OW 8854   3.319   3.700   3.696
 2652SOL    HW1 8855   3.287   3.670   3.785
 2652SOL    HW2 8856   3.311   3.625   3.630
 2653SOL     OW 8857   5.031   0.184   5.437
 2653SOL    HW1 8858   5.119   0.198   5.391
 2653SOL    HW2 8859   4.987   0.272   5.453
 2654SOL     OW 8860   4.822   4.588   1.193
 2654SOL    HW1 8861   4.812   4.531   1.275
 2654SOL    HW2 8862   4.748   4.655   1.189
 2655SOL     OW 8863   5.386   4.734   4.480
 2655SOL    HW1 8864   5.371   4.660   4.415
 2655SOL    HW2 8865   5.443   4.805   4.438
 2656SOL     OW 8866   4.103   4.880   4.146
 2656SOL    HW1 8867   4.004   4.874   4.145
 2656SOL    HW2 8868   4.133   4.963   4.098
 2657SOL     OW 8869   2.612   4.122   6.515
 2657SOL    HW1 8870   2.703   4.084   6.530
 2657SOL    HW2 8871   2.620   4.214   6.476
 2658SOL     OW 8872   5.352   4.161   0.605
 2658SOL    HW1 8873   5.277   4.106   0.570
 2658SOL    HW2 8874   5.318   4.249   0.637
 2659SOL     OW 8875   6.192   2.858   4.567
 2659SOL    HW1 8876   6.159   2.944   4.606
 2659SOL    HW2 8877   6.158   2.849   4.473
 2660SOL     OW 8878   0.517   1.614   0.843
 2660SOL    HW1 8879   0.510   1.560   0.759
 2660SOL    HW2 8880   0.614   1.629   0.864
 2661SOL     OW 8881   2.363   6.450   1.145
 2661SOL    HW1 8882   2.318   6.416   1.227
 2661SOL    HW2 8883   2.309   6.426   1.064
 2662SOL     OW 8884   4.152   0.480   5.582
 2662SOL    HW1 8885   4.174   0.578   5.578
 2662SOL    HW2 8886   4.167   0.439   5.492
 2663SOL     OW 8887   2.780   3.805   1.291
 2663SOL    HW1 8888   2.844   3.744   1.243
 2663SOL    HW2 8889   2.702   3.751   1.324
 2664SOL     OW 8890   3.807   3.592   4.790
 2664SOL    HW1 8891   3.718   3.637   4.785
 2664SOL    HW2 8892   3.867   3.646   4.850
 2665SOL     OW 8893   2.764   2.457   5.305
 2665SOL    HW1 8894   2.717   2.519   5.367
 2665SOL    HW2 8895   2.863   2.462   5.321
 2666SOL     OW 8896   4.810   3.938   1.852
 2666SOL    HW1 8897   4.889   3.981   1.809
 2666SOL    HW2 8898   4.831   3.920   1.948
 2667SOL     OW 8899   1.396   5.764   4.384
 2667SOL    HW1 8900   1.454   5.843   4.367
 2667SOL    HW2 8901   1.354   5.772   4.475
 2668SOL     OW 8902   5.853   3.305   3.583
 2668SOL    HW1 8903   5.770   3.282   3.635
 2668SOL    HW2 8904   5.862   3.241   3.507
 2669SOL     OW 8905   3.215   5.071   5.066
 2669SOL    HW1 8906   3.140   5.005   5.073
 2669SOL    HW2 8907   3.200   5.131   4.988
 2670SOL     OW 8908   5.437   2.001   6.414
 2670SOL    HW1 8909   5.509   2.055   6.370
 2670SOL    HW2 8910   5.348   2.033   6.382
 2671SOL     OW 8911   3.859   5.364   6.589
 2671SOL    HW1 8912   3.787   5.427   6.562
 2671SOL    HW2 8913   3.847   5.277   6.540
 2672SOL     OW 8914   6.908   5.061   0.159
 2672SOL    HW1 8915   6.846   5.061   0.237
 2672SOL    HW2 8916   6.912   5.152   0.119
 2673SOL     OW 8917   6.474   1.774   3.726
 2673SOL    HW1 8918   6.378   1.782   3.697
 2673SOL    HW2 8919   6.525   1.720   3.659
 2674SOL     OW 8920   1.757   4.209   3.572
 2674SOL    HW1 8921   1.821   4.132   3.577
 2674SOL    HW2 8922   1.806   4.290   3.539
 2675SOL     OW 8923   6.558   5.130   4.735
 2675SOL    HW1 8924   6.459   5.118   4.741
 2675SOL    HW2 8925   6.587   5.119   4.639
 2676SOL     OW 8926   4.682   1.232   1.681
 2676SOL    HW1 8927   4.642   1.274   1.599
 2676SOL    HW2 8928   4.608   1.202   1.742
 2677SOL     OW 8929   3.228   4.475   0.130
 2677SOL    HW1 8930   3.304   4.414   0.109
 2677SOL    HW2 8931   3.142   4.434   0.098
 2678SOL     OW 8932   6.753   4.614   1.330
 2678SOL    HW1 8933   6.763   4.598   1.428
 2678SOL    HW2 8934   6.686   4.551   1.292
 2679SOL     OW 8935   3.760   5.829   0.746
 2679SOL    HW1 8936   3.791   5.734   0.747
 2679SOL    HW2 8937   3.808   5.879   0.673
 2680SOL     OW 8938   0.804   1.830   0.718
 2680SOL    HW1 8939   0.798   1.829   0.618
 2680SOL    HW2 8940   0.850   1.914   0.748
 2681SOL     OW 8941   1.530   2.338   4.123
 2681SOL    HW1 8942   1.459   2.409   4.129
 2681SOL    HW2 8943   1.502   2.259   4.178
 2682SOL     OW 8944   5.406   3.924   2.854
 2682SOL    HW1 8945   5.361   3.936   2.942
 2682SOL    HW2 8946   5.501   3.897   2.869
 2683SOL     OW 8947   2.237   3.883   0.371
 2683SOL    HW1 8948   2.216   3.844   0.282
 2683SOL    HW2 8949   2.154   3.919   0.413
 2684SOL     OW 8950   4.615   5.926   1.475
 2684SOL    HW1 8951   4.535   5.974   1.440
 2684SOL    HW2 8952   4.585   5.847   1.528
 2685SOL     OW 8953   6.381   6.004   6.985
 2685SOL    HW1 8954   6.424   6.094   6.989
 2685SOL    HW2 8955   6.357   5.983   6.890
 2686SOL     OW 8956   1.572   1.662   5.528
 2686SOL    HW1 8957   1.476   1.691   5.535
 2686SOL    HW2 8958   1.583   1.572   5.569
 2687SOL     OW 8959   4.452   4.467   2.564
 2687SOL    HW1 8960   4.463   4.432   2.471
 2687SOL    HW2 8961   4.508   4.412   2.627
 2688SOL     OW 8962   4.698   5.537   6.877
 2688SOL    HW1 8963   4.753   5.541   6.961
 2688SOL    HW2 8964   4.690   5.629   6.839
 2689SOL     OW 8965   1.987   2.866   3.697
 2689SOL    HW1 8966   2.084   2.875   3.678
 2689SOL    HW2 8967   1.952   2.952   3.733
 2690SOL     OW 8968   3.353   3.697   4.041
 2690SOL    HW1 8969   3.315   3.677   4.131
 2690SOL    HW2 8970   3.375   3.611   3.994
 2691SOL     OW 8971   0.976   5.574   2.389
 2691SOL    HW1 8972   1.008   5.637   2.460
 2691SOL    HW2 8973   1.035   5.582   2.309
 2692SOL     OW 8974   4.022   4.819   3.595
 2692SOL    HW1 8975   4.077   4.763   3.533
 2692SOL    HW2 8976   4.057   4.810   3.688
 2693SOL     OW 8977   1.673   4.261   2.768
 2693SOL    HW1 8978   1.722   4.176   2.787
 2693SOL    HW2 8979   1.640   4.300   2.854
 2694SOL     OW 8980   4.396   6.718   2.636
 2694SOL    HW1 8981   4.394   6.720   2.536
 2694SOL    HW2 8982   4.458   6.645   2.666
 2695SOL     OW 8983   5.360   0.970   2.916
 2695SOL    HW1 8984   5.335   0.892   2.973
 2695SOL    HW2 8985   5.435   0.945   2.855
 2696SOL     OW 8986   3.976   3.567   5.169
 2696SOL    HW1 8987   4.029   3.650   5.154
 2696SOL    HW2 8988   3.951   3.560   5.266
 2697SOL     OW 8989   3.502   1.207   3.139
 2697SOL    HW1 8990   3.574   1.141   3.163
 2697SOL    HW2 8991   3.441   1.220   3.217
 2698SOL     OW 8992   2.051   5.609   0.509
 2698SOL    HW1 8993   2.085   5.622   0.602
 2698SOL    HW2 8994   2.072   5.690   0.454
 2699SOL     OW 8995   3.275   6.498   0.370
 2699SOL    HW1 8996   3.372   6.519   0.365
 2699SOL    HW2 8997   3.262   6.416   0.426
 2700SOL     OW 8998   1.766   4.169   1.091
 2700SOL    HW1 8999   1.723   4.250   1.130
 2700SOL    HW2 9000   1.743   4.162   0.994
 2701SOL     OW 9001   3.217   0.480   6.564
 2701SOL    HW1 9002   3.135   0.424   6.577
 2701SOL    HW2 9003   3.217   0.520   6.473
 2702SOL     OW 9004   1.186   3.136   3.235
 2702SOL    HW1 9005   1.132   3.055   3.213
 2702SOL    HW2 9006   1.239   3.120   3.318
 2703SOL     OW 9007   2.277   0.692   2.506
 2703SOL    HW1 9008   2.353   0.639   2.542
 2703SOL    HW2 9009   2.295   0.716   2.410
 2704SOL     OW 9010   0.209   6.308   0.869
 2704SOL    HW1 9011   0.168   6.224   0.905
 2704SOL    HW2 9012   0.274   6.286   0.797
 2705SOL     OW 9013   1.573   5.439   4.199
 2705SOL    HW1 9014   1.608   5.364   4.143
 2705SOL    HW2 9015   1.524   5.504   4.142
 2706SOL     OW 9016   0.204   0.583   1.459
 2706SOL    HW1 9017   0.259   0.666   1.450
 2706SOL    HW2 9018   0.135   0.596   1.530
 2707SOL     OW 9019   2.128   0.937   5.205
 2707SOL    HW1 9020   2.174   0.886   5.133
 2707SOL    HW2 9021   2.076   1.013   5.165
 2708SOL     OW 9022   0.984   2.050   0.772
 2708SOL    HW1 9023   0.980   2.089   0.680
 2708SOL    HW2 9024   0.928   2.105   0.834
 2709SOL     OW 9025   5.459   6.185   0.524
 2709SOL    HW1 9026   5.446   6.249   0.599
 2709SOL    HW2 9027   5.515   6.108   0.555
 2710SOL     OW 9028   0.567   3.232   2.987
 2710SOL    HW1 9029   0.586   3.139   2.956
 2710SOL    HW2 9030   0.629   3.256   3.063
 2711SOL     OW 9031   2.425   1.268   3.572
 2711SOL    HW1 9032   2.360   1.194   3.587
 2711SOL    HW2 9033   2.424   1.331   3.650
 2712SOL     OW 9034   3.338   4.878   0.773
 2712SOL    HW1 9035   3.434   4.886   0.799
 2712SOL    HW2 9036   3.286   4.954   0.811
 2713SOL     OW 9037   2.213   2.103   4.839
 2713SOL    HW1 9038   2.290   2.112   4.775
 2713SOL    HW2 9039   2.195   2.005   4.854
 2714SOL     OW 9040   4.845   2.222   0.034
 2714SOL    HW1 9041   4.886   2.151   7.007
 2714SOL    HW2 9042   4.857   2.199   0.131
 2715SOL     OW 9043   5.309   0.892   0.224
 2715SOL    HW1 9044   5.340   0.899   0.319
 2715SOL    HW2 9045   5.251   0.811   0.214
 2716SOL     OW 9046   5.273   5.002   2.983
 2716SOL    HW1 9047   5.312   5.090   3.008
 2716SOL    HW2 9048   5.341   4.946   2.936
 2717SOL     OW 9049   2.559   4.862   2.050
 2717SOL    HW1 9050   2.621   4.829   2.121
 2717SOL    HW2 9051   2.574   4.812   1.965
 2718SOL     OW 9052   1.486   3.559   5.747
 2718SOL    HW1 9053   1.519   3.612   5.825
 2718SOL    HW2 9054   1.398   3.594   5.717
 2719SOL     OW 9055   6.277   5.731   1.469
 2719SOL    HW1 9056   6.373   5.724   1.496
 2719SOL    HW2 9057   6.235   5.641   1.474
 2720SOL     OW 9058   1.958   6.366   2.549
 2720SOL    HW1 9059   1.864   6.373   2.585
 2720SOL    HW2 9060   1.962   6.411   2.460
 2721SOL     OW 9061   3.179   0.559   4.125
 2721SOL    HW1 9062   3.084   0.577   4.099
 2721SOL    HW2 9063   3.218   0.641   4.167
 2722SOL     OW 9064   6.994   5.867   1.816
 2722SOL    HW1 9065   7.001   5.838   1.721
 2722SOL    HW2 9066   0.053   5.898   1.848
 2723SOL     OW 9067   0.971   6.376   5.873
 2723SOL    HW1 9068   0.928   6.318   5.942
 2723SOL    HW2 9069   0.956   6.472   5.895
 2724SOL     OW 9070   2.333   7.002   6.462
 2724SOL    HW1 9071   2.276   6.947   6.401
 2724SOL    HW2 9072   2.282   7.024   6.545
 2725SOL     OW 9073   6.374   4.792   4.158
 2725SOL    HW1 9074   6.414   4.848   4.086
 2725SOL    HW2 9075   6.289   4.834   4.191
 2726SOL     OW 9076   0.256   3.593   1.223
 2726SOL    HW1 9077   0.336   3.561   1.274
 2726SOL    HW2 9078   0.231   3.524   1.155
 2727SOL     OW 9079   0.509   5.154   3.672
 2727SOL    HW1 9080   0.449   5.115   3.742
 2727SOL    HW2 9081   0.543   5.080   3.613
 2728SOL     OW 9082   3.867   6.945   6.042
 2728SOL    HW1 9083   3.915   6.931   5.955
 2728SOL    HW2 9084   3.775   6.906   6.035
 2729SOL     OW 9085   6.264   5.405   1.162
 2729SOL    HW1 9086   6.324   5.383   1.239
 2729SOL    HW2 9087   6.319   5.444   1.087
 2730SOL     OW 9088   1.893   5.445   2.027
 2730SOL    HW1 9089   1.978   5.486   1.993
 2730SOL    HW2 9090   1.890   5.454   2.127
 2731SOL     OW 9091   3.976   3.538   2.041
 2731SOL    HW1 9092   4.032   3.579   2.113
 2731SOL    HW2 9093   3.931   3.610   1.989
 2732SOL     OW 9094   5.411   3.179   2.194
 2732SOL    HW1 9095   5.319   3.213   2.213
 2732SOL    HW2 9096   5.470   3.195   2.274
 2733SOL     OW 9097   0.443   6.705   4.884
 2733SOL    HW1 9098   0.438   6.662   4.794
 2733SOL    HW2 9099   0.358   6.756   4.901
 2734SOL     OW 9100   2.445   5.944   1.768
 2734SOL    HW1 9101   2.399   5.941   1.679
 2734SOL    HW2 9102   2.466   6.039   1.791
 2735SOL     OW 9103   0.986   3.272   2.608
 2735SOL    HW1 9104   1.065   3.241   2.556
 2735SOL    HW2 9105   0.995   3.243   2.703
 2736SOL     OW 9106   4.057   0.033   4.596
 2736SOL    HW1 9107   4.124   0.067   4.529
 2736SOL    HW2 9108   4.099   6.992   4.652
 2737SOL     OW 9109   3.833   3.758   5.715
 2737SOL    HW1 9110   3.816   3.854   5.740
 2737SOL    HW2 9111   3.782   3.698   5.775
 2738SOL     OW 9112   5.829   4.979   4.163
 2738SOL    HW1 9113   5.790   4.891   4.192
 2738SOL    HW2 9114   5.870   5.024   4.242
 2739SOL     OW 9115   6.532   5.338   0.511
 2739SOL    HW1 9116   6.531   5.260   0.448
 2739SOL    HW2 9117   6.482   5.414   0.470
 2740SOL     OW 9118   6.231   3.491   2.422
 2740SOL    HW1 9119   6.157   3.454   2.477
 2740SOL    HW2 9120   6.200   3.504   2.328
 2741SOL     OW 9121   6.585   1.137   5.524
 2741SOL    HW1 9122   6.584   1.044   5.488
 2741SOL    HW2 9123   6.520   1.193   5.472
 2742SOL     OW 9124   1.857   4.664   6.827
 2742SOL    HW1 9125   1.892   4.570   6.827
 2742SOL    HW2 9126   1.903   4.717   6.755
 2743SOL     OW 9127   6.398   5.499   2.500
 2743SOL    HW1 9128   6.476   5.469   2.444
 2743SOL    HW2 9129   6.429   5.515   2.594
 2744SOL     OW 9130   4.562   1.770   0.177
 2744SOL    HW1 9131   4.464   1.767   0.197
 2744SOL    HW2 9132   4.584   1.858   0.134
 2745SOL     OW 9133   0.969   6.917   6.752
 2745SOL    HW1 9134   0.955   6.981   6.676
 2745SOL    HW2 9135   0.897   6.931   6.821
 2746SOL     OW 9136   2.515   2.191   3.563
 2746SOL    HW1 9137   2.518   2.091   3.551
 2746SOL    HW2 9138   2.481   2.233   3.478
 2747SOL     OW 9139   5.495   3.322   5.941
 2747SOL    HW1 9140   5.400   3.325   5.971
 2747SOL    HW2 9141   5.499   3.295   5.845
 2748SOL     OW 9142   4.269   1.864   0.723
 2748SOL    HW1 9143   4.281   1.899   0.816
 2748SOL    HW2 9144   4.172   1.844   0.707
 2749SOL     OW 9145   5.865   4.769   3.830
 2749SOL    HW1 9146   5.831   4.860   3.807
 2749SOL    HW2 9147   5.790   4.703   3.822
 2750SOL     OW 9148   0.561   4.954   1.159
 2750SOL    HW1 9149   0.621   4.886   1.116
 2750SOL    HW2 9150   0.567   4.945   1.259
 2751SOL     OW 9151   0.501   6.535   0.592
 2751SOL    HW1 9152   0.523   6.515   0.688
 2751SOL    HW2 9153   0.567   6.489   0.533
 2752SOL     OW 9154   4.748   4.635   5.006
 2752SOL    HW1 9155   4.699   4.548   5.006
 2752SOL    HW2 9156   4.803   4.642   4.923
 2753SOL     OW 9157   1.076   6.580   6.093
 2753SOL    HW1 9158   1.134   6.651   6.053
 2753SOL    HW2 9159   1.123   6.492   6.088
 2754SOL     OW 9160   6.535   0.785   4.066
 2754SOL    HW1 9161   6.491   0.730   3.995
 2754SOL    HW2 9162   6.632   0.795   4.044
 2755SOL     OW 9163   2.604   6.533   3.669
 2755SOL    HW1 9164   2.575   6.484   3.587
 2755SOL    HW2 9165   2.531   6.594   3.700
 2756SOL     OW 9166   5.842   4.180   5.507
 2756SOL    HW1 9167   5.884   4.185   5.598
 2756SOL    HW2 9168   5.746   4.207   5.513
 2757SOL     OW 9169   2.300   1.712   6.160
 2757SOL    HW1 9170   2.296   1.615   6.186
 2757SOL    HW2 9171   2.331   1.766   6.238
 2758SOL     OW 9172   5.050   6.305   3.315
 2758SOL    HW1 9173   4.989   6.383   3.326
 2758SOL    HW2 9174   5.144   6.334   3.333
 2759SOL     OW 9175   4.586   5.799   5.175
 2759SOL    HW1 9176   4.655   5.872   5.176
 2759SOL    HW2 9177   4.495   5.840   5.166
 2760SOL     OW 9178   6.684   5.656   2.534
 2760SOL    HW1 9179   6.675   5.567   2.491
 2760SOL    HW2 9180   6.769   5.660   2.587
 2761SOL     OW 9181   2.028   4.218   4.508
 2761SOL    HW1 9182   2.123   4.198   4.532
 2761SOL    HW2 9183   1.994   4.150   4.444
 2762SOL     OW 9184   1.886   1.747   6.617
 2762SOL    HW1 9185   1.802   1.802   6.622
 2762SOL    HW2 9186   1.941   1.761   6.699
 2763SOL     OW 9187   4.787   2.154   5.020
 2763SOL    HW1 9188   4.774   2.199   5.109
 2763SOL    HW2 9189   4.757   2.216   4.948
 2764SOL     OW 9190   0.407   6.391   2.044
 2764SOL    HW1 9191   0.353   6.435   2.115
 2764SOL    HW2 9192   0.372   6.418   1.954
 2765SOL     OW 9193   6.886   0.158   0.811
 2765SOL    HW1 9194   6.894   0.063   0.783
 2765SOL    HW2 9195   6.978   0.196   0.825
 2766SOL     OW 9196   4.094   2.580   6.255
 2766SOL    HW1 9197   4.000   2.547   6.251
 2766SOL    HW2 9198   4.120   2.599   6.349
 2767SOL     OW 9199   6.542   5.336   6.562
 2767SOL    HW1 9200   6.451   5.328   6.601
 2767SOL    HW2 9201   6.597   5.256   6.587
 2768SOL     OW 9202   4.407   0.571   1.110
 2768SOL    HW1 9203   4.343   0.527   1.172
 2768SOL    HW2 9204   4.480   0.507   1.087
 2769SOL     OW 9205   2.667   4.339   6.356
 2769SOL    HW1 9206   2.685   4.281   6.277
 2769SOL    HW2 9207   2.635   4.428   6.325
 2770SOL     OW 9208   4.678   5.268   5.138
 2770SOL    HW1 9209   4.758   5.290   5.193
 2770SOL    HW2 9210   4.705   5.204   5.065
 2771SOL     OW 9211   5.739   0.861   4.610
 2771SOL    HW1 9212   5.709   0.936   4.670
 2771SOL    HW2 9213   5.838   0.866   4.597
 2772SOL     OW 9214   3.426   1.226   1.441
 2772SOL    HW1 9215   3.336   1.182   1.446
 2772SOL    HW2 9216   3.450   1.242   1.345
 2773SOL     OW 9217   6.603   2.672   3.801
 2773SOL    HW1 9218   6.514   2.630   3.786
 2773SOL    HW2 9219   6.636   2.650   3.893
 2774SOL     OW 9220   5.052   3.204   2.693
 2774SOL    HW1 9221   5.038   3.107   2.712
 2774SOL    HW2 9222   5.031   3.223   2.597
 2775SOL     OW 9223   6.409   3.321   4.177
 2775SOL    HW1 9224   6.396   3.420   4.169
 2775SOL    HW2 9225   6.337   3.274   4.126
 2776SOL     OW 9226   5.197   4.209   5.568
 2776SOL    HW1 9227   5.162   4.275   5.635
 2776SOL    HW2 9228   5.182   4.116   5.602
 2777SOL     OW 9229   2.400   1.847   1.211
 2777SOL    HW1 9230   2.492   1.885   1.202
 2777SOL    HW2 9231   2.394   1.794   1.295
 2778SOL     OW 9232   0.877   6.103   6.496
 2778SOL    HW1 9233   0.943   6.082   6.424
 2778SOL    HW2 9234   0.925   6.140   6.575
 2779SOL     OW 9235   5.578   6.687   1.899
 2779SOL    HW1 9236   5.595   6.602   1.848
 2779SOL    HW2 9237   5.626   6.762   1.855
 2780SOL     OW 9238   6.740   0.301   5.934
 2780SOL    HW1 9239   6.746   0.258   6.024
 2780SOL    HW2 9240   6.656   0.270   5.888
 2781SOL     OW 9241   6.182   0.525   3.490
 2781SOL    HW1 9242   6.271   0.520   3.536
 2781SOL    HW2 9243   6.194   0.564   3.398
 2782SOL     OW 9244   4.467   1.198   4.582
 2782SOL    HW1 9245   4.430   1.221   4.672
 2782SOL    HW2 9246   4.547   1.140   4.593
 2783SOL     OW 9247   0.061   4.203   1.900
 2783SOL    HW1 9248   7.027   4.222   1.975
 2783SOL    HW2 9249   0.011   4.194   1.814
 2784SOL     OW 9250   3.358   1.362   2.414
 2784SOL    HW1 9251   3.393   1.429   2.480
 2784SOL    HW2 9252   3.410   1.368   2.329
 2785SOL     OW 9253   5.243   2.337   0.439
 2785SOL    HW1 9254   5.273   2.430   0.456
 2785SOL    HW2 9255   5.183   2.336   0.358
 2786SOL     OW 9256   6.477   6.647   1.743
 2786SOL    HW1 9257   6.480   6.598   1.656
 2786SOL    HW2 9258   6.506   6.741   1.730
 2787SOL     OW 9259   6.075   6.671   5.753
 2787SOL    HW1 9260   6.021   6.621   5.820
 2787SOL    HW2 9261   6.046   6.645   5.661
 2788SOL     OW 9262   2.491   6.426   5.944
 2788SOL    HW1 9263   2.403   6.472   5.946
 2788SOL    HW2 9264   2.488   6.350   5.879
 2789SOL     OW 9265   1.967   1.782   3.621
 2789SOL    HW1 9266   1.959   1.854   3.690
 2789SOL    HW2 9267   1.878   1.767   3.578
 2790SOL     OW 9268   3.718   5.236   1.077
 2790SOL    HW1 9269   3.623   5.240   1.045
 2790SOL    HW2 9270   3.763   5.323   1.057
 2791SOL     OW 9271   0.901   4.244   2.183
 2791SOL    HW1 9272   0.863   4.235   2.091
 2791SOL    HW2 9273   0.851   4.184   2.246
 2792SOL     OW 9274   3.115   0.847   4.440
 2792SOL    HW1 9275   3.150   0.880   4.352
 2792SOL    HW2 9276   3.027   0.801   4.426
 2793SOL     OW 9277   5.151   3.605   2.029
 2793SOL    HW1 9278   5.230   3.575   1.974
 2793SOL    HW2 9279   5.069   3.558   1.997
 2794SOL     OW 9280   6.755   2.192   5.876
 2794SOL    HW1 9281   6.789   2.102   5.903
 2794SOL    HW2 9282   6.759   2.200   5.777
 2795SOL     OW 9283   0.587   4.167   1.271
 2795SOL    HW1 9284   0.513   4.123   1.220
 2795SOL    HW2 9285   0.569   4.265   1.277
 2796SOL     OW 9286   7.020   5.975   3.697
 2796SOL    HW1 9287   6.956   6.051   3.695
 2796SOL    HW2 9288   0.083   6.010   3.710
 2797SOL     OW 9289   5.249   4.988   5.679
 2797SOL    HW1 9290   5.188   5.027   5.748
 2797SOL    HW2 9291   5.196   4.968   5.596
 2798SOL     OW 9292   6.005   5.930   2.643
 2798SOL    HW1 9293   5.940   5.905   2.713
 2798SOL    HW2 9294   6.011   5.857   2.574
 2799SOL     OW 9295   5.874   5.970   6.334
 2799SOL    HW1 9296   5.825   5.928   6.257
 2799SOL    HW2 9297   5.956   6.016   6.300
 2800SOL     OW 9298   5.724   6.582   5.590
 2800SOL    HW1 9299   5.646   6.587   5.527
 2800SOL    HW2 9300   5.699   6.621   5.678
 2801SOL     OW 9301   0.518   5.595   5.957
 2801SOL    HW1 9302   0.561   5.562   6.041
 2801SOL    HW2 9303   0.561   5.551   5.878
 2802SOL     OW 9304   6.352   6.503   5.255
 2802SOL    HW1 9305   6.388   6.490   5.347
 2802SOL    HW2 9306   6.266   6.453   5.245
 2803SOL     OW 9307   3.743   4.960   5.941
 2803SOL    HW1 9308   3.789   4.877   5.909
 2803SOL    HW2 9309   3.646   4.955   5.920
 2804SOL     OW 9310   0.436   3.817   5.040
 2804SOL    HW1 9311   0.368   3.746   5.020
 2804SOL    HW2 9312   0.505   3.819   4.968
 2805SOL     OW 9313   5.467   3.462   2.850
 2805SOL    HW1 9314   5.509   3.402   2.918
 2805SOL    HW2 9315   5.507   3.445   2.760
 2806SOL     OW 9316   2.133   3.799   5.754
 2806SOL    HW1 9317   2.118   3.754   5.667
 2806SOL    HW2 9318   2.218   3.851   5.751
 2807SOL     OW 9319   4.212   0.537   3.114
 2807SOL    HW1 9320   4.170   0.628   3.117
 2807SOL    HW2 9321   4.158   0.478   3.054
 2808SOL     OW 9322   6.474   5.317   0.770
 2808SOL    HW1 9323   6.486   5.326   0.671
 2808SOL    HW2 9324   6.533   5.244   0.804
 2809SOL     OW 9325   5.230   2.189   1.713
 2809SOL    HW1 9326   5.173   2.254   1.662
 2809SOL    HW2 9327   5.250   2.110   1.656
 2810SOL     OW 9328   2.199   5.598   2.782
 2810SOL    HW1 9329   2.229   5.623   2.874
 2810SOL    HW2 9330   2.184   5.680   2.728
 2811SOL     OW 9331   0.773   1.947   2.852
 2811SOL    HW1 9332   0.815   1.896   2.778
 2811SOL    HW2 9333   0.683   1.908   2.874
 2812SOL     OW 9334   6.200   3.726   0.952
 2812SOL    HW1 9335   6.172   3.710   0.857
 2812SOL    HW2 9336   6.298   3.743   0.955
 2813SOL     OW 9337   0.897   1.833   6.849
 2813SOL    HW1 9338   0.811   1.801   6.812
 2813SOL    HW2 9339   0.957   1.755   6.869
 2814SOL     OW 9340   3.395   3.995   5.609
 2814SOL    HW1 9341   3.315   3.939   5.628
 2814SOL    HW2 9342   3.405   4.007   5.510
 2815SOL     OW 9343   6.404   5.033   6.526
 2815SOL    HW1 9344   6.365   5.120   6.556
 2815SOL    HW2 9345   6.497   5.024   6.562
 2816SOL     OW 9346   6.321   6.203   4.472
 2816SOL    HW1 9347   6.276   6.216   4.384
 2816SOL    HW2 9348   6.411   6.160   4.458
 2817SOL     OW 9349   3.305   0.865   2.825
 2817SOL    HW1 9350   3.376   0.797   2.810
 2817SOL    HW2 9351   3.318   0.907   2.915
 2818SOL     OW 9352   0.264   1.287   2.544
 2818SOL    HW1 9353   0.283   1.261   2.638
 2818SOL    HW2 9354   0.206   1.369   2.543
 2819SOL     OW 9355   1.312   0.336   2.126
 2819SOL    HW1 9356   1.409   0.338   2.150
 2819SOL    HW2 9357   1.283   0.241   2.112
 2820SOL     OW 9358   1.060   2.127   2.403
 2820SOL    HW1 9359   1.112   2.070   2.341
 2820SOL    HW2 9360   1.122   2.187   2.454
 2821SOL     OW 9361   2.924   4.909   6.143
 2821SOL    HW1 9362   3.000   4.849   6.168
 2821SOL    HW2 9363   2.878   4.873   6.062
 2822SOL     OW 9364   4.546   2.213   0.222
 2822SOL    HW1 9365   4.513   2.118   0.220
 2822SOL    HW2 9366   4.487   2.267   0.281
 2823SOL     OW 9367   6.221   0.534   0.028
 2823SOL    HW1 9368   6.145   0.599   0.021
 2823SOL    HW2 9369   6.191   0.452   0.075
 2824SOL     OW 9370   2.191   2.077   5.233
 2824SOL    HW1 9371   2.227   2.121   5.151
 2824SOL    HW2 9372   2.267   2.050   5.292
 2825SOL     OW 9373   5.718   6.931   5.500
 2825SOL    HW1 9374   5.749   6.860   5.437
 2825SOL    HW2 9375   5.619   6.926   5.511
 2826SOL     OW 9376   3.571   3.169   6.669
 2826SOL    HW1 9377   3.520   3.109   6.730
 2826SOL    HW2 9378   3.627   3.115   6.606
 2827SOL     OW 9379   0.298   0.859   6.478
 2827SOL    HW1 9380   0.360   0.828   6.550
 2827SOL    HW2 9381   0.205   0.827   6.498
 2828SOL     OW 9382   2.011   3.415   0.676
 2828SOL    HW1 9383   1.972   3.441   0.588
 2828SOL    HW2 9384   2.076   3.485   0.706
 2829SOL     OW 9385   3.022   3.242   3.617
 2829SOL    HW1 9386   2.968   3.326   3.622
 2829SOL    HW2 9387   3.055   3.228   3.524
 2830SOL     OW 9388   3.474   4.065   5.326
 2830SOL    HW1 9389   3.382   4.085   5.292
 2830SOL    HW2 9390   3.542   4.109   5.267
 2831SOL     OW 9391   1.384   3.283   2.716
 2831SOL    HW1 9392   1.351   3.375   2.739
 2831SOL    HW2 9393   1.326   3.215   2.760
 2832SOL     OW 9394   0.957   2.749   1.553
 2832SOL    HW1 9395   1.050   2.733   1.588
 2832SOL    HW2 9396   0.897   2.674   1.581
 2833SOL     OW 9397   2.701   1.780   2.014
 2833SOL    HW1 9398   2.792   1.797   2.051
 2833SOL    HW2 9399   2.640   1.751   2.088
 2834SOL     OW 9400   4.306   6.278   4.208
 2834SOL    HW1 9401   4.272   6.250   4.119
 2834SOL    HW2 9402   4.323   6.197   4.265
 2835SOL     OW 9403   0.733   7.002   0.548
 2835SOL    HW1 9404   0.788   7.004   0.465
 2835SOL    HW2 9405   0.641   0.006   0.528
 2836SOL     OW 9406   1.720   6.361   1.740
 2836SOL    HW1 9407   1.803   6.322   1.702
 2836SOL    HW2 9408   1.712   6.335   1.836
 2837SOL     OW 9409   5.278   4.564   2.584
 2837SOL    HW1 9410   5.307   4.469   2.594
 2837SOL    HW2 9411   5.356   4.620   2.556
 2838SOL     OW 9412   4.792   3.830   0.574
 2838SOL    HW1 9413   4.866   3.764   0.582
 2838SOL    HW2 9414   4.723   3.810   0.644
 2839SOL     OW 9415   0.420   2.926   2.656
 2839SOL    HW1 9416   0.501   2.969   2.616
 2839SOL    HW2 9417   0.383   2.985   2.728
 2840SOL     OW 9418   1.411   6.264   2.646
 2840SOL    HW1 9419   1.430   6.166   2.645
 2840SOL    HW2 9420   1.318   6.280   2.612
 2841SOL     OW 9421   6.415   2.573   6.423
 2841SOL    HW1 9422   6.409   2.672   6.428
 2841SOL    HW2 9423   6.503   2.546   6.385
 2842SOL     OW 9424   0.716   5.660   4.794
 2842SOL    HW1 9425   0.621   5.660   4.826
 2842SOL    HW2 9426   0.745   5.566   4.777
 2843SOL     OW 9427   2.508   1.673   2.189
 2843SOL    HW1 9428   2.518   1.640   2.283
 2843SOL    HW2 9429   2.416   1.711   2.176
 2844SOL     OW 9430   6.012   5.375   1.044
 2844SOL    HW1 9431   6.073   5.399   1.120
 2844SOL    HW2 9432   6.018   5.276   1.026
 2845SOL     OW 9433   5.330   3.334   2.623
 2845SOL    HW1 9434   5.287   3.354   2.711
 2845SOL    HW2 9435   5.308   3.240   2.595
 2846SOL     OW 9436   3.749   0.555   0.896
 2846SOL    HW1 9437   3.701   0.491   0.836
 2846SOL    HW2 9438   3.708   0.553   0.987
 2847SOL     OW 9439   5.168   3.872   3.056
 2847SOL    HW1 9440   5.207   3.955   3.096
 2847SOL    HW2 9441   5.076   3.891   3.023
 2848SOL     OW 9442   2.543   2.750   5.943
 2848SOL    HW1 9443   2.630   2.797   5.958
 2848SOL    HW2 9444   2.501   2.729   6.032
 2849SOL     OW 9445   3.592   0.974   1.573
 2849SOL    HW1 9446   3.540   0.960   1.489
 2849SOL    HW2 9447   3.625   1.068   1.577
 2850SOL     OW 9448   2.075   0.006   3.335
 2850SOL    HW1 9449   1.976   0.014   3.326
 2850SOL    HW2 9450   2.117   0.009   3.244
 2851SOL     OW 9451   4.755   3.188   6.784
 2851SOL    HW1 9452   4.728   3.278   6.752
 2851SOL    HW2 9453   4.676   3.127   6.783
 2852SOL     OW 9454   6.104   4.300   7.020
 2852SOL    HW1 9455   6.103   4.320   0.088
 2852SOL    HW2 9456   6.010   4.303   6.985
 2853SOL     OW 9457   0.992   2.922   0.153
 2853SOL    HW1 9458   1.041   2.896   0.070
 2853SOL    HW2 9459   0.968   3.018   0.149
 2854SOL     OW 9460   3.579   0.554   6.104
 2854SOL    HW1 9461   3.673   0.550   6.071
 2854SOL    HW2 9462   3.549   0.649   6.108
 2855SOL     OW 9463   1.563   2.527   5.124
 2855SOL    HW1 9464   1.553   2.626   5.117
 2855SOL    HW2 9465   1.529   2.484   5.040
 2856SOL     OW 9466   0.945   2.691   4.086
 2856SOL    HW1 9467   1.006   2.770   4.090
 2856SOL    HW2 9468   0.850   2.722   4.082
 2857SOL     OW 9469   0.442   2.731   1.254
 2857SOL    HW1 9470   0.499   2.737   1.336
 2857SOL    HW2 9471   0.496   2.755   1.174
 2858SOL     OW 9472   5.221   5.940   2.019
 2858SOL    HW1 9473   5.269   5.880   1.955
 2858SOL    HW2 9474   5.245   5.914   2.113
 2859SOL     OW 9475   5.893   6.612   6.974
 2859SOL    HW1 9476   5.944   6.526   6.971
 2859SOL    HW2 9477   5.796   6.593   6.955
 2860SOL     OW 9478   2.256   0.118   2.411
 2860SOL    HW1 9479   2.319   0.177   2.360
 2860SOL    HW2 9480   2.185   0.173   2.453
 2861SOL     OW 9481   3.520   5.742   5.288
 2861SOL    HW1 9482   3.438   5.773   5.241
 2861SOL    HW2 9483   3.551   5.655   5.247
 2862SOL     OW 9484   4.306   2.379   1.985
 2862SOL    HW1 9485   4.401   2.382   1.953
 2862SOL    HW2 9486   4.247   2.427   1.919
 2863SOL     OW 9487   5.053   1.690   6.641
 2863SOL    HW1 9488   4.974   1.677   6.581
 2863SOL    HW2 9489   5.030   1.755   6.713
 2864SOL     OW 9490   4.964   2.429   0.661
 2864SOL    HW1 9491   4.951   2.375   0.745
 2864SOL    HW2 9492   5.011   2.373   0.593
 2865SOL     OW 9493   4.309   6.806   3.890
 2865SOL    HW1 9494   4.289   6.724   3.944
 2865SOL    HW2 9495   4.281   6.790   3.795
 2866SOL     OW 9496   5.649   3.843   0.464
 2866SOL    HW1 9497   5.664   3.782   0.387
 2866SOL    HW2 9498   5.578   3.909   0.442
 2867SOL     OW 9499   5.761   6.110   2.917
 2867SOL    HW1 9500   5.687   6.175   2.937
 2867SOL    HW2 9501   5.849   6.155   2.932
 2868SOL     OW 9502   1.173   1.246   5.482
 2868SOL    HW1 9503   1.170   1.147   5.497
 2868SOL    HW2 9504   1.220   1.290   5.559
 2869SOL     OW 9505   6.532   0.973   3.757
 2869SOL    HW1 9506   6.487   1.033   3.690
 2869SOL    HW2 9507   6.605   1.024   3.803
 2870SOL     OW 9508   0.800   1.697   6.460
 2870SOL    HW1 9509   0.779   1.682   6.557
 2870SOL    HW2 9510   0.740   1.767   6.423
 2871SOL     OW 9511   6.181   0.479   0.513
 2871SOL    HW1 9512   6.093   0.437   0.491
 2871SOL    HW2 9513   6.167   0.554   0.577
 2872SOL     OW 9514   2.779   1.795   0.901
 2872SOL    HW1 9515   2.742   1.833   0.816
 2872SOL    HW2 9516   2.816   1.869   0.957
 2873SOL     OW 9517   6.777   6.714   2.392
 2873SOL    HW1 9518   6.798   6.701   2.295
 2873SOL    HW2 9519   6.847   6.671   2.448
 2874SOL     OW 9520   3.981   6.579   2.833
 2874SOL    HW1 9521   4.050   6.554   2.764
 2874SOL    HW2 9522   4.027   6.616   2.914
 2875SOL     OW 9523   4.690   6.584   2.375
 2875SOL    HW1 9524   4.611   6.595   2.315
 2875SOL    HW2 9525   4.660   6.561   2.467
 2876SOL     OW 9526   1.497   0.062   2.430
 2876SOL    HW1 9527   1.463   0.003   2.357
 2876SOL    HW2 9528   1.563   0.012   2.486
 2877SOL     OW 9529   2.116   0.954   6.058
 2877SOL    HW1 9530   2.178   0.876   6.070
 2877SOL    HW2 9531   2.155   1.016   5.990
 2878SOL     OW 9532   3.077   3.323   5.365
 2878SOL    HW1 9533   3.079   3.252   5.435
 2878SOL    HW2 9534   2.982   3.342   5.339
 2879SOL     OW 9535   5.414   5.535   5.453
 2879SOL    HW1 9536   5.405   5.634   5.448
 2879SOL    HW2 9537   5.470   5.503   5.377
 2880SOL     OW 9538   0.162   1.574   3.595
 2880SOL    HW1 9539   0.157   1.485   3.640
 2880SOL    HW2 9540   0.253   1.613   3.606
 2881SOL     OW 9541   3.455   5.946   6.518
 2881SOL    HW1 9542   3.367   5.904   6.496
 2881SOL    HW2 9543   3.446   5.999   6.603
 2882SOL     OW 9544   6.664   5.462   1.131
 2882SOL    HW1 9545   6.644   5.505   1.219
 2882SOL    HW2 9546   6.588   5.480   1.068
 2883SOL     OW 9547   5.682   0.003   3.530
 2883SOL    HW1 9548   5.657   6.958   3.592
 2883SOL    HW2 9549   5.716   0.081   3.584
 2884SOL     OW 9550   6.956   5.960   2.492
 2884SOL    HW1 9551   6.867   6.002   2.511
 2884SOL    HW2 9552   7.008   6.018   2.429
 2885SOL     OW 9553   1.195   2.446   4.453
 2885SOL    HW1 9554   1.197   2.437   4.354
 2885SOL    HW2 9555   1.219   2.358   4.495
 2886SOL     OW 9556   2.075   3.882   6.010
 2886SOL    HW1 9557   2.099   3.833   5.926
 2886SOL    HW2 9558   2.091   3.822   6.089
 2887SOL     OW 9559   0.484   6.084   4.722
 2887SOL    HW1 9560   0.512   6.056   4.814
 2887SOL    HW2 9561   0.557   6.064   4.657
 2888SOL     OW 9562   0.390   4.659   6.911
 2888SOL    HW1 9563   0.430   4.570   6.934
 2888SOL    HW2 9564   0.305   4.646   6.860
 2889SOL     OW 9565   3.103   6.486   2.832
 2889SOL    HW1 9566   3.097   6.481   2.732
 2889SOL    HW2 9567   3.093   6.581   2.862
 2890SOL     OW 9568   1.569   5.807   0.729
 2890SOL    HW1 9569   1.620   5.794   0.645
 2890SOL    HW2 9570   1.588   5.898   0.767
 2891SOL     OW 9571   1.019   3.511   3.441
 2891SOL    HW1 9572   1.042   3.470   3.530
 2891SOL    HW2 9573   1.015   3.610   3.451
 2892SOL     OW 9574   5.688   2.789   1.635
 2892SOL    HW1 9575   5.633   2.713   1.601
 2892SOL    HW2 9576   5.644   2.875   1.612
 2893SOL     OW 9577   1.195   5.309   4.098
 2893SOL    HW1 9578   1.268   5.247   4.069
 2893SOL    HW2 9579   1.110   5.285   4.051
 2894SOL     OW 9580   1.289   3.859   1.626
 2894SOL    HW1 9581   1.238   3.773   1.624
 2894SOL    HW2 9582   1.230   3.934   1.598
 2895SOL     OW 9583   4.409   0.587   6.254
 2895SOL    HW1 9584   4.507   0.576   6.241
 2895SOL    HW2 9585   4.390   0.612   6.349
 2896SOL     OW 9586   3.794   0.301   5.247
 2896SOL    HW1 9587   3.887   0.266   5.259
 2896SOL    HW2 9588   3.730   0.245   5.300
 2897SOL     OW 9589   3.688   4.932   2.498
 2897SOL    HW1 9590   3.701   4.987   2.415
 2897SOL    HW2 9591   3.762   4.865   2.505
 2898SOL     OW 9592   4.711   4.422   4.266
 2898SOL    HW1 9593   4.653   4.501   4.283
 2898SOL    HW2 9594   4.795   4.429   4.320
 2899SOL     OW 9595   6.695   1.962   0.334
 2899SOL    HW1 9596   6.742   1.939   0.249
 2899SOL    HW2 9597   6.708   2.059   0.354
 2900SOL     OW 9598   3.819   4.607   6.593
 2900SOL    HW1 9599   3.907   4.565   6.618
 2900SOL    HW2 9600   3.766   4.542   6.538
 2901SOL     OW 9601   1.745   4.895   3.438
 2901SOL    HW1 9602   1.707   4.959   3.505
 2901SOL    HW2 9603   1.678   4.877   3.367
 2902SOL     OW 9604   6.509   5.098   3.517
 2902SOL    HW1 9605   6.430   5.077   3.459
 2902SOL    HW2 9606   6.589   5.046   3.485
 2903SOL     OW 9607   4.182   6.579   0.515
 2903SOL    HW1 9608   4.139   6.489   0.518
 2903SOL    HW2 9609   4.231   6.596   0.601
 2904SOL     OW 9610   2.992   5.469   5.265
 2904SOL    HW1 9611   2.959   5.384   5.224
 2904SOL    HW2 9612   2.918   5.536   5.265
 2905SOL     OW 9613   1.203   3.987   4.142
 2905SOL    HW1 9614   1.256   3.919   4.090
 2905SOL    HW2 9615   1.148   3.940   4.211
 2906SOL     OW 9616   5.481   6.340   2.772
 2906SOL    HW1 9617   5.568   6.387   2.757
 2906SOL    HW2 9618   5.411   6.407   2.795
 2907SOL     OW 9619   0.784   1.557   3.781
 2907SOL    HW1 9620   0.706   1.573   3.721
 2907SOL    HW2 9621   0.811   1.461   3.776
 2908SOL     OW 9622   5.303   6.691   3.549
 2908SOL    HW1 9623   5.300   6.789   3.530
 2908SOL    HW2 9624   5.209   6.655   3.549
 2909SOL     OW 9625   2.057   5.959   3.995
 2909SOL    HW1 9626   1.993   5.967   3.919
 2909SOL    HW2 9627   2.008   5.930   4.077
 2910SOL     OW 9628   6.564   0.326   3.857
 2910SOL    HW1 9629   6.554   0.354   3.953
 2910SOL    HW2 9630   6.494   0.371   3.803
 2911SOL     OW 9631   1.683   5.183   4.048
 2911SOL    HW1 9632   1.687   5.084   4.030
 2911SOL    HW2 9633   1.663   5.231   3.963
 2912SOL     OW 9634   6.204   6.528   6.948
 2912SOL    HW1 9635   6.133   6.487   7.005
 2912SOL    HW2 9636   6.293   6.515   6.990
 2913SOL     OW 9637   3.168   5.167   1.967
 2913SOL    HW1 9638   3.186   5.069   1.977
 2913SOL    HW2 9639   3.069   5.181   1.958
 2914SOL     OW 9640   5.948   6.031   0.874
 2914SOL    HW1 9641   5.900   6.118   0.887
 2914SOL    HW2 9642   5.909   5.983   0.796
 2915SOL     OW 9643   2.796   1.777   3.528
 2915SOL    HW1 9644   2.865   1.723   3.575
 2915SOL    HW2 9645   2.773   1.733   3.441
 2916SOL     OW 9646   1.404   5.127   0.352
 2916SOL    HW1 9647   1.350   5.151   0.433
 2916SOL    HW2 9648   1.481   5.069   0.380
 2917SOL     OW 9649   3.327   0.167   4.481
 2917SOL    HW1 9650   3.357   0.209   4.395
 2917SOL    HW2 9651   3.406   0.129   4.528
 2918SOL     OW 9652   6.168   4.016   5.665
 2918SOL    HW1 9653   6.090   4.079   5.673
 2918SOL    HW2 9654   6.135   3.922   5.668
 2919SOL     OW 9655   6.476   0.326   3.314
 2919SOL    HW1 9656   6.419   0.398   3.355
 2919SOL    HW2 9657   6.465   0.328   3.215
 2920SOL     OW 9658   3.449   0.187   1.415
 2920SOL    HW1 9659   3.393   0.221   1.491
 2920SOL    HW2 9660   3.418   0.229   1.330
 2921SOL     OW 9661   0.203   6.903   5.343
 2921SOL    HW1 9662   0.155   6.967   5.403
 2921SOL    HW2 9663   0.301   6.910   5.359
 2922SOL     OW 9664   4.352   6.021   1.535
 2922SOL    HW1 9665   4.339   6.100   1.475
 2922SOL    HW2 9666   4.278   5.956   1.521
 2923SOL     OW 9667   0.055   5.462   4.110
 2923SOL    HW1 9668   0.064   5.371   4.149
 2923SOL    HW2 9669   7.028   5.518   4.171
 2924SOL     OW 9670   0.115   2.309   4.959
 2924SOL    HW1 9671   0.196   2.269   4.915
 2924SOL    HW2 9672   0.132   2.405   4.980
 2925SOL     OW 9673   5.979   2.246   0.734
 2925SOL    HW1 9674   5.961   2.329   0.681
 2925SOL    HW2 9675   6.043   2.188   0.685
 2926SOL     OW 9676   5.596   1.598   6.223
 2926SOL    HW1 9677   5.519   1.562   6.170
 2926SOL    HW2 9678   5.672   1.618   6.161
 2927SOL     OW 9679   1.935   3.710   0.714
 2927SOL    HW1 9680   1.855   3.768   0.729
 2927SOL    HW2 9681   1.920   3.652   0.635
 2928SOL     OW 9682   6.521   1.028   0.003
 2928SOL    HW1 9683   6.471   0.942   0.017
 2928SOL    HW2 9684   6.484   1.076   6.954
 2929SOL     OW 9685   2.003   3.004   5.903
 2929SOL    HW1 9686   1.996   3.098   5.870
 2929SOL    HW2 9687   1.986   2.940   5.828
 2930SOL     OW 9688   5.221   6.299   5.273
 2930SOL    HW1 9689   5.267   6.320   5.187
 2930SOL    HW2 9690   5.239   6.205   5.299
 2931SOL     OW 9691   5.115   4.998   7.002
 2931SOL    HW1 9692   5.084   5.091   6.980
 2931SOL    HW2 9693   5.045   4.933   6.976
 2932SOL     OW 9694   0.697   5.752   1.854
 2932SOL    HW1 9695   0.644   5.667   1.858
 2932SOL    HW2 9696   0.635   5.830   1.841
 2933SOL     OW 9697   1.441   6.576   2.205
 2933SOL    HW1 9698   1.535   6.563   2.236
 2933SOL    HW2 9699   1.437   6.562   2.106
 2934SOL     OW 9700   5.649   2.625   0.186
 2934SOL    HW1 9701   5.717   2.699   0.185
 2934SOL    HW2 9702   5.562   2.660   0.150
 2935SOL     OW 9703   6.566   2.368   5.959
 2935SOL    HW1 9704   6.630   2.293   5.947
 2935SOL    HW2 9705   6.615   2.455   5.961
 2936SOL     OW 9706   4.059   6.354   0.704
 2936SOL    HW1 9707   4.043   6.329   0.609
 2936SOL    HW2 9708   4.001   6.298   0.764
 2937SOL     OW 9709   5.541   5.256   1.267
 2937SOL    HW1 9710   5.613   5.255   1.336
 2937SOL    HW2 9711   5.452   5.251   1.311
 2938SOL     OW 9712   6.192   4.693   0.628
 2938SOL    HW1 9713   6.241   4.705   0.714
 2938SOL    HW2 9714   6.252   4.715   0.552
 2939SOL     OW 9715   1.912   0.775   1.245
 2939SOL    HW1 9716   1.922   0.814   1.153
 2939SOL    HW2 9717   1.997   0.730   1.272
 2940SOL     OW 9718   5.873   5.296   5.654
 2940SOL    HW1 9719   5.852   5.206   5.693
 2940SOL    HW2 9720   5.830   5.367   5.710
 2941SOL     OW 9721   2.025   2.157   3.692
 2941SOL    HW1 9722   2.030   2.235   3.754
 2941SOL    HW2 9723   1.996   2.076   3.742
 2942SOL     OW 9724   3.889   1.841   0.946
 2942SOL    HW1 9725   3.883   1.741   0.949
 2942SOL    HW2 9726   3.984   1.869   0.960
 2943SOL     OW 9727   5.609   4.382   3.606
 2943SOL    HW1 9728   5.562   4.346   3.687
 2943SOL    HW2 9729   5.543   4.396   3.532
 2944SOL     OW 9730   2.364   6.040   3.746
 2944SOL    HW1 9731   2.377   5.943   3.725
 2944SOL    HW2 9732   2.453   6.084   3.755
 2945SOL     OW 9733   4.554   2.595   1.756
 2945SOL    HW1 9734   4.491   2.661   1.714
 2945SOL    HW2 9735   4.617   2.561   1.686
 2946SOL     OW 9736   2.054   4.710   6.146
 2946SOL    HW1 9737   2.069   4.682   6.240
 2946SOL    HW2 9738   2.014   4.634   6.094
 2947SOL     OW 9739   0.823   5.695   1.205
 2947SOL    HW1 9740   0.723   5.684   1.213
 2947SOL    HW2 9741   0.848   5.788   1.232
 2948SOL     OW 9742   0.027   4.654   4.753
 2948SOL    HW1 9743   0.068   4.696   4.834
 2948SOL    HW2 9744   0.009   4.557   4.772
 2949SOL     OW 9745   0.530   5.460   0.316
 2949SOL    HW1 9746   0.572   5.369   0.313
 2949SOL    HW2 9747   0.464   5.468   0.242
 2950SOL     OW 9748   5.968   5.956   4.283
 2950SOL    HW1 9749   5.919   5.898   4.219
 2950SOL    HW2 9750   5.913   5.970   4.365
 2951SOL     OW 9751   5.509   1.971   2.194
 2951SOL    HW1 9752   5.514   1.871   2.201
 2951SOL    HW2 9753   5.592   2.005   2.148
 2952SOL     OW 9754   0.155   6.448   5.775
 2952SOL    HW1 9755   0.118   6.402   5.856
 2952SOL    HW2 9756   0.130   6.396   5.694
 2953SOL     OW 9757   6.408   4.377   3.496
 2953SOL    HW1 9758   6.364   4.311   3.435
 2953SOL    HW2 9759   6.427   4.333   3.584
 2954SOL     OW 9760   0.214   4.500   0.886
 2954SOL    HW1 9761   0.179   4.411   0.859
 2954SOL    HW2 9762   0.167   4.572   0.834
 2955SOL     OW 9763   0.328   4.026   0.880
 2955SOL    HW1 9764   0.383   4.013   0.962
 2955SOL    HW2 9765   0.334   3.945   0.822
 2956SOL     OW 9766   6.386   5.468   3.445
 2956SOL    HW1 9767   6.438   5.400   3.393
 2956SOL    HW2 9768   6.376   5.551   3.389
 2957SOL     OW 9769   4.939   4.638   1.508
 2957SOL    HW1 9770   4.998   4.587   1.446
 2957SOL    HW2 9771   4.849   4.594   1.513
 2958SOL     OW 9772   2.151   4.468   3.055
 2958SOL    HW1 9773   2.173   4.386   3.108
 2958SOL    HW2 9774   2.113   4.441   2.966
 2959SOL     OW 9775   5.656   3.026   2.175
 2959SOL    HW1 9776   5.726   3.043   2.106
 2959SOL    HW2 9777   5.573   3.076   2.151
 2960SOL     OW 9778   3.388   0.259   6.822
 2960SOL    HW1 9779   3.313   0.236   6.884
 2960SOL    HW2 9780   3.368   0.347   6.778
 2961SOL     OW 9781   6.101   4.942   3.083
 2961SOL    HW1 9782   6.172   4.897   3.030
 2961SOL    HW2 9783   6.111   5.041   3.074
 2962SOL     OW 9784   4.750   6.255   3.401
 2962SOL    HW1 9785   4.801   6.336   3.432
 2962SOL    HW2 9786   4.761   6.246   3.302
 2963SOL     OW 9787   0.837   1.004   0.166
 2963SOL    HW1 9788   0.855   1.065   0.243
 2963SOL    HW2 9789   0.739   1.002   0.146
 2964SOL     OW 9790   0.500   1.744   5.944
 2964SOL    HW1 9791   0.441   1.668   5.970
 2964SOL    HW2 9792   0.523   1.737   5.846
 2965SOL     OW 9793   0.505   1.111   4.899
 2965SOL    HW1 9794   0.525   1.083   4.805
 2965SOL    HW2 9795   0.500   1.030   4.957
 2966SOL     OW 9796   5.028   5.385   3.304
 2966SOL    HW1 9797   4.928   5.381   3.307
 2966SOL    HW2 9798   5.066   5.298   3.335
 2967SOL     OW 9799   6.102   0.641   5.779
 2967SOL    HW1 9800   6.010   0.637   5.740
 2967SOL    HW2 9801   6.097   0.633   5.879
 2968SOL     OW 9802   0.758   2.401   0.600
 2968SOL    HW1 9803   0.801   2.466   0.663
 2968SOL    HW2 9804   0.753   2.441   0.509
 2969SOL     OW 9805   4.550   2.639   3.957
 2969SOL    HW1 9806   4.532   2.556   4.009
 2969SOL    HW2 9807   4.600   2.704   4.014
 2970SOL     OW 9808   2.462   3.319   5.384
 2970SOL    HW1 9809   2.392   3.257   5.419
 2970SOL    HW2 9810   2.421   3.407   5.363
 2971SOL     OW 9811   5.156   3.758   0.608
 2971SOL    HW1 9812   5.236   3.718   0.564
 2971SOL    HW2 9813   5.074   3.705   0.585
 2972SOL     OW 9814   6.294   5.247   6.670
 2972SOL    HW1 9815   6.315   5.300   6.752
 2972SOL    HW2 9816   6.196   5.251   6.652
 2973SOL     OW 9817   5.027   6.649   2.018
 2973SOL    HW1 9818   4.992   6.629   1.927
 2973SOL    HW2 9819   5.121   6.685   2.011
 2974SOL     OW 9820   0.090   4.665   3.834
 2974SOL    HW1 9821   0.096   4.583   3.891
 2974SOL    HW2 9822   0.103   4.639   3.738
 2975SOL     OW 9823   4.963   4.336   4.132
 2975SOL    HW1 9824   4.888   4.373   4.077
 2975SOL    HW2 9825   4.937   4.247   4.168
 2976SOL     OW 9826   5.322   1.759   2.485
 2976SOL    HW1 9827   5.286   1.851   2.471
 2976SOL    HW2 9828   5.416   1.765   2.518
 2977SOL     OW 9829   0.510   0.655   2.546
 2977SOL    HW1 9830   0.598   0.610   2.528
 2977SOL    HW2 9831   0.507   0.742   2.497
 2978SOL     OW 9832   3.946   4.708   0.298
 2978SOL    HW1 9833   3.933   4.609   0.297
 2978SOL    HW2 9834   3.875   4.751   0.354
 2979SOL     OW 9835   3.279   1.626   4.214
 2979SOL    HW1 9836   3.287   1.552   4.281
 2979SOL    HW2 9837   3.206   1.688   4.241
 2980SOL     OW 9838   1.895   5.557   5.729
 2980SOL    HW1 9839   1.910   5.477   5.787
 2980SOL    HW2 9840   1.973   5.570   5.668
 2981SOL     OW 9841   1.934   0.941   0.254
 2981SOL    HW1 9842   1.862   1.002   0.286
 2981SOL    HW2 9843   1.911   0.905   0.163
 2982SOL     OW 9844   2.659   6.089   1.410
 2982SOL    HW1 9845   2.734   6.028   1.436
 2982SOL    HW2 9846   2.695   6.164   1.354
 2983SOL     OW 9847   6.677   2.353   2.218
 2983SOL    HW1 9848   6.600   2.418   2.210
 2983SOL    HW2 9849   6.753   2.384   2.161
 2984SOL     OW 9850   5.608   5.231   6.876
 2984SOL    HW1 9851   5.568   5.240   6.967
 2984SOL    HW2 9852   5.535   5.222   6.808
 2985SOL     OW 9853   1.833   1.425   4.602
 2985SOL    HW1 9854   1.917   1.404   4.553
 2985SOL    HW2 9855   1.848   1.416   4.700
 2986SOL     OW 9856   3.600   4.096   2.516
 2986SOL    HW1 9857   3.529   4.029   2.536
 2986SOL    HW2 9858   3.637   4.132   2.602
 2987SOL     OW 9859   1.665   1.102   4.512
 2987SOL    HW1 9860   1.570   1.080   4.534
 2987SOL    HW2 9861   1.717   1.115   4.596
 2988SOL     OW 9862   1.857   6.796   2.536
 2988SOL    HW1 9863   1.790   6.731   2.502
 2988SOL    HW2 9864   1.810   6.877   2.571
 2989SOL     OW 9865   5.059   4.637   5.602
 2989SOL    HW1 9866   5.045   4.614   5.506
 2989SOL    HW2 9867   4.984   4.697   5.633
 2990SOL     OW 9868   4.405   1.986   4.382
 2990SOL    HW1 9869   4.389   1.887   4.388
 2990SOL    HW2 9870   4.380   2.029   4.469
 2991SOL     OW 9871   6.383   2.902   5.740
 2991SOL    HW1 9872   6.372   2.945   5.829
 2991SOL    HW2 9873   6.386   2.972   5.669
 2992SOL     OW 9874   1.467   4.970   4.140
 2992SOL    HW1 9875   1.467   5.037   4.215
 2992SOL    HW2 9876   1.431   5.013   4.058
 2993SOL     OW 9877   0.943   5.150   1.327
 2993SOL    HW1 9878   0.888   5.190   1.401
 2993SOL    HW2 9879   0.892   5.155   1.241
 2994SOL     OW 9880   4.061   6.310   0.419
 2994SOL    HW1 9881   3.990   6.302   0.349
 2994SOL    HW2 9882   4.147   6.276   0.383
 2995SOL     OW 9883   3.655   0.797   6.648
 2995SOL    HW1 9884   3.604   0.825   6.567
 2995SOL    HW2 9885   3.661   0.697   6.652
 2996SOL     OW 9886   0.308   1.477   5.705
 2996SOL    HW1 9887   0.331   1.381   5.692
 2996SOL    HW2 9888   0.209   1.490   5.693
 2997SOL     OW 9889   4.869   0.472   3.115
 2997SOL    HW1 9890   4.779   0.440   3.084
 2997SOL    HW2 9891   4.929   0.394   3.131
 2998SOL     OW 9892   4.624   7.018   3.333
 2998SOL    HW1 9893   4.540   0.032   3.303
 2998SOL    HW2 9894   4.694   7.028   3.262
 2999SOL     OW 9895   2.272   4.998   5.298
 2999SOL    HW1 9896   2.310   4.930   5.361
 2999SOL    HW2 9897   2.339   5.020   5.227
 3000SOL     OW 9898   3.150   4.054   6.183
 3000SOL    HW1 9899   3.061   4.009   6.179
 3000SOL    HW2 9900   3.219   3.990   6.215
 3001SOL     OW 9901   6.183   1.350   6.646
 3001SOL    HW1 9902   6.270   1.316   6.683
 3001SOL    HW2 9903   6.160   1.301   6.563
 3002SOL     OW 9904   3.404   2.575   0.427
 3002SOL    HW1 9905   3.493   2.575   0.381
 3002SOL    HW2 9906   3.397   2.495   0.486
 3003SOL     OW 9907   1.137   6.704   0.812
 3003SOL    HW1 9908   1.142   6.682   0.909
 3003SOL    HW2 9909   1.069   6.777   0.798
 3004SOL     OW 9910   1.213   4.365   2.777
 3004SOL    HW1 9911   1.277   4.384   2.703
 3004SOL    HW2 9912   1.139   4.432   2.776
 3005SOL     OW 9913   2.001   2.599   0.203
 3005SOL    HW1 9914   1.933   2.581   0.273
 3005SOL    HW2 9915   1.962   2.583   0.112
 3006SOL     OW 9916   5.407   2.099   4.998
 3006SOL    HW1 9917   5.473   2.040   5.046
 3006SOL    HW2 9918   5.358   2.045   4.930
 3007SOL     OW 9919   5.016   4.872   0.934
 3007SOL    HW1 9920   4.952   4.948   0.948
 3007SOL    HW2 9921   5.061   4.851   1.021
 3008SOL     OW 9922   2.841   2.186   6.584
 3008SOL    HW1 9923   2.876   2.230   6.502
 3008SOL    HW2 9924   2.741   2.184   6.581
 3009SOL     OW 9925   6.863   3.031   2.696
 3009SOL    HW1 9926   6.837   3.099   2.627
 3009SOL    HW2 9927   6.823   3.056   2.784
 3010SOL     OW 9928   2.740   5.658   4.054
 3010SOL    HW1 9929   2.675   5.715   4.004
 3010SOL    HW2 9930   2.811   5.716   4.095
 3011SOL     OW 9931   6.149   1.000   2.008
 3011SOL    HW1 9932   6.145   1.026   1.911
 3011SOL    HW2 9933   6.202   0.915   2.018
 3012SOL     OW 9934   2.509   3.059   7.001
 3012SOL    HW1 9935   2.505   3.147   6.954
 3012SOL    HW2 9936   2.546   3.072   0.063
 3013SOL     OW 9937   5.572   5.162   3.688
 3013SOL    HW1 9938   5.616   5.144   3.600
 3013SOL    HW2 9939   5.575   5.260   3.708
 3014SOL     OW 9940   4.875   2.319   5.809
 3014SOL    HW1 9941   4.881   2.343   5.711
 3014SOL    HW2 9942   4.928   2.236   5.826
 3015SOL     OW 9943   1.685   1.753   0.251
 3015SOL    HW1 9944   1.603   1.699   0.271
 3015SOL    HW2 9945   1.740   1.762   0.334
 3016SOL     OW 9946   3.353   6.596   4.233
 3016SOL    HW1 9947   3.416   6.567   4.304
 3016SOL    HW2 9948   3.285   6.659   4.271
 3017SOL     OW 9949   6.034   5.724   2.479
 3017SOL    HW1 9950   5.949   5.683   2.446
 3017SOL    HW2 9951   6.085   5.656   2.532
 3018SOL     OW 9952   3.061   0.262   6.621
 3018SOL    HW1 9953   3.140   0.201   6.617
 3018SOL    HW2 9954   2.987   0.225   6.564
 3019SOL     OW 9955   0.248   0.227   6.640
 3019SOL    HW1 9956   0.184   0.167   6.688
 3019SOL    HW2 9957   0.334   0.229   6.690
 3020SOL     OW 9958   3.838   3.231   0.797
 3020SOL    HW1 9959   3.772   3.263   0.728
 3020SOL    HW2 9960   3.853   3.302   0.864
 3021SOL     OW 9961   2.711   0.543   4.814
 3021SOL    HW1 9962   2.713   0.457   4.763
 3021SOL    HW2 9963   2.665   0.530   4.901
 3022SOL     OW 9964   4.508   5.052   4.499
 3022SOL    HW1 9965   4.536   4.957   4.509
 3022SOL    HW2 9966   4.448   5.078   4.574
 3023SOL     OW 9967   4.106   6.670   3.041
 3023SOL    HW1 9968   4.174   6.734   3.004
 3023SOL    HW2 9969   4.151   6.610   3.108
 3024SOL     OW 9970   6.061   6.294   4.627
 3024SOL    HW1 9971   5.975   6.288   4.577
 3024SOL    HW2 9972   6.119   6.217   4.603
 3025SOL     OW 9973   4.446   5.991   1.791
 3025SOL    HW1 9974   4.417   6.078   1.831
 3025SOL    HW2 9975   4.428   5.991   1.693
 3026SOL     OW 9976   6.996   1.459   6.487
 3026SOL    HW1 9977   6.996   1.441   6.585
 3026SOL    HW2 9978   0.058   1.447   6.450
 3027SOL     OW 9979   3.650   2.018   2.287
 3027SOL    HW1 9980   3.601   2.084   2.230
 3027SOL    HW2 9981   3.613   1.926   2.271
 3028SOL     OW 9982   1.219   3.887   5.608
 3028SOL    HW1 9983   1.257   3.887   5.700
 3028SOL    HW2 9984   1.294   3.883   5.541
 3029SOL     OW 9985   1.148   3.211   4.252
 3029SOL    HW1 9986   1.112   3.136   4.307
 3029SOL    HW2 9987   1.207   3.175   4.180
 3030SOL     OW 9988   1.677   3.874   0.875
 3030SOL    HW1 9989   1.712   3.967   0.872
 3030SOL    HW2 9990   1.626   3.855   0.791
 3031SOL     OW 9991   0.351   4.722   0.974
 3031SOL    HW1 9992   0.330   4.735   1.071
 3031SOL    HW2 9993   0.293   4.648   0.938
 3032SOL     OW 9994   2.054   6.753   1.445
 3032SOL    HW1 9995   1.956   6.765   1.435
 3032SOL    HW2 9996   2.102   6.807   1.376
 3033SOL     OW 9997   6.097   0.738   2.288
 3033SOL    HW1 9998   6.021   0.781   2.239
 3033SOL    HW2 9999   6.170   0.805   2.302
 3034SOL     OW10000   0.706   6.495   3.272
 3034SOL    HW110001   0.801   6.484   3.300
 3034SOL    HW210002   0.692   6.587   3.236
 3035SOL     OW10003   0.718   3.088   6.092
 3035SOL    HW110004   0.641   3.146   6.063
 3035SOL    HW210005   0.788   3.145   6.135
 3036SOL     OW10006   1.352   1.699   5.847
 3036SOL    HW110007   1.354   1.722   5.750
 3036SOL    HW210008   1.443   1.714   5.887
 3037SOL     OW10009   6.523   4.945   5.755
 3037SOL    HW110010   6.538   4.896   5.669
 3037SOL    HW210011   6.493   4.880   5.825
 3038SOL     OW10012   4.947   4.912   5.752
 3038SOL    HW110013   4.917   4.922   5.657
 3038SOL    HW210014   5.012   4.985   5.774
 3039SOL     OW10015   0.548   2.979   0.715
 3039SOL    HW110016   0.626   3.029   0.752
 3039SOL    HW210017   0.580   2.916   0.644
 3040SOL     OW10018   3.263   5.119   5.569
 3040SOL    HW110019   3.272   5.075   5.479
 3040SOL    HW210020   3.166   5.135   5.588
 3041SOL     OW10021   1.718   4.689   5.564
 3041SOL    HW110022   1.775   4.654   5.638
 3041SOL    HW210023   1.758   4.664   5.476
 3042SOL     OW10024   6.040   6.489   3.075
 3042SOL    HW110025   5.958   6.546   3.074
 3042SOL    HW210026   6.080   6.489   3.167
 3043SOL     OW10027   2.900   4.037   1.715
 3043SOL    HW110028   2.867   4.132   1.720
 3043SOL    HW210029   2.986   4.029   1.765
 3044SOL     OW10030   3.297   5.881   5.660
 3044SOL    HW110031   3.232   5.807   5.645
 3044SOL    HW210032   3.389   5.844   5.667
 3045SOL     OW10033   4.876   6.747   2.966
 3045SOL    HW110034   4.952   6.748   2.902
 3045SOL    HW210035   4.894   6.680   3.038
 3046SOL     OW10036   3.709   0.300   6.990
 3046SOL    HW110037   3.742   0.331   6.901
 3046SOL    HW210038   3.664   0.212   6.980
 3047SOL     OW10039   5.925   0.513   1.441
 3047SOL    HW110040   5.880   0.497   1.354
 3047SOL    HW210041   5.868   0.574   1.497
 3048SOL     OW10042   4.664   2.379   0.503
 3048SOL    HW110043   4.690   2.463   0.550
 3048SOL    HW210044   4.746   2.333   0.470
 3049SOL     OW10045   1.675   0.112   2.999
 3049SOL    HW110046   1.679   0.147   3.092
 3049SOL    HW210047   1.767   0.088   2.968
 3050SOL     OW10048   3.476   1.992   1.763
 3050SOL    HW110049   3.405   1.932   1.799
 3050SOL    HW210050   3.436   2.077   1.730
 3051SOL     OW10051   2.096   6.694   6.917
 3051SOL    HW110052   2.166   6.655   6.858
 3051SOL    HW210053   2.107   6.793   6.921
 3052SOL     OW10054   5.183   5.743   2.293
 3052SOL    HW110055   5.171   5.678   2.367
 3052SOL    HW210056   5.093   5.771   2.259
 3053SOL     OW10057   0.070   3.275   1.288
 3053SOL    HW110058   0.100   3.201   1.348
 3053SOL    HW210059   0.027   3.347   1.342
 3054SOL     OW10060   6.264   1.966   1.655
 3054SOL    HW110061   6.316   2.051   1.648
 3054SOL    HW210062   6.232   1.955   1.749
 3055SOL     OW10063   5.201   0.457   5.103
 3055SOL    HW110064   5.205   0.496   5.011
 3055SOL    HW210065   5.174   0.361   5.097
 3056SOL     OW10066   6.712   1.081   5.772
 3056SOL    HW110067   6.704   0.987   5.806
 3056SOL    HW210068   6.657   1.092   5.689
 3057SOL     OW10069   4.425   4.989   4.247
 3057SOL    HW110070   4.355   5.059   4.235
 3057SOL    HW210071   4.462   4.994   4.340
 3058SOL     OW10072   6.482   4.438   0.750
 3058SOL    HW110073   6.458   4.387   0.667
 3058SOL    HW210074   6.432   4.401   0.828
 3059SOL     OW10075   2.901   1.203   3.724
 3059SOL    HW110076   2.864   1.288   3.687
 3059SOL    HW210077   2.853   1.126   3.682
 3060SOL     OW10078   2.163   5.345   0.588
 3060SOL    HW110079   2.109   5.425   0.560
 3060SOL    HW210080   2.244   5.376   0.638
 3061SOL     OW10081   6.063   5.466   5.558
 3061SOL    HW110082   6.134   5.475   5.627
 3061SOL    HW210083   5.987   5.413   5.595
 3062SOL     OW10084   1.757   6.434   0.584
 3062SOL    HW110085   1.782   6.341   0.613
 3062SOL    HW210086   1.817   6.500   0.629
 3063SOL     OW10087   2.228   4.649   1.294
 3063SOL    HW110088   2.218   4.642   1.195
 3063SOL    HW210089   2.196   4.564   1.337
 3064SOL     OW10090   5.117   3.282   0.468
 3064SOL    HW110091   5.105   3.185   0.448
 3064SOL    HW210092   5.124   3.295   0.567
 3065SOL     OW10093   1.108   2.248   6.393
 3065SOL    HW110094   1.117   2.218   6.298
 3065SOL    HW210095   1.105   2.347   6.397
 3066SOL     OW10096   5.511   5.021   0.470
 3066SOL    HW110097   5.473   4.949   0.413
 3066SOL    HW210098   5.609   5.032   0.449
 3067SOL     OW10099   3.175   0.987   6.605
 3067SOL    HW110100   3.113   0.994   6.527
 3067SOL    HW210101   3.252   1.049   6.592
 3068SOL     OW10102   6.982   6.035   1.537
 3068SOL    HW110103   0.050   6.021   1.552
 3068SOL    HW210104   6.950   6.113   1.591
 3069SOL     OW10105   6.549   6.489   2.497
 3069SOL    HW110106   6.462   6.458   2.533
 3069SOL    HW210107   6.609   6.517   2.572
 3070SOL     OW10108   2.631   0.617   6.866
 3070SOL    HW110109   2.684   0.700   6.848
 3070SOL    HW210110   2.535   0.633   6.842
 3071SOL     OW10111   6.700   6.131   3.758
 3071SOL    HW110112   6.635   6.113   3.684
 3071SOL    HW210113   6.754   6.212   3.735
 3072SOL     OW10114   1.982   5.374   5.917
 3072SOL    HW110115   2.072   5.417   5.905
 3072SOL    HW210116   1.994   5.285   5.961
 3073SOL     OW10117   6.849   3.706   3.173
 3073SOL    HW110118   6.919   3.770   3.139
 3073SOL    HW210119   6.778   3.756   3.220
 3074SOL     OW10120   0.032   3.827   0.953
 3074SOL    HW110121   0.025   3.896   1.025
 3074SOL    HW210122   0.048   3.872   0.865
 3075SOL     OW10123   2.496   5.638   3.151
 3075SOL    HW110124   2.411   5.668   3.108
 3075SOL    HW210125   2.490   5.541   3.174
 3076SOL     OW10126   6.751   1.910   3.830
 3076SOL    HW110127   6.820   1.908   3.757
 3076SOL    HW210128   6.680   1.842   3.810
 3077SOL     OW10129   5.624   4.607   2.027
 3077SOL    HW110130   5.636   4.513   1.994
 3077SOL    HW210131   5.570   4.658   1.961
 3078SOL     OW10132   6.840   3.406   2.591
 3078SOL    HW110133   6.918   3.392   2.652
 3078SOL    HW210134   6.759   3.428   2.645
 3079SOL     OW10135   2.901   2.248   2.873
 3079SOL    HW110136   2.943   2.259   2.782
 3079SOL    HW210137   2.850   2.162   2.876
 3080SOL     OW10138   6.013   4.925   2.114
 3080SOL    HW110139   5.921   4.953   2.139
 3080SOL    HW210140   6.075   4.938   2.191
 3081SOL     OW10141   1.047   4.416   5.777
 3081SOL    HW110142   1.143   4.416   5.749
 3081SOL    HW210143   0.991   4.371   5.707
 3082SOL     OW10144   1.611   5.855   3.707
 3082SOL    HW110145   1.610   5.784   3.778
 3082SOL    HW210146   1.644   5.817   3.621
 3083SOL     OW10147   2.895   6.523   3.592
 3083SOL    HW110148   2.797   6.541   3.589
 3083SOL    HW210149   2.942   6.600   3.636
 3084SOL     OW10150   6.262   4.570   3.345
 3084SOL    HW110151   6.313   4.516   3.412
 3084SOL    HW210152   6.190   4.513   3.304
 3085SOL     OW10153   6.295   4.830   0.415
 3085SOL    HW110154   6.277   4.746   0.362
 3085SOL    HW210155   6.304   4.907   0.352
 3086SOL     OW10156   5.225   1.374   0.146
 3086SOL    HW110157   5.317   1.381   0.108
 3086SOL    HW210158   5.177   1.296   0.106
 3087SOL     OW10159   2.321   6.936   3.418
 3087SOL    HW110160   2.330   6.839   3.396
 3087SOL    HW210161   2.228   6.966   3.398
 3088SOL     OW10162   1.740   3.344   5.082
 3088SOL    HW110163   1.783   3.427   5.117
 3088SOL    HW210164   1.643   3.360   5.066
 3089SOL     OW10165   4.123   2.266   4.628
 3089SOL    HW110166   4.209   2.216   4.639
 3089SOL    HW210167   4.072   2.263   4.714
 3090SOL     OW10168   2.828   1.044   1.818
 3090SOL    HW110169   2.904   1.092   1.861
 3090SOL    HW210170   2.830   0.947   1.844
 3091SOL     OW10171   1.377   1.036   0.477
 3091SOL    HW110172   1.304   1.097   0.506
 3091SOL    HW210173   1.338   0.952   0.440
 3092SOL     OW10174   5.538   0.227   0.787
 3092SOL    HW110175   5.453   0.188   0.821
 3092SOL    HW210176   5.533   0.327   0.794
 3093SOL     OW10177   5.526   5.786   6.319
 3093SOL    HW110178   5.497   5.761   6.412
 3093SOL    HW210179   5.542   5.703   6.266
 3094SOL     OW10180   2.712   0.081   4.156
 3094SOL    HW110181   2.714   7.020   4.116
 3094SOL    HW210182   2.628   0.092   4.209
 3095SOL     OW10183   2.348   3.919   5.397
 3095SOL    HW110184   2.414   3.851   5.429
 3095SOL    HW210185   2.354   3.927   5.298
 3096SOL     OW10186   0.732   5.140   5.488
 3096SOL    HW110187   0.698   5.056   5.445
 3096SOL    HW210188   0.704   5.142   5.584
 3097SOL     OW10189   5.630   3.483   0.005
 3097SOL    HW110190   5.578   3.419   6.979
 3097SOL    HW210191   5.570   3.521   0.076
 3098SOL     OW10192   1.751   3.275   1.476
 3098SOL    HW110193   1.798   3.193   1.508
 3098SOL    HW210194   1.735   3.268   1.377
 3099SOL     OW10195   1.032   6.138   4.007
 3099SOL    HW110196   0.953   6.086   4.039
 3099SOL    HW210197   1.048   6.216   4.068
 3100SOL     OW10198   6.518   6.353   3.874
 3100SOL    HW110199   6.602   6.299   3.861
 3100SOL    HW210200   6.516   6.426   3.806
 3101SOL     OW10201   5.246   5.658   6.038
 3101SOL    HW110202   5.250   5.758   6.036
 3101SOL    HW210203   5.168   5.629   6.093
 3102SOL     OW10204   6.504   0.089   1.234
 3102SOL    HW110205   6.540   0.110   1.143
 3102SOL    HW210206   6.439   0.013   1.227
 3103SOL     OW10207   4.220   1.155   1.299
 3103SOL    HW110208   4.252   1.149   1.393
 3103SOL    HW210209   4.280   1.100   1.240
 3104SOL     OW10210   4.017   0.652   6.103
 3104SOL    HW110211   4.096   0.675   6.047
 3104SOL    HW210212   4.048   0.611   6.189
 3105SOL     OW10213   5.146   3.525   1.575
 3105SOL    HW110214   5.172   3.448   1.634
 3105SOL    HW210215   5.049   3.517   1.551
 3106SOL     OW10216   4.922   6.577   5.126
 3106SOL    HW110217   4.837   6.628   5.144
 3106SOL    HW210218   4.967   6.616   5.046
 3107SOL     OW10219   3.625   1.158   4.749
 3107SOL    HW110220   3.623   1.152   4.849
 3107SOL    HW210221   3.688   1.230   4.721
 3108SOL     OW10222   1.975   5.621   4.769
 3108SOL    HW110223   1.905   5.645   4.835
 3108SOL    HW210224   1.956   5.667   4.682
 3109SOL     OW10225   6.166   0.211   3.988
 3109SOL    HW110226   6.183   0.234   3.892
 3109SOL    HW210227   6.080   0.159   3.995
 3110SOL     OW10228   1.122   4.128   2.855
 3110SOL    HW110229   1.124   4.056   2.786
 3110SOL    HW210230   1.155   4.213   2.815
 3111SOL     OW10231   6.984   5.025   3.300
 3111SOL    HW110232   6.984   5.125   3.302
 3111SOL    HW210233   6.950   4.990   3.387
 3112SOL     OW10234   3.313   3.142   0.731
 3112SOL    HW110235   3.241   3.075   0.713
 3112SOL    HW210236   3.388   3.129   0.666
 3113SOL     OW10237   3.520   5.817   2.676
 3113SOL    HW110238   3.512   5.779   2.584
 3113SOL    HW210239   3.613   5.852   2.690
 3114SOL     OW10240   3.600   1.993   0.654
 3114SOL    HW110241   3.671   1.927   0.629
 3114SOL    HW210242   3.571   2.042   0.572
 3115SOL     OW10243   4.103   4.698   6.328
 3115SOL    HW110244   4.092   4.606   6.289
 3115SOL    HW210245   4.190   4.737   6.298
 3116SOL     OW10246   6.690   2.327   0.032
 3116SOL    HW110247   6.695   2.359   0.127
 3116SOL    HW210248   6.618   2.258   0.025
 3117SOL     OW10249   4.460   3.715   5.658
 3117SOL    HW110250   4.480   3.681   5.566
 3117SOL    HW210251   4.375   3.675   5.691
 3118SOL     OW10252   0.526   5.407   2.281
 3118SOL    HW110253   0.553   5.353   2.361
 3118SOL    HW210254   0.595   5.477   2.263
 3119SOL     OW10255   2.331   2.040   0.044
 3119SOL    HW110256   2.404   2.064   7.011
 3119SOL    HW210257   2.341   2.092   0.129
 3120SOL     OW10258   2.523   0.270   5.626
 3120SOL    HW110259   2.499   0.349   5.569
 3120SOL    HW210260   2.487   0.186   5.584
 3121SOL     OW10261   5.928   1.541   4.755
 3121SOL    HW110262   5.889   1.457   4.793
 3121SOL    HW210263   5.906   1.548   4.658
 3122SOL     OW10264   5.140   5.215   5.351
 3122SOL    HW110265   5.119   5.311   5.373
 3122SOL    HW210266   5.237   5.207   5.327
 3123SOL     OW10267   1.933   1.516   2.563
 3123SOL    HW110268   1.867   1.498   2.490
 3123SOL    HW210269   1.992   1.591   2.536
 3124SOL     OW10270   4.751   0.262   4.406
 3124SOL    HW110271   4.741   0.361   4.421
 3124SOL    HW210272   4.805   0.223   4.481
 3125SOL     OW10273   1.367   3.223   5.261
 3125SOL    HW110274   1.430   3.242   5.185
 3125SOL    HW210275   1.316   3.306   5.283
 3126SOL     OW10276   5.260   4.453   5.212
 3126SOL    HW110277   5.163   4.463   5.191
 3126SOL    HW210278   5.309   4.425   5.129
 3127SOL     OW10279   2.282   1.747   6.679
 3127SOL    HW110280   2.352   1.810   6.712
 3127SOL    HW210281   2.197   1.763   6.729
 3128SOL     OW10282   3.308   1.033   0.098
 3128SOL    HW110283   3.380   0.965   0.088
 3128SOL    HW210284   3.263   1.047   0.010
 3129SOL     OW10285   5.984   3.789   0.620
 3129SOL    HW110286   6.006   3.843   0.701
 3129SOL    HW210287   5.949   3.699   0.648
 3130SOL     OW10288   2.087   4.510   1.880
 3130SOL    HW110289   2.123   4.559   1.800
 3130SOL    HW210290   1.992   4.486   1.864
 3131SOL     OW10291   0.992   3.832   2.033
 3131SOL    HW110292   1.091   3.843   2.037
 3131SOL    HW210293   0.959   3.796   2.121
 3132SOL     OW10294   5.026   5.104   6.558
 3132SOL    HW110295   4.955   5.127   6.625
 3132SOL    HW210296   5.113   5.144   6.587
 3133SOL     OW10297   3.350   0.713   3.438
 3133SOL    HW110298   3.251   0.731   3.436
 3133SOL    HW210299   3.368   0.623   3.397
 3134SOL     OW10300   4.274   4.779   0.798
 3134SOL    HW110301   4.297   4.876   0.796
 3134SOL    HW210302   4.296   4.737   0.710
 3135SOL     OW10303   4.621   0.498   5.521
 3135SOL    HW110304   4.592   0.451   5.437
 3135SOL    HW210305   4.601   0.440   5.600
 3136SOL     OW10306   5.651   7.004   2.699
 3136SOL    HW110307   5.609   6.992   2.789
 3136SOL    HW210308   5.581   6.995   2.628
 3137SOL     OW10309   6.870   6.630   3.466
 3137SOL    HW110310   6.800   6.558   3.458
 3137SOL    HW210311   6.837   6.701   3.528
 3138SOL     OW10312   5.980   5.944   3.844
 3138SOL    HW110313   6.059   5.912   3.792
 3138SOL    HW210314   6.012   5.990   3.928
 3139SOL     OW10315   3.285   5.317   0.809
 3139SOL    HW110316   3.314   5.364   0.725
 3139SOL    HW210317   3.365   5.300   0.867
 3140SOL     OW10318   6.094   6.317   5.987
 3140SOL    HW110319   6.095   6.277   5.895
 3140SOL    HW210320   6.028   6.392   5.990
 3141SOL     OW10321   0.725   0.254   6.593
 3141SOL    HW110322   0.695   0.296   6.507
 3141SOL    HW210323   0.824   0.243   6.593
 3142SOL     OW10324   3.063   0.038   2.604
 3142SOL    HW110325   3.005   7.026   2.534
 3142SOL    HW210326   3.124   0.104   2.562
 3143SOL     OW10327   6.085   1.436   6.895
 3143SOL    HW110328   6.143   1.420   6.816
 3143SOL    HW210329   6.020   1.509   6.874
 3144SOL     OW10330   4.597   3.786   0.772
 3144SOL    HW110331   4.570   3.702   0.818
 3144SOL    HW210332   4.625   3.854   0.839
 3145SOL     OW10333   2.019   6.454   2.295
 3145SOL    HW110334   2.107   6.437   2.341
 3145SOL    HW210335   2.036   6.499   2.207
 3146SOL     OW10336   0.755   1.328   4.353
 3146SOL    HW110337   0.829   1.387   4.386
 3146SOL    HW210338   0.669   1.378   4.353
 3147SOL     OW10339   3.385   5.119   0.131
 3147SOL    HW110340   3.356   5.060   0.056
 3147SOL    HW210341   3.325   5.199   0.135
 3148SOL     OW10342   0.014   6.922   4.067
 3148SOL    HW110343   6.981   6.894   3.993
 3148SOL    HW210344   0.106   6.889   4.046
 3149SOL     OW10345   2.987   1.009   6.401
 3149SOL    HW110346   2.955   0.929   6.352
 3149SOL    HW210347   2.915   1.042   6.462
 3150SOL     OW10348   7.002   5.840   5.220
 3150SOL    HW110349   0.035   5.837   5.142
 3150SOL    HW210350   6.949   5.756   5.224
 3151SOL     OW10351   0.526   1.315   5.358
 3151SOL    HW110352   0.594   1.245   5.339
 3151SOL    HW210353   0.505   1.315   5.456
 3152SOL     OW10354   0.993   4.961   0.264
 3152SOL    HW110355   1.036   4.984   0.176
 3152SOL    HW210356   0.939   4.878   0.254
 3153SOL     OW10357   6.249   5.479   0.707
 3153SOL    HW110358   6.159   5.450   0.739
 3153SOL    HW210359   6.319   5.423   0.751
 3154SOL     OW10360   6.974   2.178   0.035
 3154SOL    HW110361   6.899   2.243   0.039
 3154SOL    HW210362   6.940   2.086   0.056
 3155SOL     OW10363   6.517   5.098   0.390
 3155SOL    HW110364   6.448   5.074   0.321
 3155SOL    HW210365   6.603   5.052   0.368
 3156SOL     OW10366   2.831   3.525   1.958
 3156SOL    HW110367   2.771   3.587   1.908
 3156SOL    HW210368   2.891   3.476   1.894
 3157SOL     OW10369   2.146   1.792   5.763
 3157SOL    HW110370   2.207   1.860   5.722
 3157SOL    HW210371   2.089   1.836   5.832
 3158SOL     OW10372   2.675   1.211   4.030
 3158SOL    HW110373   2.633   1.127   3.996
 3158SOL    HW210374   2.768   1.192   4.060
 3159SOL     OW10375   5.624   0.228   6.367
 3159SOL    HW110376   5.580   0.261   6.450
 3159SOL    HW210377   5.720   0.206   6.385
 3160SOL     OW10378   1.423   5.893   5.786
 3160SOL    HW110379   1.326   5.916   5.778
 3160SOL    HW210380   1.458   5.864   5.697
 3161SOL     OW10381   2.458   2.394   2.968
 3161SOL    HW110382   2.521   2.378   3.043
 3161SOL    HW210383   2.506   2.381   2.881
 3162SOL     OW10384   1.323   6.026   1.992
 3162SOL    HW110385   1.319   6.103   1.928
 3162SOL    HW210386   1.361   6.058   2.079
 3163SOL     OW10387   4.804   3.975   6.456
 3163SOL    HW110388   4.900   4.000   6.445
 3163SOL    HW210389   4.745   4.052   6.433
 3164SOL     OW10390   3.927   5.708   1.307
 3164SOL    HW110391   3.866   5.709   1.228
 3164SOL    HW210392   3.888   5.765   1.380
 3165SOL     OW10393   1.965   6.491   1.542
 3165SOL    HW110394   1.882   6.441   1.516
 3165SOL    HW210395   2.010   6.526   1.460
 3166SOL     OW10396   4.199   1.878   3.385
 3166SOL    HW110397   4.203   1.930   3.470
 3166SOL    HW210398   4.192   1.941   3.308
 3167SOL     OW10399   5.621   4.403   0.982
 3167SOL    HW110400   5.631   4.335   0.910
 3167SOL    HW210401   5.588   4.489   0.942
 3168SOL     OW10402   5.334   2.799   0.041
 3168SOL    HW110403   5.322   2.789   6.972
 3168SOL    HW210404   5.251   2.767   0.088
 3169SOL     OW10405   2.438   4.361   3.890
 3169SOL    HW110406   2.495   4.373   3.971
 3169SOL    HW210407   2.457   4.433   3.824
 3170SOL     OW10408   4.232   5.855   1.903
 3170SOL    HW110409   4.311   5.887   1.851
 3170SOL    HW210410   4.154   5.914   1.884
 3171SOL     OW10411   6.922   1.430   2.222
 3171SOL    HW110412   6.916   1.411   2.124
 3171SOL    HW210413   6.892   1.524   2.240
 3172SOL     OW10414   6.595   5.443   6.829
 3172SOL    HW110415   6.556   5.422   6.739
 3172SOL    HW210416   6.640   5.532   6.826
 3173SOL     OW10417   3.494   2.807   0.156
 3173SOL    HW110418   3.443   2.888   0.185
 3173SOL    HW210419   3.444   2.760   0.084
 3174SOL     OW10420   3.287   2.999   0.133
 3174SOL    HW110421   3.235   3.084   0.123
 3174SOL    HW210422   3.250   2.930   0.071
 3175SOL     OW10423   5.889   1.105   1.560
 3175SOL    HW110424   5.959   1.070   1.498
 3175SOL    HW210425   5.798   1.092   1.519
 3176SOL     OW10426   0.767   3.999   5.282
 3176SOL    HW110427   0.693   3.938   5.310
 3176SOL    HW210428   0.741   4.093   5.302
 3177SOL     OW10429   5.241   4.344   3.818
 3177SOL    HW110430   5.206   4.327   3.910
 3177SOL    HW210431   5.214   4.270   3.757
 3178SOL     OW10432   6.615   2.364   0.987
 3178SOL    HW110433   6.519   2.393   0.989
 3178SOL    HW210434   6.674   2.444   0.979
 3179SOL     OW10435   0.843   1.999   1.969
 3179SOL    HW110436   0.886   2.074   1.919
 3179SOL    HW210437   0.811   2.032   2.058
 3180SOL     OW10438   5.328   0.308   0.334
 3180SOL    HW110439   5.321   0.407   0.345
 3180SOL    HW210440   5.238   0.267   0.346
 3181SOL     OW10441   6.232   1.954   3.306
 3181SOL    HW110442   6.331   1.954   3.315
 3181SOL    HW210443   6.203   2.035   3.256
 3182SOL     OW10444   2.607   0.336   6.888
 3182SOL    HW110445   2.576   0.431   6.889
 3182SOL    HW210446   2.581   0.294   6.801
 3183SOL     OW10447   4.816   4.237   1.885
 3183SOL    HW110448   4.751   4.252   1.960
 3183SOL    HW210449   4.773   4.179   1.815
 3184SOL     OW10450   1.058   2.638   2.757
 3184SOL    HW110451   1.129   2.687   2.707
 3184SOL    HW210452   1.016   2.700   2.824
 3185SOL     OW10453   4.679   5.795   6.751
 3185SOL    HW110454   4.698   5.824   6.657
 3185SOL    HW210455   4.593   5.743   6.752
 3186SOL     OW10456   3.211   1.695   0.830
 3186SOL    HW110457   3.224   1.720   0.925
 3186SOL    HW210458   3.288   1.640   0.798
 3187SOL     OW10459   5.051   5.308   0.927
 3187SOL    HW110460   4.994   5.379   0.968
 3187SOL    HW210461   5.095   5.345   0.845
 3188SOL     OW10462   1.315   6.862   4.249
 3188SOL    HW110463   1.346   6.854   4.343
 3188SOL    HW210464   1.293   6.771   4.214
 3189SOL     OW10465   1.044   2.035   1.087
 3189SOL    HW110466   1.114   1.964   1.073
 3189SOL    HW210467   0.982   2.038   1.009
 3190SOL     OW10468   0.265   5.310   0.600
 3190SOL    HW110469   0.345   5.340   0.652
 3190SOL    HW210470   0.230   5.225   0.639
 3191SOL     OW10471   4.924   5.694   1.329
 3191SOL    HW110472   4.955   5.747   1.408
 3191SOL    HW210473   4.826   5.710   1.314
 3192SOL     OW10474   0.459   3.494   1.378
 3192SOL    HW110475   0.559   3.488   1.377
 3192SOL    HW210476   0.426   3.485   1.472
 3193SOL     OW10477   4.070   1.128   6.558
 3193SOL    HW110478   4.085   1.223   6.528
 3193SOL    HW210479   3.992   1.124   6.620
 3194SOL     OW10480   1.874   1.736   6.312
 3194SOL    HW110481   1.895   1.726   6.410
 3194SOL    HW210482   1.943   1.794   6.270
 3195SOL     OW10483   1.886   0.521   3.119
 3195SOL    HW110484   1.944   0.462   3.175
 3195SOL    HW210485   1.859   0.602   3.171
 3196SOL     OW10486   0.575   1.028   0.124
 3196SOL    HW110487   0.539   0.974   0.049
 3196SOL    HW210488   0.516   1.017   0.205
 3197SOL     OW10489   2.930   6.609   4.428
 3197SOL    HW110490   2.998   6.631   4.498
 3197SOL    HW210491   2.976   6.578   4.345
 3198SOL     OW10492   6.323   2.737   3.535
 3198SOL    HW110493   6.275   2.749   3.622
 3198SOL    HW210494   6.355   2.825   3.501
 3199SOL     OW10495   5.398   4.177   2.753
 3199SOL    HW110496   5.421   4.254   2.813
 3199SOL    HW210497   5.421   4.091   2.798
 3200SOL     OW10498   5.479   2.935   2.511
 3200SOL    HW110499   5.467   2.962   2.606
 3200SOL    HW210500   5.560   2.980   2.474
 3201SOL     OW10501   6.588   4.687   3.784
 3201SOL    HW110502   6.662   4.625   3.810
 3201SOL    HW210503   6.602   4.776   3.827
 3202SOL     OW10504   1.749   5.270   1.234
 3202SOL    HW110505   1.825   5.228   1.183
 3202SOL    HW210506   1.722   5.210   1.308
 3203SOL     OW10507   5.658   2.103   0.373
 3203SOL    HW110508   5.614   2.134   0.289
 3203SOL    HW210509   5.724   2.032   0.352
 3204SOL     OW10510   4.421   6.597   3.096
 3204SOL    HW110511   4.517   6.604   3.121
 3204SOL    HW210512   4.376   6.528   3.153
 3205SOL     OW10513   5.537   2.411   5.414
 3205SOL    HW110514   5.470   2.442   5.481
 3205SOL    HW210515   5.570   2.489   5.361
 3206SOL     OW10516   2.029   4.972   0.747
 3206SOL    HW110517   2.008   4.874   0.737
 3206SOL    HW210518   2.051   5.010   0.657
 3207SOL     OW10519   1.350   0.932   6.427
 3207SOL    HW110520   1.445   0.955   6.449
 3207SOL    HW210521   1.303   0.902   6.510
 3208SOL     OW10522   4.529   6.421   6.117
 3208SOL    HW110523   4.440   6.465   6.126
 3208SOL    HW210524   4.551   6.409   6.020
 3209SOL     OW10525   3.440   4.927   3.929
 3209SOL    HW110526   3.412   5.002   3.988
 3209SOL    HW210527   3.393   4.933   3.841
 3210SOL     OW10528   1.476   4.299   0.577
 3210SOL    HW110529   1.462   4.251   0.664
 3210SOL    HW210530   1.573   4.311   0.560
 3211SOL     OW10531   1.547   3.862   0.610
 3211SOL    HW110532   1.468   3.877   0.550
 3211SOL    HW210533   1.631   3.880   0.559
 3212SOL     OW10534   3.054   6.859   1.608
 3212SOL    HW110535   3.080   6.763   1.626
 3212SOL    HW210536   3.027   6.902   1.694
 3213SOL     OW10537   1.747   0.147   0.593
 3213SOL    HW110538   1.690   0.087   0.649
 3213SOL    HW210539   1.813   0.092   0.543
 3214SOL     OW10540   4.451   5.940   0.743
 3214SOL    HW110541   4.470   5.841   0.742
 3214SOL    HW210542   4.352   5.955   0.738
 3215SOL     OW10543   0.496   3.745   0.990
 3215SOL    HW110544   0.427   3.676   1.013
 3215SOL    HW210545   0.587   3.705   1.001
 3216SOL     OW10546   5.970   5.531   0.435
 3216SOL    HW110547   6.002   5.603   0.497
 3216SOL    HW210548   5.877   5.505   0.460
 3217SOL     OW10549   6.921   5.255   2.187
 3217SOL    HW110550   6.966   5.227   2.102
 3217SOL    HW210551   6.970   5.333   2.226
 3218SOL     OW10552   4.801   2.678   3.772
 3218SOL    HW110553   4.853   2.598   3.742
 3218SOL    HW210554   4.718   2.648   3.819
 3219SOL     OW10555   0.825   1.812   3.473
 3219SOL    HW110556   0.887   1.749   3.519
 3219SOL    HW210557   0.759   1.848   3.539
 3220SOL     OW10558   0.063   5.198   5.854
 3220SOL    HW110559   0.062   5.110   5.903
 3220SOL    HW210560   7.023   5.258   5.893
 3221SOL     OW10561   3.857   0.300   1.738
 3221SOL    HW110562   3.764   0.266   1.723
 3221SOL    HW210563   3.869   0.322   1.835
 3222SOL     OW10564   3.239   1.225   2.909
 3222SOL    HW110565   3.329   1.255   2.876
 3222SOL    HW210566   3.200   1.161   2.843
 3223SOL     OW10567   2.192   6.824   6.329
 3223SOL    HW110568   2.174   6.849   6.233
 3223SOL    HW210569   2.231   6.732   6.332
 3224SOL     OW10570   5.092   3.287   5.316
 3224SOL    HW110571   5.009   3.339   5.298
 3224SOL    HW210572   5.078   3.192   5.289
 3225SOL     OW10573   5.262   2.504   5.287
 3225SOL    HW110574   5.343   2.446   5.295
 3225SOL    HW210575   5.287   2.591   5.245
 3226SOL     OW10576   2.340   1.008   2.652
 3226SOL    HW110577   2.240   1.015   2.659
 3226SOL    HW210578   2.378   1.098   2.631
 3227SOL     OW10579   3.027   3.251   6.727
 3227SOL    HW110580   3.096   3.324   6.726
 3227SOL    HW210581   2.991   3.239   6.635
 3228SOL     OW10582   7.005   3.593   1.316
 3228SOL    HW110583   6.950   3.672   1.287
 3228SOL    HW210584   0.069   3.606   1.285
 3229SOL     OW10585   3.710   0.366   5.002
 3229SOL    HW110586   3.779   0.425   4.959
 3229SOL    HW210587   3.737   0.347   5.096
 3230SOL     OW10588   2.164   4.398   5.465
 3230SOL    HW110589   2.197   4.408   5.371
 3230SOL    HW210590   2.208   4.319   5.508
 3231SOL     OW10591   2.802   0.224   1.665
 3231SOL    HW110592   2.746   0.303   1.639
 3231SOL    HW210593   2.816   0.224   1.764
 3232SOL     OW10594   4.951   6.744   4.539
 3232SOL    HW110595   5.001   6.753   4.452
 3232SOL    HW210596   4.942   6.647   4.562
 3233SOL     OW10597   0.157   2.628   1.156
 3233SOL    HW110598   0.249   2.650   1.188
 3233SOL    HW210599   0.135   2.686   1.077
 3234SOL     OW10600   0.583   2.268   0.040
 3234SOL    HW110601   0.604   2.346   7.012
 3234SOL    HW210602   0.608   2.289   0.135
 3235SOL     OW10603   6.567   0.602   2.202
 3235SOL    HW110604   6.496   0.542   2.165
 3235SOL    HW210605   6.526   0.660   2.273
 3236SOL     OW10606   1.672   3.751   0.247
 3236SOL    HW110607   1.615   3.829   0.220
 3236SOL    HW210608   1.614   3.677   0.279
 3237SOL     OW10609   5.685   1.174   3.496
 3237SOL    HW110610   5.598   1.212   3.529
 3237SOL    HW210611   5.751   1.173   3.572
 3238SOL     OW10612   0.142   5.434   0.156
 3238SOL    HW110613   0.055   5.404   0.117
 3238SOL    HW210614   0.215   5.373   0.126
 3239SOL     OW10615   6.596   1.345   2.197
 3239SOL    HW110616   6.621   1.249   2.188
 3239SOL    HW210617   6.671   1.403   2.164
 3240SOL     OW10618   0.002   6.612   6.053
 3240SOL    HW110619   0.093   6.625   6.014
 3240SOL    HW210620   0.009   6.601   6.152
 3241SOL     OW10621   4.638   0.542   4.864
 3241SOL    HW110622   4.611   0.470   4.800
 3241SOL    HW210623   4.737   0.557   4.856
 3242SOL     OW10624   4.468   4.242   6.869
 3242SOL    HW110625   4.514   4.276   6.952
 3242SOL    HW210626   4.531   4.184   6.817
 3243SOL     OW10627   4.600   4.814   0.158
 3243SOL    HW110628   4.611   4.895   0.100
 3243SOL    HW210629   4.574   4.736   0.102
 3244SOL     OW10630   5.080   5.692   0.437
 3244SOL    HW110631   5.002   5.753   0.427
 3244SOL    HW210632   5.152   5.738   0.489
 3245SOL     OW10633   5.495   3.527   4.349
 3245SOL    HW110634   5.478   3.443   4.400
 3245SOL    HW210635   5.591   3.555   4.363
 3246SOL     OW10636   6.210   0.359   3.086
 3246SOL    HW110637   6.123   0.380   3.130
 3246SOL    HW210638   6.266   0.442   3.081
 3247SOL     OW10639   6.041   4.369   2.616
 3247SOL    HW110640   5.964   4.353   2.555
 3247SOL    HW210641   6.104   4.436   2.574
 3248SOL     OW10642   5.294   3.397   1.785
 3248SOL    HW110643   5.353   3.377   1.863
 3248SOL    HW210644   5.351   3.416   1.705
 3249SOL     OW10645   3.658   4.153   3.963
 3249SOL    HW110646   3.566   4.133   3.997
 3249SOL    HW210647   3.713   4.193   4.036
 3250SOL     OW10648   5.603   0.238   2.755
 3250SOL    HW110649   5.635   0.326   2.719
 3250SOL    HW210650   5.619   0.167   2.687
 3251SOL     OW10651   3.325   0.871   4.006
 3251SOL    HW110652   3.384   0.822   4.070
 3251SOL    HW210653   3.296   0.958   4.046
 3252SOL     OW10654   2.600   0.907   2.609
 3252SOL    HW110655   2.506   0.941   2.601
 3252SOL    HW210656   2.607   0.820   2.561
 3253SOL     OW10657   4.630   4.126   1.692
 3253SOL    HW110658   4.565   4.173   1.752
 3253SOL    HW210659   4.621   4.027   1.706
 3254SOL     OW10660   5.287   5.931   6.063
 3254SOL    HW110661   5.365   5.966   6.010
 3254SOL    HW210662   5.318   5.908   6.156
 3255SOL     OW10663   4.792   6.637   0.305
 3255SOL    HW110664   4.875   6.692   0.298
 3255SOL    HW210665   4.713   6.697   0.315
 3256SOL     OW10666   3.761   1.374   0.851
 3256SOL    HW110667   3.689   1.373   0.921
 3256SOL    HW210668   3.839   1.319   0.883
 3257SOL     OW10669   1.232   1.905   2.332
 3257SOL    HW110670   1.219   1.815   2.291
 3257SOL    HW210671   1.306   1.901   2.399
 3258SOL     OW10672   4.822   6.069   2.824
 3258SOL    HW110673   4.882   6.115   2.758
 3258SOL    HW210674   4.848   5.973   2.831
 3259SOL     OW10675   5.056   4.655   5.317
 3259SOL    HW110676   4.978   4.708   5.285
 3259SOL    HW210677   5.135   4.674   5.258
 3260SOL     OW10678   1.250   2.359   0.890
 3260SOL    HW110679   1.330   2.309   0.858
 3260SOL    HW210680   1.276   2.421   0.964
 3261SOL     OW10681   5.481   0.764   1.750
 3261SOL    HW110682   5.407   0.807   1.699
 3261SOL    HW210683   5.554   0.738   1.688
 3262SOL     OW10684   3.123   1.906   2.427
 3262SOL    HW110685   3.030   1.875   2.412
 3262SOL    HW210686   3.187   1.845   2.381
 3263SOL     OW10687   2.158   0.921   3.071
 3263SOL    HW110688   2.243   0.944   3.022
 3263SOL    HW210689   2.180   0.870   3.154
 3264SOL     OW10690   0.993   4.899   0.745
 3264SOL    HW110691   1.053   4.977   0.764
 3264SOL    HW210692   0.959   4.905   0.651
 3265SOL     OW10693   5.136   0.649   6.320
 3265SOL    HW110694   5.174   0.682   6.234
 3265SOL    HW210695   5.068   0.714   6.353
 3266SOL     OW10696   2.133   4.629   0.112
 3266SOL    HW110697   2.046   4.678   0.110
 3266SOL    HW210698   2.119   4.537   0.149
 3267SOL     OW10699   3.085   6.398   1.526
 3267SOL    HW110700   3.106   6.424   1.432
 3267SOL    HW210701   3.103   6.475   1.587
 3268SOL     OW10702   1.698   3.843   1.420
 3268SOL    HW110703   1.722   3.852   1.516
 3268SOL    HW210704   1.777   3.868   1.363
 3269SOL     OW10705   4.918   5.581   2.543
 3269SOL    HW110706   4.967   5.668   2.543
 3269SOL    HW210707   4.843   5.585   2.609
 3270SOL     OW10708   1.417   4.245   6.390
 3270SOL    HW110709   1.473   4.257   6.308
 3270SOL    HW210710   1.332   4.199   6.366
 3271SOL     OW10711   5.787   3.679   2.209
 3271SOL    HW110712   5.844   3.722   2.279
 3271SOL    HW210713   5.743   3.751   2.154
 3272SOL     OW10714   3.126   4.508   6.023
 3272SOL    HW110715   3.181   4.515   5.940
 3272SOL    HW210716   3.061   4.432   6.013
 3273SOL     OW10717   6.310   5.772   0.348
 3273SOL    HW110718   6.407   5.783   0.324
 3273SOL    HW210719   6.292   5.816   0.436
 3274SOL     OW10720   5.816   1.148   0.896
 3274SOL    HW110721   5.727   1.135   0.940
 3274SOL    HW210722   5.803   1.197   0.810
 3275SOL     OW10723   5.834   1.356   7.016
 3275SOL    HW110724   5.823   1.298   0.066
 3275SOL    HW210725   5.930   1.379   7.004
 3276SOL     OW10726   3.069   5.601   6.617
 3276SOL    HW110727   3.127   5.664   6.566
 3276SOL    HW210728   3.110   5.510   6.618
 3277SOL     OW10729   4.044   6.567   6.942
 3277SOL    HW110730   4.046   6.505   7.021
 3277SOL    HW210731   4.109   6.534   6.873
 3278SOL     OW10732   0.716   0.690   5.793
 3278SOL    HW110733   0.684   0.650   5.879
 3278SOL    HW210734   0.637   0.726   5.742
 3279SOL     OW10735   5.043   0.227   0.387
 3279SOL    HW110736   5.045   0.311   0.442
 3279SOL    HW210737   4.969   0.168   0.419
 3280SOL     OW10738   4.562   4.640   4.316
 3280SOL    HW110739   4.505   4.664   4.237
 3280SOL    HW210740   4.504   4.621   4.394
 3281SOL     OW10741   1.469   5.141   2.082
 3281SOL    HW110742   1.483   5.145   1.983
 3281SOL    HW210743   1.401   5.209   2.109
 3282SOL     OW10744   6.890   5.064   5.360
 3282SOL    HW110745   6.837   5.074   5.276
 3282SOL    HW210746   6.835   5.093   5.438
 3283SOL     OW10747   3.914   0.293   1.076
 3283SOL    HW110748   3.941   0.389   1.087
 3283SOL    HW210749   3.814   0.287   1.078
 3284SOL     OW10750   0.640   5.167   6.882
 3284SOL    HW110751   0.649   5.094   6.813
 3284SOL    HW210752   0.600   5.129   6.965
 3285SOL     OW10753   4.303   2.373   3.543
 3285SOL    HW110754   4.242   2.322   3.604
 3285SOL    HW210755   4.381   2.407   3.595
 3286SOL     OW10756   3.272   3.124   2.648
 3286SOL    HW110757   3.306   3.054   2.712
 3286SOL    HW210758   3.210   3.082   2.582
 3287SOL     OW10759   0.849   0.717   0.448
 3287SOL    HW110760   0.782   0.759   0.509
 3287SOL    HW210761   0.870   0.625   0.479
 3288SOL     OW10762   1.302   5.813   6.639
 3288SOL    HW110763   1.213   5.852   6.663
 3288SOL    HW210764   1.309   5.720   6.677
 3289SOL     OW10765   2.687   0.407   5.129
 3289SOL    HW110766   2.720   0.501   5.118
 3289SOL    HW210767   2.629   0.402   5.210
 3290SOL     OW10768   0.384   5.837   1.119
 3290SOL    HW110769   0.338   5.817   1.032
 3290SOL    HW210770   0.442   5.918   1.108
 3291SOL     OW10771   1.812   0.295   0.117
 3291SOL    HW110772   1.879   0.301   0.191
 3291SOL    HW210773   1.723   0.271   0.155
 3292SOL     OW10774   0.204   0.681   0.832
 3292SOL    HW110775   0.235   0.592   0.802
 3292SOL    HW210776   0.249   0.704   0.919
 3293SOL     OW10777   0.177   4.080   1.509
 3293SOL    HW110778   0.183   4.014   1.434
 3293SOL    HW210779   0.110   4.048   1.576
 3294SOL     OW10780   6.084   1.616   6.127
 3294SOL    HW110781   5.994   1.620   6.084
 3294SOL    HW210782   6.106   1.704   6.169
 3295SOL     OW10783   1.627   2.473   2.296
 3295SOL    HW110784   1.662   2.429   2.213
 3295SOL    HW210785   1.541   2.519   2.276
 3296SOL     OW10786   1.061   0.067   2.853
 3296SOL    HW110787   1.126   0.073   2.928
 3296SOL    HW210788   1.059   7.002   2.819
 3297SOL     OW10789   3.288   1.316   5.679
 3297SOL    HW110790   3.319   1.358   5.594
 3297SOL    HW210791   3.198   1.275   5.665
 3298SOL     OW10792   6.067   1.733   5.312
 3298SOL    HW110793   6.010   1.690   5.382
 3298SOL    HW210794   6.147   1.676   5.294
 3299SOL     OW10795   3.521   5.676   3.058
 3299SOL    HW110796   3.538   5.666   2.960
 3299SOL    HW210797   3.424   5.664   3.077
 3300SOL     OW10798   0.237   1.032   5.351
 3300SOL    HW110799   0.150   0.982   5.354
 3300SOL    HW210800   0.229   1.115   5.406
 3301SOL     OW10801   1.931   3.126   3.800
 3301SOL    HW110802   1.951   3.071   3.881
 3301SOL    HW210803   1.887   3.212   3.828
 3302SOL     OW10804   0.519   4.890   5.484
 3302SOL    HW110805   0.509   4.862   5.580
 3302SOL    HW210806   0.560   4.815   5.432
 3303SOL     OW10807   3.639   3.906   0.938
 3303SOL    HW110808   3.589   3.988   0.967
 3303SOL    HW210809   3.730   3.932   0.905
 3304SOL     OW10810   1.180   5.354   4.350
 3304SOL    HW110811   1.087   5.319   4.365
 3304SOL    HW210812   1.205   5.342   4.254
 3305SOL     OW10813   2.202   1.220   2.448
 3305SOL    HW110814   2.157   1.145   2.400
 3305SOL    HW210815   2.141   1.254   2.520
 3306SOL     OW10816   2.246   5.602   4.697
 3306SOL    HW110817   2.149   5.605   4.719
 3306SOL    HW210818   2.278   5.507   4.698
 3307SOL     OW10819   6.983   5.505   6.746
 3307SOL    HW110820   0.040   5.528   6.790
 3307SOL    HW210821   6.932   5.590   6.727
 3308SOL     OW10822   3.089   6.303   1.077
 3308SOL    HW110823   3.041   6.338   0.997
 3308SOL    HW210824   3.123   6.380   1.131
 3309SOL     OW10825   7.024   5.715   3.642
 3309SOL    HW110826   0.031   5.674   3.726
 3309SOL    HW210827   7.021   5.814   3.652
 3310SOL     OW10828   0.394   3.606   5.693
 3310SOL    HW110829   0.478   3.596   5.746
 3310SOL    HW210830   0.322   3.643   5.752
 3311SOL     OW10831   3.627   3.600   1.318
 3311SOL    HW110832   3.684   3.560   1.247
 3311SOL    HW210833   3.619   3.536   1.395
 3312SOL     OW10834   4.289   4.331   6.137
 3312SOL    HW110835   4.334   4.271   6.071
 3312SOL    HW210836   4.327   4.423   6.130
 3313SOL     OW10837   1.043   6.517   3.793
 3313SOL    HW110838   0.994   6.591   3.746
 3313SOL    HW210839   1.108   6.475   3.731
 3314SOL     OW10840   2.399   1.264   2.819
 3314SOL    HW110841   2.345   1.345   2.844
 3314SOL    HW210842   2.490   1.292   2.791
 3315SOL     OW10843   6.548   4.548   4.237
 3315SOL    HW110844   6.638   4.582   4.211
 3315SOL    HW210845   6.478   4.592   4.180
 3316SOL     OW10846   5.067   1.215   5.757
 3316SOL    HW110847   5.045   1.272   5.836
 3316SOL    HW210848   5.111   1.131   5.788
 3317SOL     OW10849   4.614   2.906   1.612
 3317SOL    HW110850   4.705   2.912   1.571
 3317SOL    HW210851   4.611   2.961   1.695
 3318SOL     OW10852   2.153   1.468   0.821
 3318SOL    HW110853   2.190   1.450   0.730
 3318SOL    HW210854   2.187   1.556   0.855
 3319SOL     OW10855   6.558   1.402   3.874
 3319SOL    HW110856   6.644   1.455   3.874
 3319SOL    HW210857   6.523   1.398   3.968
 3320SOL     OW10858   6.463   0.799   5.249
 3320SOL    HW110859   6.531   0.815   5.321
 3320SOL    HW210860   6.464   0.703   5.222
 3321SOL     OW10861   4.779   1.692   0.297
 3321SOL    HW110862   4.835   1.629   0.243
 3321SOL    HW210863   4.697   1.716   0.246
 3322SOL     OW10864   6.717   2.784   1.324
 3322SOL    HW110865   6.656   2.823   1.255
 3322SOL    HW210866   6.797   2.743   1.279
 3323SOL     OW10867   3.306   2.993   0.426
 3323SOL    HW110868   3.385   2.945   0.465
 3323SOL    HW210869   3.278   2.947   0.341
 3324SOL     OW10870   4.076   4.989   6.776
 3324SOL    HW110871   4.168   5.026   6.789
 3324SOL    HW210872   4.081   4.909   6.717
 3325SOL     OW10873   0.423   3.258   6.622
 3325SOL    HW110874   0.520   3.258   6.599
 3325SOL    HW210875   0.405   3.329   6.691
 3326SOL     OW10876   5.479   1.698   2.184
 3326SOL    HW110877   5.520   1.675   2.096
 3326SOL    HW210878   5.383   1.669   2.185
 3327SOL     OW10879   3.423   5.359   1.470
 3327SOL    HW110880   3.385   5.417   1.398
 3327SOL    HW210881   3.484   5.291   1.429
 3328SOL     OW10882   4.503   2.270   0.677
 3328SOL    HW110883   4.488   2.175   0.653
 3328SOL    HW210884   4.570   2.310   0.614
 3329SOL     OW10885   5.267   6.983   4.673
 3329SOL    HW110886   5.278   0.050   4.691
 3329SOL    HW210887   5.178   6.953   4.707
 3330SOL     OW10888   6.522   4.765   2.128
 3330SOL    HW110889   6.616   4.791   2.150
 3330SOL    HW210890   6.495   4.688   2.186
 3331SOL     OW10891   2.477   3.005   1.476
 3331SOL    HW110892   2.488   3.088   1.530
 3331SOL    HW210893   2.531   2.931   1.516
 3332SOL     OW10894   5.574   5.707   6.978
 3332SOL    HW110895   5.530   5.630   6.932
 3332SOL    HW210896   5.609   5.678   0.037
 3333SOL     OW10897   4.442   4.267   6.408
 3333SOL    HW110898   4.475   4.350   6.453
 3333SOL    HW210899   4.371   4.292   6.342
 3334SOL     OW10900   2.614   3.925   1.636
 3334SOL    HW110901   2.700   3.921   1.687
 3334SOL    HW210902   2.606   4.013   1.590
 3335SOL     OW10903   4.829   6.709   5.477
 3335SOL    HW110904   4.810   6.722   5.380
 3335SOL    HW210905   4.806   6.615   5.503
 3336SOL     OW10906   2.450   6.114   4.715
 3336SOL    HW110907   2.356   6.089   4.695
 3336SOL    HW210908   2.479   6.070   4.800
 3337SOL     OW10909   3.034   3.831   2.949
 3337SOL    HW110910   3.073   3.892   2.880
 3337SOL    HW210911   3.044   3.736   2.919
 3338SOL     OW10912   5.787   2.432   1.418
 3338SOL    HW110913   5.863   2.371   1.397
 3338SOL    HW210914   5.810   2.525   1.387
 3339SOL     OW10915   6.048   0.408   6.561
 3339SOL    HW110916   6.080   0.353   6.484
 3339SOL    HW210917   6.030   0.349   6.639
 3340SOL     OW10918   3.597   1.033   2.467
 3340SOL    HW110919   3.533   1.060   2.395
 3340SOL    HW210920   3.552   1.037   2.556
 3341SOL     OW10921   1.334   5.211   3.139
 3341SOL    HW110922   1.309   5.149   3.213
 3341SOL    HW210923   1.347   5.159   3.055
 3342SOL     OW10924   2.461   0.144   4.281
 3342SOL    HW110925   2.434   0.132   4.186
 3342SOL    HW210926   2.462   0.241   4.304
 3343SOL     OW10927   5.278   2.909   0.815
 3343SOL    HW110928   5.347   2.863   0.871
 3343SOL    HW210929   5.220   2.965   0.874
 3344SOL     OW10930   5.643   3.216   3.987
 3344SOL    HW110931   5.698   3.201   3.905
 3344SOL    HW210932   5.621   3.129   4.029
 3345SOL     OW10933   1.585   3.742   5.950
 3345SOL    HW110934   1.546   3.702   6.033
 3345SOL    HW210935   1.665   3.797   5.974
 3346SOL     OW10936   1.335   0.549   0.845
 3346SOL    HW110937   1.326   0.525   0.748
 3346SOL    HW210938   1.250   0.528   0.893
 3347SOL     OW10939   0.811   3.930   4.504
 3347SOL    HW110940   0.761   3.935   4.590
 3347SOL    HW210941   0.802   3.839   4.465
 3348SOL     OW10942   3.354   3.418   3.925
 3348SOL    HW110943   3.356   3.350   3.851
 3348SOL    HW210944   3.442   3.418   3.972
 3349SOL     OW10945   0.999   5.718   2.961
 3349SOL    HW110946   1.043   5.657   2.895
 3349SOL    HW210947   0.940   5.665   3.022
 3350SOL     OW10948   1.248   2.101   5.738
 3350SOL    HW110949   1.158   2.059   5.735
 3350SOL    HW210950   1.316   2.032   5.762
 3351SOL     OW10951   4.998   1.071   2.540
 3351SOL    HW110952   5.072   1.058   2.474
 3351SOL    HW210953   4.937   1.143   2.508
 3352SOL     OW10954   6.978   2.578   0.437
 3352SOL    HW110955   6.923   2.634   0.499
 3352SOL    HW210956   0.045   2.604   0.444
 3353SOL     OW10957   1.430   5.587   2.012
 3353SOL    HW110958   1.372   5.663   1.985
 3353SOL    HW210959   1.483   5.612   2.094
 3354SOL     OW10960   4.680   2.483   5.424
 3354SOL    HW110961   4.742   2.425   5.477
 3354SOL    HW210962   4.663   2.568   5.475
 3355SOL     OW10963   2.080   1.373   6.883
 3355SOL    HW110964   2.158   1.367   6.821
 3355SOL    HW210965   2.095   1.449   6.947
 3356SOL     OW10966   1.725   4.720   5.889
 3356SOL    HW110967   1.731   4.816   5.913
 3356SOL    HW210968   1.813   4.689   5.852
 3357SOL     OW10969   2.665   4.736   1.819
 3357SOL    HW110970   2.706   4.715   1.730
 3357SOL    HW210971   2.707   4.679   1.890
 3358SOL     OW10972   5.200   1.143   0.996
 3358SOL    HW110973   5.205   1.058   1.049
 3358SOL    HW210974   5.276   1.202   1.021
 3359SOL     OW10975   6.777   0.528   3.985
 3359SOL    HW110976   6.845   0.527   4.058
 3359SOL    HW210977   6.697   0.474   4.014
 3360SOL     OW10978   0.441   1.173   6.891
 3360SOL    HW110979   0.379   1.124   6.952
 3360SOL    HW210980   0.431   1.272   6.907
 3361SOL     OW10981   1.055   4.579   3.850
 3361SOL    HW110982   1.131   4.621   3.899
 3361SOL    HW210983   0.988   4.648   3.826
 3362SOL     OW10984   3.900   1.670   3.210
 3362SOL    HW110985   3.945   1.736   3.149
 3362SOL    HW210986   3.879   1.714   3.297
 3363SOL     OW10987   6.269   6.832   0.969
 3363SOL    HW110988   6.287   6.908   0.906
 3363SOL    HW210989   6.226   6.757   0.919
 3364SOL     OW10990   1.521   4.249   3.973
 3364SOL    HW110991   1.549   4.345   3.973
 3364SOL    HW210992   1.507   4.218   3.879
 3365SOL     OW10993   0.289   2.079   5.375
 3365SOL    HW110994   0.368   2.037   5.330
 3365SOL    HW210995   0.254   2.153   5.318
 3366SOL     OW10996   5.861   0.074   5.689
 3366SOL    HW110997   5.930   0.015   5.730
 3366SOL    HW210998   5.835   0.038   5.599
 3367SOL     OW10999   3.861   3.057   1.377
 3367SOL    HW111000   3.930   3.124   1.403
 3367SOL    HW211001   3.857   2.985   1.446
 3368SOL     OW11002   0.416   4.863   5.766
 3368SOL    HW111003   0.330   4.847   5.717
 3368SOL    HW211004   0.454   4.776   5.798
 3369SOL     OW11005   3.722   2.560   6.026
 3369SOL    HW111006   3.643   2.621   6.039
 3369SOL    HW211007   3.800   2.613   5.993
 3370SOL     OW11008   6.910   6.063   6.679
 3370SOL    HW111009   6.850   6.131   6.637
 3370SOL    HW211010   6.993   6.108   6.712
 3371SOL     OW11011   1.823   3.253   2.043
 3371SOL    HW111012   1.757   3.269   1.970
 3371SOL    HW211013   1.775   3.241   2.130
 3372SOL     OW11014   0.788   1.573   0.807
 3372SOL    HW111015   0.823   1.562   0.900
 3372SOL    HW211016   0.803   1.667   0.777
 3373SOL     OW11017   6.910   1.843   2.972
 3373SOL    HW111018   6.990   1.903   2.976
 3373SOL    HW211019   6.931   1.764   2.916
 3374SOL     OW11020   1.340   6.148   4.555
 3374SOL    HW111021   1.275   6.194   4.616
 3374SOL    HW211022   1.318   6.171   4.460
 3375SOL     OW11023   6.222   5.859   6.442
 3375SOL    HW111024   6.132   5.877   6.482
 3375SOL    HW211025   6.211   5.822   6.350
 3376SOL     OW11026   3.999   3.125   3.454
 3376SOL    HW111027   4.084   3.170   3.427
 3376SOL    HW211028   3.922   3.188   3.442
 3377SOL     OW11029   0.268   6.485   5.183
 3377SOL    HW111030   0.198   6.535   5.132
 3377SOL    HW211031   0.248   6.387   5.180
 3378SOL     OW11032   0.043   0.980   0.526
 3378SOL    HW111033   6.995   0.933   0.567
 3378SOL    HW211034   0.065   1.061   0.580
 3379SOL     OW11035   6.607   6.641   6.498
 3379SOL    HW111036   6.544   6.669   6.571
 3379SOL    HW211037   6.700   6.639   6.534
 3380SOL     OW11038   6.077   6.941   5.647
 3380SOL    HW111039   6.041   6.927   5.555
 3380SOL    HW211040   6.077   6.854   5.696
 3381SOL     OW11041   1.288   2.644   1.320
 3381SOL    HW111042   1.252   2.617   1.410
 3381SOL    HW211043   1.373   2.694   1.332
 3382SOL     OW11044   0.261   1.746   0.942
 3382SOL    HW111045   0.335   1.758   0.876
 3382SOL    HW211046   0.216   1.834   0.957
 3383SOL     OW11047   4.667   5.961   2.122
 3383SOL    HW111048   4.717   6.023   2.061
 3383SOL    HW211049   4.600   5.910   2.069
 3384SOL     OW11050   2.636   3.137   5.997
 3384SOL    HW111051   2.609   3.116   5.903
 3384SOL    HW211052   2.715   3.199   5.996
 3385SOL     OW11053   6.804   2.582   4.359
 3385SOL    HW111054   6.848   2.664   4.392
 3385SOL    HW211055   6.870   2.507   4.354
 3386SOL     OW11056   6.089   3.883   6.889
 3386SOL    HW111057   6.032   3.845   6.817
 3386SOL    HW211058   6.152   3.950   6.849
 3387SOL     OW11059   2.929   0.847   3.710
 3387SOL    HW111060   2.885   0.900   3.637
 3387SOL    HW211061   3.026   0.838   3.690
 3388SOL     OW11062   5.018   3.310   1.747
 3388SOL    HW111063   5.009   3.218   1.708
 3388SOL    HW211064   5.106   3.318   1.792
 3389SOL     OW11065   5.658   4.958   5.511
 3389SOL    HW111066   5.695   5.007   5.590
 3389SOL    HW211067   5.588   5.014   5.468
 3390SOL     OW11068   5.102   5.173   5.829
 3390SOL    HW111069   5.132   5.247   5.769
 3390SOL    HW211070   5.108   5.203   5.924
 3391SOL     OW11071   5.193   2.993   4.616
 3391SOL    HW111072   5.212   3.090   4.625
 3391SOL    HW211073   5.228   2.944   4.696
 3392SOL     OW11074   2.900   6.828   3.799
 3392SOL    HW111075   2.967   6.874   3.857
 3392SOL    HW211076   2.812   6.824   3.847
 3393SOL     OW11077   0.569   6.315   0.211
 3393SOL    HW111078   0.515   6.251   0.157
 3393SOL    HW211079   0.552   6.408   0.179
 3394SOL     OW11080   5.939   3.379   1.851
 3394SOL    HW111081   5.856   3.433   1.868
 3394SOL    HW211082   6.019   3.436   1.863
 3395SOL     OW11083   5.160   3.045   3.390
 3395SOL    HW111084   5.151   3.011   3.297
 3395SOL    HW211085   5.163   2.967   3.454
 3396SOL     OW11086   4.694   1.888   3.792
 3396SOL    HW111087   4.687   1.858   3.697
 3396SOL    HW211088   4.700   1.988   3.795
 3397SOL     OW11089   2.016   0.692   5.274
 3397SOL    HW111090   1.989   0.682   5.370
 3397SOL    HW211091   2.076   0.771   5.264
 3398SOL     OW11092   0.700   6.642   4.810
 3398SOL    HW111093   0.690   6.552   4.766
 3398SOL    HW211094   0.621   6.660   4.868
 3399SOL     OW11095   5.516   4.362   3.863
 3399SOL    HW111096   5.556   4.448   3.896
 3399SOL    HW211097   5.417   4.373   3.853
 3400SOL     OW11098   4.919   2.706   5.606
 3400SOL    HW111099   4.949   2.783   5.549
 3400SOL    HW211100   4.976   2.626   5.587
 3401SOL     OW11101   0.207   3.376   1.088
 3401SOL    HW111102   0.165   3.320   1.159
 3401SOL    HW211103   0.151   3.374   1.005
 3402SOL     OW11104   3.823   6.136   6.378
 3402SOL    HW111105   3.799   6.043   6.404
 3402SOL    HW211106   3.893   6.171   6.440
 3403SOL     OW11107   3.755   5.969   4.592
 3403SOL    HW111108   3.778   5.962   4.495
 3403SOL    HW211109   3.665   6.011   4.603
 3404SOL     OW11110   5.193   1.627   0.033
 3404SOL    HW111111   5.195   1.536   0.074
 3404SOL    HW211112   5.147   1.622   6.974
 3405SOL     OW11113   0.085   3.788   4.570
 3405SOL    HW111114   0.129   3.878   4.567
 3405SOL    HW211115   7.030   3.791   4.517
 3406SOL     OW11116   0.606   3.951   1.853
 3406SOL    HW111117   0.689   3.896   1.853
 3406SOL    HW211118   0.591   3.989   1.761
 3407SOL     OW11119   1.298   5.186   6.520
 3407SOL    HW111120   1.277   5.089   6.509
 3407SOL    HW211121   1.373   5.211   6.459
 3408SOL     OW11122   4.729   3.835   5.301
 3408SOL    HW111123   4.744   3.886   5.216
 3408SOL    HW211124   4.696   3.743   5.280
 3409SOL     OW11125   3.212   6.274   6.556
 3409SOL    HW111126   3.213   6.365   6.596
 3409SOL    HW211127   3.117   6.246   6.537
 3410SOL     OW11128   0.199   6.061   0.274
 3410SOL    HW111129   0.245   5.994   0.216
 3410SOL    HW211130   0.256   6.142   0.284
 3411SOL     OW11131   0.712   3.306   1.846
 3411SOL    HW111132   0.764   3.237   1.797
 3411SOL    HW211133   0.656   3.262   1.917
 3412SOL     OW11134   4.148   2.791   6.724
 3412SOL    HW111135   4.111   2.793   6.817
 3412SOL    HW211136   4.154   2.884   6.689
 3413SOL     OW11137   5.897   1.528   0.718
 3413SOL    HW111138   5.816   1.529   0.660
 3413SOL    HW211139   5.887   1.456   0.788
 3414SOL     OW11140   2.360   0.212   5.859
 3414SOL    HW111141   2.272   0.220   5.812
 3414SOL    HW211142   2.434   0.224   5.793
 3415SOL     OW11143   1.787   3.925   5.152
 3415SOL    HW111144   1.750   3.864   5.082
 3415SOL    HW211145   1.804   3.872   5.236
 3416SOL     OW11146   0.169   5.946   0.649
 3416SOL    HW111147   0.215   6.034   0.638
 3416SOL    HW211148   0.193   5.886   0.573
 3417SOL     OW11149   0.374   5.714   2.885
 3417SOL    HW111150   0.471   5.724   2.908
 3417SOL    HW211151   0.334   5.642   2.941
 3418SOL     OW11152   3.699   0.916   4.555
 3418SOL    HW111153   3.624   0.853   4.571
 3418SOL    HW211154   3.699   0.987   4.626
 3419SOL     OW11155   3.676   5.442   4.896
 3419SOL    HW111156   3.697   5.346   4.875
 3419SOL    HW211157   3.750   5.500   4.864
 3420SOL     OW11158   5.038   2.839   4.237
 3420SOL    HW111159   5.015   2.768   4.171
 3420SOL    HW211160   4.953   2.877   4.275
 3421SOL     OW11161   5.128   1.100   5.508
 3421SOL    HW111162   5.107   1.014   5.553
 3421SOL    HW211163   5.133   1.173   5.576
 3422SOL     OW11164   1.736   0.347   1.040
 3422SOL    HW111165   1.681   0.430   1.028
 3422SOL    HW211166   1.690   0.285   1.102
 3423SOL     OW11167   1.087   4.733   6.984
 3423SOL    HW111168   1.077   4.652   6.926
 3423SOL    HW211169   1.168   4.723   0.012
 3424SOL     OW11170   3.116   6.623   1.735
 3424SOL    HW111171   3.196   6.619   1.796
 3424SOL    HW211172   3.034   6.642   1.789
 3425SOL     OW11173   5.091   5.034   2.706
 3425SOL    HW111174   5.138   5.024   2.794
 3425SOL    HW211175   5.117   4.960   2.645
 3426SOL     OW11176   4.291   2.649   0.605
 3426SOL    HW111177   4.254   2.720   0.665
 3426SOL    HW211178   4.293   2.562   0.654
 3427SOL     OW11179   6.184   0.248   6.811
 3427SOL    HW111180   6.221   0.164   6.770
 3427SOL    HW211181   6.109   0.224   6.872
 3428SOL     OW11182   3.121   5.106   0.849
 3428SOL    HW111183   3.193   5.176   0.847
 3428SOL    HW211184   3.087   5.090   0.757
 3429SOL     OW11185   0.323   2.287   0.502
 3429SOL    HW111186   0.275   2.313   0.586
 3429SOL    HW211187   0.413   2.250   0.526
 3430SOL     OW11188   0.635   6.438   5.147
 3430SOL    HW111189   0.658   6.390   5.231
 3430SOL    HW211190   0.596   6.527   5.168
 3431SOL     OW11191   0.829   0.032   1.348
 3431SOL    HW111192   0.737   0.034   1.309
 3431SOL    HW211193   0.885   0.103   1.305
 3432SOL     OW11194   1.723   2.255   7.003
 3432SOL    HW111195   1.655   2.327   6.987
 3432SOL    HW211196   1.697   2.200   0.052
 3433SOL     OW11197   1.010   0.517   6.516
 3433SOL    HW111198   1.020   0.420   6.494
 3433SOL    HW211199   1.041   0.534   6.610
 3434SOL     OW11200   4.813   1.915   0.832
 3434SOL    HW111201   4.816   1.819   0.859
 3434SOL    HW211202   4.879   1.967   0.886
 3435SOL     OW11203   0.782   1.721   0.464
 3435SOL    HW111204   0.793   1.630   0.423
 3435SOL    HW211205   0.702   1.766   0.425
 3436SOL     OW11206   3.772   5.628   6.481
 3436SOL    HW111207   3.842   5.642   6.411
 3436SOL    HW211208   3.792   5.685   6.560
 3437SOL     OW11209   1.843   1.313   5.710
 3437SOL    HW111210   1.768   1.356   5.760
 3437SOL    HW211211   1.905   1.384   5.675
 3438SOL     OW11212   1.142   2.723   6.996
 3438SOL    HW111213   1.063   2.666   6.972
 3438SOL    HW211214   1.205   2.670   0.023
 3439SOL     OW11215   1.974   6.394   5.074
 3439SOL    HW111216   1.989   6.338   4.993
 3439SOL    HW211217   2.039   6.470   5.074
 3440SOL     OW11218   3.744   3.447   1.727
 3440SOL    HW111219   3.728   3.409   1.818
 3440SOL    HW211220   3.823   3.401   1.685
 3441SOL     OW11221   5.104   6.969   4.419
 3441SOL    HW111222   5.146   0.030   4.412
 3441SOL    HW211223   5.096   6.943   4.515
 3442SOL     OW11224   3.304   5.495   1.956
 3442SOL    HW111225   3.353   5.414   1.986
 3442SOL    HW211226   3.257   5.476   1.869
 3443SOL     OW11227   4.987   5.859   1.546
 3443SOL    HW111228   4.891   5.856   1.573
 3443SOL    HW211229   5.013   5.953   1.523
 3444SOL     OW11230   5.185   5.521   0.243
 3444SOL    HW111231   5.105   5.493   0.191
 3444SOL    HW211232   5.157   5.584   0.316
 3445SOL     OW11233   6.588   5.649   4.355
 3445SOL    HW111234   6.544   5.652   4.445
 3445SOL    HW211235   6.601   5.554   4.327
 3446SOL     OW11236   6.232   0.247   2.578
 3446SOL    HW111237   6.311   0.308   2.572
 3446SOL    HW211238   6.211   0.229   2.674
 3447SOL     OW11239   5.322   5.725   0.851
 3447SOL    HW111240   5.346   5.818   0.877
 3447SOL    HW211241   5.365   5.702   0.764
 3448SOL     OW11242   3.172   0.153   1.007
 3448SOL    HW111243   3.122   0.066   1.010
 3448SOL    HW211244   3.109   0.227   1.028
 3449SOL     OW11245   6.219   6.570   3.873
 3449SOL    HW111246   6.233   6.474   3.850
 3449SOL    HW211247   6.188   6.620   3.793
 3450SOL     OW11248   6.678   2.510   6.617
 3450SOL    HW111249   6.668   2.494   6.519
 3450SOL    HW211250   6.641   2.431   6.668
 3451SOL     OW11251   2.197   6.193   1.601
 3451SOL    HW111252   2.246   6.134   1.536
 3451SOL    HW211253   2.099   6.181   1.590
 3452SOL     OW11254   5.833   0.692   6.035
 3452SOL    HW111255   5.908   0.629   6.014
 3452SOL    HW211256   5.761   0.642   6.084
 3453SOL     OW11257   6.278   6.073   5.971
 3453SOL    HW111258   6.237   6.133   5.902
 3453SOL    HW211259   6.368   6.109   5.997
 3454SOL     OW11260   0.916   2.243   5.808
 3454SOL    HW111261   0.939   2.158   5.856
 3454SOL    HW211262   0.993   2.271   5.751
 3455SOL     OW11263   2.372   2.034   4.439
 3455SOL    HW111264   2.446   2.006   4.500
 3455SOL    HW211265   2.393   2.123   4.399
 3456SOL     OW11266   6.096   5.588   2.880
 3456SOL    HW111267   6.015   5.530   2.892
 3456SOL    HW211268   6.124   5.585   2.784
 3457SOL     OW11269   2.769   5.425   3.177
 3457SOL    HW111270   2.818   5.511   3.158
 3457SOL    HW211271   2.788   5.360   3.104
 3458SOL     OW11272   4.456   0.493   1.446
 3458SOL    HW111273   4.457   0.584   1.402
 3458SOL    HW211274   4.532   0.487   1.511
 3459SOL     OW11275   5.821   3.686   2.798
 3459SOL    HW111276   5.850   3.645   2.884
 3459SOL    HW211277   5.791   3.614   2.736
 3460SOL     OW11278   2.766   2.907   6.920
 3460SOL    HW111279   2.805   2.908   7.012
 3460SOL    HW211280   2.674   2.867   6.925
 3461SOL     OW11281   4.583   6.456   5.060
 3461SOL    HW111282   4.485   6.463   5.042
 3461SOL    HW211283   4.598   6.421   5.152
 3462SOL     OW11284   0.585   3.448   2.239
 3462SOL    HW111285   0.577   3.499   2.324
 3462SOL    HW211286   0.589   3.512   2.162
 3463SOL     OW11287   0.775   3.806   2.976
 3463SOL    HW111288   0.825   3.757   3.047
 3463SOL    HW211289   0.812   3.898   2.965
 3464SOL     OW11290   6.503   3.480   6.444
 3464SOL    HW111291   6.455   3.420   6.380
 3464SOL    HW211292   6.539   3.559   6.394
 3465SOL     OW11293   2.028   2.278   2.216
 3465SOL    HW111294   1.987   2.368   2.197
 3465SOL    HW211295   1.957   2.208   2.216
 3466SOL     OW11296   0.387   4.559   0.196
 3466SOL    HW111297   0.440   4.617   0.257
 3466SOL    HW211298   0.430   4.557   0.105
 3467SOL     OW11299   1.925   2.358   0.993
 3467SOL    HW111300   1.928   2.349   1.093
 3467SOL    HW211301   2.008   2.320   0.953
 3468SOL     OW11302   5.915   6.642   2.824
 3468SOL    HW111303   5.962   6.566   2.781
 3468SOL    HW211304   5.952   6.728   2.789
 3469SOL     OW11305   4.581   0.209   3.491
 3469SOL    HW111306   4.484   0.214   3.514
 3469SOL    HW211307   4.602   0.118   3.456
 3470SOL     OW11308   6.482   3.204   1.850
 3470SOL    HW111309   6.477   3.270   1.925
 3470SOL    HW211310   6.434   3.240   1.770
 3471SOL     OW11311   4.150   5.158   4.537
 3471SOL    HW111312   4.069   5.213   4.559
 3471SOL    HW211313   4.220   5.171   4.607
 3472SOL     OW11314   2.755   1.072   3.214
 3472SOL    HW111315   2.682   1.005   3.227
 3472SOL    HW211316   2.722   1.163   3.239
 3473SOL     OW11317   6.951   2.512   1.514
 3473SOL    HW111318   6.931   2.610   1.510
 3473SOL    HW211319   6.967   2.478   1.421
 3474SOL     OW11320   0.827   4.932   2.180
 3474SOL    HW111321   0.810   4.833   2.174
 3474SOL    HW211322   0.907   4.949   2.238
 3475SOL     OW11323   1.410   4.615   4.464
 3475SOL    HW111324   1.488   4.576   4.416
 3475SOL    HW211325   1.388   4.705   4.426
 3476SOL     OW11326   2.480   1.188   3.162
 3476SOL    HW111327   2.482   1.112   3.097
 3476SOL    HW211328   2.387   1.196   3.200
 3477SOL     OW11329   1.557   5.720   1.136
 3477SOL    HW111330   1.605   5.663   1.202
 3477SOL    HW211331   1.602   5.809   1.129
 3478SOL     OW11332   2.541   5.289   5.272
 3478SOL    HW111333   2.580   5.374   5.238
 3478SOL    HW211334   2.597   5.254   5.347
 3479SOL     OW11335   0.977   0.192   3.379
 3479SOL    HW111336   1.017   0.151   3.297
 3479SOL    HW211337   0.985   0.291   3.374
 3480SOL     OW11338   0.419   6.582   4.591
 3480SOL    HW111339   0.498   6.540   4.637
 3480SOL    HW211340   0.344   6.516   4.587
 3481SOL     OW11341   4.477   0.486   0.221
 3481SOL    HW111342   4.384   0.455   0.239
 3481SOL    HW211343   4.513   0.534   0.301
 3482SOL     OW11344   6.277   1.509   1.776
 3482SOL    HW111345   6.312   1.449   1.848
 3482SOL    HW211346   6.177   1.506   1.774
 3483SOL     OW11347   4.857   2.047   1.869
 3483SOL    HW111348   4.858   2.061   1.968
 3483SOL    HW211349   4.772   2.084   1.831
 3484SOL     OW11350   1.160   2.917   6.787
 3484SOL    HW111351   1.165   2.860   6.705
 3484SOL    HW211352   1.168   2.859   6.868
 3485SOL     OW11353   2.258   1.316   4.388
 3485SOL    HW111354   2.199   1.387   4.426
 3485SOL    HW211355   2.351   1.352   4.377
 3486SOL     OW11356   2.871   0.116   3.752
 3486SOL    HW111357   2.936   0.093   3.679
 3486SOL    HW211358   2.916   0.109   3.840
 3487SOL     OW11359   6.249   2.484   5.329
 3487SOL    HW111360   6.206   2.400   5.295
 3487SOL    HW211361   6.241   2.488   5.429
 3488SOL     OW11362   6.249   1.178   4.478
 3488SOL    HW111363   6.337   1.178   4.430
 3488SOL    HW211364   6.178   1.142   4.418
 3489SOL     OW11365   4.220   0.031   1.221
 3489SOL    HW111366   4.238   0.088   1.141
 3489SOL    HW211367   4.195   0.090   1.298
 3490SOL     OW11368   4.417   4.680   0.566
 3490SOL    HW111369   4.341   4.667   0.503
 3490SOL    HW211370   4.475   4.754   0.533
 3491SOL     OW11371   4.463   2.392   5.548
 3491SOL    HW111372   4.451   2.455   5.624
 3491SOL    HW211373   4.533   2.427   5.486
 3492SOL     OW11374   6.776   4.903   1.261
 3492SOL    HW111375   6.828   4.822   1.288
 3492SOL    HW211376   6.788   4.919   1.163
 3493SOL     OW11377   5.370   4.132   5.394
 3493SOL    HW111378   5.336   4.173   5.479
 3493SOL    HW211379   5.358   4.033   5.398
 3494SOL     OW11380   3.396   0.346   1.191
 3494SOL    HW111381   3.329   0.336   1.117
 3494SOL    HW211382   3.383   0.435   1.235
 3495SOL     OW11383   5.730   4.990   1.989
 3495SOL    HW111384   5.646   4.978   1.935
 3495SOL    HW211385   5.807   4.952   1.939
 3496SOL     OW11386   6.203   4.232   1.231
 3496SOL    HW111387   6.181   4.311   1.174
 3496SOL    HW211388   6.128   4.166   1.226
 3497SOL     OW11389   2.981   1.256   3.993
 3497SOL    HW111390   2.996   1.355   3.996
 3497SOL    HW211391   2.935   1.232   3.907
 3498SOL     OW11392   3.027   2.163   0.967
 3498SOL    HW111393   3.054   2.236   1.030
 3498SOL    HW211394   2.965   2.201   0.898
 3499SOL     OW11395   4.975   3.608   4.192
 3499SOL    HW111396   5.065   3.574   4.221
 3499SOL    HW211397   4.985   3.703   4.161
 3500SOL     OW11398   1.727   3.730   5.344
 3500SOL    HW111399   1.714   3.752   5.441
 3500SOL    HW211400   1.640   3.700   5.305
 3501SOL     OW11401   1.700   5.678   4.852
 3501SOL    HW111402   1.708   5.766   4.806
 3501SOL    HW211403   1.624   5.626   4.813
 3502SOL     OW11404   6.601   2.910   2.654
 3502SOL    HW111405   6.694   2.876   2.670
 3502SOL    HW211406   6.605   3.005   2.625
 3503SOL     OW11407   5.916   6.466   4.866
 3503SOL    HW111408   5.955   6.476   4.958
 3503SOL    HW211409   5.926   6.372   4.835
 3504SOL     OW11410   2.466   1.863   1.615
 3504SOL    HW111411   2.388   1.908   1.659
 3504SOL    HW211412   2.432   1.796   1.548
 3505SOL     OW11413   5.848   4.600   4.844
 3505SOL    HW111414   5.852   4.700   4.846
 3505SOL    HW211415   5.883   4.563   4.930
 3506SOL     OW11416   5.036   5.520   5.762
 3506SOL    HW111417   4.957   5.478   5.808
 3506SOL    HW211418   5.106   5.451   5.746
 3507SOL     OW11419   1.600   0.580   0.959
 3507SOL    HW111420   1.628   0.673   0.937
 3507SOL    HW211421   1.507   0.564   0.927
 3508SOL     OW11422   3.040   2.356   5.631
 3508SOL    HW111423   3.042   2.261   5.599
 3508SOL    HW211424   2.946   2.381   5.655
 3509SOL     OW11425   5.451   0.182   5.957
 3509SOL    HW111426   5.354   0.158   5.970
 3509SOL    HW211427   5.477   0.167   5.862
 3510SOL     OW11428   1.304   2.331   1.886
 3510SOL    HW111429   1.285   2.237   1.859
 3510SOL    HW211430   1.283   2.342   1.984
 3511SOL     OW11431   3.302   5.399   0.532
 3511SOL    HW111432   3.241   5.450   0.472
 3511SOL    HW211433   3.327   5.313   0.487
 3512SOL     OW11434   0.583   4.426   0.987
 3512SOL    HW111435   0.639   4.488   1.043
 3512SOL    HW211436   0.492   4.419   1.028
 3513SOL     OW11437   6.296   2.992   0.754
 3513SOL    HW111438   6.331   3.008   0.846
 3513SOL    HW211439   6.333   3.061   0.692
 3514SOL     OW11440   0.576   1.427   2.010
 3514SOL    HW111441   0.656   1.480   1.982
 3514SOL    HW211442   0.502   1.440   1.944
 3515SOL     OW11443   5.587   5.952   3.051
 3515SOL    HW111444   5.650   6.012   3.002
 3515SOL    HW211445   5.581   5.864   3.004
 3516SOL     OW11446   4.839   0.219   0.650
 3516SOL    HW111447   4.778   0.197   0.574
 3516SOL    HW211448   4.861   0.316   0.649
 3517SOL     OW11449   1.536   2.503   0.566
 3517SOL    HW111450   1.629   2.467   0.567
 3517SOL    HW211451   1.539   2.602   0.552
 3518SOL     OW11452   6.114   2.863   4.312
 3518SOL    HW111453   6.048   2.890   4.242
 3518SOL    HW211454   6.189   2.812   4.270
 3519SOL     OW11455   1.638   0.955   6.820
 3519SOL    HW111456   1.614   1.052   6.821
 3519SOL    HW211457   1.560   0.901   6.849
 3520SOL     OW11458   3.126   4.721   6.202
 3520SOL    HW111459   3.209   4.733   6.256
 3520SOL    HW211460   3.145   4.657   6.127
 3521SOL     OW11461   4.803   1.921   0.001
 3521SOL    HW111462   4.785   1.863   6.952
 3521SOL    HW211463   4.899   1.912   0.029
 3522SOL     OW11464   0.154   4.470   1.909
 3522SOL    HW111465   0.151   4.370   1.913
 3522SOL    HW211466   0.193   4.506   1.993
 3523SOL     OW11467   2.092   5.321   6.196
 3523SOL    HW111468   2.015   5.267   6.160
 3523SOL    HW211469   2.155   5.261   6.245
 3524SOL     OW11470   4.407   1.635   1.743
 3524SOL    HW111471   4.321   1.681   1.721
 3524SOL    HW211472   4.472   1.649   1.668
 3525SOL     OW11473   1.178   4.424   3.127
 3525SOL    HW111474   1.142   4.410   3.034
 3525SOL    HW211475   1.239   4.349   3.150
 3526SOL     OW11476   2.501   6.369   4.317
 3526SOL    HW111477   2.565   6.297   4.344
 3526SOL    HW211478   2.443   6.394   4.394
 3527SOL     OW11479   5.895   2.573   6.154
 3527SOL    HW111480   5.944   2.555   6.070
 3527SOL    HW211481   5.959   2.574   6.231
 3528SOL     OW11482   0.715   5.319   4.561
 3528SOL    HW111483   0.801   5.299   4.607
 3528SOL    HW211484   0.643   5.333   4.629
 3529SOL     OW11485   3.995   0.139   0.128
 3529SOL    HW111486   4.086   0.147   0.167
 3529SOL    HW211487   3.999   0.159   0.030
 3530SOL     OW11488   0.099   5.192   2.650
 3530SOL    HW111489   0.171   5.212   2.584
 3530SOL    HW211490   0.132   5.128   2.718
 3531SOL     OW11491   5.493   2.654   0.672
 3531SOL    HW111492   5.554   2.733   0.672
 3531SOL    HW211493   5.418   2.670   0.607
 3532SOL     OW11494   3.091   0.887   1.576
 3532SOL    HW111495   3.075   0.851   1.668
 3532SOL    HW211496   3.131   0.815   1.519
 3533SOL     OW11497   1.824   1.856   2.420
 3533SOL    HW111498   1.764   1.779   2.402
 3533SOL    HW211499   1.896   1.828   2.484
 3534SOL     OW11500   5.393   0.552   5.752
 3534SOL    HW111501   5.454   0.511   5.821
 3534SOL    HW211502   5.420   0.520   5.661
 3535SOL     OW11503   1.734   5.759   0.511
 3535SOL    HW111504   1.750   5.660   0.512
 3535SOL    HW211505   1.795   5.802   0.444
 3536SOL     OW11506   2.618   2.497   3.311
 3536SOL    HW111507   2.641   2.429   3.241
 3536SOL    HW211508   2.698   2.513   3.369
 3537SOL     OW11509   3.161   5.509   1.063
 3537SOL    HW111510   3.129   5.570   0.990
 3537SOL    HW211511   3.083   5.478   1.117
 3538SOL     OW11512   1.434   0.398   6.264
 3538SOL    HW111513   1.430   0.498   6.270
 3538SOL    HW211514   1.344   0.362   6.242
 3539SOL     OW11515   5.811   3.496   6.082
 3539SOL    HW111516   5.732   3.483   6.142
 3539SOL    HW211517   5.793   3.453   5.994
 3540SOL     OW11518   2.395   2.464   6.376
 3540SOL    HW111519   2.335   2.523   6.321
 3540SOL    HW211520   2.368   2.470   6.472
 3541SOL     OW11521   1.647   2.454   6.565
 3541SOL    HW111522   1.633   2.550   6.591
 3541SOL    HW211523   1.562   2.417   6.528
 3542SOL     OW11524   1.427   4.923   2.258
 3542SOL    HW111525   1.437   5.011   2.212
 3542SOL    HW211526   1.452   4.849   2.196
 3543SOL     OW11527   0.751   2.421   4.818
 3543SOL    HW111528   0.827   2.424   4.754
 3543SOL    HW211529   0.668   2.392   4.771
 3544SOL     OW11530   2.911   3.930   6.130
 3544SOL    HW111531   2.883   3.890   6.043
 3544SOL    HW211532   2.877   4.023   6.136
 3545SOL     OW11533   4.272   5.433   0.245
 3545SOL    HW111534   4.226   5.513   0.207
 3545SOL    HW211535   4.209   5.355   0.245
 3546SOL     OW11536   0.480   3.690   4.042
 3546SOL    HW111537   0.553   3.621   4.041
 3546SOL    HW211538   0.441   3.699   3.951
 3547SOL     OW11539   6.666   4.770   5.305
 3547SOL    HW111540   6.744   4.800   5.252
 3547SOL    HW211541   6.584   4.820   5.276
 3548SOL     OW11542   5.443   0.519   5.488
 3548SOL    HW111543   5.455   0.617   5.507
 3548SOL    HW211544   5.445   0.505   5.389
 3549SOL     OW11545   6.927   4.569   6.029
 3549SOL    HW111546   6.857   4.550   5.960
 3549SOL    HW211547   6.883   4.584   6.117
 3550SOL     OW11548   5.828   3.178   3.347
 3550SOL    HW111549   5.740   3.176   3.301
 3550SOL    HW211550   5.898   3.212   3.283
 3551SOL     OW11551   3.251   2.049   2.767
 3551SOL    HW111552   3.205   1.971   2.808
 3551SOL    HW211553   3.195   2.085   2.692
 3552SOL     OW11554   6.376   6.597   1.442
 3552SOL    HW111555   6.365   6.690   1.477
 3552SOL    HW211556   6.301   6.576   1.379
 3553SOL     OW11557   4.669   5.309   1.064
 3553SOL    HW111558   4.716   5.391   1.098
 3553SOL    HW211559   4.715   5.276   0.982
 3554SOL     OW11560   4.423   2.023   1.222
 3554SOL    HW111561   4.395   1.952   1.287
 3554SOL    HW211562   4.492   1.986   1.160
 3555SOL     OW11563   0.636   4.390   3.565
 3555SOL    HW111564   0.688   4.475   3.564
 3555SOL    HW211565   0.680   4.324   3.627
 3556SOL     OW11566   3.937   1.140   4.267
 3556SOL    HW111567   4.019   1.197   4.260
 3556SOL    HW211568   3.881   1.152   4.185
 3557SOL     OW11569   1.116   1.448   4.469
 3557SOL    HW111570   1.090   1.355   4.492
 3557SOL    HW211571   1.040   1.493   4.421
 3558SOL     OW11572   1.240   6.168   2.370
 3558SOL    HW111573   1.159   6.110   2.359
 3558SOL    HW211574   1.216   6.264   2.353
 3559SOL     OW11575   0.202   5.970   5.351
 3559SOL    HW111576   0.129   5.918   5.308
 3559SOL    HW211577   0.224   5.930   5.440
 3560SOL     OW11578   1.244   5.415   2.833
 3560SOL    HW111579   1.274   5.385   2.743
 3560SOL    HW211580   1.318   5.402   2.899
 3561SOL     OW11581   4.346   4.695   4.900
 3561SOL    HW111582   4.254   4.711   4.933
 3561SOL    HW211583   4.382   4.610   4.938
 3562SOL     OW11584   4.114   1.501   3.190
 3562SOL    HW111585   4.087   1.409   3.162
 3562SOL    HW211586   4.032   1.559   3.197
 3563SOL     OW11587   5.849   1.621   0.092
 3563SOL    HW111588   5.858   1.675   0.008
 3563SOL    HW211589   5.809   1.532   0.069
 3564SOL     OW11590   0.926   4.550   3.463
 3564SOL    HW111591   0.840   4.594   3.488
 3564SOL    HW211592   0.942   4.472   3.524
 3565SOL     OW11593   3.085   5.462   4.943
 3565SOL    HW111594   3.178   5.424   4.945
 3565SOL    HW211595   3.082   5.543   5.001
 3566SOL     OW11596   0.146   3.612   5.891
 3566SOL    HW111597   0.138   3.521   5.848
 3566SOL    HW211598   0.097   3.679   5.835
 3567SOL     OW11599   0.337   2.677   6.489
 3567SOL    HW111600   0.262   2.695   6.425
 3567SOL    HW211601   0.304   2.617   6.562
 3568SOL     OW11602   4.577   5.411   4.001
 3568SOL    HW111603   4.542   5.493   4.047
 3568SOL    HW211604   4.636   5.438   3.925
 3569SOL     OW11605   2.194   1.526   5.812
 3569SOL    HW111606   2.285   1.496   5.783
 3569SOL    HW211607   2.179   1.620   5.782
 3570SOL     OW11608   5.177   0.819   5.092
 3570SOL    HW111609   5.135   0.870   5.167
 3570SOL    HW211610   5.276   0.817   5.104
 3571SOL     OW11611   0.954   5.274   4.722
 3571SOL    HW111612   0.973   5.201   4.657
 3571SOL    HW211613   1.040   5.316   4.751
 3572SOL     OW11614   5.727   3.858   3.072
 3572SOL    HW111615   5.812   3.805   3.068
 3572SOL    HW211616   5.661   3.811   3.131
 3573SOL     OW11617   0.313   5.399   3.491
 3573SOL    HW111618   0.307   5.328   3.421
 3573SOL    HW211619   0.379   5.372   3.561
 3574SOL     OW11620   0.813   3.297   0.793
 3574SOL    HW111621   0.777   3.277   0.883
 3574SOL    HW211622   0.903   3.254   0.783
 3575SOL     OW11623   5.459   5.384   2.303
 3575SOL    HW111624   5.516   5.309   2.269
 3575SOL    HW211625   5.482   5.468   2.254
 3576SOL     OW11626   0.465   2.591   6.032
 3576SOL    HW111627   0.422   2.647   6.102
 3576SOL    HW211628   0.533   2.645   5.983
 3577SOL     OW11629   1.418   2.158   6.326
 3577SOL    HW111630   1.486   2.119   6.264
 3577SOL    HW211631   1.329   2.116   6.309
 3578SOL     OW11632   3.996   1.828   0.301
 3578SOL    HW111633   4.057   1.765   0.348
 3578SOL    HW211634   4.021   1.922   0.324
 3579SOL     OW11635   0.367   2.349   3.530
 3579SOL    HW111636   0.465   2.339   3.514
 3579SOL    HW211637   0.353   2.408   3.610
 3580SOL     OW11638   6.374   3.261   1.603
 3580SOL    HW111639   6.284   3.244   1.644
 3580SOL    HW211640   6.391   3.193   1.532
 3581SOL     OW11641   1.145   5.708   3.504
 3581SOL    HW111642   1.133   5.804   3.530
 3581SOL    HW211643   1.139   5.651   3.586
 3582SOL     OW11644   1.078   3.316   6.427
 3582SOL    HW111645   1.021   3.394   6.452
 3582SOL    HW211646   1.083   3.253   6.505
 3583SOL     OW11647   1.164   4.320   6.663
 3583SOL    HW111648   1.201   4.375   6.589
 3583SOL    HW211649   1.144   4.228   6.629
 3584SOL     OW11650   5.605   5.021   6.496
 3584SOL    HW111651   5.568   5.038   6.404
 3584SOL    HW211652   5.583   4.928   6.524
 3585SOL     OW11653   3.093   1.162   4.534
 3585SOL    HW111654   3.054   1.091   4.475
 3585SOL    HW211655   3.192   1.148   4.541
 3586SOL     OW11656   6.179   1.666   4.841
 3586SOL    HW111657   6.104   1.610   4.805
 3586SOL    HW211658   6.164   1.762   4.817
 3587SOL     OW11659   2.003   4.942   5.456
 3587SOL    HW111660   2.029   4.847   5.441
 3587SOL    HW211661   2.076   5.002   5.426
 3588SOL     OW11662   1.580   2.894   5.553
 3588SOL    HW111663   1.555   2.968   5.616
 3588SOL    HW211664   1.559   2.922   5.459
 3589SOL     OW11665   5.146   1.221   4.993
 3589SOL    HW111666   5.183   1.301   5.041
 3589SOL    HW211667   5.073   1.180   5.047
 3590SOL     OW11668   0.956   3.249   0.461
 3590SOL    HW111669   1.029   3.199   0.506
 3590SOL    HW211670   0.961   3.233   0.362
 3591SOL     OW11671   5.379   4.136   6.678
 3591SOL    HW111672   5.434   4.053   6.665
 3591SOL    HW211673   5.328   4.155   6.594
 3592SOL     OW11674   0.574   5.206   1.791
 3592SOL    HW111675   0.648   5.261   1.830
 3592SOL    HW211676   0.611   5.118   1.762
 3593SOL     OW11677   0.871   5.311   5.352
 3593SOL    HW111678   0.814   5.251   5.407
 3593SOL    HW211679   0.814   5.380   5.309
 3594SOL     OW11680   4.961   6.741   3.345
 3594SOL    HW111681   5.057   6.763   3.328
 3594SOL    HW211682   4.916   6.822   3.384
 3595SOL     OW11683   4.450   5.657   6.159
 3595SOL    HW111684   4.398   5.632   6.240
 3595SOL    HW211685   4.430   5.752   6.134
 3596SOL     OW11686   6.519   3.235   3.033
 3596SOL    HW111687   6.488   3.328   3.014
 3596SOL    HW211688   6.451   3.170   2.999
 3597SOL     OW11689   1.833   2.085   5.655
 3597SOL    HW111690   1.837   2.094   5.555
 3597SOL    HW211691   1.910   2.134   5.695
 3598SOL     OW11692   1.045   5.452   6.369
 3598SOL    HW111693   1.068   5.397   6.449
 3598SOL    HW211694   0.947   5.474   6.370
 3599SOL     OW11695   6.100   2.222   6.260
 3599SOL    HW111696   6.129   2.160   6.334
 3599SOL    HW211697   6.001   2.224   6.256
 3600SOL     OW11698   0.643   2.877   1.756
 3600SOL    HW111699   0.549   2.910   1.747
 3600SOL    HW211700   0.676   2.845   1.667
 3601SOL     OW11701   5.272   3.038   6.064
 3601SOL    HW111702   5.211   3.001   5.993
 3601SOL    HW211703   5.263   3.137   6.066
 3602SOL     OW11704   1.614   3.595   0.627
 3602SOL    HW111705   1.563   3.681   0.622
 3602SOL    HW211706   1.557   3.521   0.593
 3603SOL     OW11707   3.482   1.254   3.925
 3603SOL    HW111708   3.467   1.352   3.938
 3603SOL    HW211709   3.573   1.230   3.958
 3604SOL     OW11710   6.546   6.142   3.430
 3604SOL    HW111711   6.471   6.209   3.436
 3604SOL    HW211712   6.605   6.166   3.354
 3605SOL     OW11713   6.552   4.310   4.599
 3605SOL    HW111714   6.615   4.384   4.578
 3605SOL    HW211715   6.461   4.333   4.564
 3606SOL     OW11716   0.679   0.614   4.723
 3606SOL    HW111717   0.736   0.547   4.772
 3606SOL    HW211718   0.584   0.585   4.725
 3607SOL     OW11719   5.514   5.322   1.924
 3607SOL    HW111720   5.465   5.345   1.840
 3607SOL    HW211721   5.595   5.379   1.932
 3608SOL     OW11722   4.815   2.275   4.700
 3608SOL    HW111723   4.777   2.182   4.694
 3608SOL    HW211724   4.859   2.298   4.613
 3609SOL     OW11725   1.448   0.221   4.429
 3609SOL    HW111726   1.433   0.314   4.396
 3609SOL    HW211727   1.367   0.190   4.479
 3610SOL     OW11728   1.670   6.799   5.776
 3610SOL    HW111729   1.585   6.765   5.736
 3610SOL    HW211730   1.745   6.790   5.710
 3611SOL     OW11731   4.559   4.867   4.928
 3611SOL    HW111732   4.464   4.841   4.911
 3611SOL    HW211733   4.617   4.786   4.920
 3612SOL     OW11734   6.992   6.774   0.444
 3612SOL    HW111735   0.036   6.767   0.510
 3612SOL    HW211736   7.022   6.736   0.356
 3613SOL     OW11737   4.960   4.653   2.083
 3613SOL    HW111738   4.870   4.615   2.063
 3613SOL    HW211739   5.019   4.581   2.119
 3614SOL     OW11740   3.838   3.467   0.970
 3614SOL    HW111741   3.861   3.424   1.058
 3614SOL    HW211742   3.747   3.508   0.975
 3615SOL     OW11743   5.335   3.636   6.276
 3615SOL    HW111744   5.318   3.647   6.374
 3615SOL    HW211745   5.432   3.618   6.261
 3616SOL     OW11746   0.407   1.645   6.338
 3616SOL    HW111747   0.311   1.652   6.364
 3616SOL    HW211748   0.426   1.552   6.307
 3617SOL     OW11749   4.573   0.658   0.021
 3617SOL    HW111750   4.549   0.576   0.073
 3617SOL    HW211751   4.489   0.705   7.023
 3618SOL     OW11752   2.584   3.099   5.719
 3618SOL    HW111753   2.664   3.072   5.666
 3618SOL    HW211754   2.521   3.021   5.725
 3619SOL     OW11755   5.853   2.610   4.709
 3619SOL    HW111756   5.908   2.650   4.783
 3619SOL    HW211757   5.851   2.674   4.631
 3620SOL     OW11758   6.169   6.208   5.744
 3620SOL    HW111759   6.105   6.270   5.698
 3620SOL    HW211760   6.263   6.237   5.727
 3621SOL     OW11761   3.284   2.815   5.234
 3621SOL    HW111762   3.186   2.807   5.251
 3621SOL    HW211763   3.300   2.887   5.166
 3622SOL     OW11764   1.071   1.807   6.437
 3622SOL    HW111765   1.047   1.897   6.400
 3622SOL    HW211766   0.991   1.747   6.433
 3623SOL     OW11767   6.961   6.391   4.503
 3623SOL    HW111768   6.987   6.300   4.470
 3623SOL    HW211769   6.863   6.391   4.525
 3624SOL     OW11770   1.825   6.920   2.244
 3624SOL    HW111771   1.881   6.994   2.206
 3624SOL    HW211772   1.833   6.920   2.344
 3625SOL     OW11773   0.053   3.036   6.589
 3625SOL    HW111774   7.029   3.082   6.519
 3625SOL    HW211775   0.149   3.034   6.562
 3626SOL     OW11776   1.785   2.566   5.417
 3626SOL    HW111777   1.760   2.632   5.486
 3626SOL    HW211778   1.723   2.573   5.339
 3627SOL     OW11779   3.022   3.408   1.800
 3627SOL    HW111780   3.059   3.353   1.725
 3627SOL    HW211781   3.092   3.473   1.831
 3628SOL     OW11782   1.662   0.936   2.421
 3628SOL    HW111783   1.697   0.953   2.513
 3628SOL    HW211784   1.572   0.892   2.427
 3629SOL     OW11785   6.895   1.098   5.539
 3629SOL    HW111786   6.813   1.085   5.484
 3629SOL    HW211787   6.869   1.123   5.632
 3630SOL     OW11788   5.112   2.205   4.079
 3630SOL    HW111789   5.175   2.228   4.153
 3630SOL    HW211790   5.018   2.207   4.113
 3631SOL     OW11791   2.214   0.814   3.348
 3631SOL    HW111792   2.296   0.855   3.386
 3631SOL    HW211793   2.189   0.733   3.401
 3632SOL     OW11794   5.642   5.298   0.759
 3632SOL    HW111795   5.609   5.323   0.850
 3632SOL    HW211796   5.725   5.242   0.768
 3633SOL     OW11797   4.216   2.075   5.739
 3633SOL    HW111798   4.290   2.098   5.801
 3633SOL    HW211799   4.211   2.141   5.665
 3634SOL     OW11800   1.700   5.234   5.684
 3634SOL    HW111801   1.765   5.166   5.719
 3634SOL    HW211802   1.654   5.197   5.603
 3635SOL     OW11803   3.258   6.743   1.013
 3635SOL    HW111804   3.164   6.712   1.031
 3635SOL    HW211805   3.263   6.777   0.919
 3636SOL     OW11806   6.951   5.852   0.768
 3636SOL    HW111807   6.953   5.766   0.716
 3636SOL    HW211808   7.011   5.919   0.725
 3637SOL     OW11809   0.271   2.869   2.072
 3637SOL    HW111810   0.231   2.926   2.000
 3637SOL    HW211811   0.210   2.869   2.151
 3638SOL     OW11812   0.798   4.216   3.082
 3638SOL    HW111813   0.784   4.306   3.123
 3638SOL    HW211814   0.732   4.151   3.120
 3639SOL     OW11815   4.028   5.681   0.466
 3639SOL    HW111816   4.036   5.757   0.402
 3639SOL    HW211817   3.991   5.601   0.419
 3640SOL     OW11818   4.115   0.929   0.487
 3640SOL    HW111819   4.025   0.889   0.469
 3640SOL    HW211820   4.128   1.008   0.428
 3641SOL     OW11821   6.052   3.762   2.390
 3641SOL    HW111822   6.148   3.767   2.360
 3641SOL    HW211823   6.049   3.748   2.488
 3642SOL     OW11824   5.449   2.017   0.064
 3642SOL    HW111825   5.396   2.040   0.146
 3642SOL    HW211826   5.443   1.918   0.048
 3643SOL     OW11827   2.678   5.496   4.826
 3643SOL    HW111828   2.740   5.431   4.783
 3643SOL    HW211829   2.648   5.563   4.758
 3644SOL     OW11830   1.326   1.531   1.914
 3644SOL    HW111831   1.285   1.460   1.856
 3644SOL    HW211832   1.418   1.502   1.942
 3645SOL     OW11833   1.575   2.051   3.940
 3645SOL    HW111834   1.646   2.060   4.010
 3645SOL    HW211835   1.516   2.131   3.942
 3646SOL     OW11836   2.122   4.182   6.012
 3646SOL    HW111837   2.186   4.209   6.085
 3646SOL    HW211838   2.132   4.084   5.994
 3647SOL     OW11839   2.268   6.402   6.640
 3647SOL    HW111840   2.344   6.378   6.580
 3647SOL    HW211841   2.219   6.320   6.668
 3648SOL     OW11842   4.454   5.927   2.519
 3648SOL    HW111843   4.483   5.920   2.615
 3648SOL    HW211844   4.429   6.021   2.498
 3649SOL     OW11845   6.283   2.921   1.409
 3649SOL    HW111846   6.281   2.824   1.385
 3649SOL    HW211847   6.243   2.933   1.500
 3650SOL     OW11848   6.399   5.295   2.226
 3650SOL    HW111849   6.492   5.278   2.194
 3650SOL    HW211850   6.366   5.381   2.186
 3651SOL     OW11851   0.803   0.479   4.514
 3651SOL    HW111852   0.871   0.451   4.582
 3651SOL    HW211853   0.740   0.546   4.555
 3652SOL     OW11854   6.272   6.956   3.428
 3652SOL    HW111855   6.224   6.938   3.514
 3652SOL    HW211856   6.370   6.964   3.446
 3653SOL     OW11857   1.316   1.231   3.184
 3653SOL    HW111858   1.392   1.252   3.245
 3653SOL    HW211859   1.255   1.165   3.227
 3654SOL     OW11860   4.161   4.905   0.133
 3654SOL    HW111861   4.143   4.895   0.035
 3654SOL    HW211862   4.118   4.830   0.183
 3655SOL     OW11863   3.363   6.937   4.053
 3655SOL    HW111864   3.404   6.942   4.144
 3655SOL    HW211865   3.316   6.849   4.043
 3656SOL     OW11866   0.222   5.361   1.623
 3656SOL    HW111867   0.273   5.323   1.546
 3656SOL    HW211868   0.124   5.351   1.607
 3657SOL     OW11869   5.611   5.238   5.564
 3657SOL    HW111870   5.705   5.268   5.549
 3657SOL    HW211871   5.559   5.249   5.480
 3658SOL     OW11872   2.316   4.464   6.466
 3658SOL    HW111873   2.303   4.537   6.534
 3658SOL    HW211874   2.345   4.380   6.512
 3659SOL     OW11875   2.239   2.639   6.231
 3659SOL    HW111876   2.153   2.689   6.246
 3659SOL    HW211877   2.315   2.704   6.229
 3660SOL     OW11878   5.627   6.056   4.449
 3660SOL    HW111879   5.537   6.052   4.406
 3660SOL    HW211880   5.650   5.967   4.487
 3661SOL     OW11881   7.010   0.814   5.065
 3661SOL    HW111882   0.048   0.870   5.016
 3661SOL    HW211883   7.030   0.817   5.163
 3662SOL     OW11884   4.092   0.698   4.104
 3662SOL    HW111885   4.044   0.755   4.037
 3662SOL    HW211886   4.108   0.751   4.187
 3663SOL     OW11887   1.904   2.320   0.680
 3663SOL    HW111888   1.955   2.385   0.736
 3663SOL    HW211889   1.902   2.352   0.585
 3664SOL     OW11890   4.653   2.184   1.758
 3664SOL    HW111891   4.561   2.146   1.746
 3664SOL    HW211892   4.647   2.267   1.814
 3665SOL     OW11893   1.050   6.283   4.976
 3665SOL    HW111894   1.037   6.244   5.066
 3665SOL    HW211895   0.985   6.358   4.962
 3666SOL     OW11896   1.132   3.885   2.779
 3666SOL    HW111897   1.169   3.853   2.866
 3666SOL    HW211898   1.051   3.830   2.756
 3667SOL     OW11899   0.412   1.244   3.881
 3667SOL    HW111900   0.362   1.261   3.796
 3667SOL    HW211901   0.384   1.311   3.950
 3668SOL     OW11902   1.174   0.881   1.267
 3668SOL    HW111903   1.088   0.928   1.285
 3668SOL    HW211904   1.160   0.782   1.278
 3669SOL     OW11905   5.216   1.842   3.694
 3669SOL    HW111906   5.265   1.857   3.608
 3669SOL    HW211907   5.149   1.916   3.707
 3670SOL     OW11908   2.031   5.502   6.568
 3670SOL    HW111909   2.123   5.493   6.529
 3670SOL    HW211910   1.971   5.547   6.503
 3671SOL     OW11911   0.100   1.935   3.870
 3671SOL    HW111912   0.073   1.843   3.841
 3671SOL    HW211913   0.094   1.998   3.792
 3672SOL     OW11914   4.580   2.168   2.161
 3672SOL    HW111915   4.671   2.182   2.121
 3672SOL    HW211916   4.511   2.196   2.095
 3673SOL     OW11917   3.837   5.777   6.689
 3673SOL    HW111918   3.804   5.854   6.744
 3673SOL    HW211919   3.836   5.694   6.744
 3674SOL     OW11920   1.629   5.661   5.718
 3674SOL    HW111921   1.725   5.662   5.690
 3674SOL    HW211922   1.575   5.718   5.656
 3675SOL     OW11923   1.918   2.882   4.313
 3675SOL    HW111924   1.869   2.803   4.275
 3675SOL    HW211925   1.875   2.909   4.399
 3676SOL     OW11926   6.707   4.315   3.028
 3676SOL    HW111927   6.609   4.319   3.046
 3676SOL    HW211928   6.726   4.246   2.958
 3677SOL     OW11929   2.913   6.238   4.352
 3677SOL    HW111930   2.948   6.332   4.355
 3677SOL    HW211931   2.989   6.175   4.341
 3678SOL     OW11932   1.369   1.425   4.330
 3678SOL    HW111933   1.311   1.444   4.410
 3678SOL    HW211934   1.321   1.365   4.267
 3679SOL     OW11935   6.824   0.360   3.173
 3679SOL    HW111936   6.917   0.324   3.168
 3679SOL    HW211937   6.824   0.457   3.149
 3680SOL     OW11938   5.271   2.686   4.056
 3680SOL    HW111939   5.278   2.640   4.144
 3680SOL    HW211940   5.247   2.619   3.986
 3681SOL     OW11941   0.592   1.322   6.716
 3681SOL    HW111942   0.591   1.414   6.753
 3681SOL    HW211943   0.543   1.260   6.778
 3682SOL     OW11944   5.855   2.846   0.236
 3682SOL    HW111945   5.839   2.936   0.195
 3682SOL    HW211946   5.919   2.855   0.312
 3683SOL     OW11947   0.300   1.593   4.398
 3683SOL    HW111948   0.250   1.548   4.472
 3683SOL    HW211949   0.379   1.537   4.372
 3684SOL     OW11950   1.125   5.547   0.551
 3684SOL    HW111951   1.193   5.605   0.597
 3684SOL    HW211952   1.033   5.575   0.577
 3685SOL     OW11953   1.739   6.039   6.333
 3685SOL    HW111954   1.688   5.964   6.374
 3685SOL    HW211955   1.827   6.006   6.299
 3686SOL     OW11956   6.297   5.065   4.740
 3686SOL    HW111957   6.266   4.974   4.765
 3686SOL    HW211958   6.217   5.122   4.718
 3687SOL     OW11959   3.955   6.043   4.100
 3687SOL    HW111960   4.041   6.064   4.055
 3687SOL    HW211961   3.932   6.116   4.165
 3688SOL     OW11962   0.075   2.730   0.048
 3688SOL    HW111963   0.012   2.654   0.032
 3688SOL    HW211964   0.034   2.794   0.112
 3689SOL     OW11965   1.850   0.298   5.652
 3689SOL    HW111966   1.948   0.289   5.635
 3689SOL    HW211967   1.802   0.315   5.565
 3690SOL     OW11968   3.826   6.047   0.187
 3690SOL    HW111969   3.823   6.146   0.198
 3690SOL    HW211970   3.733   6.012   0.175
 3691SOL     OW11971   2.604   1.324   6.745
 3691SOL    HW111972   2.660   1.309   6.826
 3691SOL    HW211973   2.652   1.387   6.683
 3692SOL     OW11974   6.738   5.166   5.550
 3692SOL    HW111975   6.789   5.252   5.541
 3692SOL    HW211976   6.676   5.172   5.628
 3693SOL     OW11977   2.131   3.156   2.995
 3693SOL    HW111978   2.151   3.253   2.982
 3693SOL    HW211979   2.158   3.105   2.913
 3694SOL     OW11980   0.776   6.304   2.230
 3694SOL    HW111981   0.682   6.289   2.261
 3694SOL    HW211982   0.782   6.287   2.131
 3695SOL     OW11983   4.869   2.897   1.393
 3695SOL    HW111984   4.854   2.816   1.336
 3695SOL    HW211985   4.906   2.869   1.481
 3696SOL     OW11986   3.887   0.372   4.058
 3696SOL    HW111987   3.864   0.420   4.142
 3696SOL    HW211988   3.869   0.274   4.070
 3697SOL     OW11989   0.262   5.956   3.025
 3697SOL    HW111990   0.344   5.911   2.988
 3697SOL    HW211991   0.240   5.915   3.114
 3698SOL     OW11992   2.589   0.884   3.734
 3698SOL    HW111993   2.666   0.909   3.675
 3698SOL    HW211994   2.523   0.832   3.681
 3699SOL     OW11995   1.992   1.037   3.486
 3699SOL    HW111996   1.947   1.090   3.558
 3699SOL    HW211997   1.937   0.956   3.465
 3700SOL     OW11998   1.379   5.156   5.039
 3700SOL    HW111999   1.340   5.208   5.115
 3700SOL    HW212000   1.469   5.193   5.016
 3701SOL     OW12001   1.453   0.067   3.684
 3701SOL    HW112002   1.426   0.150   3.732
 3701SOL    HW212003   1.552   0.054   3.692
 3702SOL     OW12004   5.484   6.536   3.676
 3702SOL    HW112005   5.541   6.496   3.605
 3702SOL    HW212006   5.412   6.591   3.634
 3703SOL     OW12007   6.676   0.696   6.618
 3703SOL    HW112008   6.745   0.765   6.638
 3703SOL    HW212009   6.632   0.717   6.531
 3704SOL     OW12010   3.838   2.088   1.181
 3704SOL    HW112011   3.851   2.104   1.083
 3704SOL    HW212012   3.923   2.055   1.221
 3705SOL     OW12013   5.287   4.391   4.494
 3705SOL    HW112014   5.302   4.377   4.396
 3705SOL    HW212015   5.367   4.435   4.534
 3706SOL     OW12016   0.708   3.572   6.957
 3706SOL    HW112017   0.706   3.473   6.940
 3706SOL    HW212018   0.707   3.589   0.026
 3707SOL     OW12019   5.407   5.117   4.897
 3707SOL    HW112020   5.337   5.061   4.941
 3707SOL    HW212021   5.367   5.202   4.863
 3708SOL     OW12022   5.807   0.185   0.397
 3708SOL    HW112023   5.781   0.162   0.491
 3708SOL    HW212024   5.898   0.149   0.379
 3709SOL     OW12025   3.608   0.197   1.717
 3709SOL    HW112026   3.552   0.193   1.635
 3709SOL    HW212027   3.560   0.247   1.788
 3710SOL     OW12028   6.654   5.345   5.263
 3710SOL    HW112029   6.561   5.372   5.237
 3710SOL    HW212030   6.698   5.419   5.313
 3711SOL     OW12031   1.229   5.418   4.962
 3711SOL    HW112032   1.191   5.362   5.036
 3711SOL    HW212033   1.328   5.424   4.973
 3712SOL     OW12034   1.074   4.898   6.085
 3712SOL    HW112035   0.993   4.946   6.118
 3712SOL    HW212036   1.084   4.914   5.987
 3713SOL     OW12037   0.539   6.974   5.142
 3713SOL    HW112038   0.559   7.001   5.236
 3713SOL    HW212039   0.498   6.882   5.143
 3714SOL     OW12040   5.997   5.868   6.617
 3714SOL    HW112041   5.902   5.840   6.629
 3714SOL    HW212042   6.022   5.934   6.688
 3715SOL     OW12043   1.018   4.027   2.435
 3715SOL    HW112044   0.934   4.041   2.383
 3715SOL    HW212045   1.022   4.094   2.509
 3716SOL     OW12046   5.855   6.651   4.346
 3716SOL    HW112047   5.830   6.747   4.354
 3716SOL    HW212048   5.945   6.637   4.387
 3717SOL     OW12049   5.892   0.479   7.021
 3717SOL    HW112050   5.951   0.415   0.039
 3717SOL    HW212051   5.941   0.565   7.005
 3718SOL     OW12052   6.799   0.305   0.600
 3718SOL    HW112053   6.797   0.244   0.679
 3718SOL    HW212054   6.831   0.255   0.520
 3719SOL     OW12055   5.034   3.145   0.753
 3719SOL    HW112056   5.054   3.074   0.686
 3719SOL    HW212057   4.989   3.105   0.832
 3720SOL     OW12058   6.062   3.102   0.727
 3720SOL    HW112059   6.149   3.057   0.749
 3720SOL    HW212060   5.987   3.037   0.740
 3721SOL     OW12061   0.168   5.101   1.404
 3721SOL    HW112062   0.086   5.133   1.451
 3721SOL    HW212063   0.143   5.061   1.316
 3722SOL     OW12064   5.667   5.874   1.075
 3722SOL    HW112065   5.763   5.855   1.095
 3722SOL    HW212066   5.643   5.838   0.985
 3723SOL     OW12067   5.541   4.640   0.898
 3723SOL    HW112068   5.450   4.676   0.918
 3723SOL    HW212069   5.566   4.661   0.804
 3724SOL     OW12070   1.980   4.549   5.000
 3724SOL    HW112071   1.888   4.587   4.990
 3724SOL    HW212072   1.998   4.485   4.926
 3725SOL     OW12073   0.482   5.541   6.957
 3725SOL    HW112074   0.557   5.567   7.018
 3725SOL    HW212075   0.517   5.486   6.882
 3726SOL     OW12076   5.909   2.854   6.066
 3726SOL    HW112077   5.871   2.779   6.119
 3726SOL    HW212078   5.906   2.831   5.969
 3727SOL     OW12079   6.496   2.088   5.409
 3727SOL    HW112080   6.563   2.029   5.363
 3727SOL    HW212081   6.426   2.032   5.452
 3728SOL     OW12082   0.956   3.254   6.779
 3728SOL    HW112083   0.884   3.196   6.818
 3728SOL    HW212084   0.991   3.211   6.696
 3729SOL     OW12085   1.710   1.384   3.971
 3729SOL    HW112086   1.656   1.388   3.887
 3729SOL    HW212087   1.721   1.476   4.008
 3730SOL     OW12088   3.020   5.755   5.425
 3730SOL    HW112089   3.065   5.722   5.508
 3730SOL    HW212090   2.930   5.713   5.417
 3731SOL     OW12091   6.989   1.447   0.229
 3731SOL    HW112092   6.972   1.443   0.327
 3731SOL    HW212093   0.040   1.502   0.211
 3732SOL     OW12094   2.594   1.835   0.339
 3732SOL    HW112095   2.581   1.832   0.240
 3732SOL    HW212096   2.680   1.881   0.360
 3733SOL     OW12097   2.217   3.036   2.768
 3733SOL    HW112098   2.252   3.120   2.727
 3733SOL    HW212099   2.186   2.974   2.696
 3734SOL     OW12100   5.293   0.186   0.943
 3734SOL    HW112101   5.200   0.161   0.916
 3734SOL    HW212102   5.316   0.142   1.029
 3735SOL     OW12103   3.140   0.470   2.629
 3735SOL    HW112104   3.098   0.409   2.562
 3735SOL    HW212105   3.237   0.446   2.640
 3736SOL     OW12106   0.330   1.385   1.070
 3736SOL    HW112107   0.418   1.399   1.024
 3736SOL    HW212108   0.326   1.292   1.107
 3737SOL     OW12109   5.357   1.507   4.042
 3737SOL    HW112110   5.264   1.543   4.049
 3737SOL    HW212111   5.400   1.509   4.132
 3738SOL     OW12112   6.454   0.345   1.392
 3738SOL    HW112113   6.473   0.284   1.315
 3738SOL    HW212114   6.358   0.373   1.390
 3739SOL     OW12115   2.446   5.306   1.057
 3739SOL    HW112116   2.506   5.229   1.080
 3739SOL    HW212117   2.447   5.372   1.132
 3740SOL     OW12118   6.412   7.007   0.815
 3740SOL    HW112119   6.487   0.033   0.852
 3740SOL    HW212120   6.436   6.977   0.722
 3741SOL     OW12121   5.094   2.883   5.868
 3741SOL    HW112122   5.037   2.837   5.801
 3741SOL    HW212123   5.170   2.824   5.895
 3742SOL     OW12124   3.486   1.448   0.173
 3742SOL    HW112125   3.559   1.394   0.130
 3742SOL    HW212126   3.524   1.502   0.247
 3743SOL     OW12127   5.577   2.864   0.474
 3743SOL    HW112128   5.639   2.797   0.514
 3743SOL    HW212129   5.572   2.849   0.375
 3744SOL     OW12130   1.259   6.530   1.953
 3744SOL    HW112131   1.209   6.446   1.975
 3744SOL    HW212132   1.232   6.602   2.017
 3745SOL     OW12133   4.636   4.563   2.807
 3745SOL    HW112134   4.637   4.489   2.740
 3745SOL    HW212135   4.707   4.547   2.876
 3746SOL     OW12136   6.974   0.525   4.170
 3746SOL    HW112137   0.037   0.493   4.188
 3746SOL    HW212138   6.976   0.624   4.153
 3747SOL     OW12139   3.951   5.635   5.105
 3747SOL    HW112140   3.929   5.592   5.018
 3747SOL    HW212141   3.870   5.636   5.164
 3748SOL     OW12142   5.636   1.040   1.454
 3748SOL    HW112143   5.604   1.121   1.406
 3748SOL    HW212144   5.607   1.045   1.550
 3749SOL     OW12145   2.417   5.055   2.822
 3749SOL    HW112146   2.433   5.116   2.900
 3749SOL    HW212147   2.370   5.105   2.750
 3750SOL     OW12148   6.475   4.827   1.153
 3750SOL    HW112149   6.554   4.788   1.105
 3750SOL    HW212150   6.481   4.805   1.250
 3751SOL     OW12151   6.852   3.236   1.066
 3751SOL    HW112152   6.927   3.172   1.079
 3751SOL    HW212153   6.801   3.247   1.151
 3752SOL     OW12154   0.262   6.452   0.112
 3752SOL    HW112155   0.357   6.482   0.106
 3752SOL    HW212156   0.250   6.369   0.057
 3753SOL     OW12157   0.150   0.959   4.159
 3753SOL    HW112158   0.236   0.950   4.109
 3753SOL    HW212159   0.132   1.056   4.178
 3754SOL     OW12160   3.771   6.732   1.196
 3754SOL    HW112161   3.701   6.803   1.203
 3754SOL    HW212162   3.802   6.726   1.101
 3755SOL     OW12163   5.271   5.546   4.401
 3755SOL    HW112164   5.273   5.618   4.332
 3755SOL    HW212165   5.176   5.530   4.429
 3756SOL     OW12166   2.219   6.106   6.307
 3756SOL    HW112167   2.255   6.080   6.397
 3756SOL    HW212168   2.287   6.086   6.237
 3757SOL     OW12169   3.933   6.624   6.163
 3757SOL    HW112170   3.935   6.564   6.243
 3757SOL    HW212171   3.839   6.631   6.130
 3758SOL     OW12172   2.154   1.814   4.871
 3758SOL    HW112173   2.116   1.802   4.780
 3758SOL    HW212174   2.233   1.754   4.882
 3759SOL     OW12175   4.611   5.522   5.967
 3759SOL    HW112176   4.552   5.555   6.041
 3759SOL    HW212177   4.625   5.595   5.900
 3760SOL     OW12178   1.703   2.127   4.944
 3760SOL    HW112179   1.773   2.176   4.995
 3760SOL    HW212180   1.619   2.123   4.997
 3761SOL     OW12181   0.906   0.903   5.264
 3761SOL    HW112182   0.886   0.833   5.333
 3761SOL    HW212183   1.005   0.915   5.257
 3762SOL     OW12184   1.278   4.439   0.267
 3762SOL    HW112185   1.307   4.356   0.314
 3762SOL    HW212186   1.299   4.431   0.170
 3763SOL     OW12187   6.990   4.516   0.566
 3763SOL    HW112188   6.893   4.530   0.584
 3763SOL    HW212189   7.011   4.419   0.571
 3764SOL     OW12190   1.570   6.662   4.552
 3764SOL    HW112191   1.507   6.733   4.521
 3764SOL    HW212192   1.612   6.691   4.638
 3765SOL     OW12193   4.879   0.902   1.150
 3765SOL    HW112194   4.868   0.876   1.054
 3765SOL    HW212195   4.794   0.940   1.184
 3766SOL     OW12196   0.852   1.293   3.845
 3766SOL    HW112197   0.839   1.213   3.904
 3766SOL    HW212198   0.947   1.295   3.813
 3767SOL     OW12199   2.608   4.611   0.866
 3767SOL    HW112200   2.671   4.542   0.831
 3767SOL    HW212201   2.660   4.694   0.889
 3768SOL     OW12202   1.957   5.930   5.027
 3768SOL    HW112203   2.042   5.924   4.975
 3768SOL    HW212204   1.894   5.993   4.982
 3769SOL     OW12205   5.958   6.355   5.627
 3769SOL    HW112206   5.902   6.430   5.663
 3769SOL    HW212207   5.953   6.355   5.527
 3770SOL     OW12208   1.800   0.368   6.826
 3770SOL    HW112209   1.879   0.414   6.786
 3770SOL    HW212210   1.831   0.294   6.886
 3771SOL     OW12211   6.031   2.831   0.448
 3771SOL    HW112212   6.066   2.762   0.511
 3771SOL    HW212213   5.932   2.838   0.459
 3772SOL     OW12214   6.887   0.688   0.358
 3772SOL    HW112215   6.826   0.711   0.283
 3772SOL    HW212216   6.834   0.655   0.436
 3773SOL     OW12217   6.421   3.037   5.508
 3773SOL    HW112218   6.507   2.989   5.521
 3773SOL    HW212219   6.438   3.132   5.483
 3774SOL     OW12220   0.158   5.706   0.118
 3774SOL    HW112221   0.067   5.743   0.137
 3774SOL    HW212222   0.157   5.608   0.134
 3775SOL     OW12223   5.069   5.191   2.484
 3775SOL    HW112224   5.025   5.117   2.535
 3775SOL    HW212225   4.999   5.255   2.452
 3776SOL     OW12226   3.906   1.561   1.063
 3776SOL    HW112227   3.948   1.475   1.088
 3776SOL    HW212228   3.806   1.550   1.058
 3777SOL     OW12229   3.545   4.932   4.472
 3777SOL    HW112230   3.517   4.925   4.376
 3777SOL    HW212231   3.467   4.913   4.531
 3778SOL     OW12232   3.277   4.982   2.237
 3778SOL    HW112233   3.351   5.041   2.204
 3778SOL    HW212234   3.311   4.927   2.313
 3779SOL     OW12235   1.922   5.225   1.048
 3779SOL    HW112236   2.016   5.255   1.034
 3779SOL    HW212237   1.880   5.203   0.960
 3780SOL     OW12238   5.303   5.769   5.429
 3780SOL    HW112239   5.269   5.777   5.523
 3780SOL    HW212240   5.233   5.726   5.372
 3781SOL     OW12241   1.310   6.832   4.568
 3781SOL    HW112242   1.329   6.866   4.660
 3781SOL    HW212243   1.273   6.739   4.574
 3782SOL     OW12244   2.653   0.679   4.037
 3782SOL    HW112245   2.603   0.611   3.984
 3782SOL    HW212246   2.608   0.692   4.125
 3783SOL     OW12247   5.576   5.248   4.365
 3783SOL    HW112248   5.668   5.284   4.379
 3783SOL    HW212249   5.571   5.205   4.274
 3784SOL     OW12250   4.800   2.931   2.228
 3784SOL    HW112251   4.752   2.943   2.141
 3784SOL    HW212252   4.805   2.834   2.251
 3785SOL     OW12253   1.608   1.577   6.431
 3785SOL    HW112254   1.700   1.569   6.467
 3785SOL    HW212255   1.592   1.507   6.362
 3786SOL     OW12256   2.219   6.550   2.920
 3786SOL    HW112257   2.289   6.490   2.958
 3786SOL    HW212258   2.141   6.554   2.983
 3787SOL     OW12259   5.975   0.368   2.546
 3787SOL    HW112260   6.073   0.353   2.558
 3787SOL    HW212261   5.955   0.389   2.451
 3788SOL     OW12262   1.126   4.247   4.430
 3788SOL    HW112263   1.031   4.225   4.408
 3788SOL    HW212264   1.171   4.167   4.469
 3789SOL     OW12265   0.582   3.082   5.153
 3789SOL    HW112266   0.507   3.105   5.215
 3789SOL    HW212267   0.644   3.017   5.198
 3790SOL     OW12268   1.552   4.924   5.394
 3790SOL    HW112269   1.462   4.942   5.355
 3790SOL    HW212270   1.598   4.852   5.341
 3791SOL     OW12271   5.844   0.704   0.414
 3791SOL    HW112272   5.902   0.771   0.368
 3791SOL    HW212273   5.749   0.734   0.411
 3792SOL     OW12274   0.890   1.622   4.423
 3792SOL    HW112275   0.803   1.635   4.471
 3792SOL    HW212276   0.900   1.691   4.352
 3793SOL     OW12277   4.100   6.927   2.618
 3793SOL    HW112278   4.127   6.945   2.713
 3793SOL    HW212279   4.182   6.926   2.560
 3794SOL     OW12280   2.437   3.987   1.026
 3794SOL    HW112281   2.474   4.029   1.109
 3794SOL    HW212282   2.459   4.045   0.947
 3795SOL     OW12283   4.820   6.370   6.913
 3795SOL    HW112284   4.846   6.385   6.818
 3795SOL    HW212285   4.833   6.455   6.965
 3796SOL     OW12286   2.677   1.730   1.757
 3796SOL    HW112287   2.686   1.746   1.856
 3796SOL    HW212288   2.595   1.775   1.723
 3797SOL     OW12289   0.457   4.050   2.726
 3797SOL    HW112290   0.509   4.126   2.767
 3797SOL    HW212291   0.371   4.038   2.776
 3798SOL     OW12292   3.158   5.566   2.477
 3798SOL    HW112293   3.085   5.593   2.414
 3798SOL    HW212294   3.162   5.631   2.553
 3799SOL     OW12295   1.022   2.207   4.431
 3799SOL    HW112296   0.969   2.128   4.460
 3799SOL    HW212297   1.095   2.225   4.497
 3800SOL     OW12298   5.541   3.217   4.519
 3800SOL    HW112299   5.581   3.290   4.574
 3800SOL    HW212300   5.444   3.208   4.542
 3801SOL     OW12301   6.323   6.476   2.666
 3801SOL    HW112302   6.244   6.527   2.631
 3801SOL    HW212303   6.358   6.523   2.747
 3802SOL     OW12304   1.265   2.243   2.561
 3802SOL    HW112305   1.275   2.217   2.657
 3802SOL    HW212306   1.302   2.334   2.547
 3803SOL     OW12307   3.549   2.225   1.464
 3803SOL    HW112308   3.641   2.188   1.478
 3803SOL    HW212309   3.534   2.301   1.527
 3804SOL     OW12310   5.299   1.295   3.742
 3804SOL    HW112311   5.230   1.354   3.701
 3804SOL    HW212312   5.264   1.201   3.747
 3805SOL     OW12313   2.418   3.203   1.679
 3805SOL    HW112314   2.500   3.236   1.726
 3805SOL    HW212315   2.377   3.279   1.629
 3806SOL     OW12316   4.029   4.116   6.569
 3806SOL    HW112317   3.935   4.094   6.595
 3806SOL    HW212318   4.045   4.086   6.475
 3807SOL     OW12319   1.787   6.341   3.399
 3807SOL    HW112320   1.717   6.375   3.462
 3807SOL    HW212321   1.743   6.303   3.317
 3808SOL     OW12322   4.687   0.073   0.850
 3808SOL    HW112323   4.741   0.089   0.932
 3808SOL    HW212324   4.728   0.122   0.773
 3809SOL     OW12325   5.821   2.942   0.784
 3809SOL    HW112326   5.844   2.903   0.873
 3809SOL    HW212327   5.737   2.997   0.792
 3810SOL     OW12328   4.612   2.726   4.606
 3810SOL    HW112329   4.598   2.812   4.557
 3810SOL    HW212330   4.599   2.649   4.543
 3811SOL     OW12331   1.068   4.212   4.041
 3811SOL    HW112332   0.969   4.202   4.039
 3811SOL    HW212333   1.110   4.122   4.055
 3812SOL     OW12334   5.449   0.509   5.213
 3812SOL    HW112335   5.363   0.495   5.164
 3812SOL    HW212336   5.512   0.562   5.156
 3813SOL     OW12337   4.811   4.860   0.351
 3813SOL    HW112338   4.734   4.814   0.308
 3813SOL    HW212339   4.893   4.847   0.296
 3814SOL     OW12340   0.251   6.539   0.475
 3814SOL    HW112341   0.344   6.552   0.510
 3814SOL    HW212342   0.217   6.625   0.438
 3815SOL     OW12343   4.530   3.043   6.816
 3815SOL    HW112344   4.490   3.127   6.853
 3815SOL    HW212345   4.527   2.972   6.886
 3816SOL     OW12346   0.518   5.887   6.975
 3816SOL    HW112347   0.614   5.915   6.979
 3816SOL    HW212348   0.509   5.809   6.913
 3817SOL     OW12349   4.808   3.997   2.640
 3817SOL    HW112350   4.845   4.025   2.729
 3817SOL    HW212351   4.792   3.898   2.640
 3818SOL     OW12352   5.647   0.699   0.214
 3818SOL    HW112353   5.558   0.685   0.257
 3818SOL    HW212354   5.668   0.622   0.154
 3819SOL     OW12355   5.297   5.419   1.339
 3819SOL    HW112356   5.245   5.501   1.316
 3819SOL    HW212357   5.290   5.353   1.263
 3820SOL     OW12358   6.201   6.808   3.207
 3820SOL    HW112359   6.220   6.863   3.288
 3820SOL    HW212360   6.108   6.828   3.175
 3821SOL     OW12361   2.955   1.625   0.767
 3821SOL    HW112362   2.883   1.676   0.815
 3821SOL    HW212363   3.044   1.659   0.796
 3822SOL     OW12364   1.328   6.773   2.656
 3822SOL    HW112365   1.409   6.787   2.599
 3822SOL    HW212366   1.355   6.749   2.749
 3823SOL     OW12367   3.146   2.805   6.283
 3823SOL    HW112368   3.142   2.784   6.185
 3823SOL    HW212369   3.173   2.901   6.295
 3824SOL     OW12370   6.165   2.124   0.540
 3824SOL    HW112371   6.103   2.047   0.524
 3824SOL    HW212372   6.189   2.166   0.452
 3825SOL     OW12373   0.960   6.356   0.557
 3825SOL    HW112374   0.869   6.363   0.515
 3825SOL    HW212375   0.996   6.264   0.543
 3826SOL     OW12376   0.792   2.684   0.118
 3826SOL    HW112377   0.826   2.768   0.160
 3826SOL    HW212378   0.843   2.605   0.153
 3827SOL     OW12379   3.006   2.964   1.076
 3827SOL    HW112380   2.906   2.966   1.084
 3827SOL    HW212381   3.041   2.881   1.119
 3828SOL     OW12382   3.706   2.605   1.764
 3828SOL    HW112383   3.670   2.523   1.808
 3828SOL    HW212384   3.755   2.579   1.680
 3829SOL     OW12385   1.865   4.673   4.365
 3829SOL    HW112386   1.888   4.765   4.333
 3829SOL    HW212387   1.839   4.676   4.461
 3830SOL     OW12388   0.520   0.211   4.341
 3830SOL    HW112389   0.552   0.270   4.266
 3830SOL    HW212390   0.425   0.233   4.362
 3831SOL     OW12391   4.681   1.930   2.302
 3831SOL    HW112392   4.749   1.885   2.245
 3831SOL    HW212393   4.652   2.016   2.260
 3832SOL     OW12394   5.622   0.506   2.643
 3832SOL    HW112395   5.582   0.523   2.553
 3832SOL    HW212396   5.555   0.526   2.714
 3833SOL     OW12397   0.702   5.622   6.458
 3833SOL    HW112398   0.606   5.623   6.488
 3833SOL    HW212399   0.734   5.716   6.448
 3834SOL     OW12400   4.299   3.137   1.463
 3834SOL    HW112401   4.287   3.050   1.511
 3834SOL    HW212402   4.351   3.200   1.521
 3835SOL     OW12403   3.285   5.505   5.206
 3835SOL    HW112404   3.253   5.585   5.256
 3835SOL    HW212405   3.212   5.436   5.203
 3836SOL     OW12406   1.395   3.889   5.824
 3836SOL    HW112407   1.465   3.836   5.871
 3836SOL    HW212408   1.437   3.970   5.782
 3837SOL     OW12409   4.825   3.600   6.923
 3837SOL    HW112410   4.796   3.694   6.902
 3837SOL    HW212411   4.815   3.583   7.021
 3838SOL     OW12412   0.427   2.981   4.411
 3838SOL    HW112413   0.367   3.060   4.397
 3838SOL    HW212414   0.505   3.008   4.467
 3839SOL     OW12415   3.791   0.656   4.293
 3839SOL    HW112416   3.878   0.701   4.315
 3839SOL    HW212417   3.737   0.716   4.233
 3840SOL     OW12418   1.852   1.478   5.396
 3840SOL    HW112419   1.898   1.545   5.339
 3840SOL    HW212420   1.900   1.469   5.483
 3841SOL     OW12421   0.138   3.242   5.148
 3841SOL    HW112422   0.115   3.307   5.220
 3841SOL    HW212423   0.202   3.284   5.084
 3842SOL     OW12424   0.913   3.928   0.001
 3842SOL    HW112425   0.836   3.897   6.976
 3842SOL    HW212426   0.974   3.984   6.975
 3843SOL     OW12427   0.083   4.099   2.565
 3843SOL    HW112428   0.045   4.171   2.507
 3843SOL    HW212429   0.045   4.011   2.536
 3844SOL     OW12430   7.008   3.547   6.125
 3844SOL    HW112431   0.026   3.500   6.199
 3844SOL    HW212432   0.036   3.547   6.043
 3845SOL     OW12433   3.838   2.996   2.967
 3845SOL    HW112434   3.788   2.964   3.047
 3845SOL    HW212435   3.911   3.057   2.995
 3846SOL     OW12436   1.244   4.778   3.981
 3846SOL    HW112437   1.201   4.780   4.072
 3846SOL    HW212438   1.327   4.722   3.985
 3847SOL     OW12439   6.113   0.734   4.957
 3847SOL    HW112440   6.173   0.666   4.915
 3847SOL    HW212441   6.088   0.803   4.889
 3848SOL     OW12442   3.311   5.371   2.387
 3848SOL    HW112443   3.335   5.318   2.468
 3848SOL    HW212444   3.251   5.447   2.413
 3849SOL     OW12445   0.900   1.520   5.248
 3849SOL    HW112446   0.860   1.439   5.204
 3849SOL    HW212447   0.851   1.538   5.334
 3850SOL     OW12448   3.010   3.743   1.151
 3850SOL    HW112449   3.056   3.806   1.214
 3850SOL    HW212450   3.009   3.651   1.191
 3851SOL     OW12451   1.444   4.603   2.932
 3851SOL    HW112452   1.386   4.625   2.853
 3851SOL    HW212453   1.476   4.509   2.925
 3852SOL     OW12454   4.655   6.738   4.219
 3852SOL    HW112455   4.567   6.729   4.266
 3852SOL    HW212456   4.712   6.804   4.267
 3853SOL     OW12457   1.620   2.936   2.883
 3853SOL    HW112458   1.656   3.023   2.850
 3853SOL    HW212459   1.670   2.908   2.965
 3854SOL     OW12460   1.598   3.464   2.551
 3854SOL    HW112461   1.655   3.402   2.497
 3854SOL    HW212462   1.535   3.411   2.608
 3855SOL     OW12463   4.945   6.102   6.415
 3855SOL    HW112464   4.888   6.067   6.489
 3855SOL    HW212465   4.932   6.201   6.407
 3856SOL     OW12466   6.431   6.046   5.504
 3856SOL    HW112467   6.454   5.949   5.490
 3856SOL    HW212468   6.367   6.075   5.433
 3857SOL     OW12469   0.839   5.943   6.133
 3857SOL    HW112470   0.854   5.912   6.039
 3857SOL    HW212471   0.904   5.897   6.193
 3858SOL     OW12472   1.529   5.888   5.513
 3858SOL    HW112473   1.516   5.970   5.457
 3858SOL    HW212474   1.556   5.812   5.455
 3859SOL     OW12475   6.482   2.325   3.306
 3859SOL    HW112476   6.501   2.413   3.348
 3859SOL    HW212477   6.411   2.278   3.358
 3860SOL     OW12478   1.189   0.698   5.618
 3860SOL    HW112479   1.148   0.783   5.584
 3860SOL    HW212480   1.225   0.645   5.542
 3861SOL     OW12481   5.234   4.554   1.914
 3861SOL    HW112482   5.160   4.595   1.862
 3861SOL    HW212483   5.322   4.576   1.872
 3862SOL     OW12484   0.208   6.818   4.988
 3862SOL    HW112485   0.118   6.779   5.007
 3862SOL    HW212486   0.229   6.888   5.057
 3863SOL     OW12487   4.111   3.280   6.344
 3863SOL    HW112488   4.140   3.185   6.354
 3863SOL    HW212489   4.033   3.284   6.281
 3864SOL     OW12490   3.562   1.616   5.062
 3864SOL    HW112491   3.650   1.639   5.103
 3864SOL    HW212492   3.489   1.631   5.129
 3865SOL     OW12493   4.008   0.078   0.770
 3865SOL    HW112494   3.936   0.014   0.799
 3865SOL    HW212495   3.973   0.172   0.775
 3866SOL     OW12496   4.324   0.919   1.200
 3866SOL    HW112497   4.316   0.896   1.297
 3866SOL    HW212498   4.240   0.894   1.153
 3867SOL     OW12499   2.042   3.506   3.715
 3867SOL    HW112500   2.076   3.484   3.624
 3867SOL    HW212501   1.955   3.458   3.731
 3868SOL     OW12502   2.787   6.483   1.519
 3868SOL    HW112503   2.706   6.429   1.540
 3868SOL    HW212504   2.857   6.466   1.588
 3869SOL     OW12505   6.971   3.019   4.580
 3869SOL    HW112506   6.881   2.979   4.594
 3869SOL    HW212507   6.965   3.095   4.515
 3870SOL     OW12508   4.970   5.097   0.652
 3870SOL    HW112509   5.022   5.050   0.724
 3870SOL    HW212510   4.877   5.061   0.651
 3871SOL     OW12511   3.906   0.580   2.551
 3871SOL    HW112512   3.968   0.615   2.620
 3871SOL    HW212513   3.811   0.599   2.578
 3872SOL     OW12514   3.241   3.104   2.028
 3872SOL    HW112515   3.168   3.054   2.075
 3872SOL    HW212516   3.329   3.062   2.048
 3873SOL     OW12517   6.994   5.904   1.277
 3873SOL    HW112518   6.940   5.980   1.314
 3873SOL    HW212519   6.966   5.885   1.183
 3874SOL     OW12520   3.989   5.847   7.024
 3874SOL    HW112521   3.979   5.901   0.077
 3874SOL    HW212522   3.900   5.838   6.979
 3875SOL     OW12523   1.159   3.153   2.378
 3875SOL    HW112524   1.259   3.148   2.381
 3875SOL    HW212525   1.128   3.150   2.282
 3876SOL     OW12526   5.941   5.311   6.924
 3876SOL    HW112527   5.971   5.225   6.881
 3876SOL    HW212528   5.886   5.363   6.859
 3877SOL     OW12529   7.003   2.307   0.323
 3877SOL    HW112530   6.904   2.300   0.332
 3877SOL    HW212531   7.029   2.403   0.310
 3878SOL     OW12532   2.176   6.158   5.745
 3878SOL    HW112533   2.112   6.102   5.796
 3878SOL    HW212534   2.188   6.121   5.653
 3879SOL     OW12535   4.628   6.746   1.308
 3879SOL    HW112536   4.595   6.833   1.345
 3879SOL    HW212537   4.549   6.688   1.285
 3880SOL     OW12538   5.483   4.002   3.517
 3880SOL    HW112539   5.535   3.918   3.503
 3880SOL    HW212540   5.467   4.016   3.615
 3881SOL     OW12541   1.549   4.803   0.308
 3881SOL    HW112542   1.511   4.831   0.219
 3881SOL    HW212543   1.647   4.819   0.309
 3882SOL     OW12544   6.433   1.282   5.337
 3882SOL    HW112545   6.499   1.294   5.262
 3882SOL    HW212546   6.354   1.341   5.322
 3883SOL     OW12547   4.234   1.301   3.619
 3883SOL    HW112548   4.320   1.270   3.659
 3883SOL    HW212549   4.199   1.232   3.556
 3884SOL     OW12550   0.939   5.588   4.295
 3884SOL    HW112551   1.033   5.564   4.268
 3884SOL    HW212552   0.940   5.672   4.349
 3885SOL     OW12553   5.929   1.291   4.582
 3885SOL    HW112554   5.926   1.272   4.484
 3885SOL    HW212555   6.022   1.318   4.608
 3886SOL     OW12556   6.530   6.906   4.949
 3886SOL    HW112557   6.531   6.815   4.990
 3886SOL    HW212558   6.521   6.898   4.850
 3887SOL     OW12559   5.109   1.754   5.556
 3887SOL    HW112560   5.175   1.828   5.574
 3887SOL    HW212561   5.093   1.702   5.639
 3888SOL     OW12562   0.616   0.339   6.331
 3888SOL    HW112563   0.588   0.337   6.235
 3888SOL    HW212564   0.551   0.394   6.383
 3889SOL     OW12565   6.906   3.447   6.679
 3889SOL    HW112566   6.916   3.363   6.731
 3889SOL    HW212567   6.832   3.437   6.613
 3890SOL     OW12568   6.681   6.554   3.008
 3890SOL    HW112569   6.635   6.531   2.922
 3890SOL    HW212570   6.779   6.540   2.998
 3891SOL     OW12571   5.098   4.629   4.591
 3891SOL    HW112572   5.153   4.570   4.532
 3891SOL    HW212573   5.123   4.724   4.577
 3892SOL     OW12574   0.674   0.321   2.049
 3892SOL    HW112575   0.710   0.347   1.960
 3892SOL    HW212576   0.630   0.231   2.042
 3893SOL     OW12577   3.435   5.713   2.029
 3893SOL    HW112578   3.394   5.628   1.994
 3893SOL    HW212579   3.475   5.696   2.119
 3894SOL     OW12580   3.645   2.286   1.218
 3894SOL    HW112581   3.726   2.230   1.202
 3894SOL    HW212582   3.597   2.253   1.299
 3895SOL     OW12583   0.861   0.938   5.836
 3895SOL    HW112584   0.955   0.928   5.869
 3895SOL    HW212585   0.815   0.849   5.837
 3896SOL     OW12586   0.381   2.526   5.758
 3896SOL    HW112587   0.343   2.512   5.666
 3896SOL    HW212588   0.308   2.553   5.820
 3897SOL     OW12589   2.944   6.657   2.109
 3897SOL    HW112590   2.871   6.626   2.169
 3897SOL    HW212591   3.028   6.607   2.130
 3898SOL     OW12592   3.468   2.911   3.414
 3898SOL    HW112593   3.391   2.970   3.389
 3898SOL    HW212594   3.461   2.886   3.510
 3899SOL     OW12595   4.720   1.078   4.536
 3899SOL    HW112596   4.789   1.015   4.570
 3899SOL    HW212597   4.764   1.154   4.488
 3900SOL     OW12598   5.538   3.117   3.597
 3900SOL    HW112599   5.449   3.076   3.620
 3900SOL    HW212600   5.553   3.198   3.653
 3901SOL     OW12601   1.968   6.124   6.134
 3901SOL    HW112602   1.932   6.217   6.131
 3901SOL    HW212603   2.048   6.121   6.193
 3902SOL     OW12604   4.591   4.377   2.334
 3902SOL    HW112605   4.557   4.363   2.241
 3902SOL    HW212606   4.647   4.299   2.362
 3903SOL     OW12607   4.220   4.022   6.749
 3903SOL    HW112608   4.163   4.079   6.690
 3903SOL    HW212609   4.293   4.077   6.788
 3904SOL     OW12610   0.785   0.273   6.961
 3904SOL    HW112611   0.884   0.267   6.950
 3904SOL    HW212612   0.761   0.361   7.000
 3905SOL     OW12613   5.931   6.578   6.523
 3905SOL    HW112614   6.009   6.547   6.578
 3905SOL    HW212615   5.942   6.674   6.500
 3906SOL     OW12616   2.160   5.027   4.812
 3906SOL    HW112617   2.121   5.112   4.848
 3906SOL    HW212618   2.184   4.967   4.889
 3907SOL     OW12619   0.639   1.354   4.959
 3907SOL    HW112620   0.718   1.346   5.020
 3907SOL    HW212621   0.600   1.263   4.943
 3908SOL     OW12622   0.425   0.737   6.671
 3908SOL    HW112623   0.479   0.814   6.704
 3908SOL    HW212624   0.485   0.659   6.654
 3909SOL     OW12625   5.502   4.040   6.139
 3909SOL    HW112626   5.552   4.049   6.226
 3909SOL    HW212627   5.548   3.973   6.081
 3910SOL     OW12628   3.675   4.007   1.990
 3910SOL    HW112629   3.626   4.044   2.069
 3910SOL    HW212630   3.701   4.082   1.930
 3911SOL     OW12631   5.826   0.880   0.772
 3911SOL    HW112632   5.828   0.842   0.864
 3911SOL    HW212633   5.833   0.979   0.776
 3912SOL     OW12634   3.373   1.396   6.211
 3912SOL    HW112635   3.318   1.313   6.206
 3912SOL    HW212636   3.313   1.476   6.216
 3913SOL     OW12637   3.748   5.959   6.895
 3913SOL    HW112638   3.754   6.059   6.889
 3913SOL    HW212639   3.679   5.934   6.963
 3914SOL     OW12640   5.111   1.294   1.794
 3914SOL    HW112641   5.039   1.333   1.736
 3914SOL    HW212642   5.077   1.212   1.839
 3915SOL     OW12643   3.875   6.517   6.658
 3915SOL    HW112644   3.921   6.593   6.613
 3915SOL    HW212645   3.844   6.546   6.749
 3916SOL     OW12646   2.708   7.023   2.852
 3916SOL    HW112647   2.768   6.965   2.908
 3916SOL    HW212648   2.614   7.015   2.885
 3917SOL     OW12649   2.887   5.097   0.045
 3917SOL    HW112650   2.985   5.117   0.042
 3917SOL    HW212651   2.872   5.001   0.023
 3918SOL     OW12652   4.525   0.899   0.493
 3918SOL    HW112653   4.603   0.837   0.505
 3918SOL    HW212654   4.472   0.870   0.413
 3919SOL     OW12655   4.289   0.749   0.645
 3919SOL    HW112656   4.381   0.788   0.637
 3919SOL    HW212657   4.222   0.812   0.606
 3920SOL     OW12658   2.165   1.300   6.408
 3920SOL    HW112659   2.117   1.234   6.466
 3920SOL    HW212660   2.100   1.341   6.343
 3921SOL     OW12661   6.752   2.966   6.974
 3921SOL    HW112662   6.713   3.028   6.906
 3921SOL    HW212663   6.700   2.881   6.976
 3922SOL     OW12664   4.893   5.171   1.735
 3922SOL    HW112665   4.883   5.173   1.636
 3922SOL    HW212666   4.870   5.262   1.772
 3923SOL     OW12667   5.811   1.370   1.163
 3923SOL    HW112668   5.877   1.296   1.150
 3923SOL    HW212669   5.824   1.411   1.253
 3924SOL     OW12670   0.775   4.455   3.209
 3924SOL    HW112671   0.767   4.547   3.170
 3924SOL    HW212672   0.825   4.460   3.296
 3925SOL     OW12673   4.733   4.358   1.056
 3925SOL    HW112674   4.759   4.293   1.127
 3925SOL    HW212675   4.740   4.451   1.091
 3926SOL     OW12676   0.708   0.279   5.788
 3926SOL    HW112677   0.640   0.291   5.860
 3926SOL    HW212678   0.663   0.245   5.705
 3927SOL     OW12679   0.871   3.239   4.006
 3927SOL    HW112680   0.961   3.242   3.963
 3927SOL    HW212681   0.830   3.148   3.992
 3928SOL     OW12682   2.704   6.817   2.522
 3928SOL    HW112683   2.605   6.829   2.515
 3928SOL    HW212684   2.747   6.842   2.436
 3929SOL     OW12685   6.889   1.336   7.002
 3929SOL    HW112686   6.930   1.372   0.056
 3929SOL    HW212687   6.864   1.240   7.015
 3930SOL     OW12688   1.050   1.968   4.060
 3930SOL    HW112689   1.071   2.054   4.106
 3930SOL    HW212690   1.085   1.891   4.113
 3931SOL     OW12691   1.548   2.187   1.858
 3931SOL    HW112692   1.481   2.259   1.874
 3931SOL    HW212693   1.602   2.210   1.777
 3932SOL     OW12694   2.297   5.454   4.004
 3932SOL    HW112695   2.389   5.466   4.041
 3932SOL    HW212696   2.294   5.371   3.948
 3933SOL     OW12697   1.014   6.290   0.163
 3933SOL    HW112698   1.090   6.350   0.191
 3933SOL    HW212699   1.016   6.207   0.218
 3934SOL     OW12700   0.591   1.794   3.097
 3934SOL    HW112701   0.664   1.762   3.157
 3934SOL    HW212702   0.532   1.717   3.073
 3935SOL     OW12703   6.385   2.360   6.173
 3935SOL    HW112704   6.458   2.343   6.107
 3935SOL    HW212705   6.302   2.388   6.125
 3936SOL     OW12706   6.619   5.821   5.665
 3936SOL    HW112707   6.633   5.722   5.673
 3936SOL    HW212708   6.652   5.866   5.748
 3937SOL     OW12709   0.484   5.546   2.549
 3937SOL    HW112710   0.457   5.531   2.454
 3937SOL    HW212711   0.405   5.579   2.601
 3938SOL     OW12712   6.795   3.616   4.496
 3938SOL    HW112713   6.804   3.561   4.578
 3938SOL    HW212714   6.857   3.581   4.426
 3939SOL     OW12715   1.783   0.806   3.204
 3939SOL    HW112716   1.801   0.904   3.202
 3939SOL    HW212717   1.691   0.788   3.170
 3940SOL     OW12718   3.136   4.878   1.875
 3940SOL    HW112719   3.076   4.864   1.954
 3940SOL    HW212720   3.230   4.854   1.900
 3941SOL     OW12721   5.756   7.021   4.660
 3941SOL    HW112722   5.815   6.946   4.690
 3941SOL    HW212723   5.665   6.985   4.639
 3942SOL     OW12724   1.252   6.277   5.918
 3942SOL    HW112725   1.160   6.311   5.939
 3942SOL    HW212726   1.271   6.197   5.975
 3943SOL     OW12727   1.230   3.646   1.843
 3943SOL    HW112728   1.301   3.575   1.839
 3943SOL    HW212729   1.241   3.699   1.927
 3944SOL     OW12730   5.466   2.828   5.762
 3944SOL    HW112731   5.469   2.868   5.670
 3944SOL    HW212732   5.540   2.865   5.817
 3945SOL     OW12733   1.057   2.371   3.113
 3945SOL    HW112734   0.968   2.407   3.086
 3945SOL    HW212735   1.129   2.437   3.090
 3946SOL     OW12736   6.907   3.176   6.777
 3946SOL    HW112737   6.960   3.194   6.860
 3946SOL    HW212738   6.959   3.118   6.715
 3947SOL     OW12739   6.118   5.231   0.431
 3947SOL    HW112740   6.104   5.264   0.338
 3947SOL    HW212741   6.131   5.309   0.492
 3948SOL     OW12742   1.699   3.695   6.987
 3948SOL    HW112743   1.707   3.782   6.939
 3948SOL    HW212744   1.709   3.709   0.055
 3949SOL     OW12745   6.534   0.062   3.048
 3949SOL    HW112746   6.529   0.159   3.073
 3949SOL    HW212747   6.505   0.050   2.953
 3950SOL     OW12748   4.264   4.180   1.690
 3950SOL    HW112749   4.225   4.095   1.727
 3950SOL    HW212750   4.325   4.221   1.758
 3951SOL     OW12751   0.622   2.637   6.689
 3951SOL    HW112752   0.693   2.707   6.697
 3951SOL    HW212753   0.544   2.674   6.640
 3952SOL     OW12754   5.805   2.632   3.824
 3952SOL    HW112755   5.887   2.689   3.831
 3952SOL    HW212756   5.808   2.561   3.894
 3953SOL     OW12757   3.327   4.559   5.846
 3953SOL    HW112758   3.367   4.477   5.805
 3953SOL    HW212759   3.310   4.627   5.774
 3954SOL     OW12760   6.281   3.865   5.887
 3954SOL    HW112761   6.212   3.850   5.958
 3954SOL    HW212762   6.247   3.932   5.821
 3955SOL     OW12763   4.902   6.467   0.627
 3955SOL    HW112764   4.896   6.438   0.532
 3955SOL    HW212765   4.841   6.545   0.642
 3956SOL     OW12766   1.187   2.927   5.565
 3956SOL    HW112767   1.176   2.833   5.532
 3956SOL    HW212768   1.284   2.946   5.580
 3957SOL     OW12769   3.381   6.341   4.083
 3957SOL    HW112770   3.361   6.430   4.122
 3957SOL    HW212771   3.302   6.310   4.029
 3958SOL     OW12772   6.092   0.024   0.026
 3958SOL    HW112773   6.113   6.991   6.981
 3958SOL    HW212774   6.110   7.009   0.114
 3959SOL     OW12775   3.458   5.955   1.283
 3959SOL    HW112776   3.382   6.005   1.242
 3959SOL    HW212777   3.543   6.006   1.270
 3960SOL     OW12778   4.835   2.713   6.800
 3960SOL    HW112779   4.923   2.756   6.818
 3960SOL    HW212780   4.775   2.778   6.753
 3961SOL     OW12781   5.255   1.991   1.932
 3961SOL    HW112782   5.238   2.066   1.868
 3961SOL    HW212783   5.273   2.029   2.023
 3962SOL     OW12784   0.768   5.810   0.288
 3962SOL    HW112785   0.794   5.715   0.301
 3962SOL    HW212786   0.810   5.866   0.360
 3963SOL     OW12787   5.554   5.093   3.085
 3963SOL    HW112788   5.490   5.138   3.023
 3963SOL    HW212789   5.592   5.012   3.040
 3964SOL     OW12790   4.628   6.190   4.895
 3964SOL    HW112791   4.598   6.283   4.920
 3964SOL    HW212792   4.725   6.180   4.918
 3965SOL     OW12793   3.600   4.447   6.474
 3965SOL    HW112794   3.610   4.433   6.375
 3965SOL    HW212795   3.521   4.396   6.507
 3966SOL     OW12796   6.873   4.680   6.588
 3966SOL    HW112797   6.923   4.728   6.515
 3966SOL    HW212798   6.843   4.591   6.554
 3967SOL     OW12799   1.014   5.191   3.916
 3967SOL    HW112800   0.962   5.129   3.975
 3967SOL    HW212801   1.040   5.142   3.832
 3968SOL     OW12802   5.358   0.157   2.814
 3968SOL    HW112803   5.456   0.174   2.823
 3968SOL    HW212804   5.327   0.099   2.890
 3969SOL     OW12805   1.093   4.627   2.919
 3969SOL    HW112806   1.043   4.577   2.848
 3969SOL    HW212807   1.029   4.665   2.986
 3970SOL     OW12808   4.729   4.975   3.862
 3970SOL    HW112809   4.778   5.062   3.861
 3970SOL    HW212810   4.655   4.976   3.795
 3971SOL     OW12811   2.781   5.549   2.902
 3971SOL    HW112812   2.742   5.588   2.985
 3971SOL    HW212813   2.783   5.618   2.830
 3972SOL     OW12814   0.326   6.183   0.635
 3972SOL    HW112815   0.425   6.176   0.648
 3972SOL    HW212816   0.307   6.226   0.547
 3973SOL     OW12817   3.089   3.076   5.572
 3973SOL    HW112818   3.077   3.126   5.658
 3973SOL    HW212819   3.133   2.988   5.591
 3974SOL     OW12820   0.798   1.343   6.354
 3974SOL    HW112821   0.814   1.396   6.271
 3974SOL    HW212822   0.877   1.350   6.415
 3975SOL     OW12823   6.603   0.575   5.439
 3975SOL    HW112824   6.651   0.543   5.521
 3975SOL    HW212825   6.555   0.499   5.396
 3976SOL     OW12826   1.255   4.687   1.093
 3976SOL    HW112827   1.337   4.695   1.150
 3976SOL    HW212828   1.182   4.643   1.145
 3977SOL     OW12829   2.878   5.744   6.195
 3977SOL    HW112830   2.950   5.758   6.127
 3977SOL    HW212831   2.910   5.678   6.264
 3978SOL     OW12832   5.501   1.340   5.390
 3978SOL    HW112833   5.439   1.263   5.377
 3978SOL    HW212834   5.594   1.307   5.401
 3979SOL     OW12835   1.894   6.961   1.526
 3979SOL    HW112836   1.888   7.022   1.447
 3979SOL    HW212837   1.804   6.954   1.570
 3980SOL     OW12838   5.673   3.850   4.718
 3980SOL    HW112839   5.608   3.790   4.672
 3980SOL    HW212840   5.641   3.868   4.811
 3981SOL     OW12841   6.985   1.893   6.307
 3981SOL    HW112842   0.046   1.910   6.270
 3981SOL    HW212843   6.987   1.899   6.407
 3982SOL     OW12844   2.477   1.116   4.674
 3982SOL    HW112845   2.481   1.206   4.719
 3982SOL    HW212846   2.540   1.053   4.720
 3983SOL     OW12847   3.537   6.185   4.317
 3983SOL    HW112848   3.514   6.088   4.316
 3983SOL    HW212849   3.495   6.230   4.238
 3984SOL     OW12850   1.965   0.196   1.653
 3984SOL    HW112851   1.878   0.242   1.634
 3984SOL    HW212852   1.962   0.103   1.617
 3985SOL     OW12853   2.105   4.370   0.277
 3985SOL    HW112854   2.175   4.305   0.249
 3985SOL    HW212855   2.077   4.350   0.371
 3986SOL     OW12856   7.018   2.073   2.393
 3986SOL    HW112857   0.021   2.008   2.462
 3986SOL    HW212858   7.027   2.166   2.428
 3987SOL     OW12859   1.466   5.715   5.067
 3987SOL    HW112860   1.529   5.638   5.065
 3987SOL    HW212861   1.373   5.681   5.083
 3988SOL     OW12862   3.214   2.191   5.919
 3988SOL    HW112863   3.131   2.162   5.967
 3988SOL    HW212864   3.195   2.192   5.820
 3989SOL     OW12865   5.988   7.018   6.209
 3989SOL    HW112866   6.063   0.042   6.170
 3989SOL    HW212867   5.903   0.014   6.164
 3990SOL     OW12868   5.945   2.627   4.963
 3990SOL    HW112869   5.881   2.573   5.017
 3990SOL    HW212870   6.017   2.567   4.927
 3991SOL     OW12871   6.909   2.605   3.384
 3991SOL    HW112872   7.009   2.597   3.382
 3991SOL    HW212873   6.870   2.555   3.307
 3992SOL     OW12874   4.089   3.096   6.697
 3992SOL    HW112875   4.052   3.183   6.664
 3992SOL    HW212876   4.071   3.087   6.795
 3993SOL     OW12877   2.796   1.998   2.901
 3993SOL    HW112878   2.805   1.956   2.991
 3993SOL    HW212879   2.701   2.025   2.887
 3994SOL     OW12880   2.310   2.579   5.075
 3994SOL    HW112881   2.237   2.612   5.135
 3994SOL    HW212882   2.319   2.640   4.997
 3995SOL     OW12883   2.252   4.573   3.298
 3995SOL    HW112884   2.202   4.545   3.216
 3995SOL    HW212885   2.347   4.541   3.291
 3996SOL     OW12886   1.975   1.108   5.083
 3996SOL    HW112887   1.912   1.117   5.160
 3996SOL    HW212888   1.934   1.052   5.012
 3997SOL     OW12889   4.895   3.845   3.056
 3997SOL    HW112890   4.813   3.824   3.001
 3997SOL    HW212891   4.918   3.767   3.113
 3998SOL     OW12892   5.966   2.045   2.128
 3998SOL    HW112893   6.034   2.064   2.057
 3998SOL    HW212894   5.875   2.042   2.087
 3999SOL     OW12895   6.256   3.875   3.463
 3999SOL    HW112896   6.266   3.892   3.561
 3999SOL    HW212897   6.227   3.781   3.448
 4000SOL     OW12898   2.935   5.310   2.656
 4000SOL    HW112899   2.897   5.274   2.741
 4000SOL    HW212900   2.974   5.401   2.673
 4001SOL     OW12901   2.630   4.045   5.536
 4001SOL    HW112902   2.727   4.053   5.558
 4001SOL    HW212903   2.619   4.033   5.437
 4002SOL     OW12904   3.456   2.872   4.301
 4002SOL    HW112905   3.473   2.782   4.261
 4002SOL    HW212906   3.488   2.873   4.396
 4003SOL     OW12907   1.809   0.753   6.434
 4003SOL    HW112908   1.851   0.837   6.398
 4003SOL    HW212909   1.780   0.768   6.528
 4004SOL     OW12910   6.954   3.526   4.252
 4004SOL    HW112911   6.933   3.507   4.156
 4004SOL    HW212912   6.987   3.620   4.261
 4005SOL     OW12913   4.530   4.733   1.232
 4005SOL    HW112914   4.595   4.796   1.275
 4005SOL    HW212915   4.525   4.753   1.134
 4006SOL     OW12916   5.667   4.871   2.339
 4006SOL    HW112917   5.607   4.937   2.385
 4006SOL    HW212918   5.613   4.816   2.276
 4007SOL     OW12919   0.446   2.433   2.959
 4007SOL    HW112920   0.424   2.435   2.861
 4007SOL    HW212921   0.519   2.367   2.975
 4008SOL     OW12922   3.105   0.745   6.125
 4008SOL    HW112923   3.179   0.731   6.059
 4008SOL    HW212924   3.017   0.745   6.077
 4009SOL     OW12925   5.137   1.793   1.605
 4009SOL    HW112926   5.073   1.869   1.600
 4009SOL    HW212927   5.139   1.757   1.698
 4010SOL     OW12928   3.039   3.751   1.569
 4010SOL    HW112929   2.998   3.811   1.500
 4010SOL    HW212930   3.090   3.678   1.524
 4011SOL     OW12931   0.050   6.578   1.951
 4011SOL    HW112932   0.030   6.502   2.012
 4011SOL    HW212933   0.071   6.660   2.004
 4012SOL     OW12934   4.530   6.493   2.744
 4012SOL    HW112935   4.495   6.440   2.822
 4012SOL    HW212936   4.595   6.437   2.692
 4013SOL     OW12937   2.330   0.753   1.233
 4013SOL    HW112938   2.274   0.729   1.312
 4013SOL    HW212939   2.379   0.672   1.201
 4014SOL     OW12940   3.431   5.694   3.776
 4014SOL    HW112941   3.405   5.694   3.873
 4014SOL    HW212942   3.372   5.631   3.726
 4015SOL     OW12943   5.175   4.724   6.681
 4015SOL    HW112944   5.099   4.735   6.618
 4015SOL    HW212945   5.211   4.813   6.707
 4016SOL     OW12946   3.198   5.988   6.989
 4016SOL    HW112947   3.137   5.985   6.910
 4016SOL    HW212948   3.175   6.067   0.016
 4017SOL     OW12949   0.283   5.746   5.912
 4017SOL    HW112950   0.260   5.752   6.009
 4017SOL    HW212951   0.375   5.709   5.902
 4018SOL     OW12952   4.487   6.668   1.569
 4018SOL    HW112953   4.405   6.724   1.555
 4018SOL    HW212954   4.464   6.572   1.555
 4019SOL     OW12955   5.774   4.144   2.153
 4019SOL    HW112956   5.868   4.176   2.163
 4019SOL    HW212957   5.733   4.133   2.244
 4020SOL     OW12958   6.661   3.173   5.271
 4020SOL    HW112959   6.758   3.177   5.296
 4020SOL    HW212960   6.650   3.120   5.187
 4021SOL     OW12961   3.576   4.249   5.144
 4021SOL    HW112962   3.624   4.225   5.060
 4021SOL    HW212963   3.569   4.348   5.152
 4022SOL     OW12964   3.719   6.855   6.365
 4022SOL    HW112965   3.759   6.914   6.295
 4022SOL    HW212966   3.784   6.842   6.439
 4023SOL     OW12967   0.147   0.261   5.328
 4023SOL    HW112968   0.102   0.209   5.400
 4023SOL    HW212969   0.089   0.338   5.301
 4024SOL     OW12970   2.485   4.832   4.238
 4024SOL    HW112971   2.560   4.771   4.212
 4024SOL    HW212972   2.411   4.778   4.277
 4025SOL     OW12973   0.836   6.445   4.304
 4025SOL    HW112974   0.835   6.499   4.220
 4025SOL    HW212975   0.745   6.445   4.345
 4026SOL     OW12976   5.930   0.051   4.009
 4026SOL    HW112977   5.839   0.050   3.969
 4026SOL    HW212978   5.960   6.988   4.028
 4027SOL     OW12979   2.495   2.360   0.357
 4027SOL    HW112980   2.583   2.408   0.348
 4027SOL    HW212981   2.474   2.349   0.454
 4028SOL     OW12982   4.065   1.753   3.812
 4028SOL    HW112983   4.154   1.719   3.782
 4028SOL    HW212984   4.005   1.764   3.732
 4029SOL     OW12985   3.049   4.337   5.691
 4029SOL    HW112986   3.088   4.415   5.641
 4029SOL    HW212987   3.123   4.275   5.719
 4030SOL     OW12988   6.834   0.946   2.121
 4030SOL    HW112989   6.934   0.937   2.120
 4030SOL    HW212990   6.808   1.035   2.082
 4031SOL     OW12991   5.466   5.897   3.801
 4031SOL    HW112992   5.483   5.992   3.826
 4031SOL    HW212993   5.396   5.893   3.730
 4032SOL     OW12994   6.965   6.747   1.672
 4032SOL    HW112995   0.033   6.750   1.693
 4032SOL    HW212996   6.925   6.838   1.685
 4033SOL     OW12997   2.071   3.136   1.388
 4033SOL    HW112998   2.140   3.209   1.390
 4033SOL    HW212999   2.007   3.149   1.463
 4034SOL     OW13000   5.734   1.634   5.151
 4034SOL    HW113001   5.807   1.622   5.218
 4034SOL    HW213002   5.771   1.678   5.069
 4035SOL     OW13003   6.392   2.031   1.192
 4035SOL    HW113004   6.487   2.030   1.163
 4035SOL    HW213005   6.371   1.946   1.240
 4036SOL     OW13006   3.795   5.151   2.325
 4036SOL    HW113007   3.854   5.199   2.261
 4036SOL    HW213008   3.721   5.106   2.275
 4037SOL     OW13009   2.176   1.578   7.028
 4037SOL    HW113010   2.259   1.582   6.972
 4037SOL    HW213011   2.181   1.648   0.070
 4038SOL     OW13012   4.366   2.793   1.678
 4038SOL    HW113013   4.443   2.857   1.681
 4038SOL    HW213014   4.283   2.843   1.653
 4039SOL     OW13015   5.849   5.567   1.522
 4039SOL    HW113016   5.875   5.498   1.589
 4039SOL    HW213017   5.829   5.653   1.568
 4040SOL     OW13018   3.191   6.647   5.069
 4040SOL    HW113019   3.168   6.627   5.164
 4040SOL    HW213020   3.285   6.683   5.064
 4041SOL     OW13021   0.471   5.489   1.109
 4041SOL    HW113022   0.391   5.447   1.151
 4041SOL    HW213023   0.518   5.545   1.178
 4042SOL     OW13024   5.804   5.812   4.106
 4042SOL    HW113025   5.862   5.825   4.025
 4042SOL    HW213026   5.719   5.865   4.095
 4043SOL     OW13027   6.731   2.507   5.427
 4043SOL    HW113028   6.636   2.480   5.409
 4043SOL    HW213029   6.779   2.518   5.340
 4044SOL     OW13030   4.218   6.869   3.639
 4044SOL    HW113031   4.269   6.800   3.588
 4044SOL    HW213032   4.189   6.942   3.577
 4045SOL     OW13033   4.412   6.121   5.408
 4045SOL    HW113034   4.416   6.077   5.317
 4045SOL    HW213035   4.326   6.097   5.452
 4046SOL     OW13036   1.498   1.797   4.007
 4046SOL    HW113037   1.434   1.760   3.940
 4046SOL    HW213038   1.526   1.888   3.978
 4047SOL     OW13039   2.212   2.435   0.466
 4047SOL    HW113040   2.129   2.488   0.451
 4047SOL    HW213041   2.238   2.390   0.380
 4048SOL     OW13042   5.300   1.471   1.893
 4048SOL    HW113043   5.387   1.422   1.905
 4048SOL    HW213044   5.232   1.409   1.855
 4049SOL     OW13045   5.420   5.104   6.680
 4049SOL    HW113046   5.375   5.030   6.731
 4049SOL    HW213047   5.483   5.064   6.613
 4050SOL     OW13048   0.893   6.761   1.773
 4050SOL    HW113049   0.889   6.702   1.854
 4050SOL    HW213050   0.988   6.784   1.752
 4051SOL     OW13051   3.738   1.865   6.712
 4051SOL    HW113052   3.793   1.916   6.778
 4051SOL    HW213053   3.728   1.770   6.743
 4052SOL     OW13054   6.839   1.249   2.410
 4052SOL    HW113055   6.882   1.314   2.348
 4052SOL    HW213056   6.909   1.198   2.460
 4053SOL     OW13057   3.174   5.926   3.707
 4053SOL    HW113058   3.273   5.932   3.701
 4053SOL    HW213059   3.141   5.859   3.640
 4054SOL     OW13060   5.764   3.957   1.188
 4054SOL    HW113061   5.837   3.897   1.220
 4054SOL    HW213062   5.724   3.919   1.105
 4055SOL     OW13063   2.858   3.289   0.002
 4055SOL    HW113064   2.796   3.212   7.018
 4055SOL    HW213065   2.807   3.365   0.044
 4056SOL     OW13066   5.050   3.980   0.762
 4056SOL    HW113067   5.109   3.956   0.685
 4056SOL    HW213068   4.974   4.036   0.729
 4057SOL     OW13069   6.926   2.602   1.224
 4057SOL    HW113070   6.892   2.510   1.203
 4057SOL    HW213071   7.017   2.614   1.184
 4058SOL     OW13072   2.111   0.262   4.800
 4058SOL    HW113073   2.185   0.309   4.847
 4058SOL    HW213074   2.123   0.273   4.701
 4059SOL     OW13075   0.751   1.536   2.763
 4059SOL    HW113076   0.762   1.489   2.850
 4059SOL    HW213077   0.739   1.469   2.690
 4060SOL     OW13078   5.462   5.734   5.045
 4060SOL    HW113079   5.364   5.756   5.045
 4060SOL    HW213080   5.500   5.752   4.955
 4061SOL     OW13081   2.440   4.616   2.385
 4061SOL    HW113082   2.440   4.543   2.453
 4061SOL    HW213083   2.380   4.690   2.416
 4062SOL     OW13084   2.343   1.742   1.882
 4062SOL    HW113085   2.325   1.715   1.976
 4062SOL    HW213086   2.394   1.669   1.835
 4063SOL     OW13087   6.004   6.349   7.005
 4063SOL    HW113088   6.010   6.333   0.074
 4063SOL    HW213089   6.048   6.273   6.957
 4064SOL     OW13090   2.438   0.162   4.004
 4064SOL    HW113091   2.514   0.227   4.010
 4064SOL    HW213092   2.431   0.127   3.911
 4065SOL     OW13093   1.428   6.730   1.509
 4065SOL    HW113094   1.451   6.637   1.480
 4065SOL    HW213095   1.373   6.774   1.438
 4066SOL     OW13096   5.847   5.043   3.783
 4066SOL    HW113097   5.897   5.027   3.698
 4066SOL    HW213098   5.798   5.130   3.776
 4067SOL     OW13099   6.621   3.463   2.733
 4067SOL    HW113100   6.524   3.442   2.719
 4067SOL    HW213101   6.631   3.550   2.780
 4068SOL     OW13102   1.665   1.454   4.413
 4068SOL    HW113103   1.725   1.451   4.493
 4068SOL    HW213104   1.693   1.384   4.348
 4069SOL     OW13105   2.832   5.515   6.490
 4069SOL    HW113106   2.773   5.491   6.567
 4069SOL    HW213107   2.926   5.525   6.523
 4070SOL     OW13108   0.899   3.496   1.987
 4070SOL    HW113109   0.833   3.423   1.972
 4070SOL    HW213110   0.903   3.555   1.906
 4071SOL     OW13111   1.359   1.069   5.275
 4071SOL    HW113112   1.428   1.017   5.224
 4071SOL    HW213113   1.404   1.139   5.330
 4072SOL     OW13114   0.420   5.691   4.568
 4072SOL    HW113115   0.476   5.756   4.517
 4072SOL    HW213116   0.412   5.721   4.663
 4073SOL     OW13117   2.612   6.147   6.125
 4073SOL    HW113118   2.637   6.064   6.175
 4073SOL    HW213119   2.652   6.144   6.034
 4074SOL     OW13120   0.078   3.632   2.371
 4074SOL    HW113121   0.055   3.697   2.443
 4074SOL    HW213122   0.145   3.566   2.406
 4075SOL     OW13123   4.045   2.196   1.911
 4075SOL    HW113124   4.003   2.129   1.974
 4075SOL    HW213125   4.137   2.218   1.943
 4076SOL     OW13126   2.803   2.454   5.765
 4076SOL    HW113127   2.724   2.501   5.726
 4076SOL    HW213128   2.858   2.518   5.818
 4077SOL     OW13129   3.131   1.384   6.959
 4077SOL    HW113130   3.166   1.428   6.876
 4077SOL    HW213131   3.058   1.321   6.934
 4078SOL     OW13132   0.553   5.690   1.282
 4078SOL    HW113133   0.469   5.725   1.240
 4078SOL    HW213134   0.557   5.720   1.378
 4079SOL     OW13135   1.628   1.052   3.711
 4079SOL    HW113136   1.605   0.986   3.782
 4079SOL    HW213137   1.580   1.028   3.627
 4080SOL     OW13138   3.813   4.266   6.180
 4080SOL    HW113139   3.752   4.345   6.189
 4080SOL    HW213140   3.836   4.252   6.084
 4081SOL     OW13141   2.033   2.755   4.807
 4081SOL    HW113142   2.081   2.799   4.883
 4081SOL    HW213143   1.945   2.719   4.839
 4082SOL     OW13144   1.126   3.656   0.537
 4082SOL    HW113145   1.210   3.694   0.496
 4082SOL    HW213146   1.047   3.708   0.506
 4083SOL     OW13147   6.963   4.320   2.099
 4083SOL    HW113148   7.006   4.410   2.105
 4083SOL    HW213149   6.866   4.330   2.075
 4084SOL     OW13150   4.950   2.180   3.463
 4084SOL    HW113151   4.961   2.141   3.372
 4084SOL    HW213152   4.968   2.278   3.461
 4085SOL     OW13153   2.728   5.590   1.472
 4085SOL    HW113154   2.745   5.535   1.390
 4085SOL    HW213155   2.642   5.561   1.514
 4086SOL     OW13156   0.901   5.413   1.755
 4086SOL    HW113157   0.836   5.462   1.696
 4086SOL    HW213158   0.983   5.390   1.703
 4087SOL     OW13159   1.521   1.558   3.120
 4087SOL    HW113160   1.464   1.638   3.138
 4087SOL    HW213161   1.617   1.579   3.141
 4088SOL     OW13162   6.555   0.842   6.425
 4088SOL    HW113163   6.494   0.919   6.406
 4088SOL    HW213164   6.575   0.794   6.339
 4089SOL     OW13165   6.141   5.582   4.190
 4089SOL    HW113166   6.043   5.564   4.183
 4089SOL    HW213167   6.182   5.584   4.099
 4090SOL     OW13168   1.714   5.334   5.165
 4090SOL    HW113169   1.728   5.395   5.242
 4090SOL    HW213170   1.744   5.242   5.189
 4091SOL     OW13171   6.678   6.494   6.842
 4091SOL    HW113172   6.636   6.422   6.786
 4091SOL    HW213173   6.612   6.525   6.911
 4092SOL     OW13174   6.495   2.638   5.124
 4092SOL    HW113175   6.425   2.680   5.182
 4092SOL    HW213176   6.579   2.693   5.129
 4093SOL     OW13177   4.904   6.347   2.302
 4093SOL    HW113178   4.816   6.301   2.301
 4093SOL    HW213179   4.890   6.446   2.305
 4094SOL     OW13180   2.025   5.575   5.321
 4094SOL    HW113181   2.050   5.486   5.282
 4094SOL    HW213182   2.105   5.636   5.318
 4095SOL     OW13183   0.721   3.647   0.183
 4095SOL    HW113184   0.785   3.598   0.242
 4095SOL    HW213185   0.714   3.742   0.213
 4096SOL     OW13186   4.560   6.399   5.859
 4096SOL    HW113187   4.509   6.473   5.816
 4096SOL    HW213188   4.558   6.318   5.801
 4097SOL     OW13189   4.151   4.625   5.293
 4097SOL    HW113190   4.206   4.555   5.248
 4097SOL    HW213191   4.103   4.585   5.371
 4098SOL     OW13192   6.884   2.447   2.051
 4098SOL    HW113193   6.925   2.366   2.010
 4098SOL    HW213194   6.956   2.505   2.090
 4099SOL     OW13195   2.875   4.944   1.719
 4099SOL    HW113196   2.915   4.947   1.811
 4099SOL    HW213197   2.947   4.929   1.652
 4100SOL     OW13198   6.817   6.709   4.858
 4100SOL    HW113199   6.838   6.705   4.760
 4100SOL    HW213200   6.834   6.802   4.891
 4101SOL     OW13201   6.020   1.138   0.112
 4101SOL    HW113202   6.054   1.109   0.022
 4101SOL    HW213203   6.074   1.215   0.145
 4102SOL     OW13204   6.895   1.204   0.891
 4102SOL    HW113205   6.875   1.297   0.924
 4102SOL    HW213206   6.868   1.137   0.960
 4103SOL     OW13207   6.980   0.120   0.443
 4103SOL    HW113208   7.000   0.181   0.367
 4103SOL    HW213209   6.891   0.077   0.429
 4104SOL     OW13210   0.469   4.822   2.940
 4104SOL    HW113211   0.458   4.880   3.021
 4104SOL    HW213212   0.412   4.740   2.950
 4105SOL     OW13213   4.911   0.036   1.523
 4105SOL    HW113214   4.886   0.082   1.438
 4105SOL    HW213215   4.963   6.983   1.502
 4106SOL     OW13216   6.415   3.006   2.898
 4106SOL    HW113217   6.398   3.070   2.824
 4106SOL    HW213218   6.475   2.932   2.866
 4107SOL     OW13219   1.282   5.750   1.091
 4107SOL    HW113220   1.229   5.729   1.174
 4107SOL    HW213221   1.378   5.728   1.106
 4108SOL     OW13222   6.587   4.074   5.871
 4108SOL    HW113223   6.566   4.003   5.804
 4108SOL    HW213224   6.543   4.052   5.958
 4109SOL     OW13225   6.164   0.123   4.803
 4109SOL    HW113226   6.209   0.172   4.878
 4109SOL    HW213227   6.232   0.094   4.736
 4110SOL     OW13228   4.045   3.353   5.929
 4110SOL    HW113229   4.131   3.327   5.885
 4110SOL    HW213230   3.986   3.397   5.862
 4111SOL     OW13231   5.027   3.296   0.048
 4111SOL    HW113232   4.941   3.258   0.080
 4111SOL    HW213233   5.047   3.380   0.098
 4112SOL     OW13234   4.957   6.123   4.335
 4112SOL    HW113235   4.991   6.135   4.242
 4112SOL    HW213236   4.994   6.194   4.395
 4113SOL     OW13237   5.160   5.977   4.605
 4113SOL    HW113238   5.078   5.928   4.578
 4113SOL    HW213239   5.143   6.075   4.604
 4114SOL     OW13240   3.388   2.135   4.035
 4114SOL    HW113241   3.478   2.167   4.005
 4114SOL    HW213242   3.333   2.113   3.954
 4115SOL     OW13243   3.486   5.034   1.727
 4115SOL    HW113244   3.558   4.965   1.727
 4115SOL    HW213245   3.414   5.007   1.791
 4116SOL     OW13246   3.062   1.451   2.405
 4116SOL    HW113247   3.162   1.453   2.408
 4116SOL    HW213248   3.028   1.396   2.481
 4117SOL     OW13249   1.441   4.434   2.622
 4117SOL    HW113250   1.476   4.528   2.625
 4117SOL    HW213251   1.513   4.371   2.650
 4118SOL     OW13252   3.519   6.751   6.864
 4118SOL    HW113253   3.601   6.697   6.847
 4118SOL    HW213254   3.543   6.848   6.872
 4119SOL     OW13255   2.771   1.953   3.960
 4119SOL    HW113256   2.806   1.979   3.870
 4119SOL    HW213257   2.730   1.862   3.954
 4120SOL     OW13258   3.364   0.561   6.778
 4120SOL    HW113259   3.462   0.562   6.756
 4120SOL    HW213260   3.313   0.521   6.702
 4121SOL     OW13261   6.025   1.031   4.393
 4121SOL    HW113262   6.046   0.967   4.466
 4121SOL    HW213263   5.926   1.036   4.380
 4122SOL     OW13264   1.032   5.816   4.887
 4122SOL    HW113265   0.989   5.728   4.908
 4122SOL    HW213266   1.127   5.815   4.917
 4123SOL     OW13267   4.474   4.971   5.490
 4123SOL    HW113268   4.497   5.008   5.580
 4123SOL    HW213269   4.484   5.042   5.420
 4124SOL     OW13270   6.084   5.596   6.939
 4124SOL    HW113271   5.985   5.593   6.922
 4124SOL    HW213272   6.102   5.579   0.006
 4125SOL     OW13273   5.222   1.295   2.217
 4125SOL    HW113274   5.175   1.244   2.145
 4125SOL    HW213275   5.162   1.368   2.251
 4126SOL     OW13276   1.060   3.866   4.353
 4126SOL    HW113277   1.002   3.911   4.421
 4126SOL    HW213278   1.004   3.807   4.295
 4127SOL     OW13279   4.696   5.084   4.948
 4127SOL    HW113280   4.783   5.056   4.906
 4127SOL    HW213281   4.630   5.009   4.942
 4128SOL     OW13282   1.217   2.679   1.642
 4128SOL    HW113283   1.290   2.613   1.660
 4128SOL    HW213284   1.172   2.704   1.729
 4129SOL     OW13285   3.615   1.220   6.719
 4129SOL    HW113286   3.613   1.295   6.786
 4129SOL    HW213287   3.662   1.141   6.759
 4130SOL     OW13288   6.626   2.901   6.687
 4130SOL    HW113289   6.694   2.894   6.613
 4130SOL    HW213290   6.623   2.995   6.720
 4131SOL     OW13291   0.986   0.570   3.670
 4131SOL    HW113292   1.086   0.572   3.662
 4131SOL    HW213293   0.947   0.641   3.612
 4132SOL     OW13294   4.801   4.615   3.613
 4132SOL    HW113295   4.771   4.521   3.633
 4132SOL    HW213296   4.723   4.677   3.621
 4133SOL     OW13297   2.785   6.139   0.917
 4133SOL    HW113298   2.840   6.098   0.989
 4133SOL    HW213299   2.688   6.115   0.931
 4134SOL     OW13300   2.744   3.435   0.993
 4134SOL    HW113301   2.777   3.399   1.080
 4134SOL    HW213302   2.693   3.363   0.945
 4135SOL     OW13303   0.850   1.224   2.567
 4135SOL    HW113304   0.890   1.226   2.658
 4135SOL    HW213305   0.759   1.265   2.570
 4136SOL     OW13306   1.319   2.004   3.293
 4136SOL    HW113307   1.244   2.067   3.313
 4136SOL    HW213308   1.403   2.057   3.277
 4137SOL     OW13309   0.758   4.293   0.806
 4137SOL    HW113310   0.694   4.357   0.848
 4137SOL    HW213311   0.780   4.221   0.871
 4138SOL     OW13312   4.848   5.656   3.019
 4138SOL    HW113313   4.815   5.652   3.113
 4138SOL    HW213314   4.816   5.576   2.968
 4139SOL     OW13315   1.957   1.778   5.547
 4139SOL    HW113316   1.869   1.795   5.593
 4139SOL    HW213317   2.032   1.802   5.608
 4140SOL     OW13318   3.094   0.178   5.019
 4140SOL    HW113319   3.128   0.108   5.081
 4140SOL    HW213320   3.170   0.231   4.982
 4141SOL     OW13321   6.378   6.069   1.094
 4141SOL    HW113322   6.350   6.064   1.190
 4141SOL    HW213323   6.344   5.988   1.045
 4142SOL     OW13324   6.877   5.156   1.186
 4142SOL    HW113325   6.896   5.160   1.284
 4142SOL    HW213326   6.779   5.169   1.171
 4143SOL     OW13327   6.075   1.534   1.211
 4143SOL    HW113328   6.076   1.634   1.212
 4143SOL    HW213329   6.000   1.502   1.153
 4144SOL     OW13330   5.086   3.554   6.843
 4144SOL    HW113331   5.003   3.549   6.898
 4144SOL    HW213332   5.062   3.584   6.750
 4145SOL     OW13333   6.212   6.414   1.235
 4145SOL    HW113334   6.168   6.325   1.239
 4145SOL    HW213335   6.312   6.402   1.235
 4146SOL     OW13336   6.413   0.501   4.696
 4146SOL    HW113337   6.394   0.424   4.758
 4146SOL    HW213338   6.498   0.546   4.724
 4147SOL     OW13339   5.031   4.142   5.836
 4147SOL    HW113340   5.011   4.237   5.814
 4147SOL    HW213341   4.962   4.082   5.795
 4148SOL     OW13342   1.098   0.602   5.076
 4148SOL    HW113343   1.062   0.516   5.111
 4148SOL    HW213344   1.197   0.607   5.094
 4149SOL     OW13345   0.136   3.183   0.728
 4149SOL    HW113346   0.149   3.205   0.632
 4149SOL    HW213347   0.224   3.189   0.775
 4150SOL     OW13348   0.954   0.498   6.141
 4150SOL    HW113349   0.913   0.410   6.165
 4150SOL    HW213350   0.947   0.560   6.220
 4151SOL     OW13351   2.358   6.026   6.086
 4151SOL    HW113352   2.397   5.936   6.064
 4151SOL    HW213353   2.425   6.097   6.063
 4152SOL     OW13354   4.558   5.749   1.921
 4152SOL    HW113355   4.545   5.669   1.863
 4152SOL    HW213356   4.508   5.827   1.883
 4153SOL     OW13357   4.499   5.338   6.840
 4153SOL    HW113358   4.582   5.392   6.851
 4153SOL    HW213359   4.492   5.305   6.746
 4154SOL     OW13360   0.118   5.259   3.875
 4154SOL    HW113361   0.091   5.343   3.922
 4154SOL    HW213362   0.083   5.259   3.782
 4155SOL     OW13363   0.299   0.973   2.316
 4155SOL    HW113364   0.358   0.961   2.395
 4155SOL    HW213365   0.327   1.055   2.265
 4156SOL     OW13366   5.209   6.038   5.079
 4156SOL    HW113367   5.273   6.114   5.067
 4156SOL    HW213368   5.160   6.050   5.166
 4157SOL     OW13369   5.172   4.944   4.632
 4157SOL    HW113370   5.239   4.889   4.681
 4157SOL    HW213371   5.210   4.973   4.544
 4158SOL     OW13372   1.236   4.765   2.439
 4158SOL    HW113373   1.237   4.666   2.434
 4158SOL    HW213374   1.309   4.802   2.381
 4159SOL     OW13375   2.155   3.828   4.130
 4159SOL    HW113376   2.133   3.732   4.113
 4159SOL    HW213377   2.228   3.856   4.068
 4160SOL     OW13378   6.493   1.099   0.896
 4160SOL    HW113379   6.544   1.101   0.810
 4160SOL    HW213380   6.415   1.160   0.891
 4161SOL     OW13381   0.720   1.073   0.702
 4161SOL    HW113382   0.665   1.060   0.785
 4161SOL    HW213383   0.816   1.051   0.723
 4162SOL     OW13384   6.136   6.486   6.693
 4162SOL    HW113385   6.168   6.391   6.687
 4162SOL    HW213386   6.157   6.522   6.784
 4163SOL     OW13387   5.693   6.368   3.552
 4163SOL    HW113388   5.708   6.307   3.630
 4163SOL    HW213389   5.777   6.419   3.534
 4164SOL     OW13390   1.747   6.597   6.524
 4164SOL    HW113391   1.844   6.584   6.545
 4164SOL    HW213392   1.693   6.597   6.608
 4165SOL     OW13393   4.242   6.894   7.007
 4165SOL    HW113394   4.165   6.850   0.023
 4165SOL    HW213395   4.249   6.989   0.008
 4166SOL     OW13396   6.578   3.975   1.401
 4166SOL    HW113397   6.585   4.028   1.485
 4166SOL    HW213398   6.504   3.908   1.410
 4167SOL     OW13399   1.174   4.082   0.804
 4167SOL    HW113400   1.135   4.095   0.714
 4167SOL    HW213401   1.110   4.032   0.862
 4168SOL     OW13402   6.692   4.875   0.648
 4168SOL    HW113403   6.741   4.912   0.727
 4168SOL    HW213404   6.597   4.905   0.650
 4169SOL     OW13405   5.746   4.001   3.808
 4169SOL    HW113406   5.773   4.080   3.863
 4169SOL    HW213407   5.647   3.996   3.802
 4170SOL     OW13408   4.615   4.232   5.517
 4170SOL    HW113409   4.620   4.290   5.435
 4170SOL    HW213410   4.695   4.172   5.520
 4171SOL     OW13411   6.583   5.787   1.020
 4171SOL    HW113412   6.492   5.769   1.057
 4171SOL    HW213413   6.593   5.885   1.002
 4172SOL     OW13414   0.291   2.285   6.029
 4172SOL    HW113415   0.306   2.316   6.122
 4172SOL    HW213416   0.209   2.330   5.992
 4173SOL     OW13417   5.320   3.570   5.792
 4173SOL    HW113418   5.279   3.535   5.708
 4173SOL    HW213419   5.248   3.584   5.860
 4174SOL     OW13420   5.483   0.690   3.223
 4174SOL    HW113421   5.402   0.725   3.177
 4174SOL    HW213422   5.565   0.734   3.184
 4175SOL     OW13423   2.080   6.228   4.287
 4175SOL    HW113424   2.106   6.292   4.213
 4175SOL    HW213425   2.126   6.254   4.371
 4176SOL     OW13426   2.863   6.662   1.843
 4176SOL    HW113427   2.874   6.650   1.942
 4176SOL    HW213428   2.767   6.678   1.822
 4177SOL     OW13429   6.127   4.465   4.766
 4177SOL    HW113430   6.134   4.370   4.737
 4177SOL    HW213431   6.031   4.489   4.781
 4178SOL     OW13432   4.550   0.401   4.652
 4178SOL    HW113433   4.465   0.429   4.607
 4178SOL    HW213434   4.628   0.440   4.604
 4179SOL     OW13435   5.013   2.459   3.436
 4179SOL    HW113436   4.980   2.548   3.404
 4179SOL    HW213437   5.106   2.445   3.404
 4180SOL     OW13438   5.014   4.333   1.548
 4180SOL    HW113439   4.981   4.239   1.550
 4180SOL    HW213440   5.078   4.348   1.623
 4181SOL     OW13441   2.566   1.362   0.715
 4181SOL    HW113442   2.584   1.431   0.645
 4181SOL    HW213443   2.548   1.407   0.802
 4182SOL     OW13444   0.285   6.936   3.190
 4182SOL    HW113445   0.229   6.949   3.108
 4182SOL    HW213446   0.274   6.843   3.223
 4183SOL     OW13447   4.414   0.915   7.017
 4183SOL    HW113448   4.483   0.973   6.975
 4183SOL    HW213449   4.366   0.864   6.946
 4184SOL     OW13450   4.709   4.863   1.450
 4184SOL    HW113451   4.662   4.864   1.538
 4184SOL    HW213452   4.796   4.815   1.459
 4185SOL     OW13453   7.012   5.479   2.342
 4185SOL    HW113454   0.062   5.468   2.400
 4185SOL    HW213455   6.984   5.575   2.340
 4186SOL     OW13456   2.348   5.594   0.956
 4186SOL    HW113457   2.440   5.564   0.979
 4186SOL    HW213458   2.284   5.562   1.027
 4187SOL     OW13459   3.741   4.061   5.757
 4187SOL    HW113460   3.720   4.093   5.665
 4187SOL    HW213461   3.659   4.020   5.797
 4188SOL     OW13462   4.412   6.774   4.600
 4188SOL    HW113463   4.416   6.679   4.568
 4188SOL    HW213464   4.317   6.803   4.603
 4189SOL     OW13465   3.634   0.523   5.598
 4189SOL    HW113466   3.680   0.577   5.669
 4189SOL    HW213467   3.613   0.432   5.633
 4190SOL     OW13468   0.561   0.494   0.497
 4190SOL    HW113469   0.533   0.577   0.450
 4190SOL    HW213470   0.572   0.420   0.431
 4191SOL     OW13471   5.192   3.535   2.839
 4191SOL    HW113472   5.292   3.527   2.840
 4191SOL    HW213473   5.166   3.616   2.787
 4192SOL     OW13474   0.462   0.931   4.299
 4192SOL    HW113475   0.436   0.977   4.214
 4192SOL    HW213476   0.560   0.945   4.315
 4193SOL     OW13477   1.388   0.311   2.712
 4193SOL    HW113478   1.307   0.275   2.664
 4193SOL    HW213479   1.414   0.398   2.670
 4194SOL     OW13480   5.860   0.366   5.095
 4194SOL    HW113481   5.800   0.315   5.033
 4194SOL    HW213482   5.817   0.370   5.185
 4195SOL     OW13483   3.929   6.948   2.245
 4195SOL    HW113484   3.897   6.943   2.339
 4195SOL    HW213485   4.019   6.990   2.242
 4196SOL     OW13486   5.537   2.374   3.310
 4196SOL    HW113487   5.556   2.290   3.361
 4196SOL    HW213488   5.616   2.434   3.314
 4197SOL     OW13489   4.968   5.966   5.340
 4197SOL    HW113490   4.902   5.924   5.402
 4197SOL    HW213491   5.052   5.988   5.389
 4198SOL     OW13492   5.559   3.185   6.608
 4198SOL    HW113493   5.523   3.246   6.538
 4198SOL    HW213494   5.534   3.220   6.699
 4199SOL     OW13495   2.352   3.169   6.608
 4199SOL    HW113496   2.373   3.145   6.513
 4199SOL    HW213497   2.253   3.179   6.618
 4200SOL     OW13498   3.021   6.009   5.561
 4200SOL    HW113499   3.030   5.919   5.519
 4200SOL    HW213500   3.111   6.044   5.586
 4201SOL     OW13501   6.233   6.299   3.773
 4201SOL    HW113502   6.333   6.289   3.768
 4201SOL    HW213503   6.190   6.225   3.721
 4202SOL     OW13504   4.254   5.531   5.520
 4202SOL    HW113505   4.271   5.463   5.448
 4202SOL    HW213506   4.251   5.623   5.479
 4203SOL     OW13507   4.871   5.486   0.511
 4203SOL    HW113508   4.900   5.412   0.449
 4203SOL    HW213509   4.852   5.568   0.458
 4204SOL     OW13510   3.999   3.216   2.355
 4204SOL    HW113511   4.035   3.302   2.390
 4204SOL    HW213512   3.976   3.156   2.432
 4205SOL     OW13513   3.522   5.230   3.552
 4205SOL    HW113514   3.579   5.166   3.604
 4205SOL    HW213515   3.538   5.216   3.455
 4206SOL     OW13516   6.051   0.684   5.416
 4206SOL    HW113517   6.097   0.771   5.402
 4206SOL    HW213518   6.046   0.635   5.329
 4207SOL     OW13519   1.934   1.527   1.783
 4207SOL    HW113520   1.988   1.451   1.746
 4207SOL    HW213521   1.853   1.541   1.726
 4208SOL     OW13522   0.999   3.531   6.845
 4208SOL    HW113523   0.975   3.434   6.848
 4208SOL    HW213524   0.922   3.586   6.876
 4209SOL     OW13525   0.480   1.237   5.609
 4209SOL    HW113526   0.544   1.235   5.686
 4209SOL    HW213527   0.461   1.143   5.579
 4210SOL     OW13528   3.324   3.362   2.061
 4210SOL    HW113529   3.302   3.274   2.020
 4210SOL    HW213530   3.262   3.379   2.138
 4211SOL     OW13531   3.833   5.130   5.532
 4211SOL    HW113532   3.856   5.041   5.494
 4211SOL    HW213533   3.842   5.127   5.632
 4212SOL     OW13534   6.227   2.832   2.463
 4212SOL    HW113535   6.160   2.791   2.401
 4212SOL    HW213536   6.304   2.868   2.410
 4213SOL     OW13537   2.672   0.905   2.127
 4213SOL    HW113538   2.673   1.003   2.146
 4213SOL    HW213539   2.744   0.884   2.061
 4214SOL     OW13540   1.444   3.890   5.462
 4214SOL    HW113541   1.450   3.941   5.377
 4214SOL    HW213542   1.534   3.884   5.504
 4215SOL     OW13543   6.604   6.087   4.474
 4215SOL    HW113544   6.685   6.142   4.495
 4215SOL    HW213545   6.604   6.066   4.376
 4216SOL     OW13546   1.099   1.287   3.032
 4216SOL    HW113547   1.123   1.263   2.938
 4216SOL    HW213548   1.177   1.271   3.092
 4217SOL     OW13549   6.819   0.230   2.574
 4217SOL    HW113550   6.741   0.174   2.547
 4217SOL    HW213551   6.840   0.213   2.671
 4218SOL     OW13552   5.056   0.750   1.629
 4218SOL    HW113553   5.146   0.738   1.587
 4218SOL    HW213554   5.041   0.678   1.696
 4219SOL     OW13555   2.879   5.091   3.465
 4219SOL    HW113556   2.819   5.018   3.497
 4219SOL    HW213557   2.971   5.077   3.502
 4220SOL     OW13558   5.200   2.797   3.547
 4220SOL    HW113559   5.249   2.728   3.494
 4220SOL    HW213560   5.111   2.763   3.574
 4221SOL     OW13561   6.233   5.758   6.779
 4221SOL    HW113562   6.179   5.712   6.849
 4221SOL    HW213563   6.177   5.773   6.698
 4222SOL     OW13564   6.181   2.657   3.031
 4222SOL    HW113565   6.142   2.610   2.951
 4222SOL    HW213566   6.280   2.662   3.022
 4223SOL     OW13567   3.245   3.377   5.143
 4223SOL    HW113568   3.169   3.338   5.196
 4223SOL    HW213569   3.209   3.424   5.062
 4224SOL     OW13570   4.811   3.055   3.339
 4224SOL    HW113571   4.803   2.962   3.375
 4224SOL    HW213572   4.838   3.117   3.412
 4225SOL     OW13573   4.742   0.730   5.573
 4225SOL    HW113574   4.694   0.647   5.546
 4225SOL    HW213575   4.722   0.803   5.508
 4226SOL     OW13576   0.542   0.262   3.122
 4226SOL    HW113577   0.510   0.223   3.036
 4226SOL    HW213578   0.523   0.360   3.123
 4227SOL     OW13579   3.846   5.126   6.462
 4227SOL    HW113580   3.850   5.097   6.367
 4227SOL    HW213581   3.831   5.046   6.521
 4228SOL     OW13582   0.768   3.976   3.876
 4228SOL    HW113583   0.801   4.057   3.829
 4228SOL    HW213584   0.759   3.901   3.811
 4229SOL     OW13585   4.818   5.349   5.846
 4229SOL    HW113586   4.762   5.422   5.883
 4229SOL    HW213587   4.778   5.317   5.759
 4230SOL     OW13588   2.382   0.485   4.289
 4230SOL    HW113589   2.309   0.546   4.321
 4230SOL    HW213590   2.362   0.456   4.196
 4231SOL     OW13591   5.491   5.957   4.850
 4231SOL    HW113592   5.544   5.961   4.934
 4231SOL    HW213593   5.481   6.049   4.812
 4232SOL     OW13594   0.254   4.346   1.497
 4232SOL    HW113595   0.177   4.398   1.459
 4232SOL    HW213596   0.228   4.250   1.507
 4233SOL     OW13597   6.567   0.696   6.979
 4233SOL    HW113598   6.547   0.642   6.897
 4233SOL    HW213599   6.482   0.712   7.030
 4234SOL     OW13600   1.301   7.010   5.735
 4234SOL    HW113601   1.309   6.911   5.727
 4234SOL    HW213602   1.257   0.003   5.822
 4235SOL     OW13603   5.331   3.857   5.356
 4235SOL    HW113604   5.292   3.826   5.269
 4235SOL    HW213605   5.373   3.779   5.403
 4236SOL     OW13606   0.291   3.643   3.097
 4236SOL    HW113607   0.389   3.644   3.078
 4236SOL    HW213608   0.260   3.548   3.110
 4237SOL     OW13609   6.540   5.383   3.666
 4237SOL    HW113610   6.502   5.304   3.716
 4237SOL    HW213611   6.474   5.415   3.598
 4238SOL     OW13612   3.724   4.937   2.940
 4238SOL    HW113613   3.724   4.898   3.032
 4238SOL    HW213614   3.695   5.032   2.944
 4239SOL     OW13615   5.755   1.317   3.776
 4239SOL    HW113616   5.806   1.399   3.803
 4239SOL    HW213617   5.691   1.292   3.849
 4240SOL     OW13618   2.135   6.925   0.191
 4240SOL    HW113619   2.233   6.929   0.175
 4240SOL    HW213620   2.114   6.850   0.253
 4241SOL     OW13621   6.032   1.208   1.151
 4241SOL    HW113622   6.101   1.187   1.220
 4241SOL    HW213623   6.076   1.223   1.063
 4242SOL     OW13624   1.942   0.463   3.573
 4242SOL    HW113625   1.928   0.403   3.651
 4242SOL    HW213626   1.993   0.544   3.601
 4243SOL     OW13627   0.636   3.906   4.095
 4243SOL    HW113628   0.588   3.819   4.085
 4243SOL    HW213629   0.676   3.933   4.007
 4244SOL     OW13630   5.392   5.021   0.987
 4244SOL    HW113631   5.363   5.111   1.018
 4244SOL    HW213632   5.446   5.030   0.903
 4245SOL     OW13633   6.202   1.177   6.073
 4245SOL    HW113634   6.118   1.218   6.036
 4245SOL    HW213635   6.195   1.170   6.172
 4246SOL     OW13636   5.662   2.866   3.783
 4246SOL    HW113637   5.712   2.784   3.811
 4246SOL    HW213638   5.564   2.847   3.783
 4247SOL     OW13639   1.979   5.031   3.316
 4247SOL    HW113640   1.897   4.994   3.357
 4247SOL    HW213641   1.970   5.131   3.307
 4248SOL     OW13642   1.583   0.970   3.459
 4248SOL    HW113643   1.540   0.906   3.395
 4248SOL    HW213644   1.593   1.060   3.415
 4249SOL     OW13645   5.053   1.696   3.228
 4249SOL    HW113646   4.998   1.741   3.299
 4249SOL    HW213647   5.021   1.602   3.216
 4250SOL     OW13648   6.153   5.919   4.556
 4250SOL    HW113649   6.140   5.825   4.527
 4250SOL    HW213650   6.226   5.962   4.502
 4251SOL     OW13651   6.665   3.159   1.246
 4251SOL    HW113652   6.693   3.144   1.341
 4251SOL    HW213653   6.641   3.071   1.205
 4252SOL     OW13654   5.121   5.874   6.369
 4252SOL    HW113655   5.213   5.907   6.351
 4252SOL    HW213656   5.058   5.952   6.378
 4253SOL     OW13657   3.451   6.615   1.519
 4253SOL    HW113658   3.455   6.668   1.604
 4253SOL    HW213659   3.516   6.540   1.523
 4254SOL     OW13660   2.142   4.060   1.752
 4254SOL    HW113661   2.179   4.152   1.758
 4254SOL    HW213662   2.054   4.056   1.799
 4255SOL     OW13663   0.158   4.456   3.980
 4255SOL    HW113664   0.177   4.414   4.069
 4255SOL    HW213665   0.142   4.384   3.912
 4256SOL     OW13666   0.840   6.131   1.020
 4256SOL    HW113667   0.902   6.208   1.036
 4256SOL    HW213668   0.879   6.072   0.950
 4257SOL     OW13669   4.075   1.385   4.332
 4257SOL    HW113670   4.085   1.484   4.336
 4257SOL    HW213671   4.064   1.349   4.424
 4258SOL     OW13672   3.230   6.080   1.163
 4258SOL    HW113673   3.195   6.150   1.101
 4258SOL    HW213674   3.159   6.054   1.228
 4259SOL     OW13675   1.644   6.076   0.715
 4259SOL    HW113676   1.585   6.147   0.679
 4259SOL    HW213677   1.714   6.053   0.647
 4260SOL     OW13678   5.919   0.757   3.354
 4260SOL    HW113679   5.882   0.671   3.390
 4260SOL    HW213680   5.862   0.833   3.386
 4261SOL     OW13681   1.770   0.480   2.865
 4261SOL    HW113682   1.671   0.495   2.857
 4261SOL    HW213683   1.800   0.503   2.958
 4262SOL     OW13684   1.215   4.105   6.291
 4262SOL    HW113685   1.119   4.114   6.317
 4262SOL    HW213686   1.224   4.113   6.192
 4263SOL     OW13687   2.477   0.699   3.532
 4263SOL    HW113688   2.512   0.612   3.567
 4263SOL    HW213689   2.513   0.715   3.440
 4264SOL     OW13690   6.430   1.910   4.721
 4264SOL    HW113691   6.449   1.963   4.638
 4264SOL    HW213692   6.336   1.925   4.749
 4265SOL     OW13693   3.814   0.802   0.991
 4265SOL    HW113694   3.736   0.858   0.966
 4265SOL    HW213695   3.791   0.705   0.980
 4266SOL     OW13696   2.111   6.357   6.338
 4266SOL    HW113697   2.020   6.358   6.298
 4266SOL    HW213698   2.149   6.264   6.333
 4267SOL     OW13699   2.287   4.073   4.304
 4267SOL    HW113700   2.295   4.101   4.208
 4267SOL    HW213701   2.258   3.977   4.308
 4268SOL     OW13702   1.631   5.612   6.719
 4268SOL    HW113703   1.642   5.578   6.812
 4268SOL    HW213704   1.719   5.607   6.671
 4269SOL     OW13705   2.823   0.453   3.349
 4269SOL    HW113706   2.848   0.400   3.430
 4269SOL    HW213707   2.748   0.407   3.301
 4270SOL     OW13708   3.350   2.891   2.376
 4270SOL    HW113709   3.309   2.967   2.425
 4270SOL    HW213710   3.440   2.871   2.414
 4271SOL     OW13711   0.101   0.821   0.318
 4271SOL    HW113712   0.031   0.751   0.336
 4271SOL    HW213713   0.089   0.898   0.380
 4272SOL     OW13714   0.115   2.823   4.936
 4272SOL    HW113715   0.203   2.870   4.925
 4272SOL    HW213716   0.118   2.736   4.886
 4273SOL     OW13717   4.961   6.464   4.519
 4273SOL    HW113718   4.910   6.381   4.538
 4273SOL    HW213719   4.974   6.474   4.420
 4274SOL     OW13720   1.221   0.045   1.999
 4274SOL    HW113721   1.263   0.029   1.910
 4274SOL    HW213722   1.123   0.058   1.987
 4275SOL     OW13723   6.896   1.757   4.032
 4275SOL    HW113724   6.831   1.705   4.088
 4275SOL    HW213725   6.848   1.832   3.986
 4276SOL     OW13726   2.936   5.132   4.010
 4276SOL    HW113727   2.907   5.228   4.011
 4276SOL    HW213728   2.893   5.084   4.086
 4277SOL     OW13729   0.009   4.339   2.852
 4277SOL    HW113730   6.959   4.331   2.792
 4277SOL    HW213731   0.052   4.428   2.838
 4278SOL     OW13732   0.472   6.849   4.539
 4278SOL    HW113733   0.442   6.893   4.624
 4278SOL    HW213734   0.457   6.750   4.546
 4279SOL     OW13735   2.031   1.174   2.953
 4279SOL    HW113736   1.982   1.192   3.037
 4279SOL    HW213737   2.124   1.143   2.974
 4280SOL     OW13738   6.349   7.011   5.620
 4280SOL    HW113739   6.259   6.985   5.585
 4280SOL    HW213740   6.373   0.073   5.586
 4281SOL     OW13741   5.635   5.078   3.397
 4281SOL    HW113742   5.707   5.010   3.382
 4281SOL    HW213743   5.609   5.119   3.310
 4282SOL     OW13744   3.250   4.124   0.392
 4282SOL    HW113745   3.269   4.041   0.340
 4282SOL    HW213746   3.314   4.196   0.365
 4283SOL     OW13747   3.061   1.558   3.868
 4283SOL    HW113748   3.068   1.583   3.772
 4283SOL    HW213749   3.149   1.523   3.899
 4284SOL     OW13750   4.603   5.243   0.722
 4284SOL    HW113751   4.651   5.330   0.731
 4284SOL    HW213752   4.588   5.224   0.625
 4285SOL     OW13753   2.435   1.153   5.735
 4285SOL    HW113754   2.388   1.166   5.822
 4285SOL    HW213755   2.511   1.089   5.747
 4286SOL     OW13756   5.648   6.811   5.820
 4286SOL    HW113757   5.639   6.878   5.746
 4286SOL    HW213758   5.654   6.859   5.908
 4287SOL     OW13759   4.780   0.887   5.805
 4287SOL    HW113760   4.748   0.840   5.723
 4287SOL    HW213761   4.719   0.866   5.881
 4288SOL     OW13762   1.069   5.223   3.291
 4288SOL    HW113763   1.100   5.252   3.200
 4288SOL    HW213764   1.034   5.303   3.340
 4289SOL     OW13765   0.500   2.184   5.766
 4289SOL    HW113766   0.473   2.088   5.772
 4289SOL    HW213767   0.549   2.201   5.681
 4290SOL     OW13768   0.867   6.505   5.003
 4290SOL    HW113769   0.812   6.461   5.074
 4290SOL    HW213770   0.811   6.570   4.953
 4291SOL     OW13771   4.996   3.716   6.615
 4291SOL    HW113772   4.951   3.780   6.676
 4291SOL    HW213773   4.942   3.706   6.531
 4292SOL     OW13774   6.270   2.732   0.584
 4292SOL    HW113775   6.356   2.724   0.534
 4292SOL    HW213776   6.273   2.812   0.644
 4293SOL     OW13777   3.553   4.677   0.274
 4293SOL    HW113778   3.633   4.618   0.259
 4293SOL    HW213779   3.473   4.636   0.229
 4294SOL     OW13780   1.934   0.930   6.272
 4294SOL    HW113781   1.991   0.933   6.190
 4294SOL    HW213782   1.924   1.022   6.309
 4295SOL     OW13783   5.458   5.694   4.086
 4295SOL    HW113784   5.554   5.672   4.067
 4295SOL    HW213785   5.398   5.643   4.024
 4296SOL     OW13786   3.316   6.859   0.033
 4296SOL    HW113787   3.371   6.804   6.999
 4296SOL    HW213788   3.359   6.858   0.123
 4297SOL     OW13789   6.188   0.059   2.133
 4297SOL    HW113790   6.127   0.015   2.068
 4297SOL    HW213791   6.278   0.015   2.130
 4298SOL     OW13792   3.600   6.102   1.578
 4298SOL    HW113793   3.605   6.097   1.478
 4298SOL    HW213794   3.587   6.010   1.615
 4299SOL     OW13795   1.437   2.745   0.013
 4299SOL    HW113796   1.442   2.743   6.943
 4299SOL    HW213797   1.400   2.658   0.046
 4300SOL     OW13798   2.844   6.867   0.250
 4300SOL    HW113799   2.827   6.787   0.307
 4300SOL    HW213800   2.916   6.846   0.183
 4301SOL     OW13801   4.424   0.081   1.822
 4301SOL    HW113802   4.376   0.168   1.832
 4301SOL    HW213803   4.515   0.088   1.862
 4302SOL     OW13804   6.594   0.425   6.298
 4302SOL    HW113805   6.505   0.420   6.344
 4302SOL    HW213806   6.608   0.518   6.262
 4303SOL     OW13807   0.261   4.504   4.272
 4303SOL    HW113808   0.346   4.548   4.244
 4303SOL    HW213809   0.231   4.542   4.360
 4304SOL     OW13810   3.252   3.644   2.433
 4304SOL    HW113811   3.350   3.626   2.447
 4304SOL    HW213812   3.235   3.663   2.336
 4305SOL     OW13813   0.579   6.908   5.940
 4305SOL    HW113814   0.593   6.809   5.930
 4305SOL    HW213815   0.667   6.955   5.932
 4306SOL     OW13816   4.652   4.817   4.525
 4306SOL    HW113817   4.602   4.757   4.462
 4306SOL    HW213818   4.669   4.768   4.611
 4307SOL     OW13819   5.921   3.510   5.168
 4307SOL    HW113820   5.948   3.576   5.239
 4307SOL    HW213821   5.963   3.421   5.188
 4308SOL     OW13822   6.111   5.724   1.215
 4308SOL    HW113823   6.099   5.680   1.304
 4308SOL    HW213824   6.209   5.729   1.193
 4309SOL     OW13825   1.161   1.187   0.866
 4309SOL    HW113826   1.260   1.179   0.871
 4309SOL    HW213827   1.126   1.221   0.954
 4310SOL     OW13828   1.696   2.478   1.567
 4310SOL    HW113829   1.697   2.564   1.618
 4310SOL    HW213830   1.650   2.492   1.479
 4311SOL     OW13831   0.236   5.956   2.715
 4311SOL    HW113832   0.188   6.031   2.670
 4311SOL    HW213833   0.265   5.985   2.806
 4312SOL     OW13834   1.702   5.694   2.743
 4312SOL    HW113835   1.613   5.705   2.699
 4312SOL    HW213836   1.742   5.606   2.715
 4313SOL     OW13837   4.382   2.009   0.349
 4313SOL    HW113838   4.394   1.910   0.350
 4313SOL    HW213839   4.409   2.047   0.438
 4314SOL     OW13840   5.886   1.510   5.339
 4314SOL    HW113841   5.876   1.512   5.439
 4314SOL    HW213842   5.943   1.432   5.313
 4315SOL     OW13843   2.437   0.103   3.679
 4315SOL    HW113844   2.373   0.121   3.604
 4315SOL    HW213845   2.521   0.062   3.643
 4316SOL     OW13846   4.350   0.480   2.364
 4316SOL    HW113847   4.315   0.548   2.428
 4316SOL    HW213848   4.334   0.511   2.270
 4317SOL     OW13849   5.234   1.455   5.753
 4317SOL    HW113850   5.221   1.547   5.790
 4317SOL    HW213851   5.148   1.404   5.759
 4318SOL     OW13852   1.172   1.740   5.008
 4318SOL    HW113853   1.261   1.734   5.051
 4318SOL    HW213854   1.172   1.815   4.941
 4319SOL     OW13855   1.836   1.992   1.039
 4319SOL    HW113856   1.827   2.049   1.121
 4319SOL    HW213857   1.861   2.050   0.962
 4320SOL     OW13858   3.847   5.571   0.684
 4320SOL    HW113859   3.867   5.557   0.587
 4320SOL    HW213860   3.928   5.547   0.737
 4321SOL     OW13861   0.139   4.605   4.514
 4321SOL    HW113862   0.107   4.618   4.608
 4321SOL    HW213863   0.062   4.578   4.456
 4322SOL     OW13864   6.537   3.138   6.423
 4322SOL    HW113865   6.552   3.066   6.490
 4322SOL    HW213866   6.441   3.136   6.393
 4323SOL     OW13867   5.220   4.567   0.104
 4323SOL    HW113868   5.311   4.539   0.076
 4323SOL    HW213869   5.161   4.575   0.024
 4324SOL     OW13870   6.392   4.328   6.364
 4324SOL    HW113871   6.461   4.307   6.434
 4324SOL    HW213872   6.308   4.277   6.382
 4325SOL     OW13873   2.950   1.848   2.116
 4325SOL    HW113874   3.030   1.794   2.088
 4325SOL    HW213875   2.963   1.943   2.088
 4326SOL     OW13876   5.259   4.618   2.187
 4326SOL    HW113877   5.179   4.573   2.227
 4326SOL    HW213878   5.269   4.590   2.091
 4327SOL     OW13879   5.116   6.134   2.349
 4327SOL    HW113880   5.044   6.202   2.337
 4327SOL    HW213881   5.202   6.170   2.312
 4328SOL     OW13882   5.766   4.713   5.606
 4328SOL    HW113883   5.850   4.751   5.644
 4328SOL    HW213884   5.708   4.787   5.572
 4329SOL     OW13885   5.344   2.764   5.148
 4329SOL    HW113886   5.281   2.746   5.072
 4329SOL    HW213887   5.425   2.810   5.113
 4330SOL     OW13888   2.177   6.294   4.533
 4330SOL    HW113889   2.186   6.265   4.628
 4330SOL    HW213890   2.231   6.378   4.519
 4331SOL     OW13891   5.912   0.729   1.753
 4331SOL    HW113892   5.886   0.812   1.802
 4331SOL    HW213893   5.967   0.753   1.674
 4332SOL     OW13894   6.098   2.976   2.832
 4332SOL    HW113895   6.035   2.990   2.909
 4332SOL    HW213896   6.108   2.878   2.814
 4333SOL     OW13897   4.374   1.573   5.048
 4333SOL    HW113898   4.305   1.524   4.994
 4333SOL    HW213899   4.334   1.601   5.135
 4334SOL     OW13900   1.986   2.704   2.098
 4334SOL    HW113901   2.052   2.646   2.146
 4334SOL    HW213902   2.030   2.791   2.074
 4335SOL     OW13903   3.720   3.098   2.303
 4335SOL    HW113904   3.810   3.140   2.315
 4335SOL    HW213905   3.652   3.153   2.351
 4336SOL     OW13906   2.509   5.617   5.645
 4336SOL    HW113907   2.509   5.634   5.547
 4336SOL    HW213908   2.442   5.676   5.690
 4337SOL     OW13909   2.375   4.736   1.822
 4337SOL    HW113910   2.321   4.783   1.752
 4337SOL    HW213911   2.468   4.773   1.822
 4338SOL     OW13912   6.263   6.930   5.923
 4338SOL    HW113913   6.309   6.949   5.837
 4338SOL    HW213914   6.273   6.833   5.946
 4339SOL     OW13915   4.046   2.700   6.478
 4339SOL    HW113916   3.948   2.719   6.482
 4339SOL    HW213917   4.089   2.726   6.564
 4340SOL     OW13918   6.184   3.941   1.500
 4340SOL    HW113919   6.272   3.900   1.521
 4340SOL    HW213920   6.145   3.979   1.584
 4341SOL     OW13921   1.631   5.608   0.891
 4341SOL    HW113922   1.598   5.681   0.831
 4341SOL    HW213923   1.596   5.623   0.984
 4342SOL     OW13924   5.303   3.666   3.189
 4342SOL    HW113925   5.259   3.744   3.144
 4342SOL    HW213926   5.283   3.582   3.139
 4343SOL     OW13927   3.328   5.708   4.454
 4343SOL    HW113928   3.354   5.613   4.470
 4343SOL    HW213929   3.301   5.750   4.541
 4344SOL     OW13930   1.125   3.578   2.906
 4344SOL    HW113931   1.033   3.540   2.907
 4344SOL    HW213932   1.172   3.551   2.822
 4345SOL     OW13933   3.483   3.978   4.937
 4345SOL    HW113934   3.457   4.041   4.864
 4345SOL    HW213935   3.406   3.966   5.000
 4346SOL     OW13936   1.917   2.770   2.852
 4346SOL    HW113937   2.013   2.762   2.877
 4346SOL    HW213938   1.908   2.811   2.762
 4347SOL     OW13939   5.563   6.294   3.044
 4347SOL    HW113940   5.527   6.229   3.112
 4347SOL    HW213941   5.493   6.312   2.975
 4348SOL     OW13942   0.231   6.073   4.311
 4348SOL    HW113943   0.211   6.029   4.399
 4348SOL    HW213944   0.299   6.018   4.261
 4349SOL     OW13945   6.538   2.067   3.575
 4349SOL    HW113946   6.447   2.093   3.607
 4349SOL    HW213947   6.530   2.009   3.495
 4350SOL     OW13948   4.065   1.846   4.073
 4350SOL    HW113949   4.036   1.813   3.983
 4350SOL    HW213950   3.991   1.898   4.115
 4351SOL     OW13951   1.373   6.309   1.399
 4351SOL    HW113952   1.364   6.212   1.424
 4351SOL    HW213953   1.432   6.355   1.464
 4352SOL     OW13954   6.350   4.252   1.820
 4352SOL    HW113955   6.349   4.153   1.835
 4352SOL    HW213956   6.347   4.270   1.721
 4353SOL     OW13957   3.738   3.390   0.132
 4353SOL    HW113958   3.797   3.462   0.095
 4353SOL    HW213959   3.679   3.355   0.060
 4354SOL     OW13960   1.836   1.220   6.274
 4354SOL    HW113961   1.763   1.230   6.207
 4354SOL    HW213962   1.895   1.301   6.272
 4355SOL     OW13963   2.065   0.329   2.439
 4355SOL    HW113964   2.021   0.346   2.351
 4355SOL    HW213965   2.085   0.416   2.484
 4356SOL     OW13966   4.875   3.412   5.900
 4356SOL    HW113967   4.834   3.358   5.973
 4356SOL    HW213968   4.858   3.509   5.915
 4357SOL     OW13969   7.019   1.251   1.286
 4357SOL    HW113970   7.003   1.344   1.256
 4357SOL    HW213971   0.088   1.237   1.299
 4358SOL     OW13972   6.854   0.846   0.627
 4358SOL    HW113973   6.824   0.757   0.592
 4358SOL    HW213974   6.918   0.833   0.702
 4359SOL     OW13975   0.996   1.059   6.978
 4359SOL    HW113976   0.989   1.026   0.042
 4359SOL    HW213977   0.943   1.143   6.968
 4360SOL     OW13978   0.527   3.354   4.447
 4360SOL    HW113979   0.450   3.338   4.384
 4360SOL    HW213980   0.613   3.332   4.401
 4361SOL     OW13981   1.892   4.081   1.353
 4361SOL    HW113982   1.958   4.007   1.344
 4361SOL    HW213983   1.863   4.112   1.262
 4362SOL     OW13984   6.813   5.842   4.204
 4362SOL    HW113985   6.871   5.875   4.130
 4362SOL    HW213986   6.723   5.884   4.197
 4363SOL     OW13987   4.848   1.219   1.343
 4363SOL    HW113988   4.820   1.291   1.406
 4363SOL    HW213989   4.917   1.160   1.386
 4364SOL     OW13990   3.116   3.976   3.399
 4364SOL    HW113991   3.215   3.990   3.405
 4364SOL    HW213992   3.085   3.998   3.306
 4365SOL     OW13993   2.934   0.658   2.669
 4365SOL    HW113994   3.025   0.626   2.646
 4365SOL    HW213995   2.884   0.680   2.585
 4366SOL     OW13996   5.867   6.366   6.743
 4366SOL    HW113997   5.904   6.418   6.666
 4366SOL    HW213998   5.817   6.428   6.803
 4367SOL     OW13999   2.489   5.000   3.480
 4367SOL    HW114000   2.421   4.985   3.409
 4367SOL    HW214001   2.486   5.095   3.511
 4368SOL     OW14002   3.842   5.734   1.971
 4368SOL    HW114003   3.916   5.761   2.032
 4368SOL    HW214004   3.864   5.761   1.877
 4369SOL     OW14005   4.688   5.382   3.326
 4369SOL    HW114006   4.697   5.283   3.337
 4369SOL    HW214007   4.630   5.400   3.246
 4370SOL     OW14008   3.724   4.420   1.426
 4370SOL    HW114009   3.756   4.477   1.351
 4370SOL    HW214010   3.786   4.428   1.504
 4371SOL     OW14011   2.098   1.889   2.824
 4371SOL    HW114012   2.040   1.841   2.890
 4371SOL    HW214013   2.071   1.985   2.820
 4372SOL     OW14014   2.305   2.789   4.600
 4372SOL    HW114015   2.315   2.772   4.502
 4372SOL    HW214016   2.212   2.819   4.619
 4373SOL     OW14017   4.590   1.081   6.869
 4373SOL    HW114018   4.570   1.049   6.777
 4373SOL    HW214019   4.556   1.174   6.880
 4374SOL     OW14020   1.665   1.550   1.667
 4374SOL    HW114021   1.657   1.649   1.656
 4374SOL    HW214022   1.642   1.525   1.761
 4375SOL     OW14023   3.877   5.710   2.891
 4375SOL    HW114024   3.867   5.773   2.968
 4375SOL    HW214025   3.887   5.617   2.926
 4376SOL     OW14026   6.179   0.521   2.429
 4376SOL    HW114027   6.166   0.608   2.382
 4376SOL    HW214028   6.172   0.446   2.362
 4377SOL     OW14029   5.672   5.655   0.215
 4377SOL    HW114030   5.713   5.746   0.221
 4377SOL    HW214031   5.743   5.586   0.227
 4378SOL     OW14032   1.651   3.735   2.922
 4378SOL    HW114033   1.648   3.766   3.017
 4378SOL    HW214034   1.696   3.645   2.919
 4379SOL     OW14035   2.243   1.700   2.133
 4379SOL    HW114036   2.180   1.775   2.152
 4379SOL    HW214037   2.195   1.613   2.144
 4380SOL     OW14038   1.760   6.163   4.022
 4380SOL    HW114039   1.821   6.127   3.951
 4380SOL    HW214040   1.803   6.242   4.065
 4381SOL     OW14041   2.271   4.155   4.701
 4381SOL    HW114042   2.354   4.119   4.661
 4381SOL    HW214043   2.272   4.140   4.800
 4382SOL     OW14044   6.106   3.092   6.051
 4382SOL    HW114045   6.067   3.158   6.115
 4382SOL    HW214046   6.052   3.007   6.055
 4383SOL     OW14047   0.347   2.934   5.600
 4383SOL    HW114048   0.440   2.973   5.603
 4383SOL    HW214049   0.301   2.952   5.687
 4384SOL     OW14050   5.671   1.127   6.225
 4384SOL    HW114051   5.616   1.149   6.306
 4384SOL    HW214052   5.611   1.103   6.149
 4385SOL     OW14053   6.948   2.323   4.755
 4385SOL    HW114054   6.975   2.279   4.841
 4385SOL    HW214055   7.030   2.344   4.701
 4386SOL     OW14056   1.684   3.585   6.330
 4386SOL    HW114057   1.627   3.596   6.248
 4386SOL    HW214058   1.626   3.593   6.411
 4387SOL     OW14059   0.991   1.339   1.403
 4387SOL    HW114060   0.951   1.390   1.327
 4387SOL    HW214061   1.083   1.309   1.378
 4388SOL     OW14062   4.636   1.123   6.251
 4388SOL    HW114063   4.616   1.027   6.235
 4388SOL    HW214064   4.700   1.157   6.182
 4389SOL     OW14065   5.663   1.682   0.296
 4389SOL    HW114066   5.593   1.738   0.250
 4389SOL    HW214067   5.730   1.652   0.228
 4390SOL     OW14068   4.430   1.722   2.123
 4390SOL    HW114069   4.467   1.808   2.160
 4390SOL    HW214070   4.330   1.725   2.127
 4391SOL     OW14071   1.744   5.816   6.057
 4391SOL    HW114072   1.688   5.847   5.980
 4391SOL    HW214073   1.780   5.725   6.038
 4392SOL     OW14074   6.329   3.590   5.178
 4392SOL    HW114075   6.303   3.682   5.149
 4392SOL    HW214076   6.269   3.560   5.252
 4393SOL     OW14077   5.465   6.553   3.388
 4393SOL    HW114078   5.409   6.629   3.421
 4393SOL    HW214079   5.560   6.582   3.378
 4394SOL     OW14080   6.557   5.503   2.726
 4394SOL    HW114081   6.606   5.461   2.803
 4394SOL    HW214082   6.619   5.565   2.678
 4395SOL     OW14083   3.800   1.220   1.842
 4395SOL    HW114084   3.752   1.252   1.760
 4395SOL    HW214085   3.842   1.131   1.824
 4396SOL     OW14086   2.430   2.282   4.297
 4396SOL    HW114087   2.505   2.274   4.231
 4396SOL    HW214088   2.354   2.332   4.255
 4397SOL     OW14089   0.620   1.683   5.088
 4397SOL    HW114090   0.710   1.683   5.044
 4397SOL    HW214091   0.553   1.727   5.028
 4398SOL     OW14092   1.186   4.659   4.795
 4398SOL    HW114093   1.251   4.624   4.728
 4398SOL    HW214094   1.196   4.607   4.880
 4399SOL     OW14095   1.679   0.712   2.247
 4399SOL    HW114096   1.740   0.783   2.283
 4399SOL    HW214097   1.584   0.737   2.267
 4400SOL     OW14098   2.344   0.117   5.096
 4400SOL    HW114099   2.377   0.120   5.002
 4400SOL    HW214100   2.252   0.157   5.100
 4401SOL     OW14101   5.543   6.758   0.047
 4401SOL    HW114102   5.588   6.784   6.992
 4401SOL    HW214103   5.559   6.828   0.116
 4402SOL     OW14104   1.784   6.568   1.976
 4402SOL    HW114105   1.814   6.598   1.886
 4402SOL    HW214106   1.796   6.469   1.984
 4403SOL     OW14107   0.210   0.083   3.750
 4403SOL    HW114108   0.155   0.167   3.752
 4403SOL    HW214109   0.159   0.011   3.704
 4404SOL     OW14110   0.860   4.345   5.523
 4404SOL    HW114111   0.945   4.299   5.499
 4404SOL    HW214112   0.782   4.297   5.483
 4405SOL     OW14113   2.956   4.026   0.543
 4405SOL    HW114114   3.031   4.092   0.548
 4405SOL    HW214115   2.870   4.074   0.524
 4406SOL     OW14116   6.419   4.646   1.577
 4406SOL    HW114117   6.488   4.712   1.546
 4406SOL    HW214118   6.335   4.695   1.600
 4407SOL     OW14119   0.183   4.141   0.447
 4407SOL    HW114120   0.237   4.147   0.363
 4407SOL    HW214121   0.243   4.148   0.526
 4408SOL     OW14122   4.280   1.273   0.929
 4408SOL    HW114123   4.347   1.207   0.962
 4408SOL    HW214124   4.297   1.362   0.971
 4409SOL     OW14125   4.172   0.297   1.972
 4409SOL    HW114126   4.137   0.236   2.044
 4409SOL    HW214127   4.267   0.321   1.992
 4410SOL     OW14128   1.796   5.480   0.503
 4410SOL    HW114129   1.893   5.503   0.498
 4410SOL    HW214130   1.783   5.384   0.481
 4411SOL     OW14131   3.677   3.193   3.922
 4411SOL    HW114132   3.770   3.192   3.959
 4411SOL    HW214133   3.618   3.246   3.982
 4412SOL     OW14134   3.337   0.975   4.964
 4412SOL    HW114135   3.362   0.892   4.915
 4412SOL    HW214136   3.419   1.017   5.003
 4413SOL     OW14137   4.857   5.363   4.623
 4413SOL    HW114138   4.926   5.291   4.627
 4413SOL    HW214139   4.794   5.343   4.548
 4414SOL     OW14140   3.963   5.039   1.758
 4414SOL    HW114141   4.042   5.050   1.818
 4414SOL    HW214142   3.982   5.082   1.670
 4415SOL     OW14143   4.479   3.829   6.166
 4415SOL    HW114144   4.547   3.893   6.130
 4415SOL    HW214145   4.438   3.779   6.090
 4416SOL     OW14146   2.895   0.538   4.060
 4416SOL    HW114147   2.802   0.571   4.076
 4416SOL    HW214148   2.911   0.530   3.961
 4417SOL     OW14149   5.906   4.001   3.323
 4417SOL    HW114150   5.835   3.943   3.284
 4417SOL    HW214151   5.899   3.999   3.423
 4418SOL     OW14152   5.144   0.553   3.214
 4418SOL    HW114153   5.049   0.585   3.220
 4418SOL    HW214154   5.182   0.544   3.306
 4419SOL     OW14155   5.436   6.334   0.838
 4419SOL    HW114156   5.347   6.296   0.864
 4419SOL    HW214157   5.505   6.308   0.906
 4420SOL     OW14158   5.534   1.599   1.475
 4420SOL    HW114159   5.599   1.676   1.479
 4420SOL    HW214160   5.442   1.633   1.492
 4421SOL     OW14161   2.228   1.084   3.611
 4421SOL    HW114162   2.140   1.038   3.595
 4421SOL    HW214163   2.262   1.058   3.702
 4422SOL     OW14164   2.330   3.959   5.797
 4422SOL    HW114165   2.347   4.057   5.789
 4422SOL    HW214166   2.412   3.908   5.770
 4423SOL     OW14167   1.231   2.603   5.524
 4423SOL    HW114168   1.317   2.579   5.479
 4423SOL    HW214169   1.156   2.595   5.460
 4424SOL     OW14170   4.922   0.167   4.173
 4424SOL    HW114171   4.983   0.243   4.150
 4424SOL    HW214172   4.842   0.202   4.222
 4425SOL     OW14173   3.543   5.697   5.937
 4425SOL    HW114174   3.548   5.766   5.865
 4425SOL    HW214175   3.552   5.742   6.027
 4426SOL     OW14176   6.997   2.065   4.488
 4426SOL    HW114177   6.917   2.007   4.505
 4426SOL    HW214178   0.049   2.021   4.524
 4427SOL     OW14179   6.652   6.869   3.156
 4427SOL    HW114180   6.598   6.943   3.115
 4427SOL    HW214181   6.648   6.877   3.256
 4428SOL     OW14182   3.706   5.513   2.053
 4428SOL    HW114183   3.754   5.591   2.012
 4428SOL    HW214184   3.714   5.433   1.994
 4429SOL     OW14185   2.859   0.475   3.006
 4429SOL    HW114186   2.829   0.386   3.041
 4429SOL    HW214187   2.796   0.504   2.933
 4430SOL     OW14188   5.485   3.335   4.961
 4430SOL    HW114189   5.416   3.373   4.900
 4430SOL    HW214190   5.538   3.409   5.002
 4431SOL     OW14191   1.429   0.783   2.389
 4431SOL    HW114192   1.437   0.696   2.437
 4431SOL    HW214193   1.332   0.808   2.381
 4432SOL     OW14194   3.380   4.174   3.996
 4432SOL    HW114195   3.343   4.141   3.909
 4432SOL    HW214196   3.353   4.270   4.009
 4433SOL     OW14197   5.695   0.349   4.730
 4433SOL    HW114198   5.782   0.301   4.717
 4433SOL    HW214199   5.713   0.442   4.763
 4434SOL     OW14200   3.523   1.876   3.510
 4434SOL    HW114201   3.472   1.922   3.438
 4434SOL    HW214202   3.504   1.921   3.598
 4435SOL     OW14203   4.104   3.884   0.919
 4435SOL    HW114204   4.123   3.889   1.017
 4435SOL    HW214205   4.070   3.793   0.897
 4436SOL     OW14206   3.973   1.865   0.672
 4436SOL    HW114207   3.934   1.938   0.615
 4436SOL    HW214208   3.939   1.875   0.766
 4437SOL     OW14209   5.542   1.272   3.934
 4437SOL    HW114210   5.461   1.329   3.944
 4437SOL    HW214211   5.518   1.188   3.886
 4438SOL     OW14212   4.601   1.013   0.203
 4438SOL    HW114213   4.519   1.043   0.252
 4438SOL    HW214214   4.585   0.923   0.163
 4439SOL     OW14215   0.698   6.450   1.331
 4439SOL    HW114216   0.660   6.419   1.418
 4439SOL    HW214217   0.637   6.425   1.256
 4440SOL     OW14218   1.858   4.914   0.954
 4440SOL    HW114219   1.940   4.946   0.906
 4440SOL    HW214220   1.839   4.976   1.030
 4441SOL     OW14221   6.550   1.726   2.843
 4441SOL    HW114222   6.497   1.688   2.767
 4441SOL    HW214223   6.492   1.732   2.924
 4442SOL     OW14224   2.805   5.781   5.088
 4442SOL    HW114225   2.731   5.844   5.113
 4442SOL    HW214226   2.872   5.828   5.032
 4443SOL     OW14227   6.929   2.883   0.994
 4443SOL    HW114228   6.839   2.927   1.001
 4443SOL    HW214229   6.993   2.928   1.056
 4444SOL     OW14230   4.236   5.503   6.015
 4444SOL    HW114231   4.240   5.488   5.916
 4444SOL    HW214232   4.319   5.551   6.045
 4445SOL     OW14233   6.842   0.606   0.922
 4445SOL    HW114234   6.895   0.690   0.910
 4445SOL    HW214235   6.885   0.549   0.991
 4446SOL     OW14236   6.483   1.737   1.810
 4446SOL    HW114237   6.514   1.830   1.830
 4446SOL    HW214238   6.389   1.726   1.842
 4447SOL     OW14239   5.950   3.211   6.276
 4447SOL    HW114240   5.894   3.131   6.297
 4447SOL    HW214241   5.911   3.291   6.321
 4448SOL     OW14242   3.356   4.080   0.664
 4448SOL    HW114243   3.290   4.027   0.717
 4448SOL    HW214244   3.316   4.108   0.577
 4449SOL     OW14245   4.574   0.848   6.308
 4449SOL    HW114246   4.635   0.808   6.377
 4449SOL    HW214247   4.479   0.830   6.333
 4450SOL     OW14248   4.104   3.560   4.200
 4450SOL    HW114249   4.128   3.639   4.256
 4450SOL    HW214250   4.097   3.479   4.258
 4451SOL     OW14251   5.920   3.985   3.591
 4451SOL    HW114252   5.984   4.061   3.590
 4451SOL    HW214253   5.849   4.002   3.660
 4452SOL     OW14254   5.469   6.758   4.299
 4452SOL    HW114255   5.513   6.699   4.232
 4452SOL    HW214256   5.459   6.850   4.261
 4453SOL     OW14257   6.938   2.802   1.478
 4453SOL    HW114258   6.956   2.892   1.517
 4453SOL    HW214259   6.860   2.807   1.415
 4454SOL     OW14260   6.025   2.332   0.014
 4454SOL    HW114261   6.049   2.269   0.089
 4454SOL    HW214262   6.004   2.422   0.052
 4455SOL     OW14263   3.892   0.424   6.565
 4455SOL    HW114264   3.841   0.348   6.526
 4455SOL    HW214265   3.972   0.388   6.613
 4456SOL     OW14266   2.625   5.224   2.293
 4456SOL    HW114267   2.598   5.305   2.242
 4456SOL    HW214268   2.555   5.153   2.283
 4457SOL     OW14269   4.602   2.550   0.292
 4457SOL    HW114270   4.576   2.510   0.205
 4457SOL    HW214271   4.618   2.478   0.359
 4458SOL     OW14272   1.285   3.878   6.873
 4458SOL    HW114273   1.362   3.937   6.852
 4458SOL    HW214274   1.296   3.790   6.827
 4459SOL     OW14275   4.546   0.610   3.859
 4459SOL    HW114276   4.551   0.636   3.763
 4459SOL    HW214277   4.620   0.548   3.881
 4460SOL     OW14278   2.721   3.085   5.328
 4460SOL    HW114279   2.640   3.040   5.289
 4460SOL    HW214280   2.792   3.091   5.258
 4461SOL     OW14281   1.146   0.588   2.583
 4461SOL    HW114282   1.243   0.574   2.602
 4461SOL    HW214283   1.130   0.577   2.485
 4462SOL     OW14284   6.727   3.707   1.927
 4462SOL    HW114285   6.808   3.763   1.947
 4462SOL    HW214286   6.658   3.721   1.997
 4463SOL     OW14287   4.378   3.212   0.146
 4463SOL    HW114288   4.392   3.297   0.197
 4463SOL    HW214289   4.402   3.227   0.050
 4464SOL     OW14290   6.551   4.514   6.845
 4464SOL    HW114291   6.509   4.443   6.789
 4464SOL    HW214292   6.553   4.600   6.794
 4465SOL     OW14293   2.470   5.662   2.545
 4465SOL    HW114294   2.463   5.682   2.642
 4465SOL    HW214295   2.564   5.637   2.522
 4466SOL     OW14296   1.502   1.008   2.982
 4466SOL    HW114297   1.520   1.052   2.894
 4466SOL    HW214298   1.444   1.067   3.037
 4467SOL     OW14299   1.269   0.063   3.063
 4467SOL    HW114300   1.356   0.074   3.110
 4467SOL    HW214301   1.213   0.145   3.079
 4468SOL     OW14302   1.582   2.779   0.713
 4468SOL    HW114303   1.636   2.857   0.744
 4468SOL    HW214304   1.592   2.704   0.779
 4469SOL     OW14305   3.779   0.448   1.486
 4469SOL    HW114306   3.736   0.360   1.467
 4469SOL    HW214307   3.783   0.463   1.585
 4470SOL     OW14308   5.861   3.073   1.973
 4470SOL    HW114309   5.906   3.124   1.900
 4470SOL    HW214310   5.835   2.983   1.940
 4471SOL     OW14311   0.145   2.085   0.306
 4471SOL    HW114312   0.141   2.077   0.405
 4471SOL    HW214313   0.115   2.176   0.279
 4472SOL     OW14314   1.688   3.018   3.658
 4472SOL    HW114315   1.651   2.961   3.731
 4472SOL    HW214316   1.772   3.062   3.688
 4473SOL     OW14317   0.015   2.745   3.836
 4473SOL    HW114318   6.947   2.744   3.815
 4473SOL    HW214319   0.068   2.741   3.752
 4474SOL     OW14320   3.809   0.652   1.950
 4474SOL    HW114321   3.795   0.555   1.967
 4474SOL    HW214322   3.907   0.672   1.946
 4475SOL     OW14323   1.670   3.726   2.099
 4475SOL    HW114324   1.627   3.673   2.173
 4475SOL    HW214325   1.608   3.799   2.070
 4476SOL     OW14326   4.736   6.524   4.094
 4476SOL    HW114327   4.819   6.512   4.149
 4476SOL    HW214328   4.709   6.620   4.095
 4477SOL     OW14329   1.367   0.226   5.661
 4477SOL    HW114330   1.374   0.137   5.704
 4477SOL    HW214331   1.422   0.227   5.577
 4478SOL     OW14332   3.397   6.106   2.585
 4478SOL    HW114333   3.475   6.100   2.523
 4478SOL    HW214334   3.409   6.042   2.660
 4479SOL     OW14335   0.674   0.839   1.171
 4479SOL    HW114336   0.750   0.897   1.141
 4479SOL    HW214337   0.624   0.805   1.092
 4480SOL     OW14338   1.709   3.685   5.627
 4480SOL    HW114339   1.622   3.679   5.677
 4480SOL    HW214340   1.783   3.702   5.692
 4481SOL     OW14341   2.424   6.557   5.185
 4481SOL    HW114342   2.508   6.605   5.160
 4481SOL    HW214343   2.447   6.477   5.241
 4482SOL     OW14344   0.506   4.365   3.989
 4482SOL    HW114345   0.511   4.439   3.922
 4482SOL    HW214346   0.456   4.396   4.070
 4483SOL     OW14347   4.899   3.436   2.186
 4483SOL    HW114348   4.932   3.427   2.093
 4483SOL    HW214349   4.801   3.457   2.185
 4484SOL     OW14350   3.302   2.877   5.514
 4484SOL    HW114351   3.395   2.842   5.520
 4484SOL    HW214352   3.263   2.852   5.425
 4485SOL     OW14353   5.205   1.830   5.115
 4485SOL    HW114354   5.159   1.910   5.076
 4485SOL    HW214355   5.181   1.822   5.212
 4486SOL     OW14356   5.313   3.974   4.486
 4486SOL    HW114357   5.347   3.899   4.428
 4486SOL    HW214358   5.382   3.996   4.555
 4487SOL     OW14359   2.617   3.034   6.597
 4487SOL    HW114360   2.528   3.078   6.607
 4487SOL    HW214361   2.676   3.060   6.673
 4488SOL     OW14362   6.121   3.587   5.891
 4488SOL    HW114363   6.162   3.551   5.807
 4488SOL    HW214364   6.109   3.513   5.957
 4489SOL     OW14365   5.777   5.417   4.465
 4489SOL    HW114366   5.843   5.456   4.529
 4489SOL    HW214367   5.800   5.446   4.372
 4490SOL     OW14368   6.265   2.375   3.001
 4490SOL    HW114369   6.361   2.400   3.013
 4490SOL    HW214370   6.254   2.328   2.914
 4491SOL     OW14371   0.189   2.898   4.649
 4491SOL    HW114372   0.265   2.916   4.585
 4491SOL    HW214373   0.111   2.956   4.625
 4492SOL     OW14374   5.292   3.670   1.346
 4492SOL    HW114375   5.251   3.619   1.421
 4492SOL    HW214376   5.221   3.721   1.297
 4493SOL     OW14377   4.551   6.341   5.305
 4493SOL    HW114378   4.626   6.348   5.371
 4493SOL    HW214379   4.480   6.280   5.341
 4494SOL     OW14380   6.982   1.465   5.990
 4494SOL    HW114381   7.010   1.505   5.903
 4494SOL    HW214382   6.926   1.384   5.972
 4495SOL     OW14383   4.991   5.554   4.431
 4495SOL    HW114384   4.947   5.506   4.507
 4495SOL    HW214385   4.998   5.652   4.453
 4496SOL     OW14386   4.898   5.513   1.044
 4496SOL    HW114387   4.811   5.559   1.025
 4496SOL    HW214388   4.942   5.556   1.123
 4497SOL     OW14389   4.666   0.748   6.545
 4497SOL    HW114390   4.705   0.699   6.623
 4497SOL    HW214391   4.639   0.840   6.573
 4498SOL     OW14392   6.759   3.398   6.467
 4498SOL    HW114393   6.784   3.443   6.381
 4498SOL    HW214394   6.662   3.411   6.485
 4499SOL     OW14395   0.140   3.541   3.842
 4499SOL    HW114396   0.079   3.485   3.785
 4499SOL    HW214397   0.086   3.594   3.907
 4500SOL     OW14398   3.211   3.451   4.169
 4500SOL    HW114399   3.136   3.386   4.160
 4500SOL    HW214400   3.276   3.437   4.094
 4501SOL     OW14401   6.933   3.063   5.308
 4501SOL    HW114402   6.926   2.972   5.349
 4501SOL    HW214403   6.968   3.055   5.214
 4502SOL     OW14404   1.496   1.849   6.923
 4502SOL    HW114405   1.582   1.816   6.963
 4502SOL    HW214406   1.478   1.800   6.838
 4503SOL     OW14407   3.603   6.810   2.497
 4503SOL    HW114408   3.676   6.878   2.491
 4503SOL    HW214409   3.633   6.735   2.556
 4504SOL     OW14410   6.214   1.345   4.917
 4504SOL    HW114411   6.265   1.427   4.944
 4504SOL    HW214412   6.156   1.367   4.838
 4505SOL     OW14413   6.345   5.681   3.301
 4505SOL    HW114414   6.294   5.719   3.224
 4505SOL    HW214415   6.382   5.755   3.357
 4506SOL     OW14416   4.805   2.262   3.810
 4506SOL    HW114417   4.858   2.332   3.762
 4506SOL    HW214418   4.748   2.213   3.744
 4507SOL     OW14419   5.443   4.984   2.482
 4507SOL    HW114420   5.389   4.992   2.566
 4507SOL    HW214421   5.386   5.006   2.403
 4508SOL     OW14422   1.293   4.480   6.457
 4508SOL    HW114423   1.222   4.500   6.390
 4508SOL    HW214424   1.355   4.410   6.420
 4509SOL     OW14425   5.141   2.721   2.876
 4509SOL    HW114426   5.059   2.678   2.913
 4509SOL    HW214427   5.114   2.788   2.807
 4510SOL     OW14428   4.777   0.224   5.169
 4510SOL    HW114429   4.792   0.185   5.260
 4510SOL    HW214430   4.753   0.321   5.178
 4511SOL     OW14431   6.851   3.025   6.077
 4511SOL    HW114432   6.858   3.125   6.080
 4511SOL    HW214433   6.934   2.985   6.115
 4512SOL     OW14434   2.649   6.949   5.758
 4512SOL    HW114435   2.697   6.979   5.840
 4512SOL    HW214436   2.578   6.884   5.783
 4513SOL     OW14437   4.763   6.686   0.695
 4513SOL    HW114438   4.727   6.752   0.629
 4513SOL    HW214439   4.719   6.700   0.783
 4514SOL     OW14440   4.501   1.295   5.284
 4514SOL    HW114441   4.527   1.343   5.200
 4514SOL    HW214442   4.496   1.197   5.266
 4515SOL     OW14443   0.538   3.317   6.000
 4515SOL    HW114444   0.456   3.367   6.025
 4515SOL    HW214445   0.612   3.381   5.981
 4516SOL     OW14446   1.713   0.363   6.570
 4516SOL    HW114447   1.619   0.347   6.597
 4516SOL    HW214448   1.771   0.369   6.651
 4517SOL     OW14449   2.479   0.923   6.452
 4517SOL    HW114450   2.464   0.937   6.550
 4517SOL    HW214451   2.451   1.005   6.402
 4518SOL     OW14452   6.793   0.968   3.457
 4518SOL    HW114453   6.817   1.064   3.470
 4518SOL    HW214454   6.693   0.958   3.458
 4519SOL     OW14455   5.670   0.231   2.116
 4519SOL    HW114456   5.637   0.246   2.210
 4519SOL    HW214457   5.693   0.318   2.074
 4520SOL     OW14458   5.041   6.036   3.418
 4520SOL    HW114459   5.025   6.131   3.392
 4520SOL    HW214460   4.997   6.017   3.505
 4521SOL     OW14461   5.740   1.920   3.747
 4521SOL    HW114462   5.645   1.899   3.769
 4521SOL    HW214463   5.748   2.018   3.728
 4522SOL     OW14464   5.636   0.100   3.951
 4522SOL    HW114465   5.600   0.069   3.863
 4522SOL    HW214466   5.620   0.199   3.961
 4523SOL     OW14467   1.634   4.546   0.317
 4523SOL    HW114468   1.707   4.532   0.384
 4523SOL    HW214469   1.588   4.633   0.335
 4524SOL     OW14470   5.305   2.260   4.258
 4524SOL    HW114471   5.282   2.277   4.354
 4524SOL    HW214472   5.398   2.222   4.253
 4525SOL     OW14473   5.182   1.071   3.243
 4525SOL    HW114474   5.182   1.171   3.250
 4525SOL    HW214475   5.261   1.042   3.189
 4526SOL     OW14476   5.246   0.718   1.041
 4526SOL    HW114477   5.209   0.810   1.053
 4526SOL    HW214478   5.251   0.697   0.943
 4527SOL     OW14479   4.120   1.501   3.490
 4527SOL    HW114480   4.190   1.433   3.514
 4527SOL    HW214481   4.119   1.514   3.391
 4528SOL     OW14482   4.495   6.646   6.718
 4528SOL    HW114483   4.594   6.658   6.712
 4528SOL    HW214484   4.455   6.653   6.627
 4529SOL     OW14485   3.174   1.892   4.640
 4529SOL    HW114486   3.123   1.834   4.704
 4529SOL    HW214487   3.240   1.947   4.691
 4530SOL     OW14488   0.287   3.469   6.080
 4530SOL    HW114489   0.284   3.503   6.174
 4530SOL    HW214490   0.264   3.543   6.017
 4531SOL     OW14491   0.537   3.376   4.074
 4531SOL    HW114492   0.453   3.371   4.019
 4531SOL    HW214493   0.564   3.284   4.101
 4532SOL     OW14494   6.290   1.575   3.336
 4532SOL    HW114495   6.260   1.604   3.245
 4532SOL    HW214496   6.261   1.643   3.403
 4533SOL     OW14497   1.809   0.512   2.494
 4533SOL    HW114498   1.854   0.436   2.541
 4533SOL    HW214499   1.734   0.477   2.438
 4534SOL     OW14500   5.193   4.482   4.796
 4534SOL    HW114501   5.233   4.400   4.756
 4534SOL    HW214502   5.154   4.539   4.724
 4535SOL     OW14503   4.758   1.830   2.679
 4535SOL    HW114504   4.783   1.885   2.759
 4535SOL    HW214505   4.835   1.772   2.653
 4536SOL     OW14506   3.903   2.023   4.224
 4536SOL    HW114507   3.938   2.095   4.284
 4536SOL    HW214508   3.879   1.943   4.278
 4537SOL     OW14509   4.027   2.956   5.907
 4537SOL    HW114510   3.990   3.003   5.827
 4537SOL    HW214511   3.992   2.998   5.990
 4538SOL     OW14512   2.901   0.723   4.319
 4538SOL    HW114513   2.842   0.643   4.335
 4538SOL    HW214514   2.844   0.806   4.317
 4539SOL     OW14515   2.203   1.097   4.215
 4539SOL    HW114516   2.235   1.006   4.239
 4539SOL    HW214517   2.234   1.163   4.284
 4540SOL     OW14518   2.991   3.146   4.612
 4540SOL    HW114519   3.049   3.176   4.687
 4540SOL    HW214520   2.925   3.078   4.646
 4541SOL     OW14521   5.670   1.453   0.576
 4541SOL    HW114522   5.583   1.432   0.622
 4541SOL    HW214523   5.658   1.532   0.516
 4542SOL     OW14524   6.219   0.543   2.711
 4542SOL    HW114525   6.206   0.540   2.612
 4542SOL    HW214526   6.316   0.544   2.732
 4543SOL     OW14527   5.343   1.946   1.257
 4543SOL    HW114528   5.334   1.983   1.349
 4543SOL    HW214529   5.282   1.868   1.246
 4544SOL     OW14530   3.362   6.150   6.352
 4544SOL    HW114531   3.326   6.184   6.438
 4544SOL    HW214532   3.422   6.072   6.369
 4545SOL     OW14533   5.436   2.637   4.548
 4545SOL    HW114534   5.503   2.712   4.551
 4545SOL    HW214535   5.351   2.670   4.509
 4546SOL     OW14536   1.987   1.458   6.251
 4546SOL    HW114537   1.960   1.498   6.164
 4546SOL    HW214538   1.984   1.528   6.323
 4547SOL     OW14539   6.127   2.578   3.327
 4547SOL    HW114540   6.212   2.611   3.368
 4547SOL    HW214541   6.131   2.591   3.228
 4548SOL     OW14542   1.041   4.451   4.593
 4548SOL    HW114543   0.952   4.460   4.547
 4548SOL    HW214544   1.097   4.384   4.544
 4549SOL     OW14545   5.830   3.935   2.410
 4549SOL    HW114546   5.779   3.928   2.496
 4549SOL    HW214547   5.921   3.896   2.422
 4550SOL     OW14548   0.967   6.219   2.720
 4550SOL    HW114549   1.013   6.306   2.736
 4550SOL    HW214550   0.897   6.231   2.650
 4551SOL     OW14551   6.312   1.491   6.244
 4551SOL    HW114552   6.271   1.524   6.160
 4551SOL    HW214553   6.391   1.549   6.268
 4552SOL     OW14554   6.351   2.433   0.990
 4552SOL    HW114555   6.289   2.372   1.040
 4552SOL    HW214556   6.298   2.504   0.945
 4553SOL     OW14557   4.006   4.496   6.855
 4553SOL    HW114558   4.079   4.465   6.916
 4553SOL    HW214559   3.939   4.423   6.843
 4554SOL     OW14560   4.671   0.540   1.599
 4554SOL    HW114561   4.636   0.565   1.689
 4554SOL    HW214562   4.771   0.534   1.602
 4555SOL     OW14563   3.355   1.933   5.753
 4555SOL    HW114564   3.451   1.961   5.758
 4555SOL    HW214565   3.306   1.995   5.691
 4556SOL     OW14566   4.516   2.422   3.734
 4556SOL    HW114567   4.472   2.470   3.809
 4556SOL    HW214568   4.590   2.365   3.770
 4557SOL     OW14569   4.944   6.936   4.710
 4557SOL    HW114570   4.948   6.865   4.639
 4557SOL    HW214571   4.877   7.006   4.684
 4558SOL     OW14572   0.356   3.400   5.512
 4558SOL    HW114573   0.454   3.391   5.491
 4558SOL    HW214574   0.345   3.456   5.594
 4559SOL     OW14575   0.697   4.464   1.671
 4559SOL    HW114576   0.610   4.424   1.700
 4559SOL    HW214577   0.772   4.400   1.691
 4560SOL     OW14578   4.895   4.958   3.130
 4560SOL    HW114579   4.838   4.933   3.208
 4560SOL    HW214580   4.964   4.888   3.115
 4561SOL     OW14581   2.824   0.778   1.223
 4561SOL    HW114582   2.784   0.836   1.151
 4561SOL    HW214583   2.757   0.767   1.297
 4562SOL     OW14584   3.324   6.428   5.281
 4562SOL    HW114585   3.262   6.399   5.355
 4562SOL    HW214586   3.410   6.460   5.321
 4563SOL     OW14587   1.044   4.071   0.543
 4563SOL    HW114588   0.985   3.997   0.576
 4563SOL    HW214589   1.058   4.060   0.445
 4564SOL     OW14590   0.762   6.526   0.887
 4564SOL    HW114591   0.722   6.434   0.879
 4564SOL    HW214592   0.857   6.523   0.855
 4565SOL     OW14593   6.954   0.968   5.879
 4565SOL    HW114594   0.012   0.934   5.914
 4565SOL    HW214595   6.926   1.047   5.933
 4566SOL     OW14596   7.015   1.841   0.311
 4566SOL    HW114597   0.050   1.916   0.298
 4566SOL    HW214598   0.001   1.798   0.400
 4567SOL     OW14599   0.083   0.850   0.054
 4567SOL    HW114600   7.029   0.816   0.011
 4567SOL    HW214601   0.081   0.830   0.152
 4568SOL     OW14602   0.886   4.518   5.272
 4568SOL    HW114603   0.978   4.559   5.267
 4568SOL    HW214604   0.878   4.463   5.355
 4569SOL     OW14605   1.722   1.167   3.262
 4569SOL    HW114606   1.821   1.160   3.254
 4569SOL    HW214607   1.682   1.190   3.173
 4570SOL     OW14608   0.861   6.208   2.974
 4570SOL    HW114609   0.891   6.169   2.887
 4570SOL    HW214610   0.815   6.138   3.028
 4571SOL     OW14611   3.011   3.144   6.187
 4571SOL    HW114612   2.930   3.179   6.233
 4571SOL    HW214613   3.011   3.174   6.092
 4572SOL     OW14614   1.198   0.069   6.608
 4572SOL    HW114615   1.195   0.028   6.517
 4572SOL    HW214616   1.280   0.038   6.656
 4573SOL     OW14617   6.220   6.112   0.240
 4573SOL    HW114618   6.195   6.018   0.265
 4573SOL    HW214619   6.193   6.128   0.145
 4574SOL     OW14620   6.457   3.720   1.499
 4574SOL    HW114621   6.537   3.660   1.505
 4574SOL    HW214622   6.408   3.719   1.586
 4575SOL     OW14623   5.778   1.837   5.945
 4575SOL    HW114624   5.688   1.861   5.910
 4575SOL    HW214625   5.848   1.889   5.895
 4576SOL     OW14626   2.175   6.102   6.610
 4576SOL    HW114627   2.195   6.005   6.620
 4576SOL    HW214628   2.080   6.119   6.637
 4577SOL     OW14629   0.845   1.962   3.894
 4577SOL    HW114630   0.934   1.974   3.938
 4577SOL    HW214631   0.782   1.919   3.958
 4578SOL     OW14632   1.122   3.271   3.913
 4578SOL    HW114633   1.176   3.215   3.850
 4578SOL    HW214634   1.184   3.319   3.976
 4579SOL     OW14635   4.941   2.228   2.761
 4579SOL    HW114636   4.846   2.254   2.781
 4579SOL    HW214637   4.965   2.147   2.814
 4580SOL     OW14638   4.790   5.174   6.690
 4580SOL    HW114639   4.765   5.270   6.703
 4580SOL    HW214640   4.771   5.123   6.774
 4581SOL     OW14641   3.068   5.400   3.257
 4581SOL    HW114642   3.115   5.359   3.178
 4581SOL    HW214643   2.982   5.352   3.273
 4582SOL     OW14644   5.383   6.593   5.127
 4582SOL    HW114645   5.388   6.586   5.027
 4582SOL    HW214646   5.350   6.506   5.164
 4583SOL     OW14647   2.887   1.192   5.412
 4583SOL    HW114648   2.959   1.232   5.354
 4583SOL    HW214649   2.817   1.262   5.430
 4584SOL     OW14650   0.119   5.090   5.496
 4584SOL    HW114651   0.112   5.174   5.549
 4584SOL    HW214652   0.034   5.075   5.445
 4585SOL     OW14653   2.612   6.460   3.104
 4585SOL    HW114654   2.617   6.474   3.005
 4585SOL    HW214655   2.700   6.481   3.145
 4586SOL     OW14656   4.260   5.096   0.477
 4586SOL    HW114657   4.205   5.132   0.402
 4586SOL    HW214658   4.333   5.161   0.500
 4587SOL     OW14659   4.052   3.885   2.102
 4587SOL    HW114660   4.005   3.946   2.165
 4587SOL    HW214661   4.079   3.802   2.149
 4588SOL     OW14662   4.262   4.304   5.510
 4588SOL    HW114663   4.227   4.252   5.433
 4588SOL    HW214664   4.287   4.241   5.584
 4589SOL     OW14665   5.693   1.471   2.393
 4589SOL    HW114666   5.716   1.443   2.300
 4589SOL    HW214667   5.660   1.566   2.392
 4590SOL     OW14668   5.115   5.482   0.672
 4590SOL    HW114669   5.047   5.483   0.598
 4590SOL    HW214670   5.108   5.566   0.725
 4591SOL     OW14671   0.569   6.182   4.977
 4591SOL    HW114672   0.543   6.142   5.065
 4591SOL    HW214673   0.625   6.263   4.993
 4592SOL     OW14674   4.312   2.087   2.029
 4592SOL    HW114675   4.302   2.153   2.104
 4592SOL    HW214676   4.227   2.038   2.016
 4593SOL     OW14677   4.181   5.622   3.795
 4593SOL    HW114678   4.169   5.594   3.700
 4593SOL    HW214679   4.099   5.599   3.848
 4594SOL     OW14680   3.508   0.973   1.836
 4594SOL    HW114681   3.553   0.955   1.749
 4594SOL    HW214682   3.451   1.055   1.828
 4595SOL     OW14683   3.332   2.458   6.185
 4595SOL    HW114684   3.315   2.379   6.243
 4595SOL    HW214685   3.422   2.497   6.206
 4596SOL     OW14686   5.791   6.264   3.297
 4596SOL    HW114687   5.752   6.299   3.212
 4596SOL    HW214688   5.731   6.289   3.374
 4597SOL     OW14689   4.875   4.476   6.740
 4597SOL    HW114690   4.894   4.485   6.642
 4597SOL    HW214691   4.777   4.461   6.753
 4598SOL     OW14692   2.237   5.293   0.297
 4598SOL    HW114693   2.299   5.284   0.375
 4598SOL    HW214694   2.282   5.344   0.224
 4599SOL     OW14695   1.797   5.298   0.198
 4599SOL    HW114696   1.860   5.370   0.227
 4599SOL    HW214697   1.772   5.242   0.277
 4600SOL     OW14698   1.184   5.001   5.314
 4600SOL    HW114699   1.090   4.996   5.280
 4600SOL    HW214700   1.244   4.947   5.255
 4601SOL     OW14701   1.559   0.006   5.400
 4601SOL    HW114702   1.504   6.957   5.428
 4601SOL    HW214703   1.551   0.017   5.301
 4602SOL     OW14704   1.090   5.683   1.284
 4602SOL    HW114705   1.097   5.714   1.379
 4602SOL    HW214706   0.997   5.701   1.251
 4603SOL     OW14707   3.756   6.373   1.287
 4603SOL    HW114708   3.752   6.442   1.359
 4603SOL    HW214709   3.695   6.399   1.212
 4604SOL     OW14710   4.490   0.643   2.107
 4604SOL    HW114711   4.550   0.628   2.029
 4604SOL    HW214712   4.544   0.654   2.190
 4605SOL     OW14713   3.549   0.883   3.489
 4605SOL    HW114714   3.528   0.941   3.568
 4605SOL    HW214715   3.470   0.825   3.468
 4606SOL     OW14716   1.271   6.874   1.331
 4606SOL    HW114717   1.296   6.817   1.253
 4606SOL    HW214718   1.171   6.877   1.341
 4607SOL     OW14719   2.320   2.218   1.092
 4607SOL    HW114720   2.400   2.258   1.048
 4607SOL    HW214721   2.350   2.166   1.173
 4608SOL     OW14722   0.689   5.990   3.390
 4608SOL    HW114723   0.771   6.034   3.428
 4608SOL    HW214724   0.625   5.969   3.465
 4609SOL     OW14725   4.361   5.050   6.090
 4609SOL    HW114726   4.431   5.105   6.045
 4609SOL    HW214727   4.272   5.095   6.081
 4610SOL     OW14728   5.140   2.204   0.823
 4610SOL    HW114729   5.204   2.273   0.789
 4610SOL    HW214730   5.067   2.250   0.874
 4611SOL     OW14731   6.708   6.233   6.156
 4611SOL    HW114732   6.697   6.135   6.170
 4611SOL    HW214733   6.667   6.282   6.232
 4612SOL     OW14734   0.970   5.575   0.064
 4612SOL    HW114735   1.008   5.608   7.008
 4612SOL    HW214736   1.040   5.580   0.136
 4613SOL     OW14737   2.420   6.148   2.384
 4613SOL    HW114738   2.333   6.146   2.336
 4613SOL    HW214739   2.490   6.187   2.325
 4614SOL     OW14740   0.747   4.442   4.837
 4614SOL    HW114741   0.761   4.499   4.756
 4614SOL    HW214742   0.669   4.476   4.889
 4615SOL     OW14743   2.098   0.868   6.899
 4615SOL    HW114744   2.144   0.956   6.914
 4615SOL    HW214745   2.104   0.844   6.802
 4616SOL     OW14746   5.735   0.373   5.339
 4616SOL    HW114747   5.731   0.379   5.438
 4616SOL    HW214748   5.647   0.400   5.300
 4617SOL     OW14749   1.350   2.569   2.176
 4617SOL    HW114750   1.310   2.480   2.157
 4617SOL    HW214751   1.281   2.628   2.218
 4618SOL     OW14752   2.319   2.715   5.525
 4618SOL    HW114753   2.246   2.672   5.579
 4618SOL    HW214754   2.316   2.679   5.431
 4619SOL     OW14755   3.492   6.065   2.902
 4619SOL    HW114756   3.401   6.106   2.893
 4619SOL    HW214757   3.484   5.966   2.905
 4620SOL     OW14758   3.690   4.327   0.102
 4620SOL    HW114759   3.640   4.274   0.171
 4620SOL    HW214760   3.764   4.378   0.146
 4621SOL     OW14761   4.640   1.480   2.776
 4621SOL    HW114762   4.561   1.418   2.782
 4621SOL    HW214763   4.624   1.560   2.834
 4622SOL     OW14764   2.276   4.377   0.566
 4622SOL    HW114765   2.337   4.372   0.487
 4622SOL    HW214766   2.306   4.452   0.626
 4623SOL     OW14767   6.580   6.256   0.743
 4623SOL    HW114768   6.490   6.279   0.781
 4623SOL    HW214769   6.614   6.172   0.786
 4624SOL     OW14770   5.476   0.108   3.391
 4624SOL    HW114771   5.561   0.075   3.432
 4624SOL    HW214772   5.487   0.204   3.365
 4625SOL     OW14773   2.155   4.686   0.391
 4625SOL    HW114774   2.143   4.615   0.323
 4625SOL    HW214775   2.220   4.754   0.358
 4626SOL     OW14776   5.773   4.973   2.651
 4626SOL    HW114777   5.728   5.051   2.694
 4626SOL    HW214778   5.704   4.908   2.620
 4627SOL     OW14779   3.196   5.134   3.925
 4627SOL    HW114780   3.235   5.225   3.916
 4627SOL    HW214781   3.102   5.140   3.957
 4628SOL     OW14782   5.459   3.753   3.887
 4628SOL    HW114783   5.549   3.720   3.913
 4628SOL    HW214784   5.418   3.689   3.822
 4629SOL     OW14785   2.344   5.255   4.930
 4629SOL    HW114786   2.387   5.183   4.985
 4629SOL    HW214787   2.245   5.253   4.945
 4630SOL     OW14788   4.010   5.534   2.172
 4630SOL    HW114789   4.039   5.627   2.150
 4630SOL    HW214790   3.984   5.529   2.268
 4631SOL     OW14791   2.332   6.319   3.622
 4631SOL    HW114792   2.371   6.330   3.714
 4631SOL    HW214793   2.328   6.408   3.576
 4632SOL     OW14794   3.990   5.196   2.561
 4632SOL    HW114795   4.008   5.099   2.545
 4632SOL    HW214796   3.914   5.226   2.503
 4633SOL     OW14797   5.511   1.382   3.624
 4633SOL    HW114798   5.591   1.361   3.681
 4633SOL    HW214799   5.430   1.342   3.665
 4634SOL     OW14800   2.628   4.661   6.228
 4634SOL    HW114801   2.692   4.640   6.155
 4634SOL    HW214802   2.677   4.700   6.306
 4635SOL     OW14803   5.432   3.681   2.185
 4635SOL    HW114804   5.466   3.767   2.148
 4635SOL    HW214805   5.383   3.699   2.271
 4636SOL     OW14806   2.330   4.636   6.951
 4636SOL    HW114807   2.375   4.721   6.926
 4636SOL    HW214808   2.259   4.654   7.019
 4637SOL     OW14809   0.869   0.467   0.192
 4637SOL    HW114810   0.847   0.565   0.195
 4637SOL    HW214811   0.967   0.455   0.174
 4638SOL     OW14812   4.567   2.837   7.011
 4638SOL    HW114813   4.536   2.766   6.948
 4638SOL    HW214814   4.518   2.828   0.067
 4639SOL     OW14815   2.276   4.503   4.699
 4639SOL    HW114816   2.330   4.493   4.616
 4639SOL    HW214817   2.296   4.592   4.741
 4640SOL     OW14818   5.002   4.754   3.853
 4640SOL    HW114819   4.912   4.795   3.869
 4640SOL    HW214820   5.032   4.707   3.936
 4641SOL     OW14821   3.169   6.094   4.329
 4641SOL    HW114822   3.207   6.040   4.404
 4641SOL    HW214823   3.182   6.044   4.243
 4642SOL     OW14824   0.555   5.882   4.456
 4642SOL    HW114825   0.619   5.947   4.496
 4642SOL    HW214826   0.594   5.843   4.373
 4643SOL     OW14827   5.962   2.952   1.308
 4643SOL    HW114828   6.053   2.955   1.268
 4643SOL    HW214829   5.961   3.004   1.394
 4644SOL     OW14830   0.574   4.752   5.132
 4644SOL    HW114831   0.501   4.819   5.148
 4644SOL    HW214832   0.626   4.738   5.217
 4645SOL     OW14833   0.973   1.041   4.834
 4645SOL    HW114834   0.898   0.993   4.881
 4645SOL    HW214835   1.043   1.067   4.901
 4646SOL     OW14836   2.392   5.859   3.349
 4646SOL    HW114837   2.394   5.933   3.281
 4646SOL    HW214838   2.471   5.799   3.334
 4647SOL     OW14839   1.243   0.360   3.890
 4647SOL    HW114840   1.165   0.353   3.828
 4647SOL    HW214841   1.326   0.379   3.837
 4648SOL     OW14842   4.074   0.806   2.281
 4648SOL    HW114843   4.073   0.874   2.354
 4648SOL    HW214844   4.083   0.851   2.193
 4649SOL     OW14845   5.171   0.153   5.992
 4649SOL    HW114846   5.083   0.109   6.008
 4649SOL    HW214847   5.190   0.218   6.066
 4650SOL     OW14848   4.707   5.711   3.775
 4650SOL    HW114849   4.716   5.786   3.841
 4650SOL    HW214850   4.771   5.638   3.798
 4651SOL     OW14851   6.695   1.667   1.169
 4651SOL    HW114852   6.681   1.700   1.075
 4651SOL    HW214853   6.610   1.627   1.203
 4652SOL     OW14854   0.621   0.407   4.966
 4652SOL    HW114855   0.710   0.441   4.999
 4652SOL    HW214856   0.635   0.326   4.910
 4653SOL     OW14857   6.068   5.040   0.011
 4653SOL    HW114858   6.163   5.061   7.017
 4653SOL    HW214859   6.061   5.026   0.110
 4654SOL     OW14860   0.337   6.299   0.361
 4654SOL    HW114861   0.301   6.374   0.416
 4654SOL    HW214862   0.422   6.328   0.316
 4655SOL     OW14863   6.673   5.540   1.385
 4655SOL    HW114864   6.726   5.473   1.437
 4655SOL    HW214865   6.710   5.632   1.402
 4656SOL     OW14866   0.790   0.432   3.836
 4656SOL    HW114867   0.819   0.401   3.927
 4656SOL    HW214868   0.870   0.452   3.780
 4657SOL     OW14869   4.776   6.537   1.408
 4657SOL    HW114870   4.727   6.615   1.370
 4657SOL    HW214871   4.865   6.529   1.364
 4658SOL     OW14872   4.795   1.413   2.531
 4658SOL    HW114873   4.848   1.496   2.513
 4658SOL    HW214874   4.734   1.429   2.608
 4659SOL     OW14875   2.768   4.234   5.323
 4659SOL    HW114876   2.778   4.328   5.357
 4659SOL    HW214877   2.685   4.227   5.269
 4660SOL     OW14878   1.190   3.161   5.809
 4660SOL    HW114879   1.131   3.187   5.733
 4660SOL    HW214880   1.167   3.069   5.839
 4661SOL     OW14881   3.524   3.913   5.865
 4661SOL    HW114882   3.497   3.920   5.769
 4661SOL    HW214883   3.463   3.850   5.912
 4662SOL     OW14884   3.787   0.033   4.849
 4662SOL    HW114885   3.827   0.115   4.809
 4662SOL    HW214886   3.712   0.059   4.910
 4663SOL     OW14887   0.500   1.967   2.904
 4663SOL    HW114888   0.414   2.017   2.913
 4663SOL    HW214889   0.505   1.896   2.974
 4664SOL     OW14890   2.056   1.238   0.921
 4664SOL    HW114891   2.100   1.322   0.889
 4664SOL    HW214892   2.015   1.190   0.843
 4665SOL     OW14893   3.749   0.095   0.493
 4665SOL    HW114894   3.753   0.091   0.593
 4665SOL    HW214895   3.658   0.070   0.462
 4666SOL     OW14896   1.518   2.199   1.184
 4666SOL    HW114897   1.577   2.200   1.103
 4666SOL    HW214898   1.574   2.195   1.266
 4667SOL     OW14899   6.325   4.415   1.445
 4667SOL    HW114900   6.258   4.443   1.376
 4667SOL    HW214901   6.346   4.493   1.504
 4668SOL     OW14902   5.405   2.297   3.044
 4668SOL    HW114903   5.319   2.335   3.009
 4668SOL    HW214904   5.461   2.371   3.083
 4669SOL     OW14905   4.271   6.485   6.787
 4669SOL    HW114906   4.370   6.491   6.796
 4669SOL    HW214907   4.245   6.395   6.751
 4670SOL     OW14908   3.014   2.454   5.355
 4670SOL    HW114909   3.090   2.430   5.295
 4670SOL    HW214910   3.036   2.426   5.449
 4671SOL     OW14911   6.651   2.664   2.359
 4671SOL    HW114912   6.579   2.600   2.332
 4671SOL    HW214913   6.649   2.678   2.458
 4672SOL     OW14914   2.691   4.570   5.780
 4672SOL    HW114915   2.744   4.608   5.704
 4672SOL    HW214916   2.594   4.588   5.764
 4673SOL     OW14917   4.842   6.840   1.101
 4673SOL    HW114918   4.811   6.828   1.195
 4673SOL    HW214919   4.866   6.936   1.086
 4674SOL     OW14920   4.779   0.134   6.575
 4674SOL    HW114921   4.719   0.116   6.653
 4674SOL    HW214922   4.725   0.152   6.493
 4675SOL     OW14923   0.310   2.326   6.327
 4675SOL    HW114924   0.407   2.345   6.343
 4675SOL    HW214925   0.261   2.412   6.311
 4676SOL     OW14926   6.945   6.082   3.370
 4676SOL    HW114927   7.017   6.076   3.438
 4676SOL    HW214928   6.959   6.013   3.299
 4677SOL     OW14929   2.628   0.996   0.171
 4677SOL    HW114930   2.588   0.993   0.262
 4677SOL    HW214931   2.557   0.979   0.103
 4678SOL     OW14932   2.054   4.398   2.833
 4678SOL    HW114933   2.020   4.304   2.825
 4678SOL    HW214934   2.009   4.456   2.765
 4679SOL     OW14935   4.153   0.199   1.433
 4679SOL    HW114936   4.062   0.178   1.398
 4679SOL    HW214937   4.167   0.298   1.436
 4680SOL     OW14938   3.879   1.318   6.681
 4680SOL    HW114939   3.779   1.318   6.684
 4680SOL    HW214940   3.909   1.344   6.589
 4681SOL     OW14941   5.505   4.726   6.985
 4681SOL    HW114942   5.560   4.704   6.904
 4681SOL    HW214943   5.522   4.657   0.026
 4682SOL     OW14944   4.529   4.680   5.615
 4682SOL    HW114945   4.619   4.656   5.577
 4682SOL    HW214946   4.503   4.772   5.585
 4683SOL     OW14947   4.941   5.254   2.814
 4683SOL    HW114948   4.893   5.173   2.848
 4683SOL    HW214949   5.023   5.226   2.765
 4684SOL     OW14950   5.374   0.227   5.312
 4684SOL    HW114951   5.340   0.260   5.401
 4684SOL    HW214952   5.464   0.267   5.294
 4685SOL     OW14953   2.118   4.954   6.255
 4685SOL    HW114954   2.066   5.029   6.215
 4685SOL    HW214955   2.076   4.867   6.229
 4686SOL     OW14956   4.460   5.300   6.550
 4686SOL    HW114957   4.378   5.263   6.506
 4686SOL    HW214958   4.487   5.385   6.504
 4687SOL     OW14959   4.826   3.020   4.088
 4687SOL    HW114960   4.890   3.070   4.145
 4687SOL    HW214961   4.819   3.064   3.998
 4688SOL     OW14962   5.623   3.893   4.971
 4688SOL    HW114963   5.645   3.971   5.030
 4688SOL    HW214964   5.622   3.809   5.025
 4689SOL     OW14965   4.951   0.555   0.246
 4689SOL    HW114966   4.902   0.639   0.223
 4689SOL    HW214967   4.888   0.477   0.238
 4690SOL     OW14968   1.237   0.102   0.544
 4690SOL    HW114969   1.216   0.127   0.450
 4690SOL    HW214970   1.186   0.162   0.607
 4691SOL     OW14971   3.056   3.628   0.481
 4691SOL    HW114972   3.126   3.558   0.468
 4691SOL    HW214973   3.057   3.660   0.576
 4692SOL     OW14974   5.615   5.503   2.641
 4692SOL    HW114975   5.587   5.414   2.604
 4692SOL    HW214976   5.533   5.554   2.668
 4693SOL     OW14977   1.046   1.409   2.712
 4693SOL    HW114978   0.987   1.447   2.640
 4693SOL    HW214979   1.021   1.449   2.800
 4694SOL     OW14980   2.275   1.135   6.941
 4694SOL    HW114981   2.212   1.143   7.018
 4694SOL    HW214982   2.309   1.226   6.916
 4695SOL     OW14983   1.431   4.813   1.581
 4695SOL    HW114984   1.425   4.731   1.638
 4695SOL    HW214985   1.526   4.828   1.553
 4696SOL     OW14986   0.203   4.165   6.941
 4696SOL    HW114987   0.222   4.108   7.021
 4696SOL    HW214988   0.126   4.226   6.961
 4697SOL     OW14989   1.319   4.326   1.432
 4697SOL    HW114990   1.254   4.289   1.366
 4697SOL    HW214991   1.403   4.354   1.384
 4698SOL     OW14992   4.392   6.103   2.882
 4698SOL    HW114993   4.488   6.131   2.885
 4698SOL    HW214994   4.386   6.004   2.884
 4699SOL     OW14995   1.096   6.435   2.404
 4699SOL    HW114996   1.138   6.513   2.358
 4699SOL    HW214997   1.132   6.427   2.497
 4700SOL     OW14998   6.638   1.456   2.995
 4700SOL    HW114999   6.592   1.525   2.939
 4700SOL    HW215000   6.617   1.365   2.959
 4701SOL     OW15001   3.313   2.341   0.555
 4701SOL    HW115002   3.320   2.244   0.530
 4701SOL    HW215003   3.319   2.350   0.655
 4702SOL     OW15004   5.057   5.260   0.429
 4702SOL    HW115005   5.153   5.239   0.413
 4702SOL    HW215006   5.030   5.228   0.520
 4703SOL     OW15007   0.341   0.069   2.225
 4703SOL    HW115008   0.256   0.069   2.174
 4703SOL    HW215009   0.326   0.109   2.315
 4704SOL     OW15010   6.395   6.665   6.674
 4704SOL    HW115011   6.306   6.624   6.656
 4704SOL    HW215012   6.389   6.727   6.752
 4705SOL     OW15013   4.253   2.508   1.214
 4705SOL    HW115014   4.237   2.580   1.146
 4705SOL    HW215015   4.346   2.514   1.248
 4706SOL     OW15016   2.957   0.197   0.143
 4706SOL    HW115017   2.950   0.138   0.062
 4706SOL    HW215018   2.918   0.287   0.122
 4707SOL     OW15019   1.362   6.904   0.463
 4707SOL    HW115020   1.322   6.992   0.490
 4707SOL    HW215021   1.420   6.917   0.382
 4708SOL     OW15022   1.098   2.263   6.072
 4708SOL    HW115023   1.011   2.253   6.022
 4708SOL    HW215024   1.166   2.305   6.013
 4709SOL     OW15025   4.587   5.607   4.784
 4709SOL    HW115026   4.552   5.558   4.704
 4709SOL    HW215027   4.634   5.543   4.844
 4710SOL     OW15028   4.916   0.022   5.878
 4710SOL    HW115029   4.942   0.018   5.781
 4710SOL    HW215030   4.817   0.009   5.886
 4711SOL     OW15031   6.217   1.744   1.515
 4711SOL    HW115032   6.245   1.805   1.590
 4711SOL    HW215033   6.180   1.659   1.553
 4712SOL     OW15034   2.828   5.095   6.321
 4712SOL    HW115035   2.855   5.188   6.296
 4712SOL    HW215036   2.869   5.029   6.258
 4713SOL     OW15037   3.805   4.328   0.643
 4713SOL    HW115038   3.855   4.252   0.604
 4713SOL    HW215039   3.728   4.293   0.698
 4714SOL     OW15040   1.126   1.434   6.311
 4714SOL    HW115041   1.170   1.510   6.265
 4714SOL    HW215042   1.084   1.466   6.396
 4715SOL     OW15043   6.052   3.269   2.435
 4715SOL    HW115044   6.070   3.195   2.500
 4715SOL    HW215045   6.016   3.232   2.350
 4716SOL     OW15046   4.009   6.632   5.901
 4716SOL    HW115047   3.974   6.618   5.993
 4716SOL    HW215048   4.033   6.728   5.888
 4717SOL     OW15049   0.434   6.384   4.017
 4717SOL    HW115050   0.511   6.397   3.954
 4717SOL    HW215051   0.467   6.384   4.111
 4718SOL     OW15052   6.162   2.297   1.111
 4718SOL    HW115053   6.204   2.260   1.193
 4718SOL    HW215054   6.075   2.250   1.094
 4719SOL     OW15055   4.825   3.110   1.714
 4719SOL    HW115056   4.742   3.109   1.770
 4719SOL    HW215057   4.799   3.118   1.618
 4720SOL     OW15058   2.365   5.274   5.849
 4720SOL    HW115059   2.403   5.299   5.938
 4720SOL    HW215060   2.439   5.259   5.784
 4721SOL     OW15061   6.825   1.664   2.747
 4721SOL    HW115062   6.740   1.679   2.796
 4721SOL    HW215063   6.825   1.573   2.705
 4722SOL     OW15064   1.040   6.202   6.673
 4722SOL    HW115065   1.027   6.231   6.768
 4722SOL    HW215066   1.133   6.222   6.645
 4723SOL     OW15067   2.275   3.177   5.715
 4723SOL    HW115068   2.297   3.080   5.715
 4723SOL    HW215069   2.355   3.230   5.745
 4724SOL     OW15070   6.352   0.200   4.187
 4724SOL    HW115071   6.293   0.171   4.112
 4724SOL    HW215072   6.299   0.202   4.273
 4725SOL     OW15073   6.613   5.094   0.897
 4725SOL    HW115074   6.550   5.042   0.840
 4725SOL    HW215075   6.700   5.104   0.850
 4726SOL     OW15076   1.472   3.021   6.434
 4726SOL    HW115077   1.484   3.104   6.379
 4726SOL    HW215078   1.418   2.955   6.382
 4727SOL     OW15079   1.085   6.582   1.498
 4727SOL    HW115080   1.059   6.670   1.457
 4727SOL    HW215081   1.010   6.517   1.487
 4728SOL     OW15082   5.607   1.409   1.747
 4728SOL    HW115083   5.589   1.396   1.649
 4728SOL    HW215084   5.695   1.367   1.771
 4729SOL     OW15085   4.770   0.932   0.671
 4729SOL    HW115086   4.683   0.981   0.678
 4729SOL    HW215087   4.828   0.978   0.604
 4730SOL     OW15088   3.431   5.934   4.793
 4730SOL    HW115089   3.522   5.893   4.781
 4730SOL    HW215090   3.422   5.965   4.888
 4731SOL     OW15091   3.109   0.209   0.376
 4731SOL    HW115092   3.135   0.303   0.399
 4731SOL    HW215093   3.033   0.211   0.310
 4732SOL     OW15094   1.001   3.891   5.222
 4732SOL    HW115095   0.910   3.924   5.248
 4732SOL    HW215096   1.057   3.969   5.193
 4733SOL     OW15097   2.160   3.934   3.602
 4733SOL    HW115098   2.070   3.976   3.610
 4733SOL    HW215099   2.230   4.006   3.599
 4734SOL     OW15100   4.646   3.466   6.763
 4734SOL    HW115101   4.615   3.539   6.702
 4734SOL    HW215102   4.711   3.503   6.830
 4735SOL     OW15103   0.514   5.103   4.898
 4735SOL    HW115104   0.435   5.050   4.867
 4735SOL    HW215105   0.598   5.052   4.877
 4736SOL     OW15106   6.091   1.498   5.881
 4736SOL    HW115107   6.118   1.540   5.794
 4736SOL    HW215108   6.149   1.533   5.954
 4737SOL     OW15109   3.267   4.351   1.536
 4737SOL    HW115110   3.189   4.406   1.505
 4737SOL    HW215111   3.256   4.331   1.634
 4738SOL     OW15112   1.624   6.534   3.021
 4738SOL    HW115113   1.650   6.573   3.110
 4738SOL    HW215114   1.606   6.608   2.956
 4739SOL     OW15115   4.645   2.153   3.006
 4739SOL    HW115116   4.720   2.207   3.045
 4739SOL    HW215117   4.603   2.098   3.078
 4740SOL     OW15118   0.361   1.813   0.599
 4740SOL    HW115119   0.433   1.839   0.662
 4740SOL    HW215120   0.301   1.892   0.583
 4741SOL     OW15121   5.375   3.253   1.071
 4741SOL    HW115122   5.328   3.168   1.051
 4741SOL    HW215123   5.309   3.322   1.101
 4742SOL     OW15124   3.209   0.069   6.944
 4742SOL    HW115125   3.271   7.024   6.965
 4742SOL    HW215126   3.119   0.033   6.921
 4743SOL     OW15127   1.874   3.504   5.336
 4743SOL    HW115128   1.848   3.598   5.315
 4743SOL    HW215129   1.954   3.479   5.282
 4744SOL     OW15130   2.638   3.628   5.906
 4744SOL    HW115131   2.688   3.715   5.906
 4744SOL    HW215132   2.540   3.646   5.895
 4745SOL     OW15133   3.081   5.585   6.328
 4745SOL    HW115134   3.148   5.571   6.255
 4745SOL    HW215135   3.015   5.509   6.328
 4746SOL     OW15136   5.849   6.514   2.498
 4746SOL    HW115137   5.826   6.608   2.472
 4746SOL    HW215138   5.948   6.507   2.511
 4747SOL     OW15139   1.983   3.999   6.369
 4747SOL    HW115140   2.031   4.068   6.423
 4747SOL    HW215141   1.920   4.043   6.305
 4748SOL     OW15142   0.628   4.954   0.737
 4748SOL    HW115143   0.664   4.931   0.827
 4748SOL    HW215144   0.561   4.884   0.710
 4749SOL     OW15145   2.988   6.203   5.385
 4749SOL    HW115146   3.053   6.272   5.417
 4749SOL    HW215147   2.976   6.133   5.455
 4750SOL     OW15148   0.096   3.849   3.649
 4750SOL    HW115149   0.080   3.782   3.577
 4750SOL    HW215150   0.021   3.846   3.716
 4751SOL     OW15151   2.969   2.780   0.874
 4751SOL    HW115152   2.876   2.751   0.898
 4751SOL    HW215153   3.000   2.850   0.938
 4752SOL     OW15154   3.055   0.425   6.832
 4752SOL    HW115155   2.988   0.380   6.891
 4752SOL    HW215156   3.068   0.372   6.749
 4753SOL     OW15157   4.949   0.730   3.720
 4753SOL    HW115158   4.986   0.799   3.782
 4753SOL    HW215159   5.009   0.650   3.719
 4754SOL     OW15160   6.339   0.065   4.599
 4754SOL    HW115161   6.339   7.005   4.555
 4754SOL    HW215162   6.425   0.111   4.578
 4755SOL     OW15163   2.271   0.407   1.015
 4755SOL    HW115164   2.197   0.472   1.028
 4755SOL    HW215165   2.347   0.429   1.076
 4756SOL     OW15166   6.196   3.459   1.429
 4756SOL    HW115167   6.281   3.414   1.403
 4756SOL    HW215168   6.153   3.497   1.347
 4757SOL     OW15169   2.297   1.940   0.874
 4757SOL    HW115170   2.292   1.903   0.967
 4757SOL    HW215171   2.260   1.873   0.810
 4758SOL     OW15172   1.945   5.908   4.274
 4758SOL    HW115173   1.846   5.919   4.271
 4758SOL    HW215174   1.988   5.994   4.300
 4759SOL     OW15175   5.551   5.010   4.686
 4759SOL    HW115176   5.503   5.042   4.768
 4759SOL    HW215177   5.578   4.914   4.698
 4760SOL     OW15178   3.508   2.078   0.381
 4760SOL    HW115179   3.487   1.983   0.359
 4760SOL    HW215180   3.450   2.138   0.327
 4761SOL     OW15181   0.437   6.143   0.047
 4761SOL    HW115182   0.373   6.194   7.020
 4761SOL    HW215183   0.448   6.050   0.010
 4762SOL     OW15184   1.700   5.823   2.988
 4762SOL    HW115185   1.612   5.868   3.004
 4762SOL    HW215186   1.696   5.770   2.903
 4763SOL     OW15187   6.354   6.323   3.419
 4763SOL    HW115188   6.301   6.312   3.336
 4763SOL    HW215189   6.344   6.417   3.453
 4764SOL     OW15190   4.847   3.938   5.068
 4764SOL    HW115191   4.914   3.976   5.004
 4764SOL    HW215192   4.841   3.839   5.056
 4765SOL     OW15193   4.584   0.813   4.480
 4765SOL    HW115194   4.644   0.881   4.522
 4765SOL    HW215195   4.613   0.797   4.385
 4766SOL     OW15196   5.070   5.783   4.006
 4766SOL    HW115197   5.018   5.698   3.998
 4766SOL    HW215198   5.067   5.832   3.918
 4767SOL     OW15199   3.902   5.102   5.787
 4767SOL    HW115200   3.833   5.064   5.849
 4767SOL    HW215201   3.910   5.200   5.802
 4768SOL     OW15202   4.262   1.434   5.602
 4768SOL    HW115203   4.210   1.519   5.613
 4768SOL    HW215204   4.256   1.403   5.507
 4769SOL     OW15205   5.400   4.751   0.318
 4769SOL    HW115206   5.369   4.814   0.246
 4769SOL    HW215207   5.476   4.696   0.283
 4770SOL     OW15208   0.951   0.708   4.391
 4770SOL    HW115209   0.903   0.620   4.388
 4770SOL    HW215210   0.957   0.738   4.487
 4771SOL     OW15211   3.235   5.427   5.840
 4771SOL    HW115212   3.248   5.468   5.930
 4771SOL    HW215213   3.303   5.463   5.776
 4772SOL     OW15214   3.083   4.388   1.064
 4772SOL    HW115215   3.031   4.322   1.009
 4772SOL    HW215216   3.180   4.368   1.057
 4773SOL     OW15217   6.820   5.621   5.243
 4773SOL    HW115218   6.732   5.651   5.278
 4773SOL    HW215219   6.808   5.586   5.149
 4774SOL     OW15220   1.177   2.346   2.143
 4774SOL    HW115221   1.186   2.247   2.144
 4774SOL    HW215222   1.082   2.371   2.161
 4775SOL     OW15223   5.332   6.819   2.617
 4775SOL    HW115224   5.361   6.766   2.537
 4775SOL    HW215225   5.384   6.904   2.621
 4776SOL     OW15226   1.005   6.052   5.514
 4776SOL    HW115227   0.941   6.088   5.582
 4776SOL    HW215228   0.984   6.091   5.425
 4777SOL     OW15229   2.596   5.104   1.151
 4777SOL    HW115230   2.629   5.020   1.109
 4777SOL    HW215231   2.665   5.175   1.142
 4778SOL     OW15232   6.483   2.708   3.069
 4778SOL    HW115233   6.444   2.794   3.100
 4778SOL    HW215234   6.580   2.720   3.050
 4779SOL     OW15235   6.196   6.414   2.306
 4779SOL    HW115236   6.245   6.327   2.312
 4779SOL    HW215237   6.253   6.481   2.258
 4780SOL     OW15238   6.554   0.502   0.384
 4780SOL    HW115239   6.474   0.444   0.400
 4780SOL    HW215240   6.609   0.462   0.310
 4781SOL     OW15241   2.000   5.921   2.143
 4781SOL    HW115242   1.951   5.837   2.124
 4781SOL    HW215243   2.055   5.947   2.063
 4782SOL     OW15244   3.993   6.004   6.718
 4782SOL    HW115245   3.916   5.958   6.672
 4782SOL    HW215246   4.049   5.936   6.764
 4783SOL     OW15247   5.041   4.784   0.212
 4783SOL    HW115248   5.115   4.851   0.215
 4783SOL    HW215249   5.072   4.703   0.162
 4784SOL     OW15250   5.805   4.015   6.846
 4784SOL    HW115251   5.844   3.974   6.928
 4784SOL    HW215252   5.754   3.945   6.795
 4785SOL     OW15253   6.809   6.056   1.835
 4785SOL    HW115254   6.865   6.130   1.798
 4785SOL    HW215255   6.866   5.974   1.845
 4786SOL     OW15256   2.674   1.487   0.244
 4786SOL    HW115257   2.695   1.389   0.243
 4786SOL    HW215258   2.714   1.528   0.326
 4787SOL     OW15259   4.532   1.386   2.367
 4787SOL    HW115260   4.473   1.465   2.355
 4787SOL    HW215261   4.477   1.307   2.393
 4788SOL     OW15262   0.865   5.397   6.081
 4788SOL    HW115263   0.960   5.425   6.095
 4788SOL    HW215264   0.855   5.358   5.989
 4789SOL     OW15265   5.439   1.289   1.004
 4789SOL    HW115266   5.510   1.356   0.984
 4789SOL    HW215267   5.464   1.237   1.086
 4790SOL     OW15268   6.357   2.652   4.483
 4790SOL    HW115269   6.455   2.660   4.497
 4790SOL    HW215270   6.309   2.721   4.538
 4791SOL     OW15271   6.109   2.479   1.326
 4791SOL    HW115272   6.172   2.415   1.371
 4791SOL    HW215273   6.077   2.439   1.241
 4792SOL     OW15274   2.034   3.502   3.089
 4792SOL    HW115275   2.098   3.578   3.083
 4792SOL    HW215276   2.031   3.453   3.002
 4793SOL     OW15277   1.936   2.741   6.026
 4793SOL    HW115278   1.922   2.685   5.944
 4793SOL    HW215279   1.949   2.836   5.998
 4794SOL     OW15280   4.237   0.613   3.623
 4794SOL    HW115281   4.246   0.519   3.654
 4794SOL    HW215282   4.150   0.624   3.574
 4795SOL     OW15283   6.374   2.381   4.291
 4795SOL    HW115284   6.408   2.455   4.233
 4795SOL    HW215285   6.275   2.371   4.278
 4796SOL     OW15286   4.808   1.812   5.519
 4796SOL    HW115287   4.789   1.728   5.569
 4796SOL    HW215288   4.907   1.825   5.511
 4797SOL     OW15289   1.530   6.489   6.313
 4797SOL    HW115290   1.593   6.530   6.379
 4797SOL    HW215291   1.476   6.561   6.270
 4798SOL     OW15292   0.071   3.293   4.673
 4798SOL    HW115293   0.170   3.282   4.662
 4798SOL    HW215294   0.027   3.203   4.670
 4799SOL     OW15295   5.304   2.599   6.555
 4799SOL    HW115296   5.277   2.527   6.619
 4799SOL    HW215297   5.223   2.633   6.507
 4800SOL     OW15298   3.400   3.432   6.152
 4800SOL    HW115299   3.368   3.383   6.072
 4800SOL    HW215300   3.337   3.416   6.228
 4801SOL     OW15301   2.938   2.101   0.446
 4801SOL    HW115302   2.904   2.014   0.410
 4801SOL    HW215303   3.027   2.087   0.490
 4802SOL     OW15304   0.978   6.099   2.015
 4802SOL    HW115305   0.975   6.012   2.065
 4802SOL    HW215306   0.885   6.130   1.997
 4803SOL     OW15307   0.775   5.407   1.224
 4803SOL    HW115308   0.795   5.503   1.208
 4803SOL    HW215309   0.781   5.356   1.138
 4804SOL     OW15310   5.281   5.546   6.640
 4804SOL    HW115311   5.366   5.563   6.589
 4804SOL    HW215312   5.214   5.618   6.618
 4805SOL     OW15313   5.842   1.022   1.933
 4805SOL    HW115314   5.777   0.988   2.000
 4805SOL    HW215315   5.929   1.045   1.978
 4806SOL     OW15316   0.741   4.694   3.072
 4806SOL    HW115317   0.774   4.760   3.139
 4806SOL    HW215318   0.666   4.735   3.019
 4807SOL     OW15319   0.988   4.558   0.414
 4807SOL    HW115320   0.932   4.614   0.353
 4807SOL    HW215321   0.973   4.585   0.509
 4808SOL     OW15322   5.691   3.656   6.671
 4808SOL    HW115323   5.757   3.607   6.613
 4808SOL    HW215324   5.735   3.682   6.757
 4809SOL     OW15325   3.639   4.519   6.771
 4809SOL    HW115326   3.684   4.566   6.695
 4809SOL    HW215327   3.708   4.473   6.827
 4810SOL     OW15328   1.328   5.349   2.576
 4810SOL    HW115329   1.315   5.345   2.477
 4810SOL    HW215330   1.423   5.326   2.598
 4811SOL     OW15331   2.662   4.194   1.525
 4811SOL    HW115332   2.745   4.225   1.571
 4811SOL    HW215333   2.613   4.273   1.488
 4812SOL     OW15334   6.629   5.372   4.344
 4812SOL    HW115335   6.595   5.290   4.390
 4812SOL    HW215336   6.692   5.347   4.271
 4813SOL     OW15337   5.034   1.928   1.026
 4813SOL    HW115338   4.984   1.878   1.096
 4813SOL    HW215339   5.123   1.885   1.010
 4814SOL     OW15340   6.425   3.733   0.623
 4814SOL    HW115341   6.520   3.750   0.597
 4814SOL    HW215342   6.364   3.753   0.546
 4815SOL     OW15343   5.455   4.894   2.803
 4815SOL    HW115344   5.501   4.855   2.883
 4815SOL    HW215345   5.479   4.841   2.722
 4816SOL     OW15346   1.626   5.275   0.962
 4816SOL    HW115347   1.647   5.273   1.060
 4816SOL    HW215348   1.663   5.358   0.921
 4817SOL     OW15349   0.334   2.280   6.673
 4817SOL    HW115350   0.293   2.222   6.603
 4817SOL    HW215351   0.422   2.315   6.641
 4818SOL     OW15352   1.031   6.934   4.979
 4818SOL    HW115353   1.130   6.918   4.986
 4818SOL    HW215354   1.002   6.994   5.053
 4819SOL     OW15355   1.665   2.022   0.520
 4819SOL    HW115356   1.714   1.953   0.467
 4819SOL    HW215357   1.607   1.977   0.588
 4820SOL     OW15358   5.758   2.826   1.890
 4820SOL    HW115359   5.738   2.794   1.797
 4820SOL    HW215360   5.717   2.763   1.956
 4821SOL     OW15361   0.647   5.803   2.986
 4821SOL    HW115362   0.746   5.815   2.972
 4821SOL    HW215363   0.628   5.796   3.084
 4822SOL     OW15364   2.820   1.695   4.954
 4822SOL    HW115365   2.870   1.683   5.040
 4822SOL    HW215366   2.855   1.776   4.907
 4823SOL     OW15367   2.089   0.909   4.526
 4823SOL    HW115368   2.045   0.838   4.581
 4823SOL    HW215369   2.069   0.999   4.565
 4824SOL     OW15370   4.913   2.642   5.070
 4824SOL    HW115371   4.991   2.580   5.066
 4824SOL    HW215372   4.836   2.595   5.114
 4825SOL     OW15373   1.873   3.017   4.940
 4825SOL    HW115374   1.957   2.967   4.962
 4825SOL    HW215375   1.896   3.099   4.887
 4826SOL     OW15376   5.563   1.458   0.195
 4826SOL    HW115377   5.643   1.400   0.208
 4826SOL    HW215378   5.578   1.547   0.238
 4827SOL     OW15379   6.364   1.684   0.594
 4827SOL    HW115380   6.419   1.760   0.558
 4827SOL    HW215381   6.327   1.710   0.684
 4828SOL     OW15382   5.403   2.068   0.947
 4828SOL    HW115383   5.321   2.088   0.893
 4828SOL    HW215384   5.389   1.982   0.997
 4829SOL     OW15385   3.856   6.791   4.906
 4829SOL    HW115386   3.842   6.882   4.867
 4829SOL    HW215387   3.769   6.742   4.906
 4830SOL     OW15388   4.172   5.803   4.541
 4830SOL    HW115389   4.214   5.725   4.587
 4830SOL    HW215390   4.155   5.780   4.445
 4831SOL     OW15391   1.450   4.254   6.101
 4831SOL    HW115392   1.529   4.263   6.040
 4831SOL    HW215393   1.366   4.269   6.049
 4832SOL     OW15394   3.693   4.097   3.714
 4832SOL    HW115395   3.686   4.110   3.813
 4832SOL    HW215396   3.610   4.131   3.670
 4833SOL     OW15397   5.626   1.162   2.817
 4833SOL    HW115398   5.648   1.135   2.723
 4833SOL    HW215399   5.694   1.123   2.879
 4834SOL     OW15400   2.978   6.218   1.669
 4834SOL    HW115401   3.018   6.277   1.598
 4834SOL    HW215402   3.037   6.139   1.683
 4835SOL     OW15403   5.735   1.774   6.379
 4835SOL    HW115404   5.698   1.705   6.317
 4835SOL    HW215405   5.673   1.786   6.457
 4836SOL     OW15406   5.043   2.060   4.948
 4836SOL    HW115407   5.007   2.067   4.855
 4836SOL    HW215408   4.970   2.084   5.013
 4837SOL     OW15409   0.070   3.816   3.045
 4837SOL    HW115410   0.161   3.773   3.042
 4837SOL    HW215411   0.076   3.903   3.092
 4838SOL     OW15412   1.150   5.626   0.277
 4838SOL    HW115413   1.125   5.631   0.373
 4838SOL    HW215414   1.245   5.595   0.268
 4839SOL     OW15415   1.570   3.974   0.147
 4839SOL    HW115416   1.480   4.009   0.119
 4839SOL    HW215417   1.638   3.998   0.077
 4840SOL     OW15418   7.017   4.792   6.379
 4840SOL    HW115419   0.078   4.750   6.381
 4840SOL    HW215420   6.993   4.816   6.284
 4841SOL     OW15421   2.461   5.377   2.596
 4841SOL    HW115422   2.436   5.474   2.586
 4841SOL    HW215423   2.548   5.361   2.550
 4842SOL     OW15424   3.543   5.141   2.191
 4842SOL    HW115425   3.516   5.215   2.130
 4842SOL    HW215426   3.588   5.069   2.139
 4843SOL     OW15427   6.167   2.901   1.716
 4843SOL    HW115428   6.238   2.939   1.774
 4843SOL    HW215429   6.102   2.973   1.691
 4844SOL     OW15430   0.140   3.139   6.279
 4844SOL    HW115431   0.042   3.140   6.303
 4844SOL    HW215432   0.193   3.173   6.357
 4845SOL     OW15433   5.515   4.754   6.541
 4845SOL    HW115434   5.451   4.730   6.469
 4845SOL    HW215435   5.487   4.713   6.627
 4846SOL     OW15436   6.848   2.413   3.628
 4846SOL    HW115437   6.824   2.448   3.538
 4846SOL    HW215438   6.947   2.402   3.635
 4847SOL     OW15439   2.395   1.120   6.287
 4847SOL    HW115440   2.302   1.088   6.304
 4847SOL    HW215441   2.396   1.220   6.287
 4848SOL     OW15442   2.001   0.927   4.812
 4848SOL    HW115443   2.077   0.992   4.819
 4848SOL    HW215444   2.030   0.837   4.845
 4849SOL     OW15445   1.693   5.657   0.105
 4849SOL    HW115446   1.647   5.582   0.153
 4849SOL    HW215447   1.626   5.709   0.053
 4850SOL     OW15448   4.343   1.162   1.553
 4850SOL    HW115449   4.316   1.066   1.546
 4850SOL    HW215450   4.300   1.203   1.634
 4851SOL     OW15451   3.240   6.575   5.875
 4851SOL    HW115452   3.189   6.610   5.954
 4851SOL    HW215453   3.309   6.511   5.907
 4852SOL     OW15454   2.218   5.931   4.915
 4852SOL    HW115455   2.190   5.908   4.822
 4852SOL    HW215456   2.310   5.895   4.932
 4853SOL     OW15457   3.396   1.344   3.622
 4853SOL    HW115458   3.306   1.323   3.660
 4853SOL    HW215459   3.400   1.440   3.596
 4854SOL     OW15460   4.412   6.579   2.376
 4854SOL    HW115461   4.343   6.643   2.343
 4854SOL    HW215462   4.387   6.486   2.350
 4855SOL     OW15463   5.884   2.795   4.471
 4855SOL    HW115464   5.968   2.844   4.450
 4855SOL    HW215465   5.880   2.710   4.418
 4856SOL     OW15466   1.764   3.447   3.026
 4856SOL    HW115467   1.777   3.443   3.125
 4856SOL    HW215468   1.674   3.411   3.003
 4857SOL     OW15469   2.767   2.326   3.508
 4857SOL    HW115470   2.803   2.367   3.592
 4857SOL    HW215471   2.680   2.282   3.527
 4858SOL     OW15472   6.864   0.033   4.929
 4858SOL    HW115473   6.937   0.043   4.996
 4858SOL    HW215474   6.775   0.042   4.974
 4859SOL     OW15475   0.590   5.376   2.752
 4859SOL    HW115476   0.541   5.443   2.697
 4859SOL    HW215477   0.528   5.334   2.818
 4860SOL     OW15478   4.752   4.335   0.527
 4860SOL    HW115479   4.656   4.348   0.504
 4860SOL    HW215480   4.801   4.304   0.446
 4861SOL     OW15481   6.033   4.917   6.741
 4861SOL    HW115482   5.957   4.973   6.707
 4861SOL    HW215483   6.068   4.957   6.826
 4862SOL     OW15484   2.023   4.403   4.750
 4862SOL    HW115485   2.019   4.308   4.720
 4862SOL    HW215486   2.117   4.437   4.738
 4863SOL     OW15487   5.173   3.320   2.171
 4863SOL    HW115488   5.235   3.382   2.123
 4863SOL    HW215489   5.088   3.367   2.192
 4864SOL     OW15490   3.490   1.338   2.130
 4864SOL    HW115491   3.413   1.364   2.072
 4864SOL    HW215492   3.565   1.403   2.118
 4865SOL     OW15493   1.613   6.168   4.443
 4865SOL    HW115494   1.584   6.190   4.350
 4865SOL    HW215495   1.567   6.229   4.508
 4866SOL     OW15496   6.250   4.987   1.654
 4866SOL    HW115497   6.250   5.002   1.555
 4866SOL    HW215498   6.198   4.904   1.675
 4867SOL     OW15499   5.296   5.721   2.888
 4867SOL    HW115500   5.279   5.811   2.927
 4867SOL    HW215501   5.226   5.657   2.920
 4868SOL     OW15502   0.211   5.279   2.156
 4868SOL    HW115503   0.209   5.374   2.187
 4868SOL    HW215504   0.241   5.275   2.060
 4869SOL     OW15505   0.576   2.129   1.902
 4869SOL    HW115506   0.674   2.114   1.909
 4869SOL    HW215507   0.539   2.151   1.992
 4870SOL     OW15508   6.284   5.863   1.762
 4870SOL    HW115509   6.345   5.922   1.815
 4870SOL    HW215510   6.218   5.919   1.713
 4871SOL     OW15511   0.410   1.589   4.677
 4871SOL    HW115512   0.485   1.613   4.616
 4871SOL    HW215513   0.426   1.498   4.715
 4872SOL     OW15514   6.967   6.140   4.388
 4872SOL    HW115515   6.953   6.081   4.468
 4872SOL    HW215516   0.017   6.107   4.336
 4873SOL     OW15517   6.886   4.783   3.906
 4873SOL    HW115518   6.960   4.746   3.851
 4873SOL    HW215519   6.900   4.880   3.922
 4874SOL     OW15520   5.872   3.546   3.053
 4874SOL    HW115521   5.809   3.469   3.057
 4874SOL    HW215522   5.903   3.568   3.146
 4875SOL     OW15523   4.898   2.462   1.317
 4875SOL    HW115524   4.847   2.540   1.282
 4875SOL    HW215525   4.922   2.401   1.241
 4876SOL     OW15526   5.750   1.083   4.372
 4876SOL    HW115527   5.696   1.106   4.291
 4876SOL    HW215528   5.699   1.107   4.454
 4877SOL     OW15529   6.818   1.942   0.025
 4877SOL    HW115530   6.721   1.962   0.009
 4877SOL    HW215531   6.827   1.858   0.080
 4878SOL     OW15532   6.388   1.252   3.378
 4878SOL    HW115533   6.313   1.276   3.439
 4878SOL    HW215534   6.433   1.335   3.345
 4879SOL     OW15535   4.528   5.107   3.532
 4879SOL    HW115536   4.456   5.107   3.602
 4879SOL    HW215537   4.508   5.175   3.463
 4880SOL     OW15538   6.059   3.190   6.668
 4880SOL    HW115539   5.973   3.225   6.631
 4880SOL    HW215540   6.060   3.090   6.663
 4881SOL     OW15541   2.196   0.029   6.700
 4881SOL    HW115542   2.226   7.017   6.786
 4881SOL    HW215543   2.114   7.012   6.667
 4882SOL     OW15544   5.686   1.749   4.145
 4882SOL    HW115545   5.748   1.722   4.219
 4882SOL    HW215546   5.598   1.776   4.184
 4883SOL     OW15547   4.951   4.880   2.355
 4883SOL    HW115548   4.911   4.959   2.401
 4883SOL    HW215549   5.012   4.831   2.418
 4884SOL     OW15550   4.200   0.235   1.036
 4884SOL    HW115551   4.205   0.297   1.114
 4884SOL    HW215552   4.104   0.216   1.015
 4885SOL     OW15553   3.151   6.028   2.072
 4885SOL    HW115554   3.061   6.050   2.109
 4885SOL    HW215555   3.181   6.103   2.012
 4886SOL     OW15556   6.341   5.504   6.331
 4886SOL    HW115557   6.375   5.428   6.276
 4886SOL    HW215558   6.418   5.553   6.372
 4887SOL     OW15559   7.014   0.394   2.866
 4887SOL    HW115560   0.053   0.458   2.899
 4887SOL    HW215561   7.021   0.308   2.917
 4888SOL     OW15562   1.888   6.515   4.403
 4888SOL    HW115563   1.842   6.546   4.487
 4888SOL    HW215564   1.878   6.416   4.394
 4889SOL     OW15565   6.214   0.700   6.333
 4889SOL    HW115566   6.251   0.761   6.403
 4889SOL    HW215567   6.115   0.710   6.329
 4890SOL     OW15568   0.630   1.918   5.575
 4890SOL    HW115569   0.661   1.852   5.643
 4890SOL    HW215570   0.659   1.889   5.484
 4891SOL     OW15571   1.183   5.924   0.737
 4891SOL    HW115572   1.212   5.961   0.825
 4891SOL    HW215573   1.219   5.831   0.727
 4892SOL     OW15574   2.158   6.574   2.065
 4892SOL    HW115575   2.102   6.655   2.048
 4892SOL    HW215576   2.209   6.551   1.982
 4893SOL     OW15577   6.752   4.109   0.579
 4893SOL    HW115578   6.724   4.014   0.570
 4893SOL    HW215579   6.699   4.166   0.515
 4894SOL     OW15580   2.117   2.005   2.214
 4894SOL    HW115581   2.101   1.952   2.297
 4894SOL    HW215582   2.110   2.102   2.234
 4895SOL     OW15583   0.239   4.656   2.521
 4895SOL    HW115584   0.201   4.715   2.449
 4895SOL    HW215585   0.295   4.585   2.479
 4896SOL     OW15586   2.514   5.227   1.943
 4896SOL    HW115587   2.500   5.326   1.939
 4896SOL    HW215588   2.550   5.194   1.856
 4897SOL     OW15589   2.340   4.862   5.537
 4897SOL    HW115590   2.356   4.896   5.630
 4897SOL    HW215591   2.263   4.797   5.539
 4898SOL     OW15592   4.992   0.976   4.526
 4898SOL    HW115593   5.045   0.906   4.574
 4898SOL    HW215594   5.041   1.062   4.527
 4899SOL     OW15595   6.251   4.838   3.529
 4899SOL    HW115596   6.177   4.778   3.561
 4899SOL    HW215597   6.298   4.795   3.452
 4900SOL     OW15598   1.631   5.642   5.424
 4900SOL    HW115599   1.682   5.558   5.445
 4900SOL    HW215600   1.651   5.670   5.330
 4901SOL     OW15601   2.673   6.644   5.397
 4901SOL    HW115602   2.641   6.688   5.313
 4901SOL    HW215603   2.718   6.558   5.373
 4902SOL     OW15604   2.873   2.227   4.919
 4902SOL    HW115605   2.962   2.260   4.952
 4902SOL    HW215606   2.876   2.128   4.910
 4903SOL     OW15607   3.075   6.573   6.457
 4903SOL    HW115608   3.008   6.636   6.418
 4903SOL    HW215609   3.080   6.587   6.556
 4904SOL     OW15610   0.853   0.340   4.089
 4904SOL    HW115611   0.852   0.253   4.040
 4904SOL    HW215612   0.918   0.335   4.165
 4905SOL     OW15613   4.339   1.324   2.075
 4905SOL    HW115614   4.375   1.371   1.995
 4905SOL    HW215615   4.241   1.308   2.062
 4906SOL     OW15616   3.973   1.669   6.759
 4906SOL    HW115617   3.922   1.583   6.751
 4906SOL    HW215618   3.935   1.724   6.833
 4907SOL     OW15619   5.059   6.289   1.223
 4907SOL    HW115620   5.079   6.387   1.221
 4907SOL    HW215621   4.966   6.273   1.191
 4908SOL     OW15622   4.964   4.823   6.475
 4908SOL    HW115623   5.003   4.904   6.431
 4908SOL    HW215624   4.869   4.841   6.500
 4909SOL     OW15625   6.747   0.501   5.139
 4909SOL    HW115626   6.772   0.520   5.234
 4909SOL    HW215627   6.808   0.431   5.101
 4910SOL     OW15628   5.524   6.893   4.582
 4910SOL    HW115629   5.511   6.816   4.520
 4910SOL    HW215630   5.434   6.924   4.615
 4911SOL     OW15631   6.672   2.868   5.438
 4911SOL    HW115632   6.623   2.790   5.478
 4911SOL    HW215633   6.710   2.842   5.349
 4912SOL     OW15634   5.353   2.367   1.512
 4912SOL    HW115635   5.257   2.343   1.495
 4912SOL    HW215636   5.411   2.297   1.470
 4913SOL     OW15637   3.892   3.521   3.551
 4913SOL    HW115638   3.857   3.476   3.633
 4913SOL    HW215639   3.817   3.541   3.489
 4914SOL     OW15640   2.999   6.710   4.886
 4914SOL    HW115641   3.071   6.700   4.955
 4914SOL    HW215642   2.966   6.804   4.885
 4915SOL     OW15643   4.170   0.380   4.851
 4915SOL    HW115644   4.184   0.431   4.766
 4915SOL    HW215645   4.229   0.299   4.851
 4916SOL     OW15646   2.277   1.609   3.478
 4916SOL    HW115647   2.252   1.692   3.527
 4916SOL    HW215648   2.312   1.541   3.543
 4917SOL     OW15649   1.621   4.976   0.523
 4917SOL    HW115650   1.647   4.922   0.604
 4917SOL    HW215651   1.578   4.916   0.456
 4918SOL     OW15652   2.855   6.817   3.027
 4918SOL    HW115653   2.768   6.775   3.053
 4918SOL    HW215654   2.883   6.881   3.099
 4919SOL     OW15655   1.808   1.789   0.487
 4919SOL    HW115656   1.814   1.730   0.567
 4919SOL    HW215657   1.886   1.852   0.486
 4920SOL     OW15658   4.760   0.348   6.128
 4920SOL    HW115659   4.787   0.372   6.035
 4920SOL    HW215660   4.835   0.366   6.191
 4921SOL     OW15661   1.925   4.478   1.238
 4921SOL    HW115662   1.834   4.436   1.233
 4921SOL    HW215663   1.971   4.447   1.321
 4922SOL     OW15664   1.875   3.286   4.836
 4922SOL    HW115665   1.793   3.261   4.784
 4922SOL    HW215666   1.848   3.334   4.919
 4923SOL     OW15667   3.225   1.067   0.965
 4923SOL    HW115668   3.258   1.155   0.931
 4923SOL    HW215669   3.132   1.077   0.999
 4924SOL     OW15670   1.823   2.691   6.267
 4924SOL    HW115671   1.733   2.735   6.268
 4924SOL    HW215672   1.864   2.700   6.176
 4925SOL     OW15673   5.573   6.620   0.840
 4925SOL    HW115674   5.513   6.685   0.794
 4925SOL    HW215675   5.536   6.528   0.829
 4926SOL     OW15676   4.836   2.107   1.219
 4926SOL    HW115677   4.821   2.127   1.316
 4926SOL    HW215678   4.758   2.055   1.184
 4927SOL     OW15679   3.908   4.029   4.150
 4927SOL    HW115680   3.956   4.104   4.195
 4927SOL    HW215681   3.812   4.029   4.177
 4928SOL     OW15682   7.023   0.272   6.917
 4928SOL    HW115683   0.032   0.194   6.967
 4928SOL    HW215684   0.060   0.346   6.913
 4929SOL     OW15685   1.250   4.300   4.785
 4929SOL    HW115686   1.223   4.236   4.857
 4929SOL    HW215687   1.178   4.307   4.716
 4930SOL     OW15688   6.357   0.442   2.042
 4930SOL    HW115689   6.342   0.372   1.972
 4930SOL    HW215690   6.297   0.423   2.120
 4931SOL     OW15691   0.074   0.103   1.207
 4931SOL    HW115692   0.055   0.193   1.247
 4931SOL    HW215693   7.027   0.042   1.226
 4932SOL     OW15694   2.448   2.918   1.741
 4932SOL    HW115695   2.483   2.863   1.664
 4932SOL    HW215696   2.421   3.008   1.707
 4933SOL     OW15697   3.020   6.457   4.135
 4933SOL    HW115698   3.080   6.394   4.085
 4933SOL    HW215699   2.939   6.478   4.080
 4934SOL     OW15700   1.649   5.017   2.692
 4934SOL    HW115701   1.675   4.979   2.781
 4934SOL    HW215702   1.592   4.951   2.643
 4935SOL     OW15703   1.029   1.545   6.818
 4935SOL    HW115704   1.076   1.631   6.796
 4935SOL    HW215705   1.088   1.468   6.795
 4936SOL     OW15706   2.297   5.380   2.220
 4936SOL    HW115707   2.276   5.450   2.288
 4936SOL    HW215708   2.392   5.387   2.192
 4937SOL     OW15709   6.702   3.380   5.561
 4937SOL    HW115710   6.711   3.280   5.562
 4937SOL    HW215711   6.711   3.413   5.467
 4938SOL     OW15712   2.868   5.650   0.699
 4938SOL    HW115713   2.942   5.583   0.712
 4938SOL    HW215714   2.818   5.660   0.785
 4939SOL     OW15715   1.046   1.528   4.133
 4939SOL    HW115716   1.077   1.542   4.040
 4939SOL    HW215717   1.091   1.448   4.172
 4940SOL     OW15718   0.777   1.385   5.847
 4940SOL    HW115719   0.873   1.364   5.868
 4940SOL    HW215720   0.770   1.482   5.822
 4941SOL     OW15721   4.212   2.559   5.442
 4941SOL    HW115722   4.272   2.640   5.444
 4941SOL    HW215723   4.170   2.551   5.352
 4942SOL     OW15724   5.449   3.622   5.046
 4942SOL    HW115725   5.461   3.607   5.144
 4942SOL    HW215726   5.360   3.664   5.029
 4943SOL     OW15727   5.072   4.210   5.305
 4943SOL    HW115728   5.153   4.229   5.361
 4943SOL    HW215729   5.096   4.219   5.209
 4944SOL     OW15730   2.502   4.482   1.846
 4944SOL    HW115731   2.448   4.562   1.818
 4944SOL    HW215732   2.598   4.508   1.857
 4945SOL     OW15733   1.132   6.796   5.354
 4945SOL    HW115734   1.206   6.856   5.320
 4945SOL    HW215735   1.066   6.781   5.281
 4946SOL     OW15736   0.807   5.508   0.373
 4946SOL    HW115737   0.722   5.484   0.325
 4946SOL    HW215738   0.847   5.425   0.412
 4947SOL     OW15739   2.466   0.390   0.763
 4947SOL    HW115740   2.390   0.393   0.828
 4947SOL    HW215741   2.437   0.432   0.677
 4948SOL     OW15742   2.488   2.463   2.518
 4948SOL    HW115743   2.481   2.447   2.420
 4948SOL    HW215744   2.585   2.464   2.545
 4949SOL     OW15745   6.569   4.192   5.573
 4949SOL    HW115746   6.581   4.103   5.529
 4949SOL    HW215747   6.655   4.243   5.570
 4950SOL     OW15748   1.888   4.578   5.348
 4950SOL    HW115749   1.976   4.607   5.386
 4950SOL    HW215750   1.903   4.503   5.284
 4951SOL     OW15751   6.509   1.074   4.129
 4951SOL    HW115752   6.410   1.074   4.137
 4951SOL    HW215753   6.541   0.981   4.111
 4952SOL     OW15754   0.146   6.893   6.361
 4952SOL    HW115755   0.218   6.949   6.402
 4952SOL    HW215756   0.057   6.934   6.379
 4953SOL     OW15757   1.124   6.913   3.559
 4953SOL    HW115758   1.063   6.845   3.599
 4953SOL    HW215759   1.078   7.002   3.556
 4954SOL     OW15760   3.258   3.354   6.924
 4954SOL    HW115761   3.205   3.282   6.969
 4954SOL    HW215762   3.298   3.414   6.993
 4955SOL     OW15763   2.680   6.650   0.029
 4955SOL    HW115764   2.766   6.675   0.074
 4955SOL    HW215765   2.617   6.612   0.096
 4956SOL     OW15766   2.953   6.985   5.510
 4956SOL    HW115767   2.936   6.975   5.412
 4956SOL    HW215768   2.892   0.025   5.547
 4957SOL     OW15769   5.805   2.726   1.390
 4957SOL    HW115770   5.792   2.759   1.483
 4957SOL    HW215771   5.862   2.791   1.339
 4958SOL     OW15772   0.868   5.068   6.195
 4958SOL    HW115773   0.846   5.132   6.121
 4958SOL    HW215774   0.860   5.114   6.283
 4959SOL     OW15775   6.201   1.706   0.356
 4959SOL    HW115776   6.186   1.631   0.291
 4959SOL    HW215777   6.251   1.672   0.436
 4960SOL     OW15778   4.074   4.806   3.871
 4960SOL    HW115779   4.073   4.894   3.919
 4960SOL    HW215780   4.014   4.741   3.917
 4961SOL     OW15781   3.346   0.773   5.933
 4961SOL    HW115782   3.348   0.679   5.898
 4961SOL    HW215783   3.413   0.783   6.006
 4962SOL     OW15784   5.778   2.733   0.599
 4962SOL    HW115785   5.838   2.652   0.601
 4962SOL    HW215786   5.798   2.791   0.677
 4963SOL     OW15787   0.550   5.952   0.402
 4963SOL    HW115788   0.470   5.958   0.343
 4963SOL    HW215789   0.621   5.897   0.358
 4964SOL     OW15790   2.414   0.129   4.806
 4964SOL    HW115791   2.383   0.223   4.819
 4964SOL    HW215792   2.384   0.095   4.717
 4965SOL     OW15793   0.728   6.881   2.028
 4965SOL    HW115794   0.762   6.863   1.936
 4965SOL    HW215795   0.805   6.884   2.092
 4966SOL     OW15796   2.793   6.395   5.298
 4966SOL    HW115797   2.781   6.416   5.201
 4966SOL    HW215798   2.843   6.309   5.307
 4967SOL     OW15799   3.722   4.788   5.324
 4967SOL    HW115800   3.800   4.849   5.336
 4967SOL    HW215801   3.747   4.696   5.355
 4968SOL     OW15802   0.106   1.008   3.534
 4968SOL    HW115803   0.105   1.010   3.634
 4968SOL    HW215804   0.171   0.939   3.502
 4969SOL     OW15805   2.082   6.114   2.591
 4969SOL    HW115806   2.032   6.043   2.540
 4969SOL    HW215807   2.050   6.204   2.563
 4970SOL     OW15808   2.856   1.870   1.367
 4970SOL    HW115809   2.779   1.909   1.316
 4970SOL    HW215810   2.850   1.770   1.366
 4971SOL     OW15811   6.006   5.528   3.311
 4971SOL    HW115812   5.999   5.627   3.295
 4971SOL    HW215813   6.049   5.485   3.232
 4972SOL     OW15814   1.021   3.578   1.266
 4972SOL    HW115815   0.956   3.617   1.200
 4972SOL    HW215816   1.055   3.491   1.231
 4973SOL     OW15817   1.722   0.163   2.014
 4973SOL    HW115818   1.759   0.074   1.986
 4973SOL    HW215819   1.625   0.167   1.990
 4974SOL     OW15820   6.733   4.596   0.632
 4974SOL    HW115821   6.658   4.566   0.573
 4974SOL    HW215822   6.730   4.696   0.642
 4975SOL     OW15823   6.032   3.780   5.713
 4975SOL    HW115824   6.087   3.712   5.762
 4975SOL    HW215825   5.974   3.829   5.778
 4976SOL     OW15826   1.983   1.966   3.879
 4976SOL    HW115827   1.939   2.012   3.956
 4976SOL    HW215828   2.051   1.900   3.913
 4977SOL     OW15829   4.769   5.112   0.175
 4977SOL    HW115830   4.762   5.050   0.252
 4977SOL    HW215831   4.731   5.201   0.201
 4978SOL     OW15832   6.358   4.470   4.953
 4978SOL    HW115833   6.365   4.566   4.983
 4978SOL    HW215834   6.286   4.462   4.885
 4979SOL     OW15835   6.682   6.940   5.946
 4979SOL    HW115836   6.764   6.949   6.003
 4979SOL    HW215837   6.604   6.983   5.991
 4980SOL     OW15838   5.342   5.323   3.478
 4980SOL    HW115839   5.315   5.263   3.402
 4980SOL    HW215840   5.440   5.344   3.470
 4981SOL     OW15841   4.291   5.362   0.679
 4981SOL    HW115842   4.366   5.340   0.742
 4981SOL    HW215843   4.218   5.407   0.729
 4982SOL     OW15844   3.302   1.785   6.040
 4982SOL    HW115845   3.306   1.836   5.954
 4982SOL    HW215846   3.280   1.690   6.022
 4983SOL     OW15847   6.213   3.368   5.707
 4983SOL    HW115848   6.232   3.352   5.611
 4983SOL    HW215849   6.146   3.301   5.740
 4984SOL     OW15850   5.872   4.275   3.321
 4984SOL    HW115851   5.890   4.323   3.407
 4984SOL    HW215852   5.893   4.178   3.333
 4985SOL     OW15853   5.950   6.818   3.101
 4985SOL    HW115854   5.922   6.850   3.191
 4985SOL    HW215855   5.895   6.863   3.031
 4986SOL     OW15856   0.047   4.831   0.941
 4986SOL    HW115857   0.102   4.865   0.864
 4986SOL    HW215858   0.103   4.830   1.024
 4987SOL     OW15859   0.161   6.404   2.406
 4987SOL    HW115860   0.246   6.377   2.452
 4987SOL    HW215861   0.105   6.459   2.469
 4988SOL     OW15862   5.388   0.848   2.485
 4988SOL    HW115863   5.347   0.757   2.496
 4988SOL    HW215864   5.338   0.898   2.415
 4989SOL     OW15865   5.366   6.520   1.081
 4989SOL    HW115866   5.316   6.522   0.994
 4989SOL    HW215867   5.390   6.426   1.104
 4990SOL     OW15868   2.609   2.076   5.843
 4990SOL    HW115869   2.659   2.146   5.894
 4990SOL    HW215870   2.585   2.001   5.905
 4991SOL     OW15871   6.643   5.555   4.017
 4991SOL    HW115872   6.693   5.500   3.950
 4991SOL    HW215873   6.705   5.584   4.090
 4992SOL     OW15874   4.900   0.559   1.948
 4992SOL    HW115875   4.821   0.504   1.973
 4992SOL    HW215876   4.936   0.528   1.860
 4993SOL     OW15877   3.797   5.972   4.938
 4993SOL    HW115878   3.872   5.953   5.001
 4993SOL    HW215879   3.778   5.890   4.883
 4994SOL     OW15880   1.841   0.243   4.648
 4994SOL    HW115881   1.911   0.201   4.589
 4994SOL    HW215882   1.819   0.334   4.614
 4995SOL     OW15883   0.734   1.919   5.276
 4995SOL    HW115884   0.686   1.994   5.232
 4995SOL    HW215885   0.717   1.834   5.226
 4996SOL     OW15886   0.417   1.577   3.066
 4996SOL    HW115887   0.433   1.497   3.125
 4996SOL    HW215888   0.322   1.608   3.078
 4997SOL     OW15889   4.544   2.540   2.461
 4997SOL    HW115890   4.571   2.444   2.456
 4997SOL    HW215891   4.444   2.546   2.470
 4998SOL     OW15892   2.115   3.236   5.129
 4998SOL    HW115893   2.131   3.236   5.227
 4998SOL    HW215894   2.078   3.147   5.101
 4999SOL     OW15895   6.717   3.638   5.990
 4999SOL    HW115896   6.744   3.567   5.924
 4999SOL    HW215897   6.618   3.654   5.982
 5000SOL     OW15898   3.696   6.857   3.164
 5000SOL    HW115899   3.606   6.821   3.189
 5000SOL    HW215900   3.762   6.782   3.160
 5001SOL     OW15901   0.761   4.667   2.130
 5001SOL    HW115902   0.691   4.625   2.188
 5001SOL    HW215903   0.729   4.669   2.035
 5002SOL     OW15904   1.055   3.517   2.228
 5002SOL    HW115905   1.021   3.486   2.139
 5002SOL    HW215906   1.018   3.607   2.249
 5003SOL     OW15907   3.151   5.190   2.889
 5003SOL    HW115908   3.072   5.169   2.948
 5003SOL    HW215909   3.171   5.111   2.831
 5004SOL     OW15910   2.584   4.524   5.240
 5004SOL    HW115911   2.635   4.537   5.325
 5004SOL    HW215912   2.635   4.562   5.164
 5005SOL     OW15913   3.558   2.884   0.850
 5005SOL    HW115914   3.507   2.930   0.778
 5005SOL    HW215915   3.496   2.826   0.903
 5006SOL     OW15916   4.924   0.705   1.348
 5006SOL    HW115917   4.901   0.761   1.428
 5006SOL    HW215918   4.912   0.760   1.265
 5007SOL     OW15919   1.027   6.440   0.794
 5007SOL    HW115920   0.986   6.400   0.712
 5007SOL    HW215921   1.077   6.523   0.769
 5008SOL     OW15922   5.306   6.576   1.352
 5008SOL    HW115923   5.365   6.520   1.410
 5008SOL    HW215924   5.326   6.558   1.256
 5009SOL     OW15925   0.201   1.363   0.462
 5009SOL    HW115926   0.248   1.435   0.513
 5009SOL    HW215927   0.103   1.381   0.463
 5010SOL     OW15928   4.216   3.395   1.700
 5010SOL    HW115929   4.176   3.369   1.788
 5010SOL    HW215930   4.299   3.342   1.684
 5011SOL     OW15931   1.649   4.410   2.049
 5011SOL    HW115932   1.587   4.347   2.095
 5011SOL    HW215933   1.701   4.461   2.118
 5012SOL     OW15934   5.712   3.644   5.599
 5012SOL    HW115935   5.761   3.731   5.596
 5012SOL    HW215936   5.680   3.627   5.692
 5013SOL     OW15937   5.294   1.426   6.797
 5013SOL    HW115938   5.341   1.374   6.868
 5013SOL    HW215939   5.329   1.520   6.796
 5014SOL     OW15940   6.230   4.731   1.074
 5014SOL    HW115941   6.178   4.760   0.994
 5014SOL    HW215942   6.318   4.779   1.075
 5015SOL     OW15943   4.720   1.589   4.758
 5015SOL    HW115944   4.731   1.492   4.781
 5015SOL    HW215945   4.790   1.642   4.805
 5016SOL     OW15946   1.782   3.089   6.866
 5016SOL    HW115947   1.857   3.155   6.862
 5016SOL    HW215948   1.695   3.137   6.859
 5017SOL     OW15949   2.619   2.747   1.144
 5017SOL    HW115950   2.527   2.708   1.146
 5017SOL    HW215951   2.640   2.778   1.051
 5018SOL     OW15952   1.009   4.222   2.612
 5018SOL    HW115953   0.943   4.225   2.686
 5018SOL    HW215954   1.022   4.314   2.575
 5019SOL     OW15955   1.145   5.141   5.891
 5019SOL    HW115956   1.240   5.111   5.891
 5019SOL    HW215957   1.142   5.240   5.910
 5020SOL     OW15958   5.621   0.390   7.030
 5020SOL    HW115959   5.716   0.417   7.010
 5020SOL    HW215960   5.618   0.347   0.090
 5021SOL     OW15961   0.367   1.340   0.152
 5021SOL    HW115962   0.338   1.263   0.209
 5021SOL    HW215963   0.461   1.325   0.121
 5022SOL     OW15964   1.424   1.115   0.915
 5022SOL    HW115965   1.512   1.160   0.902
 5022SOL    HW215966   1.410   1.048   0.841
 5023SOL     OW15967   6.983   3.546   1.783
 5023SOL    HW115968   6.930   3.623   1.817
 5023SOL    HW215969   6.921   3.470   1.762
 5024SOL     OW15970   6.332   5.364   1.648
 5024SOL    HW115971   6.248   5.314   1.668
 5024SOL    HW215972   6.332   5.451   1.699
 5025SOL     OW15973   4.128   1.543   2.768
 5025SOL    HW115974   4.044   1.516   2.815
 5025SOL    HW215975   4.193   1.580   2.835
 5026SOL     OW15976   6.296   6.119   5.286
 5026SOL    HW115977   6.334   6.040   5.238
 5026SOL    HW215978   6.255   6.182   5.220
 5027SOL     OW15979   0.378   5.995   1.545
 5027SOL    HW115980   0.329   5.950   1.470
 5027SOL    HW215981   0.337   6.085   1.562
 5028SOL     OW15982   0.331   2.057   2.388
 5028SOL    HW115983   0.363   2.012   2.472
 5028SOL    HW215984   0.235   2.036   2.374
 5029SOL     OW15985   6.541   2.129   2.133
 5029SOL    HW115986   6.562   2.048   2.187
 5029SOL    HW215987   6.585   2.209   2.174
 5030SOL     OW15988   6.760   6.748   0.151
 5030SOL    HW115989   6.778   6.846   0.143
 5030SOL    HW215990   6.829   6.697   0.099
 5031SOL     OW15991   6.253   0.392   5.812
 5031SOL    HW115992   6.208   0.467   5.764
 5031SOL    HW215993   6.194   0.311   5.811
 5032SOL     OW15994   2.000   2.203   0.029
 5032SOL    HW115995   1.919   2.231   7.007
 5032SOL    HW215996   1.973   2.138   0.100
 5033SOL     OW15997   2.288   6.653   5.720
 5033SOL    HW115998   2.377   6.633   5.678
 5033SOL    HW215999   2.220   6.587   5.687
 5034SOL     OW16000   5.838   0.515   3.539
 5034SOL    HW116001   5.887   0.499   3.625
 5034SOL    HW216002   5.890   0.474   3.464
 5035SOL     OW16003   0.659   3.305   6.961
 5035SOL    HW116004   0.682   3.260   0.018
 5035SOL    HW216005   0.573   3.267   6.926
 5036SOL     OW16006   0.912   5.229   6.880
 5036SOL    HW116007   0.957   5.147   6.915
 5036SOL    HW216008   0.815   5.212   6.868
 5037SOL     OW16009   5.699   3.925   2.005
 5037SOL    HW116010   5.608   3.944   1.967
 5037SOL    HW216011   5.723   3.995   2.072
 5038SOL     OW16012   3.588   3.931   6.147
 5038SOL    HW116013   3.634   3.865   6.207
 5038SOL    HW216014   3.624   3.923   6.055
 5039SOL     OW16015   2.921   4.292   6.016
 5039SOL    HW116016   2.872   4.242   6.086
 5039SOL    HW216017   2.864   4.300   5.934
 5040SOL     OW16018   1.586   6.168   5.665
 5040SOL    HW116019   1.603   6.185   5.761
 5040SOL    HW216020   1.585   6.069   5.648
 5041SOL     OW16021   2.049   1.758   2.541
 5041SOL    HW116022   2.138   1.769   2.497
 5041SOL    HW216023   2.053   1.796   2.633
 5042SOL     OW16024   6.544   2.893   0.338
 5042SOL    HW116025   6.603   2.950   0.279
 5042SOL    HW216026   6.449   2.922   0.326
 5043SOL     OW16027   3.305   0.008   6.138
 5043SOL    HW116028   3.325   6.940   6.141
 5043SOL    HW216029   3.330   0.051   6.225
 5044SOL     OW16030   0.549   6.630   6.874
 5044SOL    HW116031   0.638   6.585   6.864
 5044SOL    HW216032   0.478   6.575   6.829
 5045SOL     OW16033   4.932   0.441   6.336
 5045SOL    HW116034   4.941   0.357   6.391
 5045SOL    HW216035   5.013   0.498   6.350
 5046SOL     OW16036   3.312   4.122   2.551
 5046SOL    HW116037   3.330   4.078   2.463
 5046SOL    HW216038   3.390   4.178   2.577
 5047SOL     OW16039   0.997   4.444   2.342
 5047SOL    HW116040   0.976   4.373   2.274
 5047SOL    HW216041   0.997   4.534   2.298
 5048SOL     OW16042   0.894   1.750   2.643
 5048SOL    HW116043   0.822   1.693   2.684
 5048SOL    HW216044   0.903   1.727   2.546
 5049SOL     OW16045   5.676   2.111   6.334
 5049SOL    HW116046   5.668   2.149   6.242
 5049SOL    HW216047   5.668   2.011   6.330
 5050SOL     OW16048   1.682   1.647   1.381
 5050SOL    HW116049   1.709   1.741   1.402
 5050SOL    HW216050   1.695   1.589   1.461
 5051SOL     OW16051   4.719   4.718   0.777
 5051SOL    HW116052   4.660   4.640   0.755
 5051SOL    HW216053   4.689   4.798   0.726
 5052SOL     OW16054   2.336   1.176   6.000
 5052SOL    HW116055   2.277   1.256   6.013
 5052SOL    HW216056   2.351   1.130   6.087
 5053SOL     OW16057   2.141   3.818   3.373
 5053SOL    HW116058   2.161   3.861   3.460
 5053SOL    HW216059   2.104   3.726   3.389
 5054SOL     OW16060   3.655   5.519   5.183
 5054SOL    HW116061   3.683   5.484   5.094
 5054SOL    HW216062   3.680   5.453   5.254
 5055SOL     OW16063   2.048   2.159   5.794
 5055SOL    HW116064   2.144   2.184   5.808
 5055SOL    HW216065   2.000   2.164   5.882
 5056SOL     OW16066   6.598   4.037   6.867
 5056SOL    HW116067   6.509   4.076   6.890
 5056SOL    HW216068   6.614   4.048   6.769
 5057SOL     OW16069   6.939   5.880   3.947
 5057SOL    HW116070   6.975   5.787   3.942
 5057SOL    HW216071   6.958   5.928   3.861
 5058SOL     OW16072   2.629   3.345   5.586
 5058SOL    HW116073   2.576   3.316   5.507
 5058SOL    HW216074   2.628   3.274   5.656
 5059SOL     OW16075   5.898   1.067   3.755
 5059SOL    HW116076   5.962   1.073   3.679
 5059SOL    HW216077   5.840   1.149   3.755
 5060SOL     OW16078   0.679   2.209   5.528
 5060SOL    HW116079   0.749   2.271   5.562
 5060SOL    HW216080   0.707   2.114   5.543
 5061SOL     OW16081   4.207   2.536   1.700
 5061SOL    HW116082   4.258   2.621   1.716
 5061SOL    HW216083   4.110   2.557   1.690
 5062SOL     OW16084   5.254   0.778   3.068
 5062SOL    HW116085   5.231   0.682   3.053
 5062SOL    HW216086   5.170   0.829   3.086
 5063SOL     OW16087   1.165   6.807   2.022
 5063SOL    HW116088   1.180   6.906   2.021
 5063SOL    HW216089   1.099   6.784   2.094
 5064SOL     OW16090   5.099   4.000   1.315
 5064SOL    HW116091   5.136   4.093   1.318
 5064SOL    HW216092   5.145   3.947   1.244
 5065SOL     OW16093   2.046   0.315   3.789
 5065SOL    HW116094   2.022   0.239   3.850
 5065SOL    HW216095   2.076   0.279   3.701
 5066SOL     OW16096   4.961   5.122   2.145
 5066SOL    HW116097   5.013   5.204   2.171
 5066SOL    HW216098   4.870   5.148   2.116
 5067SOL     OW16099   4.685   0.930   1.371
 5067SOL    HW116100   4.730   0.879   1.445
 5067SOL    HW216101   4.684   1.027   1.394
 5068SOL     OW16102   3.688   4.554   0.738
 5068SOL    HW116103   3.743   4.475   0.711
 5068SOL    HW216104   3.734   4.638   0.709
 5069SOL     OW16105   2.060   3.633   5.522
 5069SOL    HW116106   2.013   3.571   5.460
 5069SOL    HW216107   2.062   3.725   5.483
 5070SOL     OW16108   4.714   5.015   4.117
 5070SOL    HW116109   4.621   4.990   4.143
 5070SOL    HW216110   4.736   4.976   4.028
 5071SOL     OW16111   4.026   2.207   3.081
 5071SOL    HW116112   4.023   2.235   3.177
 5071SOL    HW216113   3.939   2.162   3.057
 5072SOL     OW16114   1.177   0.352   0.992
 5072SOL    HW116115   1.133   0.418   1.053
 5072SOL    HW216116   1.115   0.276   0.975
 5073SOL     OW16117   0.173   5.979   1.977
 5073SOL    HW116118   0.208   5.887   1.961
 5073SOL    HW216119   0.250   6.041   1.998
 5074SOL     OW16120   3.503   2.919   1.285
 5074SOL    HW116121   3.598   2.912   1.313
 5074SOL    HW216122   3.463   2.827   1.279
 5075SOL     OW16123   1.190   2.008   6.827
 5075SOL    HW116124   1.162   2.034   6.920
 5075SOL    HW216125   1.123   2.044   6.761
 5076SOL     OW16126   3.996   1.202   0.916
 5076SOL    HW116127   3.967   1.170   0.826
 5076SOL    HW216128   4.096   1.209   0.919
 5077SOL     OW16129   1.452   4.663   5.601
 5077SOL    HW116130   1.550   4.681   5.589
 5077SOL    HW216131   1.402   4.749   5.591
 5078SOL     OW16132   1.543   0.527   4.096
 5078SOL    HW116133   1.490   0.446   4.120
 5078SOL    HW216134   1.623   0.533   4.156
 5079SOL     OW16135   2.432   3.218   6.360
 5079SOL    HW116136   2.428   3.210   6.260
 5079SOL    HW216137   2.468   3.308   6.384
 5080SOL     OW16138   6.238   6.581   6.160
 5080SOL    HW116139   6.287   6.643   6.222
 5080SOL    HW216140   6.265   6.601   6.066
 5081SOL     OW16141   3.261   3.039   4.577
 5081SOL    HW116142   3.227   3.100   4.649
 5081SOL    HW216143   3.228   3.070   4.488
 5082SOL     OW16144   4.739   6.045   0.448
 5082SOL    HW116145   4.825   6.017   0.406
 5082SOL    HW216146   4.694   6.112   0.389
 5083SOL     OW16147   2.337   6.774   2.583
 5083SOL    HW116148   2.391   6.819   2.512
 5083SOL    HW216149   2.242   6.806   2.579
 5084SOL     OW16150   0.333   4.997   4.614
 5084SOL    HW116151   0.270   4.958   4.547
 5084SOL    HW216152   0.416   5.029   4.568
 5085SOL     OW16153   5.023   3.160   6.826
 5085SOL    HW116154   4.927   3.183   6.807
 5085SOL    HW216155   5.046   3.187   6.919
 5086SOL     OW16156   0.356   5.611   3.231
 5086SOL    HW116157   0.295   5.564   3.295
 5086SOL    HW216158   0.358   5.560   3.145
 5087SOL     OW16159   1.199   5.132   2.169
 5087SOL    HW116160   1.174   5.055   2.227
 5087SOL    HW216161   1.209   5.101   2.075
 5088SOL     OW16162   6.765   1.034   5.257
 5088SOL    HW116163   6.763   1.027   5.157
 5088SOL    HW216164   6.711   0.960   5.297
 5089SOL     OW16165   5.063   3.821   4.460
 5089SOL    HW116166   5.151   3.868   4.460
 5089SOL    HW216167   5.026   3.820   4.367
 5090SOL     OW16168   2.196   3.874   2.498
 5090SOL    HW116169   2.218   3.780   2.524
 5090SOL    HW216170   2.123   3.873   2.430
 5091SOL     OW16171   0.434   6.929   2.405
 5091SOL    HW116172   0.403   6.961   2.315
 5091SOL    HW216173   0.403   6.993   2.475
 5092SOL     OW16174   3.951   3.268   1.644
 5092SOL    HW116175   3.910   3.179   1.664
 5092SOL    HW216176   4.008   3.297   1.722
 5093SOL     OW16177   2.760   1.276   1.667
 5093SOL    HW116178   2.786   1.198   1.724
 5093SOL    HW216179   2.742   1.355   1.725
 5094SOL     OW16180   2.144   5.552   5.617
 5094SOL    HW116181   2.162   5.537   5.714
 5094SOL    HW216182   2.188   5.637   5.588
 5095SOL     OW16183   6.134   2.667   4.745
 5095SOL    HW116184   6.198   2.673   4.821
 5095SOL    HW216185   6.149   2.744   4.682
 5096SOL     OW16186   4.525   4.055   0.535
 5096SOL    HW116187   4.567   4.112   0.606
 5096SOL    HW216188   4.478   3.977   0.579
 5097SOL     OW16189   1.267   0.792   6.659
 5097SOL    HW116190   1.174   0.779   6.694
 5097SOL    HW216191   1.300   0.706   6.620
 5098SOL     OW16192   1.490   0.681   1.778
 5098SOL    HW116193   1.464   0.756   1.838
 5098SOL    HW216194   1.495   0.714   1.684
 5099SOL     OW16195   0.573   6.285   6.836
 5099SOL    HW116196   0.609   6.301   6.928
 5099SOL    HW216197   0.489   6.337   6.823
 5100SOL     OW16198   3.936   5.478   5.542
 5100SOL    HW116199   3.869   5.428   5.487
 5100SOL    HW216200   4.028   5.448   5.516
 5101SOL     OW16201   4.876   6.396   0.360
 5101SOL    HW116202   4.815   6.325   0.324
 5101SOL    HW216203   4.847   6.485   0.326
 5102SOL     OW16204   5.296   0.759   3.737
 5102SOL    HW116205   5.386   0.718   3.747
 5102SOL    HW216206   5.285   0.792   3.643
 5103SOL     OW16207   0.117   1.672   4.085
 5103SOL    HW116208   0.025   1.702   4.062
 5103SOL    HW216209   0.140   1.703   4.177
 5104SOL     OW16210   1.562   6.733   2.849
 5104SOL    HW116211   1.534   6.827   2.870
 5104SOL    HW216212   1.653   6.734   2.807
 5105SOL     OW16213   3.501   2.819   0.508
 5105SOL    HW116214   3.453   2.767   0.437
 5105SOL    HW216215   3.532   2.756   0.580
 5106SOL     OW16216   3.172   0.875   0.346
 5106SOL    HW116217   3.254   0.827   0.379
 5106SOL    HW216218   3.197   0.938   0.273
 5107SOL     OW16219   3.547   0.718   0.397
 5107SOL    HW116220   3.622   0.778   0.368
 5107SOL    HW216221   3.514   0.666   0.318
 5108SOL     OW16222   2.923   3.889   4.833
 5108SOL    HW116223   2.876   3.818   4.885
 5108SOL    HW216224   2.917   3.868   4.736
 5109SOL     OW16225   1.307   0.847   0.736
 5109SOL    HW116226   1.390   0.799   0.764
 5109SOL    HW216227   1.290   0.829   0.639
 5110SOL     OW16228   0.614   0.543   6.718
 5110SOL    HW116229   0.611   0.444   6.714
 5110SOL    HW216230   0.666   0.579   6.640
 5111SOL     OW16231   2.620   1.379   5.429
 5111SOL    HW116232   2.542   1.317   5.438
 5111SOL    HW216233   2.652   1.377   5.334
 5112SOL     OW16234   0.766   6.747   2.575
 5112SOL    HW116235   0.764   6.664   2.519
 5112SOL    HW216236   0.849   6.747   2.631
 5113SOL     OW16237   2.228   6.602   1.608
 5113SOL    HW116238   2.265   6.535   1.545
 5113SOL    HW216239   2.160   6.658   1.561
 5114SOL     OW16240   3.291   1.879   0.372
 5114SOL    HW116241   3.283   1.786   0.407
 5114SOL    HW216242   3.244   1.886   0.284
 5115SOL     OW16243   2.069   5.307   4.609
 5115SOL    HW116244   2.160   5.321   4.649
 5115SOL    HW216245   2.003   5.288   4.682
 5116SOL     OW16246   5.684   6.640   6.599
 5116SOL    HW116247   5.628   6.692   6.534
 5116SOL    HW216248   5.761   6.598   6.552
 5117SOL     OW16249   2.998   4.936   5.012
 5117SOL    HW116250   2.920   4.891   5.055
 5117SOL    HW216251   2.997   4.917   4.914
 5118SOL     OW16252   5.095   0.535   0.502
 5118SOL    HW116253   5.061   0.549   0.409
 5118SOL    HW216254   5.173   0.596   0.519
 5119SOL     OW16255   5.347   1.084   1.873
 5119SOL    HW116256   5.309   0.994   1.894
 5119SOL    HW216257   5.408   1.113   1.947
 5120SOL     OW16258   3.928   1.514   3.945
 5120SOL    HW116259   3.967   1.422   3.953
 5120SOL    HW216260   3.988   1.570   3.888
 5121SOL     OW16261   2.523   1.821   0.038
 5121SOL    HW116262   2.440   1.876   0.048
 5121SOL    HW216263   2.536   1.795   6.973
 5122SOL     OW16264   3.212   0.053   3.303
 5122SOL    HW116265   3.146   0.124   3.327
 5122SOL    HW216266   3.268   0.030   3.383
 5123SOL     OW16267   5.593   1.633   5.416
 5123SOL    HW116268   5.500   1.605   5.436
 5123SOL    HW216269   5.617   1.606   5.323
 5124SOL     OW16270   3.005   5.161   4.781
 5124SOL    HW116271   2.966   5.153   4.872
 5124SOL    HW216272   3.103   5.181   4.788
 5125SOL     OW16273   6.546   3.256   3.930
 5125SOL    HW116274   6.525   3.159   3.940
 5125SOL    HW216275   6.518   3.305   4.013
 5126SOL     OW16276   6.120   5.387   5.831
 5126SOL    HW116277   6.092   5.434   5.915
 5126SOL    HW216278   6.095   5.291   5.837
 5127SOL     OW16279   0.389   3.797   0.200
 5127SOL    HW116280   0.377   3.816   0.102
 5127SOL    HW216281   0.303   3.764   0.238
 5128SOL     OW16282   6.982   0.586   6.823
 5128SOL    HW116283   0.002   0.524   6.884
 5128SOL    HW216284   6.934   0.533   6.754
 5129SOL     OW16285   4.631   0.361   3.017
 5129SOL    HW116286   4.644   0.272   3.061
 5129SOL    HW216287   4.597   0.348   2.924
 5130SOL     OW16288   1.430   5.549   3.991
 5130SOL    HW116289   1.345   5.552   4.043
 5130SOL    HW216290   1.423   5.478   3.921
 5131SOL     OW16291   2.753   5.026   3.845
 5131SOL    HW116292   2.671   5.003   3.898
 5131SOL    HW216293   2.823   5.062   3.907
 5132SOL     OW16294   3.599   1.866   6.290
 5132SOL    HW116295   3.562   1.906   6.206
 5132SOL    HW216296   3.686   1.822   6.270
 5133SOL     OW16297   2.336   5.147   6.680
 5133SOL    HW116298   2.426   5.139   6.723
 5133SOL    HW216299   2.324   5.072   6.614
 5134SOL     OW16300   6.529   0.848   2.032
 5134SOL    HW116301   6.624   0.820   2.048
 5134SOL    HW216302   6.491   0.885   2.117
 5135SOL     OW16303   4.897   3.549   4.450
 5135SOL    HW116304   4.902   3.572   4.353
 5135SOL    HW216305   4.926   3.627   4.504
 5136SOL     OW16306   5.310   0.676   6.528
 5136SOL    HW116307   5.246   0.633   6.465
 5136SOL    HW216308   5.287   0.649   6.622
 5137SOL     OW16309   5.410   3.298   5.279
 5137SOL    HW116310   5.433   3.286   5.182
 5137SOL    HW216311   5.313   3.278   5.292
 5138SOL     OW16312   3.935   4.012   4.549
 5138SOL    HW116313   3.842   4.004   4.513
 5138SOL    HW216314   3.998   4.034   4.474
 5139SOL     OW16315   0.728   0.146   4.520
 5139SOL    HW116316   0.671   0.185   4.447
 5139SOL    HW216317   0.721   0.047   4.518
 5140SOL     OW16318   3.954   1.713   5.835
 5140SOL    HW116319   3.863   1.735   5.869
 5140SOL    HW216320   4.005   1.662   5.905
 5141SOL     OW16321   6.582   3.445   1.522
 5141SOL    HW116322   6.558   3.436   1.619
 5141SOL    HW216323   6.517   3.393   1.467
 5142SOL     OW16324   5.558   6.568   4.115
 5142SOL    HW116325   5.640   6.511   4.110
 5142SOL    HW216326   5.570   6.648   4.055
 5143SOL     OW16327   0.571   4.214   4.476
 5143SOL    HW116328   0.600   4.309   4.468
 5143SOL    HW216329   0.543   4.180   4.386
 5144SOL     OW16330   1.395   5.002   5.645
 5144SOL    HW116331   1.297   4.986   5.631
 5144SOL    HW216332   1.435   5.039   5.561
 5145SOL     OW16333   3.532   5.903   6.176
 5145SOL    HW116334   3.613   5.928   6.230
 5145SOL    HW216335   3.488   5.985   6.141
 5146SOL     OW16336   3.371   3.778   5.266
 5146SOL    HW116337   3.469   3.781   5.247
 5146SOL    HW216338   3.332   3.870   5.258
 5147SOL     OW16339   6.333   5.820   4.030
 5147SOL    HW116340   6.430   5.817   4.008
 5147SOL    HW216341   6.295   5.728   4.024
 5148SOL     OW16342   0.020   1.151   2.578
 5148SOL    HW116343   0.099   1.211   2.566
 5148SOL    HW216344   0.039   1.062   2.536
 5149SOL     OW16345   5.963   5.541   4.633
 5149SOL    HW116346   6.040   5.481   4.653
 5149SOL    HW216347   5.936   5.589   4.717
 5150SOL     OW16348   2.094   5.034   3.757
 5150SOL    HW116349   2.030   5.094   3.805
 5150SOL    HW216350   2.044   4.958   3.715
 5151SOL     OW16351   0.347   3.878   1.930
 5151SOL    HW116352   0.343   3.785   1.966
 5151SOL    HW216353   0.440   3.898   1.899
 5152SOL     OW16354   1.979   5.241   0.023
 5152SOL    HW116355   1.906   5.264   0.087
 5152SOL    HW216356   1.997   5.320   6.994
 5153SOL     OW16357   0.589   1.934   1.097
 5153SOL    HW116358   0.541   1.853   1.132
 5153SOL    HW216359   0.624   1.987   1.174
 5154SOL     OW16360   1.201   2.680   6.055
 5154SOL    HW116361   1.206   2.675   5.955
 5154SOL    HW216362   1.239   2.767   6.086
 5155SOL     OW16363   3.800   0.128   2.068
 5155SOL    HW116364   3.824   0.090   1.979
 5155SOL    HW216365   3.848   0.077   2.140
 5156SOL     OW16366   5.704   4.549   5.367
 5156SOL    HW116367   5.731   4.580   5.458
 5156SOL    HW216368   5.604   4.543   5.363
 5157SOL     OW16369   3.071   1.924   3.117
 5157SOL    HW116370   3.063   2.023   3.121
 5157SOL    HW216371   3.050   1.892   3.024
 5158SOL     OW16372   4.233   2.219   1.153
 5158SOL    HW116373   4.276   2.307   1.173
 5158SOL    HW216374   4.285   2.145   1.197
 5159SOL     OW16375   5.963   3.178   5.413
 5159SOL    HW116376   5.919   3.259   5.449
 5159SOL    HW216377   5.895   3.106   5.398
 5160SOL     OW16378   7.010   4.314   3.130
 5160SOL    HW116379   6.914   4.311   3.158
 5160SOL    HW216380   7.017   4.317   3.031
 5161SOL     OW16381   2.076   3.576   0.125
 5161SOL    HW116382   2.130   3.520   0.189
 5161SOL    HW216383   1.979   3.556   0.137
 5162SOL     OW16384   0.851   5.391   2.763
 5162SOL    HW116385   0.752   5.382   2.762
 5162SOL    HW216386   0.886   5.387   2.669
 5163SOL     OW16387   2.975   6.902   0.601
 5163SOL    HW116388   2.890   6.955   0.595
 5163SOL    HW216389   3.053   6.961   0.580
 5164SOL     OW16390   3.727   2.973   0.409
 5164SOL    HW116391   3.645   2.924   0.438
 5164SOL    HW216392   3.716   3.004   0.315
 5165SOL     OW16393   0.990   3.824   6.495
 5165SOL    HW116394   0.975   3.881   6.575
 5165SOL    HW216395   1.060   3.866   6.437
 5166SOL     OW16396   2.156   5.190   2.339
 5166SOL    HW116397   2.189   5.195   2.433
 5166SOL    HW216398   2.218   5.241   2.279
 5167SOL     OW16399   6.335   4.238   5.700
 5167SOL    HW116400   6.421   4.230   5.649
 5167SOL    HW216401   6.275   4.162   5.676
 5168SOL     OW16402   5.212   3.558   2.504
 5168SOL    HW116403   5.114   3.539   2.506
 5168SOL    HW216404   5.262   3.477   2.532
 5169SOL     OW16405   3.676   2.131   3.252
 5169SOL    HW116406   3.619   2.213   3.248
 5169SOL    HW216407   3.619   2.050   3.265
 5170SOL     OW16408   1.222   3.558   4.811
 5170SOL    HW116409   1.158   3.615   4.759
 5170SOL    HW216410   1.275   3.616   4.873
 5171SOL     OW16411   0.420   3.728   6.128
 5171SOL    HW116412   0.439   3.809   6.073
 5171SOL    HW216413   0.399   3.756   6.222
 5172SOL     OW16414   1.823   3.515   2.789
 5172SOL    HW116415   1.766   3.468   2.722
 5172SOL    HW216416   1.799   3.484   2.881
 5173SOL     OW16417   4.045   5.241   5.387
 5173SOL    HW116418   4.009   5.251   5.294
 5173SOL    HW216419   3.981   5.187   5.441
 5174SOL     OW16420   2.247   5.037   3.252
 5174SOL    HW116421   2.148   5.031   3.266
 5174SOL    HW216422   2.266   5.038   3.154
 5175SOL     OW16423   2.614   3.902   6.276
 5175SOL    HW116424   2.621   3.824   6.215
 5175SOL    HW216425   2.602   3.870   6.370
 5176SOL     OW16426   5.090   3.826   6.925
 5176SOL    HW116427   5.052   3.734   6.929
 5176SOL    HW216428   5.131   3.841   6.835
 5177SOL     OW16429   5.034   6.784   0.782
 5177SOL    HW116430   4.943   6.741   0.777
 5177SOL    HW216431   5.024   6.883   0.779
 5178SOL     OW16432   1.290   4.105   2.389
 5178SOL    HW116433   1.195   4.089   2.362
 5178SOL    HW216434   1.321   4.031   2.448
 5179SOL     OW16435   4.719   4.463   3.990
 5179SOL    HW116436   4.698   4.560   3.972
 5179SOL    HW216437   4.683   4.437   4.079
 5180SOL     OW16438   3.595   1.598   1.373
 5180SOL    HW116439   3.514   1.652   1.349
 5180SOL    HW216440   3.634   1.633   1.458
 5181SOL     OW16441   5.766   0.481   2.043
 5181SOL    HW116442   5.680   0.531   2.035
 5181SOL    HW216443   5.833   0.521   1.980
 5182SOL     OW16444   4.473   4.603   2.141
 5182SOL    HW116445   4.565   4.635   2.116
 5182SOL    HW216446   4.480   4.529   2.207
 5183SOL     OW16447   3.305   1.762   3.045
 5183SOL    HW116448   3.242   1.836   3.070
 5183SOL    HW216449   3.399   1.791   3.063
 5184SOL     OW16450   1.379   2.706   3.604
 5184SOL    HW116451   1.425   2.690   3.516
 5184SOL    HW216452   1.282   2.684   3.595
 5185SOL     OW16453   5.128   1.082   2.805
 5185SOL    HW116454   5.120   1.079   2.705
 5185SOL    HW216455   5.220   1.054   2.832
 5186SOL     OW16456   6.104   1.319   6.360
 5186SOL    HW116457   6.154   1.381   6.300
 5186SOL    HW216458   6.016   1.296   6.319
 5187SOL     OW16459   1.472   6.091   5.335
 5187SOL    HW116460   1.380   6.054   5.322
 5187SOL    HW216461   1.471   6.189   5.318
 5188SOL     OW16462   6.555   5.781   1.539
 5188SOL    HW116463   6.653   5.767   1.526
 5188SOL    HW216464   6.535   5.880   1.541
 5189SOL     OW16465   4.715   5.979   0.708
 5189SOL    HW116466   4.620   5.979   0.737
 5189SOL    HW216467   4.720   6.000   0.610
 5190SOL     OW16468   0.714   3.532   4.254
 5190SOL    HW116469   0.623   3.495   4.238
 5190SOL    HW216470   0.782   3.461   4.235
 5191SOL     OW16471   3.197   6.540   2.231
 5191SOL    HW116472   3.222   6.473   2.301
 5191SOL    HW216473   3.202   6.632   2.270
 5192SOL     OW16474   1.640   5.949   1.466
 5192SOL    HW116475   1.627   5.849   1.463
 5192SOL    HW216476   1.576   5.988   1.532
 5193SOL     OW16477   5.768   5.516   5.739
 5193SOL    HW116478   5.823   5.591   5.704
 5193SOL    HW216479   5.673   5.546   5.748
 5194SOL     OW16480   3.944   2.547   0.096
 5194SOL    HW116481   3.927   2.466   0.040
 5194SOL    HW216482   3.858   2.588   0.124
 5195SOL     OW16483   0.196   0.446   4.199
 5195SOL    HW116484   0.286   0.488   4.186
 5195SOL    HW216485   0.208   0.349   4.221
 5196SOL     OW16486   4.700   0.102   2.037
 5196SOL    HW116487   4.750   0.084   1.952
 5196SOL    HW216488   4.713   0.025   2.100
 5197SOL     OW16489   2.246   3.875   6.322
 5197SOL    HW116490   2.252   3.780   6.352
 5197SOL    HW216491   2.162   3.916   6.359
 5198SOL     OW16492   4.723   6.081   3.172
 5198SOL    HW116493   4.812   6.077   3.127
 5198SOL    HW216494   4.657   6.026   3.121
 5199SOL     OW16495   1.069   6.104   0.572
 5199SOL    HW116496   1.015   6.026   0.541
 5199SOL    HW216497   1.145   6.072   0.628
 5200SOL     OW16498   6.873   3.978   5.246
 5200SOL    HW116499   6.791   4.030   5.270
 5200SOL    HW216500   6.847   3.891   5.203
 5201SOL     OW16501   0.396   6.488   2.971
 5201SOL    HW116502   0.426   6.580   2.948
 5201SOL    HW216503   0.473   6.424   2.960
 5202SOL     OW16504   4.946   2.849   6.211
 5202SOL    HW116505   4.929   2.837   6.308
 5202SOL    HW216506   4.986   2.766   6.173
 5203SOL     OW16507   2.122   2.175   6.524
 5203SOL    HW116508   2.040   2.201   6.473
 5203SOL    HW216509   2.128   2.075   6.527
 5204SOL     OW16510   3.480   5.098   6.486
 5204SOL    HW116511   3.563   5.136   6.445
 5204SOL    HW216512   3.400   5.125   6.433
 5205SOL     OW16513   0.698   6.742   0.591
 5205SOL    HW116514   0.779   6.701   0.550
 5205SOL    HW216515   0.696   6.840   0.569
 5206SOL     OW16516   0.076   4.376   5.241
 5206SOL    HW116517   0.037   4.306   5.181
 5206SOL    HW216518   0.110   4.333   5.325
 5207SOL     OW16519   1.030   6.158   3.741
 5207SOL    HW116520   1.097   6.227   3.713
 5207SOL    HW216521   1.025   6.154   3.841
 5208SOL     OW16522   3.127   1.790   6.442
 5208SOL    HW116523   3.084   1.879   6.427
 5208SOL    HW216524   3.226   1.803   6.455
 5209SOL     OW16525   5.356   6.203   3.657
 5209SOL    HW116526   5.450   6.187   3.687
 5209SOL    HW216527   5.354   6.214   3.557
 5210SOL     OW16528   5.459   2.151   5.444
 5210SOL    HW116529   5.419   2.147   5.535
 5210SOL    HW216530   5.514   2.235   5.435
 5211SOL     OW16531   3.513   2.911   4.563
 5211SOL    HW116532   3.549   2.881   4.652
 5211SOL    HW216533   3.417   2.936   4.573
 5212SOL     OW16534   6.037   1.882   0.508
 5212SOL    HW116535   6.086   1.828   0.440
 5212SOL    HW216536   6.053   1.845   0.599
 5213SOL     OW16537   4.456   3.921   6.993
 5213SOL    HW116538   4.415   4.000   0.009
 5213SOL    HW216539   4.530   3.884   0.019
 5214SOL     OW16540   4.823   1.566   5.695
 5214SOL    HW116541   4.728   1.567   5.725
 5214SOL    HW216542   4.846   1.476   5.657
 5215SOL     OW16543   5.964   5.108   3.270
 5215SOL    HW116544   6.020   5.187   3.294
 5215SOL    HW216545   6.020   5.040   3.223
 5216SOL     OW16546   4.513   5.294   1.613
 5216SOL    HW116547   4.523   5.222   1.682
 5216SOL    HW216548   4.429   5.279   1.561
 5217SOL     OW16549   3.170   5.421   4.505
 5217SOL    HW116550   3.100   5.399   4.437
 5217SOL    HW216551   3.248   5.360   4.492
 5218SOL     OW16552   1.136   0.607   4.025
 5218SOL    HW116553   1.124   0.516   3.987
 5218SOL    HW216554   1.138   0.602   4.125
 5219SOL     OW16555   4.449   0.774   5.798
 5219SOL    HW116556   4.444   0.792   5.700
 5219SOL    HW216557   4.520   0.831   5.839
 5220SOL     OW16558   1.396   5.739   2.491
 5220SOL    HW116559   1.490   5.722   2.464
 5220SOL    HW216560   1.338   5.744   2.409
 5221SOL     OW16561   5.464   1.955   3.778
 5221SOL    HW116562   5.408   2.037   3.794
 5221SOL    HW216563   5.413   1.892   3.719
 5222SOL     OW16564   3.424   5.954   3.345
 5222SOL    HW116565   3.406   5.855   3.350
 5222SOL    HW216566   3.442   5.979   3.250
 5223SOL     OW16567   5.676   1.448   0.949
 5223SOL    HW116568   5.729   1.504   0.885
 5223SOL    HW216569   5.729   1.434   1.033
 5224SOL     OW16570   0.147   2.551   4.050
 5224SOL    HW116571   0.107   2.607   3.978
 5224SOL    HW216572   0.098   2.565   4.136
 5225SOL     OW16573   0.472   0.132   2.841
 5225SOL    HW116574   0.376   0.108   2.860
 5225SOL    HW216575   0.524   0.049   2.823
 5226SOL     OW16576   0.170   5.603   4.964
 5226SOL    HW116577   0.099   5.629   4.899
 5226SOL    HW216578   0.249   5.663   4.954
 5227SOL     OW16579   1.323   3.821   3.975
 5227SOL    HW116580   1.406   3.877   3.967
 5227SOL    HW216581   1.281   3.811   3.885
 5228SOL     OW16582   6.658   1.928   1.242
 5228SOL    HW116583   6.649   1.843   1.192
 5228SOL    HW216584   6.750   1.966   1.229
 5229SOL     OW16585   2.053   4.997   0.246
 5229SOL    HW116586   2.148   4.966   0.249
 5229SOL    HW216587   2.048   5.083   0.195
 5230SOL     OW16588   0.660   6.279   0.832
 5230SOL    HW116589   0.612   6.243   0.752
 5230SOL    HW216590   0.700   6.203   0.884
 5231SOL     OW16591   4.096   3.341   5.009
 5231SOL    HW116592   4.024   3.403   5.037
 5231SOL    HW216593   4.169   3.340   5.078
 5232SOL     OW16594   3.274   2.158   5.612
 5232SOL    HW116595   3.190   2.120   5.573
 5232SOL    HW216596   3.310   2.228   5.550
 5233SOL     OW16597   6.015   0.609   1.983
 5233SOL    HW116598   5.970   0.659   1.909
 5233SOL    HW216599   6.110   0.640   1.992
 5234SOL     OW16600   2.681   0.664   0.087
 5234SOL    HW116601   2.632   0.628   0.167
 5234SOL    HW216602   2.642   0.625   0.004
 5235SOL     OW16603   1.911   3.060   1.192
 5235SOL    HW116604   1.828   3.116   1.181
 5235SOL    HW216605   1.966   3.098   1.266
 5236SOL     OW16606   5.812   4.108   2.649
 5236SOL    HW116607   5.737   4.052   2.612
 5236SOL    HW216608   5.805   4.201   2.611
 5237SOL     OW16609   1.904   0.530   5.080
 5237SOL    HW116610   1.831   0.571   5.026
 5237SOL    HW216611   1.935   0.594   5.150
 5238SOL     OW16612   1.548   4.650   0.768
 5238SOL    HW116613   1.570   4.743   0.796
 5238SOL    HW216614   1.626   4.590   0.786
 5239SOL     OW16615   3.961   3.401   4.516
 5239SOL    HW116616   4.033   3.454   4.561
 5239SOL    HW216617   3.891   3.463   4.482
 5240SOL     OW16618   3.158   2.072   6.538
 5240SOL    HW116619   3.246   2.111   6.563
 5240SOL    HW216620   3.098   2.144   6.502
 5241SOL     OW16621   0.612   5.416   5.768
 5241SOL    HW116622   0.574   5.428   5.676
 5241SOL    HW216623   0.710   5.436   5.767
 5242SOL     OW16624   6.315   6.345   6.419
 5242SOL    HW116625   6.242   6.319   6.355
 5242SOL    HW216626   6.293   6.310   6.511
 5243SOL     OW16627   1.226   5.588   1.746
 5243SOL    HW116628   1.230   5.488   1.751
 5243SOL    HW216629   1.159   5.616   1.678
 5244SOL     OW16630   3.156   4.173   5.912
 5244SOL    HW116631   3.184   4.114   5.988
 5244SOL    HW216632   3.069   4.217   5.934
 5245SOL     OW16633   5.069   4.376   0.263
 5245SOL    HW116634   5.103   4.355   0.355
 5245SOL    HW216635   5.134   4.436   0.217
 5246SOL     OW16636   5.722   4.394   2.638
 5246SOL    HW116637   5.766   4.483   2.648
 5246SOL    HW216638   5.665   4.394   2.556
 5247SOL     OW16639   1.094   6.848   0.400
 5247SOL    HW116640   1.172   6.892   0.445
 5247SOL    HW216641   1.060   6.774   0.458
 5248SOL     OW16642   5.720   0.650   4.442
 5248SOL    HW116643   5.736   0.748   4.453
 5248SOL    HW216644   5.803   0.606   4.406
 5249SOL     OW16645   6.798   4.775   4.575
 5249SOL    HW116646   6.853   4.858   4.565
 5249SOL    HW216647   6.848   4.708   4.631
 5250SOL     OW16648   0.662   1.138   5.789
 5250SOL    HW116649   0.732   1.069   5.809
 5250SOL    HW216650   0.700   1.229   5.806
 5251SOL     OW16651   0.707   3.178   0.539
 5251SOL    HW116652   0.699   3.244   0.613
 5251SOL    HW216653   0.800   3.179   0.503
 5252SOL     OW16654   2.503   5.827   0.871
 5252SOL    HW116655   2.440   5.760   0.910
 5252SOL    HW216656   2.462   5.867   0.789
 5253SOL     OW16657   5.477   3.580   4.771
 5253SOL    HW116658   5.469   3.572   4.870
 5253SOL    HW216659   5.392   3.616   4.733
 5254SOL     OW16660   4.770   1.098   3.070
 5254SOL    HW116661   4.783   1.054   2.981
 5254SOL    HW216662   4.796   1.194   3.063
 5255SOL     OW16663   4.275   0.621   5.997
 5255SOL    HW116664   4.328   0.700   5.964
 5255SOL    HW216665   4.307   0.595   6.088
 5256SOL     OW16666   4.589   0.929   3.677
 5256SOL    HW116667   4.658   0.975   3.621
 5256SOL    HW216668   4.621   0.837   3.700
 5257SOL     OW16669   4.518   6.711   1.968
 5257SOL    HW116670   4.508   6.637   2.034
 5257SOL    HW216671   4.476   6.795   2.004
 5258SOL     OW16672   4.986   3.258   1.286
 5258SOL    HW116673   5.081   3.250   1.316
 5258SOL    HW216674   4.979   3.330   1.216
 5259SOL     OW16675   4.712   5.974   1.057
 5259SOL    HW116676   4.807   5.954   1.034
 5259SOL    HW216677   4.671   5.894   1.103
 5260SOL     OW16678   5.366   3.539   0.864
 5260SOL    HW116679   5.367   3.633   0.831
 5260SOL    HW216680   5.457   3.500   0.853
 5261SOL     OW16681   2.021   3.246   6.878
 5261SOL    HW116682   1.951   3.308   6.913
 5261SOL    HW216683   2.097   3.242   6.942
 5262SOL     OW16684   2.719   0.513   2.773
 5262SOL    HW116685   2.718   0.413   2.767
 5262SOL    HW216686   2.796   0.549   2.721
 5263SOL     OW16687   1.121   0.949   5.477
 5263SOL    HW116688   1.024   0.933   5.460
 5263SOL    HW216689   1.174   0.922   5.396
 5264SOL     OW16690   5.988   0.882   2.597
 5264SOL    HW116691   5.916   0.824   2.633
 5264SOL    HW216692   6.042   0.920   2.672
 5265SOL     OW16693   5.129   4.437   3.282
 5265SOL    HW116694   5.120   4.460   3.185
 5265SOL    HW216695   5.085   4.349   3.299
 5266SOL     OW16696   2.936   0.143   1.951
 5266SOL    HW116697   2.841   0.110   1.949
 5266SOL    HW216698   2.991   0.081   2.006
 5267SOL     OW16699   4.789   4.595   5.780
 5267SOL    HW116700   4.787   4.688   5.816
 5267SOL    HW216701   4.772   4.597   5.681
 5268SOL     OW16702   5.991   6.836   6.418
 5268SOL    HW116703   6.029   6.882   6.498
 5268SOL    HW216704   6.020   6.884   6.335
 5269SOL     OW16705   2.049   6.913   4.285
 5269SOL    HW116706   2.080   6.980   4.217
 5269SOL    HW216707   2.119   6.842   4.295
 5270SOL     OW16708   5.200   1.675   2.149
 5270SOL    HW116709   5.119   1.620   2.168
 5270SOL    HW216710   5.187   1.767   2.186
 5271SOL     OW16711   5.533   4.813   5.150
 5271SOL    HW116712   5.531   4.791   5.052
 5271SOL    HW216713   5.621   4.786   5.189
 5272SOL     OW16714   1.742   6.370   2.257
 5272SOL    HW116715   1.840   6.387   2.269
 5272SOL    HW216716   1.721   6.361   2.160
 5273SOL     OW16717   6.830   3.068   3.266
 5273SOL    HW116718   6.864   3.078   3.173
 5273SOL    HW216719   6.767   3.142   3.288
 5274SOL     OW16720   6.431   6.265   2.380
 5274SOL    HW116721   6.459   6.350   2.335
 5274SOL    HW216722   6.510   6.204   2.387
 5275SOL     OW16723   3.441   2.125   6.642
 5275SOL    HW116724   3.538   2.149   6.632
 5275SOL    HW216725   3.405   2.166   6.726
 5276SOL     OW16726   1.499   0.682   1.218
 5276SOL    HW116727   1.470   0.602   1.271
 5276SOL    HW216728   1.510   0.656   1.122
 5277SOL     OW16729   1.732   2.537   3.252
 5277SOL    HW116730   1.795   2.608   3.221
 5277SOL    HW216731   1.781   2.449   3.255
 5278SOL     OW16732   4.507   0.159   4.351
 5278SOL    HW116733   4.502   0.099   4.271
 5278SOL    HW216734   4.602   0.184   4.368
 5279SOL     OW16735   1.416   5.252   6.799
 5279SOL    HW116736   1.433   5.164   6.843
 5279SOL    HW216737   1.380   5.237   6.707
 5280SOL     OW16738   3.159   6.371   5.501
 5280SOL    HW116739   3.238   6.347   5.557
 5280SOL    HW216740   3.119   6.456   5.536
 5281SOL     OW16741   0.773   1.445   3.028
 5281SOL    HW116742   0.871   1.462   3.036
 5281SOL    HW216743   0.723   1.505   3.089
 5282SOL     OW16744   2.290   1.511   3.222
 5282SOL    HW116745   2.278   1.556   3.310
 5282SOL    HW216746   2.247   1.420   3.225
 5283SOL     OW16747   3.430   6.919   2.015
 5283SOL    HW116748   3.512   6.863   2.023
 5283SOL    HW216749   3.436   6.996   2.078
 5284SOL     OW16750   5.223   3.060   2.972
 5284SOL    HW116751   5.303   3.097   2.926
 5284SOL    HW216752   5.141   3.106   2.939
 5285SOL     OW16753   1.521   4.201   4.481
 5285SOL    HW116754   1.497   4.199   4.384
 5285SOL    HW216755   1.589   4.273   4.496
 5286SOL     OW16756   0.202   3.854   1.287
 5286SOL    HW116757   0.195   3.769   1.235
 5286SOL    HW216758   0.116   3.904   1.279
 5287SOL     OW16759   1.563   6.095   1.676
 5287SOL    HW116760   1.589   6.191   1.688
 5287SOL    HW216761   1.475   6.090   1.628
 5288SOL     OW16762   3.769   0.843   2.399
 5288SOL    HW116763   3.688   0.898   2.419
 5288SOL    HW216764   3.765   0.811   2.305
 5289SOL     OW16765   1.626   5.472   6.352
 5289SOL    HW116766   1.677   5.453   6.436
 5289SOL    HW216767   1.641   5.398   6.286
 5290SOL     OW16768   1.515   4.289   5.337
 5290SOL    HW116769   1.489   4.386   5.338
 5290SOL    HW216770   1.595   4.275   5.395
 5291SOL     OW16771   3.001   5.167   5.573
 5291SOL    HW116772   2.971   5.169   5.669
 5291SOL    HW216773   2.956   5.241   5.523
 5292SOL     OW16774   6.324   5.119   6.952
 5292SOL    HW116775   6.277   5.204   6.930
 5292SOL    HW216776   6.420   5.126   6.923
 5293SOL     OW16777   1.344   0.245   4.138
 5293SOL    HW116778   1.293   0.284   4.061
 5293SOL    HW216779   1.281   0.194   4.197
 5294SOL     OW16780   6.349   3.057   4.359
 5294SOL    HW116781   6.313   2.967   4.336
 5294SOL    HW216782   6.442   3.066   4.324
 5295SOL     OW16783   4.133   1.074   2.417
 5295SOL    HW116784   4.232   1.081   2.402
 5295SOL    HW216785   4.116   1.026   2.502
 5296SOL     OW16786   2.548   5.241   0.687
 5296SOL    HW116787   2.555   5.242   0.587
 5296SOL    HW216788   2.513   5.152   0.716
 5297SOL     OW16789   3.146   2.543   0.954
 5297SOL    HW116790   3.082   2.472   0.981
 5297SOL    HW216791   3.096   2.620   0.915
 5298SOL     OW16792   1.094   5.645   6.860
 5298SOL    HW116793   1.011   5.669   6.808
 5298SOL    HW216794   1.123   5.553   6.835
 5299SOL     OW16795   2.595   2.531   0.784
 5299SOL    HW116796   2.550   2.476   0.713
 5299SOL    HW216797   2.554   2.511   0.873
 5300SOL     OW16798   0.935   6.384   1.423
 5300SOL    HW116799   0.842   6.410   1.399
 5300SOL    HW216800   0.936   6.293   1.464
 5301SOL     OW16801   3.574   2.555   6.313
 5301SOL    HW116802   3.622   2.485   6.367
 5301SOL    HW216803   3.615   2.644   6.331
 5302SOL     OW16804   5.681   5.514   3.951
 5302SOL    HW116805   5.618   5.474   3.885
 5302SOL    HW216806   5.721   5.597   3.912
 5303SOL     OW16807   6.687   5.937   3.102
 5303SOL    HW116808   6.786   5.935   3.096
 5303SOL    HW216809   6.660   5.978   3.189
 5304SOL     OW16810   5.313   1.430   6.361
 5304SOL    HW116811   5.242   1.416   6.430
 5304SOL    HW216812   5.399   1.392   6.394
 5305SOL     OW16813   0.843   5.305   3.050
 5305SOL    HW116814   0.930   5.327   3.093
 5305SOL    HW216815   0.836   5.352   2.961
 5306SOL     OW16816   0.464   4.269   5.048
 5306SOL    HW116817   0.510   4.322   5.119
 5306SOL    HW216818   0.521   4.266   4.966
 5307SOL     OW16819   4.486   0.497   0.707
 5307SOL    HW116820   4.405   0.555   0.712
 5307SOL    HW216821   4.461   0.403   0.732
 5308SOL     OW16822   0.815   6.261   3.623
 5308SOL    HW116823   0.737   6.198   3.627
 5308SOL    HW216824   0.894   6.220   3.668
 5309SOL     OW16825   4.207   4.456   1.411
 5309SOL    HW116826   4.170   4.522   1.347
 5309SOL    HW216827   4.163   4.467   1.500
 5310SOL     OW16828   6.233   3.607   2.061
 5310SOL    HW116829   6.258   3.652   2.147
 5310SOL    HW216830   6.174   3.668   2.008
 5311SOL     OW16831   6.549   5.857   0.408
 5311SOL    HW116832   6.572   5.902   0.495
 5311SOL    HW216833   6.632   5.819   0.367
 5312SOL     OW16834   0.320   5.284   1.872
 5312SOL    HW116835   0.272   5.305   1.787
 5312SOL    HW216836   0.413   5.255   1.852
 5313SOL     OW16837   1.811   4.377   6.409
 5313SOL    HW116838   1.840   4.405   6.318
 5313SOL    HW216839   1.760   4.451   6.452
 5314SOL     OW16840   3.322   6.520   6.893
 5314SOL    HW116841   3.388   6.591   6.868
 5314SOL    HW216842   3.365   6.457   6.958
 5315SOL     OW16843   4.911   3.571   1.394
 5315SOL    HW116844   4.965   3.516   1.330
 5315SOL    HW216845   4.814   3.563   1.370
 5316SOL     OW16846   0.176   4.699   5.024
 5316SOL    HW116847   0.116   4.685   5.103
 5316SOL    HW216848   0.263   4.736   5.054
 5317SOL     OW16849   6.637   0.086   5.070
 5317SOL    HW116850   6.587   0.011   5.028
 5317SOL    HW216851   6.627   0.169   5.014
 5318SOL     OW16852   6.623   2.430   6.334
 5318SOL    HW116853   6.533   2.403   6.299
 5318SOL    HW216854   6.687   2.439   6.259
 5319SOL     OW16855   4.225   6.767   6.752
 5319SOL    HW116856   4.224   6.670   6.778
 5319SOL    HW216857   4.227   6.823   6.835
 5320SOL     OW16858   6.369   4.997   0.192
 5320SOL    HW116859   6.330   5.069   0.134
 5320SOL    HW216860   6.411   4.927   0.134
 5321SOL     OW16861   0.992   4.134   3.380
 5321SOL    HW116862   0.997   4.233   3.370
 5321SOL    HW216863   1.002   4.090   3.291
 5322SOL     OW16864   4.656   6.102   6.499
 5322SOL    HW116865   4.577   6.136   6.551
 5322SOL    HW216866   4.711   6.180   6.469
 5323SOL     OW16867   3.529   2.484   6.885
 5323SOL    HW116868   3.557   2.538   6.964
 5323SOL    HW216869   3.541   2.537   6.802
 5324SOL     OW16870   4.374   2.453   0.829
 5324SOL    HW116871   4.406   2.359   0.817
 5324SOL    HW216872   4.275   2.454   0.841
 5325SOL     OW16873   4.213   0.555   4.588
 5325SOL    HW116874   4.266   0.510   4.516
 5325SOL    HW216875   4.255   0.643   4.610
 5326SOL     OW16876   0.333   5.526   4.141
 5326SOL    HW116877   0.379   5.444   4.174
 5326SOL    HW216878   0.236   5.507   4.129
 5327SOL     OW16879   5.655   3.542   5.219
 5327SOL    HW116880   5.682   3.540   5.315
 5327SOL    HW216881   5.731   3.511   5.162
 5328SOL     OW16882   4.078   2.596   5.802
 5328SOL    HW116883   4.043   2.635   5.717
 5328SOL    HW216884   4.027   2.634   5.880
 5329SOL     OW16885   0.031   4.394   6.899
 5329SOL    HW116886   6.994   4.467   6.885
 5329SOL    HW216887   0.114   4.414   6.848
 5330SOL     OW16888   3.665   4.134   5.521
 5330SOL    HW116889   3.605   4.092   5.453
 5330SOL    HW216890   3.642   4.231   5.531
 5331SOL     OW16891   5.019   1.092   0.813
 5331SOL    HW116892   4.939   1.148   0.835
 5331SOL    HW216893   5.088   1.103   0.884
 5332SOL     OW16894   0.405   3.956   1.133
 5332SOL    HW116895   0.437   3.878   1.080
 5332SOL    HW216896   0.321   3.930   1.182
 5333SOL     OW16897   1.179   1.063   3.354
 5333SOL    HW116898   1.185   1.125   3.432
 5333SOL    HW216899   1.152   0.972   3.386
 5334SOL     OW16900   3.945   6.545   4.227
 5334SOL    HW116901   3.968   6.642   4.236
 5334SOL    HW216902   4.010   6.491   4.280
 5335SOL     OW16903   6.226   5.818   2.288
 5335SOL    HW116904   6.176   5.789   2.370
 5335SOL    HW216905   6.324   5.824   2.309
 5336SOL     OW16906   1.929   2.356   3.291
 5336SOL    HW116907   1.904   2.277   3.348
 5336SOL    HW216908   1.967   2.428   3.350
 5337SOL     OW16909   5.543   4.395   2.414
 5337SOL    HW116910   5.563   4.492   2.400
 5337SOL    HW216911   5.495   4.359   2.334
 5338SOL     OW16912   5.750   0.829   5.495
 5338SOL    HW116913   5.765   0.738   5.534
 5338SOL    HW216914   5.814   0.894   5.536
 5339SOL     OW16915   6.576   2.329   3.697
 5339SOL    HW116916   6.565   2.244   3.646
 5339SOL    HW216917   6.661   2.374   3.670
 5340SOL     OW16918   5.224   3.032   1.093
 5340SOL    HW116919   5.263   2.970   1.161
 5340SOL    HW216920   5.133   3.060   1.123
 5341SOL     OW16921   3.166   4.961   5.803
 5341SOL    HW116922   3.204   4.899   5.734
 5341SOL    HW216923   3.071   4.982   5.780
 5342SOL     OW16924   4.529   6.355   4.048
 5342SOL    HW116925   4.480   6.332   4.132
 5342SOL    HW216926   4.605   6.417   4.071
 5343SOL     OW16927   3.389   3.498   4.853
 5343SOL    HW116928   3.455   3.564   4.888
 5343SOL    HW216929   3.434   3.411   4.835
 5344SOL     OW16930   1.885   1.996   1.409
 5344SOL    HW116931   1.846   1.994   1.501
 5344SOL    HW216932   1.985   1.994   1.415
 5345SOL     OW16933   3.565   6.569   0.372
 5345SOL    HW116934   3.513   6.592   0.453
 5345SOL    HW216935   3.663   6.585   0.389
 5346SOL     OW16936   3.318   5.582   4.133
 5346SOL    HW116937   3.395   5.643   4.113
 5346SOL    HW216938   3.244   5.636   4.173
 5347SOL     OW16939   0.130   2.970   1.842
 5347SOL    HW116940   0.091   3.062   1.842
 5347SOL    HW216941   0.060   2.904   1.813
 5348SOL     OW16942   6.596   1.772   0.926
 5348SOL    HW116943   6.640   1.751   0.838
 5348SOL    HW216944   6.592   1.871   0.939
 5349SOL     OW16945   2.507   2.945   0.692
 5349SOL    HW116946   2.486   3.030   0.644
 5349SOL    HW216947   2.435   2.878   0.675
 5350SOL     OW16948   1.539   0.057   5.116
 5350SOL    HW116949   1.550   0.111   5.032
 5350SOL    HW216950   1.576   6.995   5.102
 5351SOL     OW16951   6.328   5.088   2.345
 5351SOL    HW116952   6.402   5.026   2.371
 5351SOL    HW216953   6.367   5.173   2.308
 5352SOL     OW16954   1.645   5.399   3.342
 5352SOL    HW116955   1.637   5.496   3.318
 5352SOL    HW216956   1.675   5.347   3.262
 5353SOL     OW16957   3.872   5.278   4.453
 5353SOL    HW116958   3.774   5.272   4.472
 5353SOL    HW216959   3.886   5.309   4.359
 5354SOL     OW16960   2.152   5.237   1.305
 5354SOL    HW116961   2.094   5.158   1.327
 5354SOL    HW216962   2.244   5.221   1.341
 5355SOL     OW16963   6.343   4.603   4.647
 5355SOL    HW116964   6.430   4.607   4.696
 5355SOL    HW216965   6.276   4.556   4.703
 5356SOL     OW16966   6.355   4.095   2.672
 5356SOL    HW116967   6.386   4.008   2.633
 5356SOL    HW216968   6.303   4.076   2.755
 5357SOL     OW16969   3.140   6.201   0.111
 5357SOL    HW116970   3.049   6.163   0.125
 5357SOL    HW216971   3.140   6.299   0.135
 5358SOL     OW16972   5.043   1.145   0.083
 5358SOL    HW116973   4.956   1.169   0.040
 5358SOL    HW216974   5.030   1.066   0.143
 5359SOL     OW16975   1.723   0.817   5.605
 5359SOL    HW116976   1.757   0.823   5.699
 5359SOL    HW216977   1.649   0.883   5.593
 5360SOL     OW16978   3.441   5.954   3.632
 5360SOL    HW116979   3.526   5.916   3.670
 5360SOL    HW216980   3.443   5.949   3.532
 5361SOL     OW16981   2.948   1.062   4.751
 5361SOL    HW116982   2.911   1.151   4.778
 5361SOL    HW216983   2.986   1.069   4.659
 5362SOL     OW16984   6.253   6.208   2.805
 5362SOL    HW116985   6.306   6.292   2.794
 5362SOL    HW216986   6.277   6.144   2.732
 5363SOL     OW16987   6.665   6.766   5.264
 5363SOL    HW116988   6.723   6.692   5.299
 5363SOL    HW216989   6.604   6.729   5.194
 5364SOL     OW16990   6.820   7.002   2.205
 5364SOL    HW116991   6.745   0.038   2.202
 5364SOL    HW216992   6.788   6.915   2.167
 5365SOL     OW16993   4.218   3.280   1.094
 5365SOL    HW116994   4.127   3.244   1.116
 5365SOL    HW216995   4.287   3.231   1.146
 5366SOL     OW16996   5.799   5.954   1.375
 5366SOL    HW116997   5.867   5.914   1.436
 5366SOL    HW216998   5.830   5.946   1.281
 5367SOL     OW16999   0.613   6.802   0.849
 5367SOL    HW117000   0.671   6.785   0.929
 5367SOL    HW217001   0.652   6.757   0.769
 5368SOL     OW17002   5.427   0.056   2.567
 5368SOL    HW117003   5.414   0.112   2.649
 5368SOL    HW217004   5.341   0.046   2.519
 5369SOL     OW17005   2.613   6.770   1.025
 5369SOL    HW117006   2.697   6.775   0.972
 5369SOL    HW217007   2.572   6.861   1.033
 5370SOL     OW17008   4.714   2.198   1.495
 5370SOL    HW117009   4.709   2.195   1.595
 5370SOL    HW217010   4.630   2.240   1.459
 5371SOL     OW17011   0.532   3.802   5.374
 5371SOL    HW117012   0.459   3.822   5.307
 5371SOL    HW217013   0.499   3.735   5.440
 5372SOL     OW17014   1.654   6.126   3.192
 5372SOL    HW117015   1.573   6.098   3.244
 5372SOL    HW217016   1.703   6.045   3.161
 5373SOL     OW17017   3.842   6.563   4.515
 5373SOL    HW117018   3.844   6.549   4.416
 5373SOL    HW217019   3.774   6.632   4.537
 5374SOL     OW17020   2.142   4.498   0.858
 5374SOL    HW117021   2.106   4.405   0.855
 5374SOL    HW217022   2.085   4.553   0.918
 5375SOL     OW17023   0.288   5.476   4.585
 5375SOL    HW117024   0.337   5.563   4.584
 5375SOL    HW217025   0.297   5.433   4.675
 5376SOL     OW17026   1.504   2.775   1.295
 5376SOL    HW117027   1.567   2.782   1.218
 5376SOL    HW217028   1.554   2.794   1.380
 5377SOL     OW17029   0.098   6.790   2.099
 5377SOL    HW117030   0.098   6.835   2.010
 5377SOL    HW217031   0.090   6.858   2.171
 5378SOL     OW17032   0.052   0.298   2.538
 5378SOL    HW117033   0.063   0.331   2.632
 5378SOL    HW217034   6.988   0.270   2.524
 5379SOL     OW17035   0.975   4.873   4.802
 5379SOL    HW117036   1.040   4.804   4.772
 5379SOL    HW217037   1.000   4.962   4.764
 5380SOL     OW17038   2.860   1.036   2.930
 5380SOL    HW117039   2.918   0.955   2.921
 5380SOL    HW217040   2.835   1.048   3.026
 5381SOL     OW17041   6.262   4.765   2.493
 5381SOL    HW117042   6.271   4.792   2.589
 5381SOL    HW217043   6.186   4.815   2.452
 5382SOL     OW17044   2.934   1.268   2.005
 5382SOL    HW117045   2.872   1.316   1.942
 5382SOL    HW217046   2.985   1.335   2.058
 5383SOL     OW17047   1.930   2.017   5.153
 5383SOL    HW117048   1.927   1.931   5.104
 5383SOL    HW217049   2.023   2.051   5.157
 5384SOL     OW17050   5.742   0.155   4.932
 5384SOL    HW117051   5.682   0.189   4.860
 5384SOL    HW217052   5.801   0.083   4.896
 5385SOL     OW17053   3.580   3.405   4.064
 5385SOL    HW117054   3.668   3.453   4.073
 5385SOL    HW217055   3.550   3.373   4.154
 5386SOL     OW17056   4.843   1.191   3.941
 5386SOL    HW117057   4.795   1.161   4.023
 5386SOL    HW217058   4.825   1.288   3.925
 5387SOL     OW17059   2.031   6.726   3.405
 5387SOL    HW117060   2.076   6.757   3.321
 5387SOL    HW217061   1.996   6.805   3.455
 5388SOL     OW17062   0.290   1.671   3.320
 5388SOL    HW117063   0.331   1.677   3.411
 5388SOL    HW217064   0.270   1.762   3.285
 5389SOL     OW17065   3.643   1.421   3.346
 5389SOL    HW117066   3.568   1.364   3.311
 5389SOL    HW217067   3.606   1.487   3.412
 5390SOL     OW17068   4.723   4.176   3.257
 5390SOL    HW117069   4.704   4.245   3.327
 5390SOL    HW217070   4.643   4.117   3.247
 5391SOL     OW17071   2.636   1.297   1.132
 5391SOL    HW117072   2.681   1.384   1.109
 5391SOL    HW217073   2.581   1.267   1.054
 5392SOL     OW17074   5.587   3.374   1.211
 5392SOL    HW117075   5.509   3.346   1.155
 5392SOL    HW217076   5.641   3.441   1.161
 5393SOL     OW17077   4.933   0.414   5.503
 5393SOL    HW117078   4.973   0.486   5.446
 5393SOL    HW217079   4.851   0.449   5.547
 5394SOL     OW17080   0.429   5.620   0.884
 5394SOL    HW117081   0.449   5.588   0.976
 5394SOL    HW217082   0.333   5.649   0.879
 5395SOL     OW17083   4.683   1.225   1.117
 5395SOL    HW117084   4.742   1.210   1.197
 5395SOL    HW217085   4.728   1.287   1.053
 5396SOL     OW17086   5.198   4.279   1.766
 5396SOL    HW117087   5.273   4.290   1.832
 5396SOL    HW217088   5.160   4.187   1.774
 5397SOL     OW17089   0.826   2.833   1.345
 5397SOL    HW117090   0.874   2.797   1.426
 5397SOL    HW217091   0.881   2.816   1.264
 5398SOL     OW17092   2.641   2.162   4.089
 5398SOL    HW117093   2.659   2.119   4.178
 5398SOL    HW217094   2.682   2.107   4.017
 5399SOL     OW17095   2.585   6.493   0.969
 5399SOL    HW117096   2.595   6.593   0.960
 5399SOL    HW217097   2.550   6.472   1.061
 5400SOL     OW17098   3.516   3.630   7.020
 5400SOL    HW117099   3.613   3.654   7.023
 5400SOL    HW217100   3.466   3.700   6.969
 5401SOL     OW17101   6.229   4.501   2.445
 5401SOL    HW117102   6.233   4.595   2.479
 5401SOL    HW217103   6.230   4.502   2.345
 5402SOL     OW17104   2.147   6.094   1.935
 5402SOL    HW117105   2.243   6.068   1.926
 5402SOL    HW217106   2.102   6.086   1.847
 5403SOL     OW17107   5.792   2.937   5.459
 5403SOL    HW117108   5.731   2.978   5.391
 5403SOL    HW217109   5.822   2.847   5.427
 5404SOL     OW17110   0.816   0.318   3.011
 5404SOL    HW117111   0.822   0.413   2.982
 5404SOL    HW217112   0.737   0.307   3.073
 5405SOL     OW17113   5.535   5.884   0.420
 5405SOL    HW117114   5.455   5.917   0.371
 5405SOL    HW217115   5.597   5.838   0.355
 5406SOL     OW17116   1.929   0.014   5.511
 5406SOL    HW117117   1.836   0.032   5.544
 5406SOL    HW217118   1.944   6.946   5.505
 5407SOL     OW17119   3.880   1.642   1.521
 5407SOL    HW117120   3.938   1.563   1.502
 5407SOL    HW217121   3.857   1.688   1.435
 5408SOL     OW17122   3.231   0.637   5.675
 5408SOL    HW117123   3.265   0.716   5.726
 5408SOL    HW217124   3.131   0.642   5.669
 5409SOL     OW17125   0.108   2.001   2.998
 5409SOL    HW117126   0.181   2.060   2.963
 5409SOL    HW217127   0.143   1.943   3.071
 5410SOL     OW17128   1.532   2.443   6.958
 5410SOL    HW117129   1.455   2.381   6.946
 5410SOL    HW217130   1.515   2.527   6.906
 5411SOL     OW17131   6.076   4.910   5.625
 5411SOL    HW117132   6.162   4.946   5.588
 5411SOL    HW217133   6.086   4.895   5.723
 5412SOL     OW17134   3.891   1.286   6.961
 5412SOL    HW117135   3.884   1.282   6.861
 5412SOL    HW217136   3.985   1.264   6.988
 5413SOL     OW17137   0.468   0.254   1.042
 5413SOL    HW117138   0.473   0.343   0.995
 5413SOL    HW217139   0.537   0.193   1.004
 5414SOL     OW17140   6.253   3.385   4.990
 5414SOL    HW117141   6.319   3.399   4.916
 5414SOL    HW217142   6.267   3.455   5.060
 5415SOL     OW17143   1.131   6.033   1.630
 5415SOL    HW117144   1.053   6.001   1.684
 5415SOL    HW217145   1.178   6.107   1.679
 5416SOL     OW17146   3.286   5.171   5.903
 5416SOL    HW117147   3.256   5.087   5.860
 5416SOL    HW217148   3.274   5.248   5.840
 5417SOL     OW17149   4.525   6.511   4.610
 5417SOL    HW117150   4.605   6.502   4.670
 5417SOL    HW217151   4.453   6.447   4.641
 5418SOL     OW17152   4.912   0.876   4.150
 5418SOL    HW117153   4.863   0.964   4.153
 5418SOL    HW217154   4.966   0.871   4.065
 5419SOL     OW17155   3.939   5.232   6.838
 5419SOL    HW117156   3.906   5.262   6.749
 5419SOL    HW217157   3.965   5.136   6.833
 5420SOL     OW17158   1.901   3.378   1.712
 5420SOL    HW117159   1.911   3.476   1.702
 5420SOL    HW217160   1.837   3.343   1.643
 5421SOL     OW17161   2.814   4.783   3.361
 5421SOL    HW117162   2.794   4.800   3.264
 5421SOL    HW217163   2.913   4.770   3.372
 5422SOL     OW17164   0.953   5.585   4.983
 5422SOL    HW117165   1.013   5.512   4.951
 5422SOL    HW217166   0.869   5.545   5.021
 5423SOL     OW17167   6.181   3.678   0.075
 5423SOL    HW117168   6.275   3.701   0.101
 5423SOL    HW217169   6.148   3.744   0.007
 5424SOL     OW17170   5.791   3.666   4.077
 5424SOL    HW117171   5.720   3.736   4.069
 5424SOL    HW217172   5.754   3.585   4.123
 5425SOL     OW17173   5.140   1.931   4.155
 5425SOL    HW117174   5.132   2.020   4.109
 5425SOL    HW217175   5.066   1.921   4.221
 5426SOL     OW17176   6.454   5.180   3.825
 5426SOL    HW117177   6.384   5.123   3.782
 5426SOL    HW217178   6.415   5.228   3.903
 5427SOL     OW17179   5.540   4.762   0.626
 5427SOL    HW117180   5.450   4.783   0.588
 5427SOL    HW217181   5.604   4.743   0.552
 5428SOL     OW17182   6.215   6.897   1.917
 5428SOL    HW117183   6.293   6.942   1.873
 5428SOL    HW217184   6.229   6.798   1.916
 5429SOL     OW17185   1.179   0.850   5.234
 5429SOL    HW117186   1.194   0.751   5.223
 5429SOL    HW217187   1.263   0.899   5.211
 5430SOL     OW17188   2.557   2.197   6.540
 5430SOL    HW117189   2.500   2.179   6.620
 5430SOL    HW217190   2.500   2.204   6.459
 5431SOL     OW17191   3.385   4.487   6.180
 5431SOL    HW117192   3.347   4.410   6.231
 5431SOL    HW217193   3.316   4.525   6.119
 5432SOL     OW17194   3.454   5.655   6.259
 5432SOL    HW117195   3.462   5.642   6.358
 5432SOL    HW217196   3.477   5.749   6.235
 5433SOL     OW17197   0.373   1.144   3.052
 5433SOL    HW117198   0.390   1.046   3.063
 5433SOL    HW217199   0.302   1.174   3.116
 5434SOL     OW17200   4.367   1.268   4.835
 5434SOL    HW117201   4.453   1.279   4.886
 5434SOL    HW217202   4.300   1.336   4.868
 5435SOL     OW17203   6.271   2.212   1.358
 5435SOL    HW117204   6.328   2.159   1.296
 5435SOL    HW217205   6.312   2.211   1.450
 5436SOL     OW17206   5.514   4.459   4.629
 5436SOL    HW117207   5.593   4.401   4.611
 5436SOL    HW217208   5.528   4.510   4.714
 5437SOL     OW17209   2.880   5.128   5.801
 5437SOL    HW117210   2.846   5.219   5.825
 5437SOL    HW217211   2.826   5.059   5.847
 5438SOL     OW17212   6.613   3.995   2.392
 5438SOL    HW117213   6.522   4.029   2.370
 5438SOL    HW217214   6.681   4.042   2.335
 5439SOL     OW17215   6.872   2.626   6.947
 5439SOL    HW117216   6.918   2.544   6.915
 5439SOL    HW217217   6.782   2.633   6.905
 5440SOL     OW17218   6.762   0.349   3.653
 5440SOL    HW117219   6.790   0.443   3.673
 5440SOL    HW217220   6.669   0.334   3.687
 5441SOL     OW17221   4.678   2.815   3.321
 5441SOL    HW117222   4.642   2.768   3.401
 5441SOL    HW217223   4.604   2.827   3.254
 5442SOL     OW17224   2.901   6.797   3.534
 5442SOL    HW117225   2.995   6.776   3.509
 5442SOL    HW217226   2.893   6.800   3.634
 5443SOL     OW17227   3.123   5.760   4.271
 5443SOL    HW117228   3.167   5.833   4.219
 5443SOL    HW217229   3.175   5.742   4.354
 5444SOL     OW17230   0.212   0.675   3.219
 5444SOL    HW117231   0.132   0.626   3.184
 5444SOL    HW217232   0.205   0.684   3.318
 5445SOL     OW17233   6.474   4.231   4.101
 5445SOL    HW117234   6.403   4.273   4.044
 5445SOL    HW217235   6.560   4.281   4.090
 5446SOL     OW17236   5.698   5.151   4.955
 5446SOL    HW117237   5.600   5.149   4.979
 5446SOL    HW217238   5.725   5.246   4.937
 5447SOL     OW17239   1.195   1.859   0.768
 5447SOL    HW117240   1.138   1.942   0.766
 5447SOL    HW217241   1.154   1.789   0.709
 5448SOL     OW17242   5.612   4.285   4.272
 5448SOL    HW117243   5.663   4.355   4.322
 5448SOL    HW217244   5.636   4.290   4.175
 5449SOL     OW17245   1.866   1.545   0.693
 5449SOL    HW117246   1.850   1.460   0.642
 5449SOL    HW217247   1.954   1.540   0.739
 5450SOL     OW17248   3.205   0.401   0.860
 5450SOL    HW117249   3.154   0.405   0.946
 5450SOL    HW217250   3.155   0.345   0.794
 5451SOL     OW17251   2.195   6.188   3.915
 5451SOL    HW117252   2.111   6.221   3.872
 5451SOL    HW217253   2.247   6.134   3.850
 5452SOL     OW17254   3.095   4.071   6.676
 5452SOL    HW117255   3.095   3.995   6.740
 5452SOL    HW217256   3.095   4.036   6.582
 5453SOL     OW17257   5.516   4.198   1.809
 5453SOL    HW117258   5.483   4.113   1.849
 5453SOL    HW217259   5.582   4.177   1.737
 5454SOL     OW17260   5.251   5.222   6.128
 5454SOL    HW117261   5.154   5.233   6.106
 5454SOL    HW217262   5.266   5.238   6.225
 5455SOL     OW17263   0.037   2.222   2.807
 5455SOL    HW117264   0.049   2.155   2.880
 5455SOL    HW217265   6.977   2.211   2.766
 5456SOL     OW17266   2.799   0.094   0.315
 5456SOL    HW117267   2.856   0.149   0.254
 5456SOL    HW217268   2.810   7.027   0.292
 5457SOL     OW17269   0.263   2.383   1.974
 5457SOL    HW117270   0.222   2.474   1.963
 5457SOL    HW217271   0.224   2.340   2.056
 5458SOL     OW17272   0.647   5.192   0.625
 5458SOL    HW117273   0.647   5.099   0.662
 5458SOL    HW217274   0.594   5.251   0.686
 5459SOL     OW17275   3.608   3.766   6.545
 5459SOL    HW117276   3.640   3.847   6.496
 5459SOL    HW217277   3.667   3.688   6.523
 5460SOL     OW17278   3.537   6.646   2.855
 5460SOL    HW117279   3.556   6.549   2.871
 5460SOL    HW217280   3.623   6.694   2.839
 5461SOL     OW17281   0.470   0.978   5.531
 5461SOL    HW117282   0.561   1.012   5.508
 5461SOL    HW217283   0.418   0.965   5.447
 5462SOL     OW17284   5.828   6.915   0.709
 5462SOL    HW117285   5.778   6.901   0.623
 5462SOL    HW217286   5.832   7.013   0.729
 5463SOL     OW17287   0.111   1.108   7.013
 5463SOL    HW117288   0.114   1.162   0.068
 5463SOL    HW217289   0.095   1.012   0.006
 5464SOL     OW17290   6.575   0.190   4.533
 5464SOL    HW117291   6.617   0.117   4.478
 5464SOL    HW217292   6.599   0.279   4.495
 5465SOL     OW17293   4.711   0.537   4.436
 5465SOL    HW117294   4.622   0.565   4.400
 5465SOL    HW217295   4.779   0.608   4.419
 5466SOL     OW17296   5.020   3.050   4.977
 5466SOL    HW117297   5.012   2.963   4.930
 5466SOL    HW217298   5.101   3.049   5.036
 5467SOL     OW17299   5.165   3.982   3.352
 5467SOL    HW117300   5.262   3.991   3.374
 5467SOL    HW217301   5.132   3.892   3.381
 5468SOL     OW17302   6.772   2.860   3.694
 5468SOL    HW117303   6.725   2.783   3.738
 5468SOL    HW217304   6.753   2.859   3.596
 5469SOL     OW17305   2.780   6.243   5.667
 5469SOL    HW117306   2.779   6.341   5.686
 5469SOL    HW217307   2.817   6.227   5.575
 5470SOL     OW17308   3.672   5.463   3.116
 5470SOL    HW117309   3.624   5.548   3.094
 5470SOL    HW217310   3.606   5.390   3.131
 5471SOL     OW17311   6.021   0.203   3.550
 5471SOL    HW117312   5.941   0.242   3.598
 5471SOL    HW217313   6.000   0.109   3.523
 5472SOL     OW17314   2.746   3.751   6.780
 5472SOL    HW117315   2.667   3.704   6.819
 5472SOL    HW217316   2.800   3.686   6.726
 5473SOL     OW17317   1.342   3.384   1.802
 5473SOL    HW117318   1.285   3.320   1.854
 5473SOL    HW217319   1.392   3.334   1.732
 5474SOL     OW17320   1.258   4.412   4.029
 5474SOL    HW117321   1.211   4.325   4.011
 5474SOL    HW217322   1.233   4.445   4.121
 5475SOL     OW17323   1.938   2.627   0.892
 5475SOL    HW117324   1.909   2.542   0.937
 5475SOL    HW217325   1.954   2.697   0.961
 5476SOL     OW17326   2.156   4.125   5.202
 5476SOL    HW117327   2.230   4.067   5.170
 5476SOL    HW217328   2.178   4.221   5.183
 5477SOL     OW17329   2.205   4.365   2.411
 5477SOL    HW117330   2.277   4.321   2.464
 5477SOL    HW217331   2.116   4.346   2.452
 5478SOL     OW17332   3.176   6.368   4.381
 5478SOL    HW117333   3.179   6.270   4.360
 5478SOL    HW217334   3.180   6.420   4.295
 5479SOL     OW17335   5.355   1.237   5.879
 5479SOL    HW117336   5.304   1.300   5.820
 5479SOL    HW217337   5.312   1.146   5.875
 5480SOL     OW17338   5.808   5.545   4.230
 5480SOL    HW117339   5.802   5.645   4.223
 5480SOL    HW217340   5.800   5.505   4.139
 5481SOL     OW17341   4.513   1.475   4.435
 5481SOL    HW117342   4.481   1.390   4.478
 5481SOL    HW217343   4.445   1.547   4.449
 5482SOL     OW17344   3.888   4.533   1.652
 5482SOL    HW117345   3.808   4.573   1.697
 5482SOL    HW217346   3.966   4.594   1.664
 5483SOL     OW17347   6.945   2.278   5.170
 5483SOL    HW117348   6.863   2.231   5.137
 5483SOL    HW217349   7.011   2.287   5.095
 5484SOL     OW17350   3.939   1.395   3.654
 5484SOL    HW117351   3.981   1.374   3.742
 5484SOL    HW217352   4.006   1.437   3.593
 5485SOL     OW17353   3.894   0.092   4.100
 5485SOL    HW117354   3.889   7.026   4.072
 5485SOL    HW217355   3.892   0.097   4.200
 5486SOL     OW17356   1.896   6.290   5.336
 5486SOL    HW117357   1.872   6.196   5.313
 5486SOL    HW217358   1.900   6.345   5.252
 5487SOL     OW17359   6.019   2.898   6.579
 5487SOL    HW117360   6.072   2.817   6.606
 5487SOL    HW217361   5.922   2.879   6.592
 5488SOL     OW17362   6.124   0.327   1.422
 5488SOL    HW117363   6.069   0.397   1.468
 5488SOL    HW217364   6.066   0.278   1.356
 5489SOL     OW17365   0.494   4.313   1.757
 5489SOL    HW117366   0.429   4.292   1.830
 5489SOL    HW217367   0.508   4.231   1.701
 5490SOL     OW17368   3.183   0.094   1.497
 5490SOL    HW117369   3.118   0.057   1.563
 5490SOL    HW217370   3.259   0.031   1.486
 5491SOL     OW17371   1.418   4.213   0.838
 5491SOL    HW117372   1.412   4.267   0.922
 5491SOL    HW217373   1.340   4.150   0.834
 5492SOL     OW17374   0.192   3.211   6.017
 5492SOL    HW117375   0.250   3.292   6.018
 5492SOL    HW217376   0.168   3.186   6.111
 5493SOL     OW17377   3.100   3.940   4.442
 5493SOL    HW117378   3.100   3.962   4.344
 5493SOL    HW217379   3.052   3.854   4.457
 5494SOL     OW17380   0.026   2.860   6.095
 5494SOL    HW117381   6.988   2.811   6.040
 5494SOL    HW217382   0.110   2.871   6.041
 5495SOL     OW17383   3.777   1.314   1.376
 5495SOL    HW117384   3.854   1.327   1.313
 5495SOL    HW217385   3.702   1.376   1.350
 5496SOL     OW17386   3.470   1.085   3.703
 5496SOL    HW117387   3.441   1.178   3.680
 5496SOL    HW217388   3.454   1.068   3.800
 5497SOL     OW17389   0.275   1.943   5.015
 5497SOL    HW117390   0.316   1.939   5.106
 5497SOL    HW217391   0.176   1.946   5.023
 5498SOL     OW17392   6.623   6.042   0.934
 5498SOL    HW117393   6.537   6.087   0.957
 5498SOL    HW217394   6.683   6.043   1.014
 5499SOL     OW17395   0.584   0.694   5.057
 5499SOL    HW117396   0.497   0.721   5.099
 5499SOL    HW217397   0.570   0.613   5.001
 5500SOL     OW17398   1.060   0.646   0.720
 5500SOL    HW117399   1.140   0.705   0.711
 5500SOL    HW217400   1.005   0.676   0.799
 5501SOL     OW17401   3.483   1.140   0.428
 5501SOL    HW117402   3.408   1.184   0.379
 5501SOL    HW217403   3.547   1.101   0.362
 5502SOL     OW17404   5.245   3.714   0.113
 5502SOL    HW117405   5.182   3.770   0.059
 5502SOL    HW217406   5.249   3.622   0.074
 5503SOL     OW17407   0.074   4.549   2.196
 5503SOL    HW117408   0.107   4.623   2.138
 5503SOL    HW217409   0.145   4.479   2.206
 5504SOL     OW17410   4.525   1.482   5.720
 5504SOL    HW117411   4.429   1.458   5.729
 5504SOL    HW217412   4.547   1.497   5.624
 5505SOL     OW17413   2.079   5.138   4.368
 5505SOL    HW117414   2.085   5.213   4.434
 5505SOL    HW217415   2.156   5.144   4.304
 5506SOL     OW17416   1.186   2.965   0.329
 5506SOL    HW117417   1.100   2.935   0.286
 5506SOL    HW217418   1.167   3.035   0.397
 5507SOL     OW17419   3.786   1.365   4.710
 5507SOL    HW117420   3.769   1.433   4.780
 5507SOL    HW217421   3.776   1.406   4.619
 5508SOL     OW17422   1.688   1.034   0.341
 5508SOL    HW117423   1.599   1.017   0.298
 5508SOL    HW217424   1.675   1.044   0.439
 5509SOL     OW17425   0.358   6.463   6.799
 5509SOL    HW117426   0.294   6.443   6.724
 5509SOL    HW217427   0.309   6.511   6.871
 5510SOL     OW17428   4.860   5.593   0.065
 5510SOL    HW117429   4.949   5.638   0.054
 5510SOL    HW217430   4.873   5.502   0.105
 5511SOL     OW17431   1.833   0.826   3.481
 5511SOL    HW117432   1.753   0.884   3.500
 5511SOL    HW217433   1.824   0.786   3.390
 5512SOL     OW17434   5.111   2.544   0.987
 5512SOL    HW117435   5.072   2.454   1.002
 5512SOL    HW217436   5.196   2.536   0.934
 5513SOL     OW17437   4.208   4.714   5.710
 5513SOL    HW117438   4.289   4.663   5.740
 5513SOL    HW217439   4.177   4.773   5.784
 5514SOL     OW17440   3.946   6.862   3.970
 5514SOL    HW117441   4.027   6.838   4.024
 5514SOL    HW217442   3.874   6.795   3.987
 5515SOL     OW17443   0.890   5.855   2.116
 5515SOL    HW117444   0.797   5.853   2.152
 5515SOL    HW217445   0.889   5.826   2.020
 5516SOL     OW17446   1.765   4.132   6.271
 5516SOL    HW117447   1.677   4.089   6.251
 5516SOL    HW217448   1.751   4.219   6.318
 5517SOL     OW17449   2.213   3.132   1.837
 5517SOL    HW117450   2.288   3.155   1.776
 5517SOL    HW217451   2.192   3.212   1.895
 5518SOL     OW17452   5.634   6.226   6.701
 5518SOL    HW117453   5.673   6.309   6.742
 5518SOL    HW217454   5.647   6.229   6.602
 5519SOL     OW17455   5.566   3.729   3.224
 5519SOL    HW117456   5.470   3.701   3.227
 5519SOL    HW217457   5.587   3.784   3.305
 5520SOL     OW17458   6.591   0.105   2.523
 5520SOL    HW117459   6.557   0.178   2.464
 5520SOL    HW217460   6.561   0.017   2.488
 5521SOL     OW17461   5.561   6.439   1.780
 5521SOL    HW117462   5.549   6.431   1.681
 5521SOL    HW217463   5.653   6.409   1.805
 5522SOL     OW17464   6.126   5.122   0.980
 5522SOL    HW117465   6.196   5.111   1.051
 5522SOL    HW217466   6.138   5.052   0.910
 5523SOL     OW17467   3.643   1.024   2.046
 5523SOL    HW117468   3.697   1.105   2.025
 5523SOL    HW217469   3.581   1.004   1.969
 5524SOL     OW17470   5.066   0.436   4.375
 5524SOL    HW117471   5.055   0.533   4.398
 5524SOL    HW217472   5.033   0.419   4.282
 5525SOL     OW17473   0.150   2.028   0.982
 5525SOL    HW117474   0.219   2.084   0.937
 5525SOL    HW217475   0.087   2.086   1.033
 5526SOL     OW17476   4.761   6.031   3.579
 5526SOL    HW117477   4.717   5.963   3.520
 5526SOL    HW217478   4.739   6.123   3.547
 5527SOL     OW17479   5.014   3.290   3.926
 5527SOL    HW117480   5.030   3.251   4.017
 5527SOL    HW217481   4.928   3.254   3.890
 5528SOL     OW17482   1.190   0.746   0.022
 5528SOL    HW117483   1.224   0.812   0.089
 5528SOL    HW217484   1.110   0.700   0.060
 5529SOL     OW17485   3.178   6.801   3.478
 5529SOL    HW117486   3.198   6.703   3.482
 5529SOL    HW217487   3.264   6.852   3.481
 5530SOL     OW17488   5.904   2.159   1.101
 5530SOL    HW117489   5.811   2.195   1.085
 5530SOL    HW217490   5.908   2.064   1.073
 5531SOL     OW17491   3.257   3.541   1.870
 5531SOL    HW117492   3.336   3.561   1.812
 5531SOL    HW217493   3.284   3.477   1.942
 5532SOL     OW17494   1.280   3.386   1.184
 5532SOL    HW117495   1.337   3.468   1.187
 5532SOL    HW217496   1.331   3.308   1.220
 5533SOL     OW17497   3.561   2.082   2.748
 5533SOL    HW117498   3.543   2.001   2.805
 5533SOL    HW217499   3.475   2.117   2.712
 5534SOL     OW17500   0.431   1.618   6.609
 5534SOL    HW117501   0.352   1.558   6.623
 5534SOL    HW217502   0.447   1.629   6.511
 5535SOL     OW17503   0.653   2.741   3.086
 5535SOL    HW117504   0.554   2.735   3.103
 5535SOL    HW217505   0.680   2.667   3.024
 5536SOL     OW17506   3.310   1.008   4.289
 5536SOL    HW117507   3.335   1.035   4.383
 5536SOL    HW217508   3.280   1.088   4.238
 5537SOL     OW17509   2.818   1.073   2.643
 5537SOL    HW117510   2.840   1.068   2.740
 5537SOL    HW217511   2.735   1.022   2.624
 5538SOL     OW17512   2.173   6.024   5.489
 5538SOL    HW117513   2.266   5.986   5.487
 5538SOL    HW217514   2.108   5.952   5.462
 5539SOL     OW17515   1.116   3.662   1.539
 5539SOL    HW117516   1.071   3.643   1.452
 5539SOL    HW217517   1.103   3.585   1.601
 5540SOL     OW17518   4.550   4.718   3.639
 5540SOL    HW117519   4.493   4.764   3.706
 5540SOL    HW217520   4.492   4.669   3.574
 5541SOL     OW17521   5.487   6.821   6.494
 5541SOL    HW117522   5.409   6.823   6.556
 5541SOL    HW217523   5.458   6.851   6.403
 5542SOL     OW17524   4.817   3.727   5.969
 5542SOL    HW117525   4.815   3.666   6.048
 5542SOL    HW217526   4.891   3.793   5.979
 5543SOL     OW17527   3.512   5.148   5.703
 5543SOL    HW117528   3.424   5.136   5.658
 5543SOL    HW217529   3.537   5.063   5.750
 5544SOL     OW17530   4.725   5.606   6.329
 5544SOL    HW117531   4.637   5.606   6.377
 5544SOL    HW217532   4.717   5.663   6.247
 5545SOL     OW17533   4.700   1.238   2.073
 5545SOL    HW117534   4.797   1.263   2.076
 5545SOL    HW217535   4.645   1.318   2.099
 5546SOL     OW17536   0.547   5.070   4.483
 5546SOL    HW117537   0.576   5.164   4.462
 5546SOL    HW217538   0.610   5.030   4.549
 5547SOL     OW17539   2.525   6.354   5.355
 5547SOL    HW117540   2.622   6.373   5.338
 5547SOL    HW217541   2.494   6.281   5.295
 5548SOL     OW17542   6.504   2.027   4.949
 5548SOL    HW117543   6.481   2.121   4.925
 5548SOL    HW217544   6.479   1.966   4.874
 5549SOL     OW17545   4.915   4.558   6.486
 5549SOL    HW117546   4.883   4.531   6.395
 5549SOL    HW217547   4.958   4.648   6.481
 5550SOL     OW17548   2.784   5.846   2.192
 5550SOL    HW117549   2.696   5.818   2.231
 5550SOL    HW217550   2.771   5.869   2.095
 5551SOL     OW17551   2.223   0.365   3.132
 5551SOL    HW117552   2.210   0.315   3.047
 5551SOL    HW217553   2.223   0.463   3.113
 5552SOL     OW17554   6.437   0.866   6.706
 5552SOL    HW117555   6.361   0.807   6.732
 5552SOL    HW217556   6.489   0.823   6.633
 5553SOL     OW17557   4.119   6.245   6.830
 5553SOL    HW117558   4.082   6.156   6.803
 5553SOL    HW217559   4.156   6.239   6.922
 5554SOL     OW17560   3.313   1.695   5.598
 5554SOL    HW117561   3.402   1.652   5.582
 5554SOL    HW217562   3.317   1.749   5.682
 5555SOL     OW17563   0.562   4.639   3.931
 5555SOL    HW117564   0.486   4.658   3.993
 5555SOL    HW217565   0.642   4.693   3.959
 5556SOL     OW17566   0.364   2.697   4.127
 5556SOL    HW117567   0.298   2.631   4.092
 5556SOL    HW217568   0.337   2.725   4.219
 5557SOL     OW17569   3.566   5.466   2.857
 5557SOL    HW117570   3.654   5.428   2.883
 5557SOL    HW217571   3.549   5.449   2.760
 5558SOL     OW17572   5.132   3.411   6.359
 5558SOL    HW117573   5.045   3.400   6.407
 5558SOL    HW217574   5.184   3.486   6.401
 5559SOL     OW17575   2.456   6.930   2.139
 5559SOL    HW117576   2.366   6.936   2.095
 5559SOL    HW217577   2.514   6.868   2.087
 5560SOL     OW17578   0.363   6.760   3.500
 5560SOL    HW117579   0.337   6.857   3.500
 5560SOL    HW217580   0.346   6.721   3.410
 5561SOL     OW17581   2.366   2.129   3.991
 5561SOL    HW117582   2.359   2.070   3.910
 5561SOL    HW217583   2.462   2.151   4.007
 5562SOL     OW17584   2.520   2.554   0.128
 5562SOL    HW117585   2.480   2.471   0.166
 5562SOL    HW217586   2.527   2.624   0.200
 5563SOL     OW17587   4.722   6.362   2.584
 5563SOL    HW117588   4.809   6.403   2.611
 5563SOL    HW217589   4.739   6.272   2.543
 5564SOL     OW17590   4.687   1.795   1.639
 5564SOL    HW117591   4.769   1.766   1.589
 5564SOL    HW217592   4.705   1.882   1.684
 5565SOL     OW17593   5.020   1.455   6.834
 5565SOL    HW117594   5.119   1.438   6.832
 5565SOL    HW217595   5.000   1.537   6.780
 5566SOL     OW17596   1.901   5.531   0.862
 5566SOL    HW117597   1.909   5.432   0.847
 5566SOL    HW217598   1.805   5.558   0.853
 5567SOL     OW17599   0.996   4.617   1.959
 5567SOL    HW117600   1.001   4.670   1.874
 5567SOL    HW217601   0.901   4.609   1.988
 5568SOL     OW17602   5.167   2.376   2.642
 5568SOL    HW117603   5.089   2.325   2.678
 5568SOL    HW217604   5.139   2.427   2.560
 5569SOL     OW17605   3.552   1.799   1.578
 5569SOL    HW117606   3.526   1.870   1.644
 5569SOL    HW217607   3.551   1.710   1.624
 5570SOL     OW17608   5.949   4.321   4.450
 5570SOL    HW117609   5.878   4.367   4.504
 5570SOL    HW217610   6.015   4.278   4.511
 5571SOL     OW17611   0.432   7.007   6.942
 5571SOL    HW117612   0.472   0.037   6.872
 5571SOL    HW217613   0.505   6.950   6.981
 5572SOL     OW17614   2.050   2.868   6.311
 5572SOL    HW117615   2.001   2.954   6.325
 5572SOL    HW217616   1.994   2.792   6.344
 5573SOL     OW17617   1.851   3.082   0.103
 5573SOL    HW117618   1.940   3.055   0.065
 5573SOL    HW217619   1.780   3.066   0.035
 5574SOL     OW17620   6.776   0.869   3.962
 5574SOL    HW117621   6.773   0.965   3.935
 5574SOL    HW217622   6.801   0.813   3.883
 5575SOL     OW17623   0.821   1.125   1.923
 5575SOL    HW117624   0.744   1.164   1.871
 5575SOL    HW217625   0.897   1.108   1.861
 5576SOL     OW17626   6.515   5.995   1.898
 5576SOL    HW117627   6.509   6.091   1.873
 5576SOL    HW217628   6.597   5.955   1.858
 5577SOL     OW17629   2.882   2.803   6.269
 5577SOL    HW117630   2.855   2.715   6.230
 5577SOL    HW217631   2.981   2.803   6.286
 5578SOL     OW17632   4.304   3.218   0.563
 5578SOL    HW117633   4.313   3.123   0.533
 5578SOL    HW217634   4.334   3.226   0.658
 5579SOL     OW17635   6.404   3.831   6.605
 5579SOL    HW117636   6.443   3.792   6.522
 5579SOL    HW217637   6.434   3.778   6.684
 5580SOL     OW17638   4.797   1.750   6.816
 5580SOL    HW117639   4.759   1.667   6.856
 5580SOL    HW217640   4.750   1.770   6.730
 5581SOL     OW17641   2.496   7.019   1.026
 5581SOL    HW117642   2.477   0.018   0.932
 5581SOL    HW217643   2.528   0.068   1.079
 5582SOL     OW17644   3.352   3.238   3.730
 5582SOL    HW117645   3.413   3.182   3.674
 5582SOL    HW217646   3.282   3.179   3.771
 5583SOL     OW17647   3.790   6.670   2.664
 5583SOL    HW117648   3.873   6.670   2.719
 5583SOL    HW217649   3.783   6.584   2.614
 5584SOL     OW17650   5.628   3.897   4.114
 5584SOL    HW117651   5.550   3.928   4.169
 5584SOL    HW217652   5.711   3.897   4.171
 5585SOL     OW17653   4.905   0.850   3.434
 5585SOL    HW117654   4.905   0.841   3.533
 5585SOL    HW217655   4.892   0.760   3.392
 5586SOL     OW17656   1.266   2.523   0.137
 5586SOL    HW117657   1.198   2.460   0.101
 5586SOL    HW217658   1.276   2.509   0.235
 5587SOL     OW17659   4.398   6.847   2.217
 5587SOL    HW117660   4.462   6.836   2.293
 5587SOL    HW217661   4.312   6.801   2.239
 5588SOL     OW17662   0.915   6.855   4.450
 5588SOL    HW117663   0.895   6.792   4.375
 5588SOL    HW217664   0.882   6.817   4.536
 5589SOL     OW17665   5.135   3.060   6.483
 5589SOL    HW117666   5.063   3.098   6.425
 5589SOL    HW217667   5.215   3.121   6.481
 5590SOL     OW17668   6.765   5.443   2.902
 5590SOL    HW117669   6.748   5.489   2.989
 5590SOL    HW217670   6.831   5.497   2.849
 5591SOL     OW17671   5.577   0.623   6.438
 5591SOL    HW117672   5.488   0.642   6.478
 5591SOL    HW217673   5.607   0.702   6.385
 5592SOL     OW17674   2.580   4.828   2.810
 5592SOL    HW117675   2.636   4.811   2.729
 5592SOL    HW217676   2.530   4.914   2.798
 5593SOL     OW17677   0.189   2.782   5.398
 5593SOL    HW117678   0.192   2.826   5.309
 5593SOL    HW217679   0.248   2.831   5.462
 5594SOL     OW17680   2.742   0.838   6.822
 5594SOL    HW117681   2.700   0.926   6.843
 5594SOL    HW217682   2.809   0.815   6.893
 5595SOL     OW17683   6.016   0.897   5.138
 5595SOL    HW117684   6.072   0.839   5.079
 5595SOL    HW217685   6.076   0.952   5.197
 5596SOL     OW17686   5.073   0.225   3.046
 5596SOL    HW117687   5.149   0.171   3.083
 5596SOL    HW217688   5.108   0.314   3.015
 5597SOL     OW17689   5.094   2.396   5.121
 5597SOL    HW117690   5.154   2.433   5.193
 5597SOL    HW217691   5.087   2.297   5.131
 5598SOL     OW17692   5.178   2.455   3.898
 5598SOL    HW117693   5.219   2.416   3.816
 5598SOL    HW217694   5.141   2.382   3.955
 5599SOL     OW17695   6.047   4.216   2.187
 5599SOL    HW117696   6.141   4.237   2.162
 5599SOL    HW217697   6.047   4.157   2.268
 5600SOL     OW17698   2.684   0.308   2.146
 5600SOL    HW117699   2.727   0.389   2.106
 5600SOL    HW217700   2.684   0.234   2.079
 5601SOL     OW17701   4.608   2.403   5.876
 5601SOL    HW117702   4.697   2.366   5.848
 5601SOL    HW217703   4.605   2.501   5.857
 5602SOL     OW17704   6.669   1.102   3.191
 5602SOL    HW117705   6.745   1.078   3.251
 5602SOL    HW217706   6.583   1.073   3.234
 5603SOL     OW17707   4.683   2.522   5.147
 5603SOL    HW117708   4.691   2.497   5.243
 5603SOL    HW217709   4.653   2.442   5.094
 5604SOL     OW17710   1.260   1.952   4.447
 5604SOL    HW117711   1.282   1.874   4.506
 5604SOL    HW217712   1.206   1.920   4.369
 5605SOL     OW17713   1.295   6.930   5.073
 5605SOL    HW117714   1.345   6.992   5.133
 5605SOL    HW217715   1.331   6.837   5.083
 5606SOL     OW17716   4.350   1.126   0.461
 5606SOL    HW117717   4.389   1.039   0.492
 5606SOL    HW217718   4.316   1.177   0.539
 5607SOL     OW17719   6.199   2.142   3.643
 5607SOL    HW117720   6.146   2.057   3.633
 5607SOL    HW217721   6.199   2.193   3.557
 5608SOL     OW17722   6.101   1.089   3.179
 5608SOL    HW117723   6.070   1.114   3.271
 5608SOL    HW217724   6.135   1.171   3.133
 5609SOL     OW17725   4.633   6.276   0.274
 5609SOL    HW117726   4.575   6.350   0.308
 5609SOL    HW217727   4.582   6.220   0.210
 5610SOL     OW17728   5.521   3.744   1.202
 5610SOL    HW117729   5.445   3.716   1.261
 5610SOL    HW217730   5.498   3.832   1.160
 5611SOL     OW17731   0.807   5.120   1.998
 5611SOL    HW117732   0.798   5.061   2.078
 5611SOL    HW217733   0.762   5.076   1.920
 5612SOL     OW17734   2.935   2.719   0.605
 5612SOL    HW117735   2.930   2.747   0.701
 5612SOL    HW217736   2.847   2.736   0.561
 5613SOL     OW17737   6.649   4.362   4.933
 5613SOL    HW117738   6.710   4.415   4.992
 5613SOL    HW217739   6.569   4.417   4.910
 5614SOL     OW17740   6.463   2.089   4.443
 5614SOL    HW117741   6.517   2.087   4.358
 5614SOL    HW217742   6.446   2.185   4.468
 5615SOL     OW17743   0.142   1.495   2.819
 5615SOL    HW117744   0.070   1.461   2.879
 5615SOL    HW217745   0.231   1.459   2.849
 5616SOL     OW17746   2.640   2.057   5.147
 5616SOL    HW117747   2.549   2.020   5.165
 5616SOL    HW217748   2.639   2.110   5.062
 5617SOL     OW17749   1.446   4.500   4.708
 5617SOL    HW117750   1.456   4.510   4.609
 5617SOL    HW217751   1.381   4.427   4.728
 5618SOL     OW17752   6.441   5.114   3.112
 5618SOL    HW117753   6.520   5.064   3.147
 5618SOL    HW217754   6.373   5.123   3.184
 5619SOL     OW17755   3.603   3.033   3.694
 5619SOL    HW117756   3.692   3.000   3.665
 5619SOL    HW217757   3.611   3.075   3.785
 5620SOL     OW17758   4.883   3.999   5.674
 5620SOL    HW117759   4.876   4.035   5.581
 5620SOL    HW217760   4.828   3.916   5.682
 5621SOL     OW17761   1.117   3.110   6.604
 5621SOL    HW117762   1.162   3.097   6.516
 5621SOL    HW217763   1.131   3.029   6.661
 5622SOL     OW17764   4.389   6.601   5.345
 5622SOL    HW117765   4.294   6.608   5.314
 5622SOL    HW217766   4.428   6.513   5.316
 5623SOL     OW17767   4.693   6.710   5.206
 5623SOL    HW117768   4.656   6.781   5.146
 5623SOL    HW217769   4.618   6.654   5.242
 5624SOL     OW17770   0.956   5.178   3.591
 5624SOL    HW117771   0.955   5.253   3.525
 5624SOL    HW217772   0.972   5.091   3.542
 5625SOL     OW17773   0.716   4.859   4.923
 5625SOL    HW117774   0.682   4.792   4.990
 5625SOL    HW217775   0.816   4.859   4.925
 5626SOL     OW17776   2.273   4.736   4.376
 5626SOL    HW117777   2.273   4.788   4.462
 5626SOL    HW217778   2.197   4.671   4.377
 5627SOL     OW17779   6.690   5.794   6.358
 5627SOL    HW117780   6.607   5.775   6.410
 5627SOL    HW217781   6.666   5.849   6.278
 5628SOL     OW17782   3.192   2.979   1.451
 5628SOL    HW117783   3.277   3.024   1.423
 5628SOL    HW217784   3.150   2.935   1.372
 5629SOL     OW17785   4.056   3.250   1.397
 5629SOL    HW117786   4.024   3.258   1.492
 5629SOL    HW217787   4.150   3.216   1.397
 5630SOL     OW17788   1.811   3.920   6.008
 5630SOL    HW117789   1.911   3.909   6.012
 5630SOL    HW217790   1.779   3.960   6.094
 5631SOL     OW17791   5.296   1.145   1.591
 5631SOL    HW117792   5.303   1.139   1.690
 5631SOL    HW217793   5.353   1.220   1.558
 5632SOL     OW17794   5.069   1.670   5.848
 5632SOL    HW117795   5.039   1.733   5.919
 5632SOL    HW217796   4.990   1.628   5.804
 5633SOL     OW17797   6.983   4.957   4.930
 5633SOL    HW117798   0.029   5.021   4.946
 5633SOL    HW217799   6.899   5.009   4.913
 5634SOL     OW17800   1.778   4.912   4.025
 5634SOL    HW117801   1.730   4.834   4.065
 5634SOL    HW217802   1.848   4.945   4.089
 5635SOL     OW17803   2.856   6.675   6.806
 5635SOL    HW117804   2.774   6.639   6.850
 5635SOL    HW217805   2.890   6.608   6.740
 5636SOL     OW17806   5.689   1.018   5.274
 5636SOL    HW117807   5.736   0.952   5.333
 5636SOL    HW217808   5.685   1.106   5.320
 5637SOL     OW17809   5.114   0.244   3.865
 5637SOL    HW117810   5.177   0.230   3.942
 5637SOL    HW217811   5.035   0.184   3.875
 5638SOL     OW17812   5.762   5.568   1.055
 5638SOL    HW117813   5.728   5.595   0.965
 5638SOL    HW217814   5.841   5.508   1.044
 5639SOL     OW17815   1.095   0.821   1.759
 5639SOL    HW117816   1.133   0.827   1.851
 5639SOL    HW217817   1.137   0.744   1.711
 5640SOL     OW17818   3.001   6.936   2.181
 5640SOL    HW117819   2.918   6.967   2.227
 5640SOL    HW217820   2.985   6.846   2.140
 5641SOL     OW17821   0.567   4.398   6.231
 5641SOL    HW117822   0.499   4.384   6.158
 5641SOL    HW217823   0.528   4.370   6.318
 5642SOL     OW17824   1.403   5.062   5.916
 5642SOL    HW117825   1.416   5.028   5.823
 5642SOL    HW217826   1.376   4.987   5.976
 5643SOL     OW17827   3.256   0.903   5.270
 5643SOL    HW117828   3.254   0.972   5.197
 5643SOL    HW217829   3.250   0.949   5.359
 5644SOL     OW17830   4.262   0.501   3.981
 5644SOL    HW117831   4.337   0.548   3.934
 5644SOL    HW217832   4.199   0.569   4.020
 5645SOL     OW17833   6.757   4.362   3.289
 5645SOL    HW117834   6.709   4.442   3.325
 5645SOL    HW217835   6.751   4.362   3.189
 5646SOL     OW17836   1.970   5.292   3.416
 5646SOL    HW117837   1.911   5.365   3.450
 5646SOL    HW217838   2.020   5.324   3.336
 5647SOL     OW17839   6.130   6.803   6.918
 5647SOL    HW117840   6.228   6.795   6.932
 5647SOL    HW217841   6.082   6.733   6.972
 5648SOL     OW17842   1.706   1.344   2.655
 5648SOL    HW117843   1.722   1.319   2.560
 5648SOL    HW217844   1.772   1.414   2.683
 5649SOL     OW17845   0.767   6.404   6.258
 5649SOL    HW117846   0.812   6.479   6.308
 5649SOL    HW217847   0.674   6.432   6.233
 5650SOL     OW17848   0.538   5.750   1.548
 5650SOL    HW117849   0.519   5.848   1.546
 5650SOL    HW217850   0.478   5.706   1.615
 5651SOL     OW17851   0.342   1.179   2.127
 5651SOL    HW117852   0.286   1.256   2.099
 5651SOL    HW217853   0.411   1.160   2.057
 5652SOL     OW17854   5.889   6.656   1.542
 5652SOL    HW117855   5.963   6.658   1.609
 5652SOL    HW217856   5.801   6.651   1.590
 5653SOL     OW17857   0.403   6.723   6.529
 5653SOL    HW117858   0.418   6.822   6.531
 5653SOL    HW217859   0.489   6.675   6.544
 5654SOL     OW17860   6.691   6.192   5.860
 5654SOL    HW117861   6.700   6.239   5.947
 5654SOL    HW217862   6.711   6.256   5.785
 5655SOL     OW17863   1.288   3.402   4.432
 5655SOL    HW117864   1.303   3.500   4.418
 5655SOL    HW217865   1.256   3.360   4.347
 5656SOL     OW17866   2.060   4.718   0.644
 5656SOL    HW117867   2.111   4.656   0.703
 5656SOL    HW217868   2.095   4.713   0.551
 5657SOL     OW17869   5.484   0.583   1.022
 5657SOL    HW117870   5.395   0.629   1.032
 5657SOL    HW217871   5.528   0.578   1.112
 5658SOL     OW17872   3.260   5.925   5.945
 5658SOL    HW117873   3.247   5.890   5.852
 5658SOL    HW217874   3.349   5.971   5.950
 5659SOL     OW17875   3.374   4.181   3.218
 5659SOL    HW117876   3.321   4.109   3.172
 5659SOL    HW217877   3.362   4.267   3.169
 5660SOL     OW17878   5.640   0.244   5.715
 5660SOL    HW117879   5.558   0.193   5.687
 5660SOL    HW217880   5.720   0.205   5.670
 5661SOL     OW17881   0.341   4.386   6.010
 5661SOL    HW117882   0.397   4.312   5.975
 5661SOL    HW217883   0.252   4.385   5.964
 5662SOL     OW17884   2.719   5.326   3.792
 5662SOL    HW117885   2.732   5.228   3.784
 5662SOL    HW217886   2.706   5.350   3.889
 5663SOL     OW17887   2.123   4.041   6.999
 5663SOL    HW117888   2.112   4.039   6.900
 5663SOL    HW217889   2.052   4.100   0.009
 5664SOL     OW17890   6.984   4.227   4.354
 5664SOL    HW117891   6.889   4.208   4.379
 5664SOL    HW217892   0.014   4.210   4.433
 5665SOL     OW17893   1.761   1.714   6.994
 5665SOL    HW117894   1.719   1.718   0.055
 5665SOL    HW217895   1.858   1.737   7.001
 5666SOL     OW17896   5.590   6.121   0.993
 5666SOL    HW117897   5.630   6.032   1.019
 5666SOL    HW217898   5.661   6.178   0.953
 5667SOL     OW17899   1.501   4.097   3.717
 5667SOL    HW117900   1.421   4.148   3.684
 5667SOL    HW217901   1.576   4.107   3.652
 5668SOL     OW17902   5.782   1.856   5.607
 5668SOL    HW117903   5.746   1.778   5.556
 5668SOL    HW217904   5.708   1.902   5.655
 5669SOL     OW17905   0.328   2.994   6.520
 5669SOL    HW117906   0.376   2.940   6.589
 5669SOL    HW217907   0.358   3.089   6.525
 5670SOL     OW17908   0.139   2.977   3.825
 5670SOL    HW117909   0.067   3.037   3.791
 5670SOL    HW217910   0.100   2.887   3.844
 5671SOL     OW17911   0.764   6.802   6.495
 5671SOL    HW117912   0.697   6.739   6.536
 5671SOL    HW217913   0.822   6.751   6.431
 5672SOL     OW17914   4.614   4.449   6.754
 5672SOL    HW117915   4.598   4.350   6.756
 5672SOL    HW217916   4.567   4.489   6.675
 5673SOL     OW17917   0.900   5.904   1.766
 5673SOL    HW117918   0.859   5.989   1.797
 5673SOL    HW217919   0.837   5.828   1.782
 5674SOL     OW17920   6.880   4.168   3.882
 5674SOL    HW117921   6.970   4.211   3.871
 5674SOL    HW217922   6.829   4.214   3.955
 5675SOL     OW17923   4.500   2.146   6.365
 5675SOL    HW117924   4.438   2.122   6.291
 5675SOL    HW217925   4.476   2.237   6.400
 5676SOL     OW17926   1.923   2.018   2.034
 5676SOL    HW117927   1.853   2.014   2.106
 5676SOL    HW217928   2.014   2.007   2.075
 5677SOL     OW17929   0.763   2.621   2.834
 5677SOL    HW117930   0.845   2.607   2.779
 5677SOL    HW217931   0.682   2.610   2.777
 5678SOL     OW17932   2.343   6.344   3.053
 5678SOL    HW117933   2.433   6.378   3.082
 5678SOL    HW217934   2.282   6.340   3.131
 5679SOL     OW17935   1.122   0.466   3.343
 5679SOL    HW117936   1.181   0.485   3.265
 5679SOL    HW217937   1.174   0.421   3.415
 5680SOL     OW17938   1.325   5.690   0.700
 5680SOL    HW117939   1.338   5.600   0.741
 5680SOL    HW217940   1.407   5.746   0.714
 5681SOL     OW17941   0.341   3.429   6.819
 5681SOL    HW117942   0.332   3.523   6.786
 5681SOL    HW217943   0.311   3.424   6.914
 5682SOL     OW17944   2.024   4.962   5.149
 5682SOL    HW117945   2.091   4.977   5.222
 5682SOL    HW217946   2.037   4.871   5.110
 5683SOL     OW17947   3.653   1.247   0.068
 5683SOL    HW117948   3.664   1.181   0.142
 5683SOL    HW217949   3.736   1.248   0.012
 5684SOL     OW17950   3.766   2.944   4.751
 5684SOL    HW117951   3.818   2.905   4.675
 5684SOL    HW217952   3.798   3.036   4.771
 5685SOL     OW17953   1.560   3.591   1.808
 5685SOL    HW117954   1.654   3.566   1.785
 5685SOL    HW217955   1.502   3.510   1.804
 5686SOL     OW17956   3.154   6.927   6.393
 5686SOL    HW117957   3.072   6.874   6.416
 5686SOL    HW217958   3.161   6.935   6.293
 5687SOL     OW17959   0.229   3.565   5.053
 5687SOL    HW117960   0.147   3.604   5.011
 5687SOL    HW217961   0.230   3.586   5.151
 5688SOL     OW17962   6.561   2.068   0.014
 5688SOL    HW117963   6.533   2.069   6.948
 5688SOL    HW217964   6.485   2.096   0.072
 5689SOL     OW17965   4.206   0.397   0.247
 5689SOL    HW117966   4.214   0.447   0.333
 5689SOL    HW217967   4.110   0.395   0.219
 5690SOL     OW17968   2.672   6.572   0.509
 5690SOL    HW117969   2.626   6.647   0.557
 5690SOL    HW217970   2.771   6.580   0.522
 5691SOL     OW17971   2.788   6.191   1.883
 5691SOL    HW117972   2.695   6.180   1.849
 5691SOL    HW217973   2.848   6.217   1.808
 5692SOL     OW17974   6.847   3.463   5.782
 5692SOL    HW117975   6.798   3.453   5.696
 5692SOL    HW217976   6.942   3.434   5.769
 5693SOL     OW17977   6.137   2.670   2.746
 5693SOL    HW117978   6.228   2.680   2.707
 5693SOL    HW217979   6.076   2.630   2.677
 5694SOL     OW17980   1.005   1.583   3.372
 5694SOL    HW117981   0.995   1.483   3.368
 5694SOL    HW217982   1.016   1.612   3.467
 5695SOL     OW17983   1.287   2.774   3.167
 5695SOL    HW117984   1.338   2.846   3.214
 5695SOL    HW217985   1.333   2.686   3.180
 5696SOL     OW17986   1.079   0.281   3.093
 5696SOL    HW117987   1.102   0.359   3.035
 5696SOL    HW217988   0.980   0.265   3.088
 5697SOL     OW17989   6.289   2.122   0.895
 5697SOL    HW117990   6.297   2.120   0.995
 5697SOL    HW217991   6.216   2.184   0.869
 5698SOL     OW17992   0.552   3.227   2.067
 5698SOL    HW117993   0.572   3.304   2.128
 5698SOL    HW217994   0.517   3.151   2.121
 5699SOL     OW17995   6.208   2.304   3.421
 5699SOL    HW117996   6.179   2.261   3.335
 5699SOL    HW217997   6.210   2.403   3.410
 5700SOL     OW17998   6.725   6.606   4.499
 5700SOL    HW117999   6.717   6.597   4.400
 5700SOL    HW218000   6.822   6.613   4.524
 5701SOL     OW18001   1.203   5.969   3.271
 5701SOL    HW118002   1.200   5.910   3.191
 5701SOL    HW218003   1.164   5.921   3.350
 5702SOL     OW18004   1.391   0.386   5.234
 5702SOL    HW118005   1.439   0.340   5.308
 5702SOL    HW218006   1.450   0.458   5.196
 5703SOL     OW18007   5.460   4.206   1.065
 5703SOL    HW118008   5.479   4.177   1.159
 5703SOL    HW218009   5.524   4.278   1.039
 5704SOL     OW18010   4.486   5.434   2.188
 5704SOL    HW118011   4.433   5.430   2.103
 5704SOL    HW218012   4.532   5.523   2.195
 5705SOL     OW18013   4.962   1.084   0.526
 5705SOL    HW118014   4.961   1.111   0.622
 5705SOL    HW218015   5.047   1.116   0.483
 5706SOL     OW18016   0.963   1.936   0.296
 5706SOL    HW118017   0.920   1.892   0.217
 5706SOL    HW218018   0.893   1.959   0.364
 5707SOL     OW18019   0.516   0.071   0.467
 5707SOL    HW118020   0.518   0.145   0.400
 5707SOL    HW218021   0.461   7.025   0.433
 5708SOL     OW18022   5.031   6.640   1.063
 5708SOL    HW118023   5.085   6.617   0.982
 5708SOL    HW218024   4.956   6.701   1.037
 5709SOL     OW18025   0.853   0.024   3.564
 5709SOL    HW118026   0.783   6.986   3.540
 5709SOL    HW218027   0.869   0.083   3.485
 5710SOL     OW18028   2.758   3.280   6.287
 5710SOL    HW118029   2.684   3.318   6.342
 5710SOL    HW218030   2.762   3.326   6.199
 5711SOL     OW18031   4.151   0.834   2.957
 5711SOL    HW118032   4.126   0.873   3.045
 5711SOL    HW218033   4.236   0.876   2.925
 5712SOL     OW18034   0.665   5.551   6.192
 5712SOL    HW118035   0.695   5.583   6.281
 5712SOL    HW218036   0.739   5.498   6.149
 5713SOL     OW18037   1.100   2.223   1.518
 5713SOL    HW118038   1.037   2.162   1.469
 5713SOL    HW218039   1.182   2.172   1.543
 5714SOL     OW18040   0.465   5.993   6.671
 5714SOL    HW118041   0.516   5.909   6.652
 5714SOL    HW218042   0.529   6.064   6.703
 5715SOL     OW18043   1.036   6.524   3.469
 5715SOL    HW118044   0.982   6.601   3.503
 5715SOL    HW218045   1.003   6.498   3.378
 5716SOL     OW18046   1.652   4.350   6.855
 5716SOL    HW118047   1.672   4.328   6.951
 5716SOL    HW218048   1.731   4.329   6.799
 5717SOL     OW18049   2.066   6.223   0.739
 5717SOL    HW118050   1.999   6.194   0.807
 5717SOL    HW218051   2.055   6.168   0.656
 5718SOL     OW18052   1.035   3.599   6.155
 5718SOL    HW118053   1.053   3.587   6.058
 5718SOL    HW218054   0.943   3.637   6.168
 5719SOL     OW18055   2.185   1.382   6.057
 5719SOL    HW118056   2.227   1.437   5.984
 5719SOL    HW218057   2.157   1.442   6.132
 5720SOL     OW18058   0.884   4.893   4.380
 5720SOL    HW118059   0.934   4.816   4.420
 5720SOL    HW218060   0.786   4.878   4.392
 5721SOL     OW18061   0.205   3.609   0.888
 5721SOL    HW118062   0.160   3.695   0.911
 5721SOL    HW218063   0.139   3.547   0.846
 5722SOL     OW18064   5.851   1.741   4.920
 5722SOL    HW118065   5.886   1.657   4.878
 5722SOL    HW218066   5.795   1.791   4.854
 5723SOL     OW18067   4.266   3.803   0.298
 5723SOL    HW118068   4.246   3.754   0.383
 5723SOL    HW218069   4.310   3.742   0.233
 5724SOL     OW18070   3.945   2.677   5.350
 5724SOL    HW118071   3.848   2.671   5.326
 5724SOL    HW218072   3.999   2.623   5.285
 5725SOL     OW18073   6.248   5.567   3.941
 5725SOL    HW118074   6.323   5.501   3.945
 5725SOL    HW218075   6.199   5.556   3.854
 5726SOL     OW18076   6.505   3.791   3.999
 5726SOL    HW118077   6.535   3.732   3.924
 5726SOL    HW218078   6.533   3.885   3.981
 5727SOL     OW18079   0.893   2.377   4.021
 5727SOL    HW118080   0.822   2.409   3.959
 5727SOL    HW218081   0.866   2.396   4.116
 5728SOL     OW18082   4.873   1.365   6.604
 5728SOL    HW118083   4.889   1.389   6.700
 5728SOL    HW218084   4.840   1.270   6.599
 5729SOL     OW18085   0.777   1.754   0.135
 5729SOL    HW118086   0.712   1.744   0.211
 5729SOL    HW218087   0.839   1.676   0.134
 5730SOL     OW18088   4.219   5.366   5.743
 5730SOL    HW118089   4.198   5.270   5.724
 5730SOL    HW218090   4.234   5.414   5.656
 5731SOL     OW18091   1.806   6.418   4.056
 5731SOL    HW118092   1.869   6.441   4.131
 5731SOL    HW218093   1.811   6.489   3.986
 5732SOL     OW18094   6.736   4.595   5.787
 5732SOL    HW118095   6.699   4.632   5.702
 5732SOL    HW218096   6.694   4.506   5.807
 5733SOL     OW18097   3.021   0.299   5.608
 5733SOL    HW118098   3.012   0.376   5.670
 5733SOL    HW218099   2.961   0.225   5.639
 5734SOL     OW18100   1.276   6.085   6.117
 5734SOL    HW118101   1.373   6.071   6.132
 5734SOL    HW218102   1.235   6.001   6.080
 5735SOL     OW18103   4.069   1.530   2.487
 5735SOL    HW118104   4.063   1.539   2.587
 5735SOL    HW218105   4.161   1.554   2.457
 5736SOL     OW18106   5.814   4.149   0.929
 5736SOL    HW118107   5.746   4.184   0.865
 5736SOL    HW218108   5.830   4.052   0.910
 5737SOL     OW18109   5.447   5.953   6.970
 5737SOL    HW118110   5.474   5.857   6.962
 5737SOL    HW218111   5.349   5.958   6.987
 5738SOL     OW18112   3.259   2.560   6.677
 5738SOL    HW118113   3.206   2.559   6.592
 5738SOL    HW218114   3.197   2.567   6.755
 5739SOL     OW18115   0.775   6.218   5.650
 5739SOL    HW118116   0.840   6.293   5.659
 5739SOL    HW218117   0.714   6.217   5.730
 5740SOL     OW18118   4.135   4.316   0.980
 5740SOL    HW118119   4.183   4.404   0.983
 5740SOL    HW218120   4.185   4.252   0.921
 5741SOL     OW18121   6.715   4.033   4.609
 5741SOL    HW118122   6.637   4.095   4.602
 5741SOL    HW218123   6.799   4.087   4.619
 5742SOL     OW18124   4.665   6.222   2.285
 5742SOL    HW118125   4.590   6.201   2.347
 5742SOL    HW218126   4.678   6.147   2.221
 5743SOL     OW18127   1.973   5.857   5.713
 5743SOL    HW118128   1.931   5.773   5.746
 5743SOL    HW218129   1.970   5.859   5.613
 5744SOL     OW18130   4.835   1.514   1.162
 5744SOL    HW118131   4.843   1.566   1.247
 5744SOL    HW218132   4.894   1.434   1.166
 5745SOL     OW18133   1.967   1.054   3.221
 5745SOL    HW118134   1.992   1.034   3.316
 5745SOL    HW218135   2.026   1.001   3.160
 5746SOL     OW18136   4.697   0.379   2.063
 5746SOL    HW118137   4.736   0.402   2.153
 5746SOL    HW218138   4.709   0.282   2.045
 5747SOL     OW18139   1.337   5.372   1.869
 5747SOL    HW118140   1.362   5.441   1.937
 5747SOL    HW218141   1.388   5.389   1.784
 5748SOL     OW18142   1.108   0.345   1.430
 5748SOL    HW118143   1.059   0.390   1.506
 5748SOL    HW218144   1.043   0.321   1.358
 5749SOL     OW18145   1.310   6.331   5.026
 5749SOL    HW118146   1.311   6.352   5.124
 5749SOL    HW218147   1.219   6.300   4.999
 5750SOL     OW18148   6.199   6.038   4.809
 5750SOL    HW118149   6.206   5.958   4.869
 5750SOL    HW218150   6.162   6.010   4.720
 5751SOL     OW18151   2.337   2.774   4.894
 5751SOL    HW118152   2.335   2.813   4.802
 5751SOL    HW218153   2.352   2.847   4.961
 5752SOL     OW18154   5.422   0.621   0.372
 5752SOL    HW118155   5.351   0.636   0.304
 5752SOL    HW218156   5.389   0.651   0.462
 5753SOL     OW18157   3.681   4.034   4.275
 5753SOL    HW118158   3.608   3.981   4.231
 5753SOL    HW218159   3.683   4.014   4.372
 5754SOL     OW18160   0.082   5.626   2.039
 5754SOL    HW118161   0.019   5.681   2.095
 5754SOL    HW218162   0.128   5.559   2.097
 5755SOL     OW18163   1.889   2.354   6.525
 5755SOL    HW118164   1.907   2.328   6.620
 5755SOL    HW218165   1.810   2.416   6.523
 5756SOL     OW18166   6.805   0.052   2.936
 5756SOL    HW118167   6.877   0.085   2.997
 5756SOL    HW218168   6.716   0.062   2.982
 5757SOL     OW18169   0.050   5.473   3.034
 5757SOL    HW118170   7.012   5.405   3.064
 5757SOL    HW218171   0.074   5.532   3.111
 5758SOL     OW18172   2.409   1.489   3.733
 5758SOL    HW118173   2.468   1.423   3.779
 5758SOL    HW218174   2.455   1.577   3.728
 5759SOL     OW18175   4.807   0.648   6.742
 5759SOL    HW118176   4.856   0.564   6.719
 5759SOL    HW218177   4.830   0.675   6.836
 5760SOL     OW18178   6.810   2.618   0.946
 5760SOL    HW118179   6.836   2.706   0.985
 5760SOL    HW218180   6.891   2.559   0.938
 5761SOL     OW18181   5.857   4.920   5.987
 5761SOL    HW118182   5.762   4.916   6.018
 5761SOL    HW218183   5.918   4.902   6.065
 5762SOL     OW18184   5.195   3.837   1.118
 5762SOL    HW118185   5.111   3.839   1.063
 5762SOL    HW218186   5.274   3.842   1.057
 5763SOL     OW18187   6.649   5.613   0.596
 5763SOL    HW118188   6.587   5.535   0.609
 5763SOL    HW218189   6.701   5.629   0.680
 5764SOL     OW18190   5.293   4.719   5.187
 5764SOL    HW118191   5.328   4.629   5.209
 5764SOL    HW218192   5.369   4.781   5.166
 5765SOL     OW18193   6.606   2.943   1.099
 5765SOL    HW118194   6.614   2.870   1.031
 5765SOL    HW218195   6.541   3.012   1.067
 5766SOL     OW18196   1.576   1.757   5.931
 5766SOL    HW118197   1.643   1.802   5.872
 5766SOL    HW218198   1.583   1.794   6.023
 5767SOL     OW18199   2.051   0.411   0.773
 5767SOL    HW118200   2.055   0.434   0.870
 5767SOL    HW218201   1.956   0.400   0.745
 5768SOL     OW18202   1.097   6.328   4.204
 5768SOL    HW118203   1.172   6.390   4.181
 5768SOL    HW218204   1.045   6.364   4.281
 5769SOL     OW18205   2.189   5.457   4.324
 5769SOL    HW118206   2.254   5.396   4.278
 5769SOL    HW218207   2.098   5.445   4.285
 5770SOL     OW18208   6.483   6.034   6.647
 5770SOL    HW118209   6.551   6.045   6.574
 5770SOL    HW218210   6.505   5.953   6.701
 5771SOL     OW18211   1.017   0.101   4.481
 5771SOL    HW118212   0.933   0.148   4.507
 5771SOL    HW218213   1.003   0.002   4.486
 5772SOL     OW18214   5.613   1.064   1.738
 5772SOL    HW118215   5.522   1.094   1.766
 5772SOL    HW218216   5.667   1.040   1.818
 5773SOL     OW18217   4.024   0.659   3.433
 5773SOL    HW118218   3.940   0.711   3.444
 5773SOL    HW218219   4.020   0.603   3.350
 5774SOL     OW18220   3.124   6.257   3.977
 5774SOL    HW118221   3.081   6.172   4.008
 5774SOL    HW218222   3.103   6.271   3.880
 5775SOL     OW18223   1.437   0.559   2.568
 5775SOL    HW118224   1.492   0.615   2.630
 5775SOL    HW218225   1.496   0.495   2.520
 5776SOL     OW18226   0.246   0.628   4.461
 5776SOL    HW118227   0.201   0.540   4.445
 5776SOL    HW218228   0.299   0.653   4.380
 5777SOL     OW18229   6.626   0.638   4.804
 5777SOL    HW118230   6.654   0.693   4.883
 5777SOL    HW218231   6.700   0.575   4.780
 5778SOL     OW18232   1.402   0.370   0.562
 5778SOL    HW118233   1.413   0.296   0.628
 5778SOL    HW218234   1.481   0.372   0.501
 5779SOL     OW18235   4.264   2.716   1.029
 5779SOL    HW118236   4.358   2.711   0.995
 5779SOL    HW218237   4.221   2.800   0.996
 5780SOL     OW18238   6.375   5.872   4.303
 5780SOL    HW118239   6.309   5.855   4.230
 5780SOL    HW218240   6.392   5.786   4.352
 5781SOL     OW18241   6.482   5.421   4.726
 5781SOL    HW118242   6.501   5.360   4.803
 5781SOL    HW218243   6.568   5.459   4.692
 5782SOL     OW18244   1.143   1.494   0.708
 5782SOL    HW118245   1.113   1.582   0.670
 5782SOL    HW218246   1.063   1.436   0.725
 5783SOL     OW18247   1.292   0.495   1.898
 5783SOL    HW118248   1.297   0.429   1.974
 5783SOL    HW218249   1.367   0.561   1.905
 5784SOL     OW18250   6.945   5.787   6.439
 5784SOL    HW118251   6.924   5.765   6.534
 5784SOL    HW218252   6.861   5.782   6.385
 5785SOL     OW18253   2.465   1.617   0.506
 5785SOL    HW118254   2.533   1.674   0.461
 5785SOL    HW218255   2.404   1.675   0.560
 5786SOL     OW18256   1.306   3.796   0.370
 5786SOL    HW118257   1.259   3.811   0.283
 5786SOL    HW218258   1.367   3.718   0.362
 5787SOL     OW18259   3.566   2.113   4.829
 5787SOL    HW118260   3.516   2.162   4.758
 5787SOL    HW218261   3.563   2.015   4.810
 5788SOL     OW18262   2.970   1.224   1.299
 5788SOL    HW118263   2.901   1.164   1.339
 5788SOL    HW218264   2.962   1.223   1.200
 5789SOL     OW18265   3.248   4.678   6.622
 5789SOL    HW118266   3.325   4.732   6.589
 5789SOL    HW218267   3.194   4.732   6.687
 5790SOL     OW18268   1.069   4.745   4.505
 5790SOL    HW118269   1.078   4.653   4.543
 5790SOL    HW218270   1.154   4.769   4.457
 5791SOL     OW18271   3.490   1.333   2.907
 5791SOL    HW118272   3.509   1.290   2.995
 5791SOL    HW218273   3.420   1.403   2.919
 5792SOL     OW18274   6.314   3.093   2.653
 5792SOL    HW118275   6.237   3.061   2.708
 5792SOL    HW218276   6.326   3.032   2.575
 5793SOL     OW18277   4.854   1.076   3.655
 5793SOL    HW118278   4.832   1.146   3.588
 5793SOL    HW218279   4.799   1.089   3.737
 5794SOL     OW18280   2.329   0.718   0.169
 5794SOL    HW118281   2.401   0.738   0.103
 5794SOL    HW218282   2.263   0.655   0.129
 5795SOL     OW18283   6.255   7.018   6.630
 5795SOL    HW118284   6.167   6.982   6.659
 5795SOL    HW218285   6.327   6.952   6.652
 5796SOL     OW18286   4.856   1.319   6.291
 5796SOL    HW118287   4.928   1.282   6.349
 5796SOL    HW218288   4.889   1.401   6.244
 5797SOL     OW18289   4.971   2.401   6.540
 5797SOL    HW118290   5.001   2.325   6.483
 5797SOL    HW218291   4.977   2.486   6.489
 5798SOL     OW18292   0.923   4.951   5.226
 5798SOL    HW118293   0.909   4.931   5.323
 5798SOL    HW218294   0.872   5.034   5.202
 5799SOL     OW18295   0.431   0.570   3.588
 5799SOL    HW118296   0.528   0.590   3.578
 5799SOL    HW218297   0.403   0.503   3.519
 5800SOL     OW18298   6.343   6.355   1.976
 5800SOL    HW118299   6.284   6.275   1.965
 5800SOL    HW218300   6.429   6.339   1.929
 5801SOL     OW18301   2.180   2.650   3.444
 5801SOL    HW118302   2.274   2.676   3.466
 5801SOL    HW218303   2.163   2.557   3.478
 5802SOL     OW18304   0.498   4.080   2.249
 5802SOL    HW118305   0.531   4.087   2.155
 5802SOL    HW218306   0.491   3.984   2.276
 5803SOL     OW18307   2.585   5.460   2.164
 5803SOL    HW118308   2.543   5.550   2.158
 5803SOL    HW218309   2.657   5.452   2.095
 5804SOL     OW18310   0.227   6.125   3.983
 5804SOL    HW118311   0.129   6.118   4.001
 5804SOL    HW218312   0.257   6.219   3.998
 5805SOL     OW18313   2.191   3.429   0.329
 5805SOL    HW118314   2.162   3.510   0.380
 5805SOL    HW218315   2.118   3.360   0.331
 5806SOL     OW18316   6.743   5.111   5.144
 5806SOL    HW118317   6.698   5.199   5.160
 5806SOL    HW218318   6.744   5.091   5.046
 5807SOL     OW18319   0.627   3.676   1.529
 5807SOL    HW118320   0.685   3.599   1.554
 5807SOL    HW218321   0.684   3.752   1.499
 5808SOL     OW18322   6.191   5.830   4.989
 5808SOL    HW118323   6.256   5.777   4.934
 5808SOL    HW218324   6.231   5.850   5.078
 5809SOL     OW18325   5.479   2.131   4.521
 5809SOL    HW118326   5.403   2.076   4.557
 5809SOL    HW218327   5.556   2.071   4.499
 5810SOL     OW18328   3.858   1.557   4.893
 5810SOL    HW118329   3.934   1.563   4.829
 5810SOL    HW218330   3.841   1.647   4.934
 5811SOL     OW18331   3.063   0.924   4.953
 5811SOL    HW118332   3.017   0.968   4.875
 5811SOL    HW218333   3.161   0.943   4.949
 5812SOL     OW18334   6.457   2.583   4.079
 5812SOL    HW118335   6.557   2.582   4.074
 5812SOL    HW218336   6.419   2.537   3.998
 5813SOL     OW18337   1.636   1.831   0.909
 5813SOL    HW118338   1.683   1.752   0.870
 5813SOL    HW218339   1.703   1.897   0.941
 5814SOL     OW18340   6.490   4.288   2.460
 5814SOL    HW118341   6.500   4.212   2.524
 5814SOL    HW218342   6.398   4.327   2.469
 5815SOL     OW18343   3.991   1.784   4.492
 5815SOL    HW118344   3.905   1.800   4.443
 5815SOL    HW218345   4.016   1.866   4.543
 5816SOL     OW18346   4.686   5.362   0.260
 5816SOL    HW118347   4.709   5.443   0.314
 5816SOL    HW218348   4.613   5.384   0.196
 5817SOL     OW18349   5.572   3.601   5.836
 5817SOL    HW118350   5.622   3.519   5.865
 5817SOL    HW218351   5.473   3.582   5.838
 5818SOL     OW18352   6.646   5.647   4.994
 5818SOL    HW118353   6.728   5.591   4.986
 5818SOL    HW218354   6.663   5.738   4.958
 5819SOL     OW18355   3.931   6.793   6.559
 5819SOL    HW118356   4.000   6.787   6.631
 5819SOL    HW218357   3.975   6.819   6.473
 5820SOL     OW18358   4.697   5.407   3.594
 5820SOL    HW118359   4.691   5.411   3.494
 5820SOL    HW218360   4.620   5.354   3.630
 5821SOL     OW18361   0.004   6.360   1.167
 5821SOL    HW118362   6.994   6.434   1.220
 5821SOL    HW218363   6.993   6.358   1.076
 5822SOL     OW18364   2.018   2.294   1.235
 5822SOL    HW118365   2.088   2.366   1.236
 5822SOL    HW218366   2.041   2.224   1.302
 5823SOL     OW18367   1.731   0.413   5.419
 5823SOL    HW118368   1.678   0.497   5.432
 5823SOL    HW218369   1.731   0.388   5.322
 5824SOL     OW18370   6.855   5.912   2.149
 5824SOL    HW118371   6.763   5.905   2.110
 5824SOL    HW218372   6.898   5.997   2.117
 5825SOL     OW18373   0.568   1.567   5.722
 5825SOL    HW118374   0.475   1.555   5.686
 5825SOL    HW218375   0.586   1.498   5.792
 5826SOL     OW18376   0.083   4.992   6.019
 5826SOL    HW118377   0.004   4.992   6.081
 5826SOL    HW218378   0.125   4.901   6.018
 5827SOL     OW18379   2.128   3.922   4.798
 5827SOL    HW118380   2.164   3.969   4.718
 5827SOL    HW218381   2.168   3.962   4.881
 5828SOL     OW18382   6.577   1.758   1.552
 5828SOL    HW118383   6.596   1.853   1.527
 5828SOL    HW218384   6.543   1.755   1.646
 5829SOL     OW18385   1.180   0.775   3.401
 5829SOL    HW118386   1.207   0.727   3.485
 5829SOL    HW218387   1.216   0.725   3.322
 5830SOL     OW18388   5.044   6.342   5.588
 5830SOL    HW118389   5.045   6.404   5.509
 5830SOL    HW218390   5.008   6.389   5.668
 5831SOL     OW18391   1.274   1.394   5.733
 5831SOL    HW118392   1.270   1.429   5.827
 5831SOL    HW218393   1.299   1.297   5.734
 5832SOL     OW18394   2.560   4.723   6.772
 5832SOL    HW118395   2.501   4.732   6.692
 5832SOL    HW218396   2.571   4.626   6.794
 5833SOL     OW18397   3.563   3.676   4.945
 5833SOL    HW118398   3.526   3.769   4.939
 5833SOL    HW218399   3.545   3.639   5.036
 5834SOL     OW18400   6.948   2.925   0.158
 5834SOL    HW118401   6.889   2.913   0.079
 5834SOL    HW218402   7.007   3.004   0.145
 5835SOL     OW18403   4.909   3.248   3.513
 5835SOL    HW118404   4.996   3.200   3.498
 5835SOL    HW218405   4.927   3.335   3.559
 5836SOL     OW18406   2.623   6.726   2.041
 5836SOL    HW118407   2.577   6.657   2.097
 5836SOL    HW218408   2.624   6.696   1.946
 5837SOL     OW18409   3.983   3.892   6.025
 5837SOL    HW118410   3.920   3.819   6.001
 5837SOL    HW218411   4.001   3.949   5.945
 5838SOL     OW18412   2.797   1.854   0.645
 5838SOL    HW118413   2.896   1.860   0.653
 5838SOL    HW218414   2.764   1.926   0.584
 5839SOL     OW18415   0.630   2.189   2.553
 5839SOL    HW118416   0.684   2.223   2.630
 5839SOL    HW218417   0.690   2.148   2.485
 5840SOL     OW18418   0.395   5.450   6.366
 5840SOL    HW118419   0.330   5.420   6.435
 5840SOL    HW218420   0.454   5.373   6.341
 5841SOL     OW18421   4.849   1.793   2.149
 5841SOL    HW118422   4.943   1.822   2.167
 5841SOL    HW218423   4.842   1.694   2.162
 5842SOL     OW18424   4.773   3.054   1.186
 5842SOL    HW118425   4.756   3.152   1.193
 5842SOL    HW218426   4.803   3.019   1.275
 5843SOL     OW18427   1.323   4.143   3.048
 5843SOL    HW118428   1.240   4.128   2.996
 5843SOL    HW218429   1.342   4.063   3.105
 5844SOL     OW18430   1.935   6.066   5.878
 5844SOL    HW118431   1.944   5.991   5.813
 5844SOL    HW218432   1.936   6.030   5.971
 5845SOL     OW18433   0.480   0.280   2.512
 5845SOL    HW118434   0.576   0.257   2.525
 5845SOL    HW218435   0.469   0.329   2.426
 5846SOL     OW18436   6.711   2.963   4.561
 5846SOL    HW118437   6.656   3.046   4.545
 5846SOL    HW218438   6.690   2.895   4.491
 5847SOL     OW18439   2.780   2.425   1.255
 5847SOL    HW118440   2.808   2.476   1.337
 5847SOL    HW218441   2.759   2.330   1.281
 5848SOL     OW18442   1.795   6.255   2.926
 5848SOL    HW118443   1.873   6.253   2.989
 5848SOL    HW218444   1.729   6.323   2.958
 5849SOL     OW18445   0.580   0.625   6.034
 5849SOL    HW118446   0.570   0.529   6.059
 5849SOL    HW218447   0.527   0.682   6.097
 5850SOL     OW18448   6.838   3.585   2.325
 5850SOL    HW118449   6.811   3.566   2.419
 5850SOL    HW218450   6.938   3.589   2.319
 5851SOL     OW18451   4.857   3.718   2.696
 5851SOL    HW118452   4.865   3.655   2.619
 5851SOL    HW218453   4.868   3.667   2.782
 5852SOL     OW18454   6.216   5.738   3.089
 5852SOL    HW118455   6.154   5.700   3.020
 5852SOL    HW218456   6.223   5.837   3.077
 5853SOL     OW18457   3.507   5.826   4.020
 5853SOL    HW118458   3.475   5.902   3.964
 5853SOL    HW218459   3.606   5.831   4.030
 5854SOL     OW18460   4.891   4.506   6.230
 5854SOL    HW118461   4.954   4.488   6.154
 5854SOL    HW218462   4.800   4.527   6.193
 5855SOL     OW18463   0.673   1.655   4.584
 5855SOL    HW118464   0.659   1.753   4.593
 5855SOL    HW218465   0.717   1.619   4.666
 5856SOL     OW18466   2.471   5.738   3.666
 5856SOL    HW118467   2.387   5.694   3.695
 5856SOL    HW218468   2.533   5.670   3.627
 5857SOL     OW18469   6.367   1.914   6.009
 5857SOL    HW118470   6.373   1.878   6.102
 5857SOL    HW218471   6.440   1.875   5.954
 5858SOL     OW18472   2.853   1.895   2.370
 5858SOL    HW118473   2.881   1.893   2.274
 5858SOL    HW218474   2.763   1.937   2.377
 5859SOL     OW18475   5.872   6.306   1.191
 5859SOL    HW118476   5.959   6.269   1.224
 5859SOL    HW218477   5.799   6.280   1.253
 5860SOL     OW18478   0.792   3.446   1.601
 5860SOL    HW118479   0.884   3.452   1.641
 5860SOL    HW218480   0.729   3.408   1.669
 5861SOL     OW18481   4.346   1.712   4.440
 5861SOL    HW118482   4.250   1.689   4.424
 5861SOL    HW218483   4.356   1.750   4.532
 5862SOL     OW18484   6.048   5.268   1.462
 5862SOL    HW118485   6.013   5.226   1.546
 5862SOL    HW218486   6.124   5.214   1.426
 5863SOL     OW18487   3.570   1.938   5.247
 5863SOL    HW118488   3.479   1.978   5.262
 5863SOL    HW218489   3.622   1.996   5.184
 5864SOL     OW18490   4.255   3.648   1.780
 5864SOL    HW118491   4.252   3.553   1.749
 5864SOL    HW218492   4.212   3.654   1.870
 5865SOL     OW18493   6.105   0.446   4.859
 5865SOL    HW118494   6.050   0.375   4.904
 5865SOL    HW218495   6.201   0.421   4.863
 5866SOL     OW18496   4.299   4.733   6.923
 5866SOL    HW118497   4.267   4.647   6.885
 5866SOL    HW218498   4.223   4.798   6.928
 5867SOL     OW18499   1.857   3.560   0.481
 5867SOL    HW118500   1.833   3.549   0.385
 5867SOL    HW218501   1.773   3.567   0.536
 5868SOL     OW18502   0.950   1.993   5.409
 5868SOL    HW118503   1.015   1.926   5.373
 5868SOL    HW218504   0.868   1.992   5.351
 5869SOL     OW18505   1.432   6.124   3.369
 5869SOL    HW118506   1.421   6.150   3.465
 5869SOL    HW218507   1.343   6.095   3.333
 5870SOL     OW18508   5.321   5.761   4.722
 5870SOL    HW118509   5.387   5.814   4.775
 5870SOL    HW218510   5.262   5.823   4.670
 5871SOL     OW18511   3.908   2.792   1.488
 5871SOL    HW118512   3.884   2.760   1.396
 5871SOL    HW218513   3.900   2.717   1.553
 5872SOL     OW18514   4.100   6.391   1.103
 5872SOL    HW118515   4.086   6.357   1.196
 5872SOL    HW218516   4.013   6.422   1.065
 5873SOL     OW18517   3.283   2.089   1.517
 5873SOL    HW118518   3.199   2.100   1.464
 5873SOL    HW218519   3.270   2.127   1.609
 5874SOL     OW18520   2.982   3.886   6.427
 5874SOL    HW118521   3.054   3.819   6.447
 5874SOL    HW218522   2.937   3.862   6.341
 5875SOL     OW18523   4.325   0.833   6.758
 5875SOL    HW118524   4.319   0.866   6.664
 5875SOL    HW218525   4.380   0.749   6.761
 5876SOL     OW18526   3.566   3.891   0.674
 5876SOL    HW118527   3.469   3.911   0.688
 5876SOL    HW218528   3.613   3.887   0.762
 5877SOL     OW18529   0.283   0.647   1.131
 5877SOL    HW118530   0.285   0.633   1.230
 5877SOL    HW218531   0.191   0.676   1.103
 5878SOL     OW18532   6.253   5.174   4.193
 5878SOL    HW118533   6.261   5.096   4.131
 5878SOL    HW218534   6.299   5.152   4.279
 5879SOL     OW18535   2.143   3.999   6.707
 5879SOL    HW118536   2.163   4.047   6.622
 5879SOL    HW218537   2.220   3.941   6.732
 5880SOL     OW18538   5.635   4.237   6.521
 5880SOL    HW118539   5.543   4.250   6.558
 5880SOL    HW218540   5.648   4.299   6.443
 5881SOL     OW18541   0.795   6.518   2.425
 5881SOL    HW118542   0.726   6.498   2.355
 5881SOL    HW218543   0.877   6.464   2.408
 5882SOL     OW18544   0.200   5.410   6.550
 5882SOL    HW118545   0.144   5.329   6.538
 5882SOL    HW218546   0.141   5.490   6.562
 5883SOL     OW18547   0.494   1.939   6.657
 5883SOL    HW118548   0.466   1.844   6.644
 5883SOL    HW218549   0.446   1.978   6.736
 5884SOL     OW18550   4.707   1.457   4.029
 5884SOL    HW118551   4.639   1.527   4.007
 5884SOL    HW218552   4.684   1.415   4.117
 5885SOL     OW18553   6.952   5.741   2.348
 5885SOL    HW118554   6.902   5.796   2.282
 5885SOL    HW218555   6.972   5.796   2.429
 5886SOL     OW18556   0.392   2.135   3.710
 5886SOL    HW118557   0.369   2.195   3.634
 5886SOL    HW218558   0.369   2.179   3.796
 5887SOL     OW18559   2.347   2.618   1.546
 5887SOL    HW118560   2.417   2.688   1.536
 5887SOL    HW218561   2.290   2.639   1.625
 5888SOL     OW18562   1.563   0.311   1.258
 5888SOL    HW118563   1.518   0.262   1.333
 5888SOL    HW218564   1.632   0.373   1.295
 5889SOL     OW18565   6.957   1.099   0.254
 5889SOL    HW118566   6.909   1.089   0.341
 5889SOL    HW218567   6.898   1.068   0.179
 5890SOL     OW18568   2.030   0.982   2.661
 5890SOL    HW118569   1.962   0.943   2.600
 5890SOL    HW218570   2.028   1.082   2.655
 5891SOL     OW18571   3.398   4.280   0.087
 5891SOL    HW118572   3.497   4.289   0.076
 5891SOL    HW218573   3.366   4.198   0.040
 5892SOL     OW18574   0.916   5.377   2.031
 5892SOL    HW118575   0.896   5.390   1.934
 5892SOL    HW218576   0.898   5.282   2.056
 5893SOL     OW18577   1.952   4.166   2.749
 5893SOL    HW118578   2.022   4.113   2.701
 5893SOL    HW218579   1.897   4.105   2.805
 5894SOL     OW18580   0.492   5.377   4.777
 5894SOL    HW118581   0.407   5.358   4.826
 5894SOL    HW218582   0.568   5.330   4.824
 5895SOL     OW18583   5.074   3.598   3.875
 5895SOL    HW118584   5.076   3.554   3.965
 5895SOL    HW218585   5.163   3.588   3.831
 5896SOL     OW18586   4.159   1.498   1.346
 5896SOL    HW118587   4.131   1.494   1.442
 5896SOL    HW218588   4.171   1.405   1.311
 5897SOL     OW18589   4.117   0.820   1.896
 5897SOL    HW118590   4.139   0.797   1.802
 5897SOL    HW218591   4.147   0.746   1.956
 5898SOL     OW18592   2.548   0.774   4.929
 5898SOL    HW118593   2.600   0.836   4.870
 5898SOL    HW218594   2.610   0.733   4.997
 5899SOL     OW18595   6.255   5.391   6.896
 5899SOL    HW118596   6.194   5.469   6.882
 5899SOL    HW218597   6.335   5.421   6.947
 5900SOL     OW18598   6.610   4.557   3.513
 5900SOL    HW118599   6.545   4.482   3.503
 5900SOL    HW218600   6.595   4.603   3.601
 5901SOL     OW18601   3.641   0.586   1.123
 5901SOL    HW118602   3.605   0.574   1.216
 5901SOL    HW218603   3.570   0.627   1.065
 5902SOL     OW18604   6.245   3.294   5.454
 5902SOL    HW118605   6.153   3.255   5.448
 5902SOL    HW218606   6.300   3.263   5.377
 5903SOL     OW18607   5.014   4.442   5.780
 5903SOL    HW118608   5.067   4.501   5.719
 5903SOL    HW218609   4.922   4.479   5.791
 5904SOL     OW18610   1.444   5.095   0.867
 5904SOL    HW118611   1.505   5.172   0.888
 5904SOL    HW218612   1.379   5.083   0.942
 5905SOL     OW18613   6.255   0.522   4.037
 5905SOL    HW118614   6.258   0.541   4.135
 5905SOL    HW218615   6.242   0.423   4.023
 5906SOL     OW18616   4.167   1.958   3.649
 5906SOL    HW118617   4.142   1.895   3.723
 5906SOL    HW218618   4.138   2.050   3.674
 5907SOL     OW18619   0.843   5.926   0.544
 5907SOL    HW118620   0.819   5.983   0.623
 5907SOL    HW218621   0.860   5.832   0.575
 5908SOL     OW18622   6.617   3.188   0.776
 5908SOL    HW118623   6.537   3.234   0.736
 5908SOL    HW218624   6.689   3.254   0.792
 5909SOL     OW18625   6.638   4.768   6.713
 5909SOL    HW118626   6.644   4.797   6.808
 5909SOL    HW218627   6.728   4.738   6.682
 5910SOL     OW18628   0.253   4.330   2.173
 5910SOL    HW118629   0.301   4.291   2.095
 5910SOL    HW218630   0.276   4.279   2.256
 5911SOL     OW18631   6.575   4.279   6.561
 5911SOL    HW118632   6.588   4.182   6.542
 5911SOL    HW218633   6.527   4.290   6.647
 5912SOL     OW18634   5.777   3.010   6.319
 5912SOL    HW118635   5.748   2.927   6.272
 5912SOL    HW218636   5.785   2.993   6.417
 5913SOL     OW18637   4.058   3.700   6.634
 5913SOL    HW118638   4.075   3.710   6.732
 5913SOL    HW218639   4.116   3.627   6.597
 5914SOL     OW18640   2.262   5.429   6.445
 5914SOL    HW118641   2.257   5.343   6.394
 5914SOL    HW218642   2.356   5.463   6.443
 5915SOL     OW18643   5.801   4.526   1.534
 5915SOL    HW118644   5.851   4.481   1.460
 5915SOL    HW218645   5.703   4.518   1.518
 5916SOL     OW18646   4.379   5.766   4.859
 5916SOL    HW118647   4.472   5.730   4.858
 5916SOL    HW218648   4.379   5.862   4.833
 5917SOL     OW18649   3.694   3.763   3.534
 5917SOL    HW118650   3.676   3.721   3.623
 5917SOL    HW218651   3.723   3.858   3.547
 5918SOL     OW18652   1.955   2.995   5.384
 5918SOL    HW118653   2.031   3.061   5.384
 5918SOL    HW218654   1.891   3.018   5.311
 5919SOL     OW18655   4.373   2.933   0.738
 5919SOL    HW118656   4.300   2.956   0.803
 5919SOL    HW218657   4.462   2.948   0.781
 5920SOL     OW18658   3.643   0.469   0.168
 5920SOL    HW118659   3.666   0.450   0.073
 5920SOL    HW218660   3.554   0.513   0.173
 5921SOL     OW18661   3.881   5.376   5.845
 5921SOL    HW118662   3.820   5.419   5.911
 5921SOL    HW218663   3.967   5.427   5.841
 5922SOL     OW18664   6.561   5.347   3.249
 5922SOL    HW118665   6.590   5.430   3.203
 5922SOL    HW218666   6.526   5.281   3.182
 5923SOL     OW18667   5.568   0.959   1.115
 5923SOL    HW118668   5.566   0.937   1.018
 5923SOL    HW218669   5.657   0.934   1.154
 5924SOL     OW18670   0.123   1.323   3.745
 5924SOL    HW118671   0.092   1.367   3.830
 5924SOL    HW218672   0.111   1.224   3.752
 5925SOL     OW18673   3.943   5.288   2.131
 5925SOL    HW118674   3.890   5.290   2.047
 5925SOL    HW218675   3.972   5.381   2.155
 5926SOL     OW18676   3.826   5.288   1.497
 5926SOL    HW118677   3.748   5.264   1.555
 5926SOL    HW218678   3.800   5.279   1.400
 5927SOL     OW18679   1.519   4.332   3.006
 5927SOL    HW118680   1.563   4.348   3.094
 5927SOL    HW218681   1.441   4.271   3.018
 5928SOL     OW18682   3.466   0.394   0.803
 5928SOL    HW118683   3.461   0.435   0.712
 5928SOL    HW218684   3.382   0.415   0.853
 5929SOL     OW18685   0.480   6.368   6.435
 5929SOL    HW118686   0.564   6.341   6.482
 5929SOL    HW218687   0.412   6.296   6.446
 5930SOL     OW18688   6.727   2.826   3.434
 5930SOL    HW118689   6.747   2.898   3.367
 5930SOL    HW218690   6.805   2.763   3.439
 5931SOL     OW18691   6.980   5.256   3.659
 5931SOL    HW118692   6.960   5.169   3.615
 5931SOL    HW218693   6.971   5.330   3.592
 5932SOL     OW18694   1.947   7.004   0.511
 5932SOL    HW118695   1.966   7.008   0.609
 5932SOL    HW218696   1.992   6.924   0.472
 5933SOL     OW18697   0.168   6.464   4.061
 5933SOL    HW118698   0.264   6.463   4.030
 5933SOL    HW218699   0.162   6.516   4.147
 5934SOL     OW18700   4.105   3.774   4.393
 5934SOL    HW118701   4.159   3.785   4.476
 5934SOL    HW218702   4.010   3.752   4.417
 5935SOL     OW18703   4.348   3.941   5.845
 5935SOL    HW118704   4.379   3.988   5.928
 5935SOL    HW218705   4.395   3.854   5.836
 5936SOL     OW18706   4.078   3.631   0.858
 5936SOL    HW118707   4.105   3.588   0.772
 5936SOL    HW218708   4.013   3.572   0.906
 5937SOL     OW18709   0.565   4.994   2.761
 5937SOL    HW118710   0.665   4.997   2.764
 5937SOL    HW218711   0.532   4.928   2.829
 5938SOL     OW18712   0.916   5.051   4.163
 5938SOL    HW118713   0.905   5.147   4.187
 5938SOL    HW218714   0.933   4.998   4.246
 5939SOL     OW18715   2.947   7.005   3.202
 5939SOL    HW118716   3.019   0.022   3.151
 5939SOL    HW218717   2.964   7.015   3.300
 5940SOL     OW18718   4.639   5.642   1.046
 5940SOL    HW118719   4.548   5.637   1.004
 5940SOL    HW218720   4.635   5.703   1.126
 5941SOL     OW18721   5.665   3.421   1.681
 5941SOL    HW118722   5.738   3.482   1.709
 5941SOL    HW218723   5.608   3.397   1.760
 5942SOL     OW18724   5.555   2.908   0.204
 5942SOL    HW118725   5.477   2.870   0.154
 5942SOL    HW218726   5.611   2.962   0.142
 5943SOL     OW18727   4.093   5.360   0.019
 5943SOL    HW118728   4.115   5.284   0.080
 5943SOL    HW218729   4.077   5.325   6.957
 5944SOL     OW18730   6.518   2.650   1.419
 5944SOL    HW118731   6.437   2.685   1.373
 5944SOL    HW218732   6.598   2.705   1.393
 5945SOL     OW18733   6.339   5.173   5.203
 5945SOL    HW118734   6.407   5.157   5.275
 5945SOL    HW218735   6.289   5.257   5.223
 5946SOL     OW18736   3.438   3.500   5.636
 5946SOL    HW118737   3.415   3.506   5.539
 5946SOL    HW218738   3.389   3.572   5.686
 5947SOL     OW18739   3.848   3.796   1.947
 5947SOL    HW118740   3.926   3.813   2.007
 5947SOL    HW218741   3.775   3.861   1.968
 5948SOL     OW18742   4.174   5.365   2.756
 5948SOL    HW118743   4.218   5.315   2.681
 5948SOL    HW218744   4.075   5.370   2.739
 5949SOL     OW18745   4.607   3.478   1.649
 5949SOL    HW118746   4.636   3.515   1.737
 5949SOL    HW218747   4.680   3.490   1.582
 5950SOL     OW18748   4.499   2.763   5.567
 5950SOL    HW118749   4.574   2.827   5.584
 5950SOL    HW218750   4.456   2.738   5.654
 5951SOL     OW18751   0.378   5.776   4.841
 5951SOL    HW118752   0.341   5.858   4.795
 5951SOL    HW218753   0.412   5.801   4.931
 5952SOL     OW18754   5.408   4.578   4.253
 5952SOL    HW118755   5.346   4.504   4.226
 5952SOL    HW218756   5.418   4.643   4.177
 5953SOL     OW18757   6.053   2.864   5.072
 5953SOL    HW118758   5.988   2.795   5.039
 5953SOL    HW218759   6.033   2.952   5.029
 5954SOL     OW18760   0.566   4.387   5.594
 5954SOL    HW118761   0.540   4.323   5.666
 5954SOL    HW218762   0.661   4.415   5.606
 5955SOL     OW18763   5.376   5.653   2.612
 5955SOL    HW118764   5.300   5.596   2.579
 5955SOL    HW218765   5.348   5.702   2.694
 5956SOL     OW18766   3.861   1.330   6.312
 5956SOL    HW118767   3.897   1.243   6.280
 5956SOL    HW218768   3.762   1.333   6.297
 5957SOL     OW18769   3.907   1.030   5.562
 5957SOL    HW118770   3.832   0.973   5.531
 5957SOL    HW218771   3.922   1.016   5.660
 5958SOL     OW18772   6.268   6.106   2.538
 5958SOL    HW118773   6.287   6.180   2.475
 5958SOL    HW218774   6.173   6.076   2.526
 5959SOL     OW18775   4.026   2.080   5.451
 5959SOL    HW118776   3.976   2.045   5.530
 5959SOL    HW218777   4.078   2.161   5.479
 5960SOL     OW18778   3.877   5.305   4.178
 5960SOL    HW118779   3.784   5.342   4.170
 5960SOL    HW218780   3.895   5.246   4.099
 5961SOL     OW18781   5.210   0.901   3.494
 5961SOL    HW118782   5.120   0.859   3.501
 5961SOL    HW218783   5.210   0.969   3.421
 5962SOL     OW18784   4.823   6.239   1.104
 5962SOL    HW118785   4.804   6.257   1.008
 5962SOL    HW218786   4.806   6.142   1.124
 5963SOL     OW18787   3.403   3.168   5.110
 5963SOL    HW118788   3.328   3.233   5.127
 5963SOL    HW218789   3.370   3.094   5.052
 5964SOL     OW18790   0.088   5.321   5.609
 5964SOL    HW118791   0.095   5.293   5.705
 5964SOL    HW218792   0.146   5.401   5.594
 5965SOL     OW18793   1.051   2.104   0.021
 5965SOL    HW118794   0.963   2.084   7.008
 5965SOL    HW218795   1.046   2.084   0.119
 5966SOL     OW18796   2.250   5.737   5.271
 5966SOL    HW118797   2.237   5.692   5.183
 5966SOL    HW218798   2.261   5.835   5.256
 5967SOL     OW18799   4.184   6.383   0.081
 5967SOL    HW118800   4.180   6.322   0.161
 5967SOL    HW218801   4.272   6.430   0.080
 5968SOL     OW18802   5.147   0.949   1.153
 5968SOL    HW118803   5.048   0.941   1.142
 5968SOL    HW218804   5.176   0.902   1.236
 5969SOL     OW18805   0.174   0.480   6.987
 5969SOL    HW118806   0.103   0.520   0.016
 5969SOL    HW218807   0.258   0.535   6.994
 5970SOL     OW18808   0.753   4.511   2.868
 5970SOL    HW118809   0.674   4.450   2.870
 5970SOL    HW218810   0.767   4.551   2.958
 5971SOL     OW18811   0.892   0.834   2.271
 5971SOL    HW118812   0.876   0.894   2.192
 5971SOL    HW218813   0.864   0.881   2.355
 5972SOL     OW18814   5.193   6.011   6.961
 5972SOL    HW118815   5.099   5.981   6.951
 5972SOL    HW218816   5.204   6.102   6.920
 5973SOL     OW18817   2.173   3.167   2.325
 5973SOL    HW118818   2.226   3.083   2.332
 5973SOL    HW218819   2.166   3.195   2.229
 5974SOL     OW18820   5.859   4.653   6.261
 5974SOL    HW118821   5.883   4.634   6.166
 5974SOL    HW218822   5.759   4.657   6.270
 5975SOL     OW18823   3.453   1.692   0.640
 5975SOL    HW118824   3.540   1.662   0.678
 5975SOL    HW218825   3.453   1.792   0.629
 5976SOL     OW18826   2.871   3.351   4.987
 5976SOL    HW118827   2.968   3.353   4.963
 5976SOL    HW218828   2.817   3.330   4.906
 5977SOL     OW18829   2.904   5.729   0.199
 5977SOL    HW118830   2.983   5.693   0.150
 5977SOL    HW218831   2.911   5.704   0.296
 5978SOL     OW18832   5.399   5.525   3.146
 5978SOL    HW118833   5.316   5.578   3.126
 5978SOL    HW218834   5.430   5.547   3.239
 5979SOL     OW18835   6.239   0.210   2.846
 5979SOL    HW118836   6.230   0.269   2.926
 5979SOL    HW218837   6.155   0.156   2.836
 5980SOL     OW18838   3.709   3.395   0.616
 5980SOL    HW118839   3.676   3.389   0.522
 5980SOL    HW218840   3.704   3.489   0.647
 5981SOL     OW18841   5.986   1.472   1.671
 5981SOL    HW118842   5.926   1.408   1.718
 5981SOL    HW218843   6.012   1.434   1.582
 5982SOL     OW18844   6.560   2.852   1.645
 5982SOL    HW118845   6.542   2.771   1.589
 5982SOL    HW218846   6.580   2.930   1.585
 5983SOL     OW18847   1.842   1.152   4.720
 5983SOL    HW118848   1.913   1.205   4.674
 5983SOL    HW218849   1.874   1.058   4.733
 5984SOL     OW18850   6.505   6.068   4.966
 5984SOL    HW118851   6.434   6.123   4.922
 5984SOL    HW218852   6.576   6.127   5.002
 5985SOL     OW18853   6.891   2.894   4.092
 5985SOL    HW118854   6.960   2.965   4.105
 5985SOL    HW218855   6.932   2.816   4.044
 5986SOL     OW18856   3.194   3.194   4.800
 5986SOL    HW118857   3.292   3.216   4.794
 5986SOL    HW218858   3.151   3.252   4.870
 5987SOL     OW18859   3.936   0.224   4.760
 5987SOL    HW118860   4.009   0.270   4.811
 5987SOL    HW218861   3.974   0.185   4.676
 5988SOL     OW18862   5.017   6.955   5.376
 5988SOL    HW118863   4.985   0.018   5.393
 5988SOL    HW218864   4.947   6.904   5.326
 5989SOL     OW18865   2.871   6.053   0.125
 5989SOL    HW118866   2.794   6.041   0.188
 5989SOL    HW218867   2.906   5.963   0.098
 5990SOL     OW18868   4.028   4.549   0.610
 5990SOL    HW118869   4.045   4.454   0.637
 5990SOL    HW218870   4.100   4.579   0.547
 5991SOL     OW18871   3.445   5.417   6.581
 5991SOL    HW118872   3.518   5.351   6.600
 5991SOL    HW218873   3.479   5.488   6.520
 5992SOL     OW18874   3.579   0.485   3.038
 5992SOL    HW118875   3.566   0.575   3.080
 5992SOL    HW218876   3.493   0.434   3.043
 5993SOL     OW18877   2.791   6.132   5.921
 5993SOL    HW118878   2.865   6.184   5.964
 5993SOL    HW218879   2.767   6.175   5.833
 5994SOL     OW18880   6.435   2.478   2.295
 5994SOL    HW118881   6.417   2.443   2.203
 5994SOL    HW218882   6.357   2.458   2.354
 5995SOL     OW18883   5.780   4.587   2.922
 5995SOL    HW118884   5.768   4.490   2.942
 5995SOL    HW218885   5.866   4.602   2.875
 5996SOL     OW18886   1.219   6.485   0.276
 5996SOL    HW118887   1.303   6.446   0.313
 5996SOL    HW218888   1.201   6.573   0.320
 5997SOL     OW18889   0.710   5.746   2.585
 5997SOL    HW118890   0.662   5.659   2.590
 5997SOL    HW218891   0.666   5.812   2.646
 5998SOL     OW18892   6.085   2.225   2.727
 5998SOL    HW118893   6.086   2.126   2.709
 5998SOL    HW218894   5.997   2.251   2.766
 5999SOL     OW18895   1.669   1.628   2.392
 5999SOL    HW118896   1.702   1.536   2.370
 5999SOL    HW218897   1.578   1.623   2.431
 6000SOL     OW18898   4.006   6.638   1.303
 6000SOL    HW118899   4.082   6.677   1.251
 6000SOL    HW218900   3.921   6.648   1.251
 6001SOL     OW18901   0.702   3.824   6.873
 6001SOL    HW118902   0.693   3.741   6.927
 6001SOL    HW218903   0.667   3.808   6.780
 6002SOL     OW18904   6.228   0.250   1.099
 6002SOL    HW118905   6.233   0.348   1.079
 6002SOL    HW218906   6.264   0.232   1.190
 6003SOL     OW18907   0.035   2.079   3.606
 6003SOL    HW118908   7.005   2.039   3.537
 6003SOL    HW218909   0.031   2.179   3.599
 6004SOL     OW18910   0.418   4.261   3.221
 6004SOL    HW118911   0.421   4.360   3.233
 6004SOL    HW218912   0.395   4.218   3.308
 6005SOL     OW18913   5.072   5.196   4.606
 6005SOL    HW118914   5.095   5.115   4.660
 6005SOL    HW218915   5.152   5.226   4.554
 6006SOL     OW18916   2.621   0.517   6.619
 6006SOL    HW118917   2.666   0.428   6.609
 6006SOL    HW218918   2.636   0.551   6.712
 6007SOL     OW18919   5.043   3.727   5.199
 6007SOL    HW118920   5.037   3.751   5.297
 6007SOL    HW218921   4.963   3.672   5.174
 6008SOL     OW18922   1.548   5.245   5.414
 6008SOL    HW118923   1.622   5.312   5.418
 6008SOL    HW218924   1.575   5.168   5.355
 6009SOL     OW18925   3.632   0.823   4.112
 6009SOL    HW118926   3.598   0.730   4.103
 6009SOL    HW218927   3.630   0.868   4.023
 6010SOL     OW18928   1.944   4.388   3.578
 6010SOL    HW118929   2.041   4.370   3.558
 6010SOL    HW218930   1.932   4.400   3.676
 6011SOL     OW18931   5.103   2.910   3.169
 6011SOL    HW118932   5.171   2.920   3.097
 6011SOL    HW218933   5.015   2.946   3.138
 6012SOL     OW18934   5.283   1.038   7.026
 6012SOL    HW118935   5.200   1.085   0.029
 6012SOL    HW218936   5.301   0.959   0.055
 6013SOL     OW18937   5.381   2.885   3.296
 6013SOL    HW118938   5.322   2.835   3.232
 6013SOL    HW218939   5.344   2.976   3.311
 6014SOL     OW18940   4.349   3.865   1.145
 6014SOL    HW118941   4.379   3.775   1.178
 6014SOL    HW218942   4.416   3.902   1.082
 6015SOL     OW18943   5.812   2.533   4.409
 6015SOL    HW118944   5.723   2.489   4.400
 6015SOL    HW218945   5.870   2.478   4.469
 6016SOL     OW18946   6.423   1.457   5.910
 6016SOL    HW118947   6.517   1.493   5.906
 6016SOL    HW218948   6.413   1.399   5.992
 6017SOL     OW18949   0.188   4.037   2.845
 6017SOL    HW118950   0.115   4.066   2.906
 6017SOL    HW218951   0.160   4.051   2.750
 6018SOL     OW18952   2.636   0.639   6.122
 6018SOL    HW118953   2.634   0.671   6.217
 6018SOL    HW218954   2.562   0.573   6.107
 6019SOL     OW18955   6.797   1.596   4.273
 6019SOL    HW118956   6.714   1.585   4.327
 6019SOL    HW218957   6.860   1.657   4.321
 6020SOL     OW18958   2.151   5.489   1.444
 6020SOL    HW118959   2.142   5.393   1.417
 6020SOL    HW218960   2.158   5.494   1.544
 6021SOL     OW18961   4.387   0.846   2.450
 6021SOL    HW118962   4.386   0.837   2.350
 6021SOL    HW218963   4.478   0.877   2.479
 6022SOL     OW18964   4.419   2.029   4.027
 6022SOL    HW118965   4.359   1.975   4.085
 6022SOL    HW218966   4.407   2.126   4.048
 6023SOL     OW18967   6.534   0.423   1.765
 6023SOL    HW118968   6.454   0.459   1.717
 6023SOL    HW218969   6.524   0.439   1.863
 6024SOL     OW18970   0.883   5.057   2.986
 6024SOL    HW118971   0.877   5.151   3.020
 6024SOL    HW218972   0.860   5.055   2.888
 6025SOL     OW18973   3.732   1.884   2.860
 6025SOL    HW118974   3.748   1.946   2.783
 6025SOL    HW218975   3.810   1.823   2.871
 6026SOL     OW18976   6.950   4.182   5.070
 6026SOL    HW118977   6.914   4.100   5.114
 6026SOL    HW218978   7.009   4.156   4.994
 6027SOL     OW18979   1.551   3.936   6.225
 6027SOL    HW118980   1.457   3.966   6.212
 6027SOL    HW218981   1.554   3.836   6.221
 6028SOL     OW18982   0.988   4.292   0.241
 6028SOL    HW118983   1.057   4.221   0.238
 6028SOL    HW218984   1.030   4.379   0.264
 6029SOL     OW18985   2.286   6.320   4.893
 6029SOL    HW118986   2.361   6.270   4.850
 6029SOL    HW218987   2.199   6.292   4.851
 6030SOL     OW18988   4.031   6.117   2.655
 6030SOL    HW118989   3.982   6.181   2.595
 6030SOL    HW218990   4.019   6.024   2.621
 6031SOL     OW18991   3.648   5.190   2.874
 6031SOL    HW118992   3.580   5.119   2.855
 6031SOL    HW218993   3.613   5.250   2.947
 6032SOL     OW18994   2.561   4.637   3.027
 6032SOL    HW118995   2.484   4.646   2.964
 6032SOL    HW218996   2.633   4.700   3.000
 6033SOL     OW18997   3.056   1.492   2.814
 6033SOL    HW118998   3.034   1.414   2.756
 6033SOL    HW218999   2.976   1.551   2.823
 6034SOL     OW19000   0.626   5.536   4.410
 6034SOL    HW119001   0.542   5.565   4.455
 6034SOL    HW219002   0.687   5.493   4.477
 6035SOL     OW19003   6.525   0.540   2.771
 6035SOL    HW119004   6.624   0.523   2.765
 6035SOL    HW219005   6.483   0.525   2.681
 6036SOL     OW19006   6.412   5.689   4.554
 6036SOL    HW119007   6.325   5.647   4.531
 6036SOL    HW219008   6.411   5.719   4.650
 6037SOL     OW19009   4.569   4.856   6.398
 6037SOL    HW119010   4.633   4.870   6.323
 6037SOL    HW219011   4.619   4.848   6.485
 6038SOL     OW19012   1.547   2.761   6.217
 6038SOL    HW119013   1.573   2.739   6.123
 6038SOL    HW219014   1.516   2.678   6.263
 6039SOL     OW19015   3.111   3.026   2.474
 6039SOL    HW119016   3.063   3.112   2.461
 6039SOL    HW219017   3.075   2.957   2.411
 6040SOL     OW19018   0.563   2.167   6.147
 6040SOL    HW119019   0.499   2.129   6.214
 6040SOL    HW219020   0.560   2.267   6.151
 6041SOL     OW19021   2.280   0.481   5.157
 6041SOL    HW119022   2.261   0.579   5.158
 6041SOL    HW219023   2.205   0.432   5.202
 6042SOL     OW19024   5.347   5.949   2.461
 6042SOL    HW119025   5.289   5.925   2.382
 6042SOL    HW219026   5.385   5.866   2.501
 6043SOL     OW19027   1.130   4.597   6.255
 6043SOL    HW119028   1.127   4.570   6.159
 6043SOL    HW219029   1.075   4.679   6.268
 6044SOL     OW19030   1.638   1.816   1.637
 6044SOL    HW119031   1.720   1.860   1.674
 6044SOL    HW219032   1.560   1.838   1.694
 6045SOL     OW19033   6.560   4.864   1.460
 6045SOL    HW119034   6.529   4.950   1.501
 6045SOL    HW219035   6.643   4.881   1.406
 6046SOL     OW19036   3.402   1.874   6.481
 6046SOL    HW119037   3.463   1.867   6.402
 6046SOL    HW219038   3.429   1.951   6.537
 6047SOL     OW19039   5.796   2.307   2.170
 6047SOL    HW119040   5.730   2.309   2.095
 6047SOL    HW219041   5.879   2.259   2.140
 6048SOL     OW19042   4.509   5.637   4.088
 6048SOL    HW119043   4.561   5.722   4.086
 6048SOL    HW219044   4.418   5.653   4.050
 6049SOL     OW19045   5.817   2.798   5.817
 6049SOL    HW119046   5.857   2.854   5.745
 6049SOL    HW219047   5.749   2.851   5.867
 6050SOL     OW19048   2.882   5.187   4.405
 6050SOL    HW119049   2.853   5.244   4.482
 6050SOL    HW219050   2.821   5.205   4.327
 6051SOL     OW19051   2.649   1.670   4.547
 6051SOL    HW119052   2.695   1.593   4.503
 6051SOL    HW219053   2.701   1.754   4.532
 6052SOL     OW19054   6.341   0.021   0.504
 6052SOL    HW119055   6.262   6.993   0.484
 6052SOL    HW219056   6.419   6.992   0.529
 6053SOL     OW19057   3.464   0.883   6.474
 6053SOL    HW119058   3.389   0.849   6.418
 6053SOL    HW219059   3.431   0.952   6.538
 6054SOL     OW19060   3.005   3.899   0.303
 6054SOL    HW119061   3.097   3.861   0.295
 6054SOL    HW219062   2.998   3.949   0.390
 6055SOL     OW19063   4.839   1.268   5.526
 6055SOL    HW119064   4.806   1.177   5.501
 6055SOL    HW219065   4.914   1.259   5.592
 6056SOL     OW19066   4.885   2.709   4.616
 6056SOL    HW119067   4.923   2.794   4.580
 6056SOL    HW219068   4.785   2.714   4.615
 6057SOL     OW19069   4.904   2.391   4.416
 6057SOL    HW119070   4.994   2.430   4.434
 6057SOL    HW219071   4.835   2.464   4.414
 6058SOL     OW19072   4.770   2.518   1.593
 6058SOL    HW119073   4.809   2.451   1.529
 6058SOL    HW219074   4.836   2.591   1.609
 6059SOL     OW19075   5.236   4.899   4.988
 6059SOL    HW119076   5.264   4.858   4.901
 6059SOL    HW219077   5.249   4.833   5.062
 6060SOL     OW19078   3.531   4.193   6.298
 6060SOL    HW119079   3.438   4.230   6.295
 6060SOL    HW219080   3.546   4.133   6.220
 6061SOL     OW19081   3.835   2.166   1.488
 6061SOL    HW119082   3.853   2.214   1.574
 6061SOL    HW219083   3.899   2.089   1.479
 6062SOL     OW19084   1.996   1.799   4.643
 6062SOL    HW119085   2.014   1.863   4.568
 6062SOL    HW219086   1.904   1.814   4.678
 6063SOL     OW19087   3.683   1.602   6.733
 6063SOL    HW119088   3.674   1.607   6.633
 6063SOL    HW219089   3.604   1.554   6.771
 6064SOL     OW19090   2.328   5.831   1.167
 6064SOL    HW119091   2.329   5.751   1.108
 6064SOL    HW219092   2.250   5.826   1.229
 6065SOL     OW19093   5.746   6.753   2.401
 6065SOL    HW119094   5.790   6.841   2.388
 6065SOL    HW219095   5.648   6.761   2.382
 6066SOL     OW19096   4.954   2.208   6.326
 6066SOL    HW119097   4.880   2.149   6.359
 6066SOL    HW219098   4.933   2.238   6.233
 6067SOL     OW19099   5.391   1.644   5.988
 6067SOL    HW119100   5.401   1.662   5.890
 6067SOL    HW219101   5.320   1.576   6.003
 6068SOL     OW19102   5.695   3.053   4.703
 6068SOL    HW119103   5.640   3.104   4.637
 6068SOL    HW219104   5.768   3.111   4.739
 6069SOL     OW19105   6.694   3.430   4.661
 6069SOL    HW119106   6.618   3.495   4.650
 6069SOL    HW219107   6.706   3.408   4.757
 6070SOL     OW19108   2.434   2.095   0.721
 6070SOL    HW119109   2.527   2.057   0.712
 6070SOL    HW219110   2.382   2.039   0.786
 6071SOL     OW19111   5.983   4.933   4.659
 6071SOL    HW119112   5.921   4.981   4.723
 6071SOL    HW219113   6.046   4.875   4.711
 6072SOL     OW19114   0.291   6.497   1.818
 6072SOL    HW119115   0.332   6.533   1.733
 6072SOL    HW219116   0.222   6.561   1.851
 6073SOL     OW19117   6.308   4.225   0.579
 6073SOL    HW119118   6.209   4.240   0.574
 6073SOL    HW219119   6.327   4.139   0.627
 6074SOL     OW19120   1.198   6.087   4.313
 6074SOL    HW119121   1.276   6.058   4.257
 6074SOL    HW219122   1.167   6.177   4.284
 6075SOL     OW19123   0.148   1.898   6.681
 6075SOL    HW119124   0.069   1.864   6.629
 6075SOL    HW219125   0.173   1.989   6.647
 6076SOL     OW19126   1.890   6.106   4.470
 6076SOL    HW119127   1.794   6.132   4.472
 6076SOL    HW219128   1.946   6.186   4.447
 6077SOL     OW19129   5.394   6.047   1.804
 6077SOL    HW119130   5.300   6.061   1.834
 6077SOL    HW219131   5.454   6.037   1.884
 6078SOL     OW19132   3.943   5.062   1.128
 6078SOL    HW119133   3.989   5.056   1.039
 6078SOL    HW219134   3.856   5.109   1.117
 6079SOL     OW19135   3.371   2.995   6.546
 6079SOL    HW119136   3.337   3.007   6.452
 6079SOL    HW219137   3.294   2.997   6.609
 6080SOL     OW19138   6.889   0.316   1.838
 6080SOL    HW119139   6.988   0.299   1.841
 6080SOL    HW219140   6.860   0.356   1.925
 6081SOL     OW19141   6.339   3.236   4.566
 6081SOL    HW119142   6.313   3.183   4.646
 6081SOL    HW219143   6.347   3.175   4.486
 6082SOL     OW19144   2.268   1.868   3.601
 6082SOL    HW119145   2.350   1.902   3.555
 6082SOL    HW219146   2.251   1.923   3.683
 6083SOL     OW19147   0.544   4.820   0.064
 6083SOL    HW119148   0.472   4.793   0.000
 6083SOL    HW219149   0.629   4.774   0.040
 6084SOL     OW19150   0.355   5.775   3.824
 6084SOL    HW119151   0.317   5.865   3.802
 6084SOL    HW219152   0.330   5.711   3.752
 6085SOL     OW19153   0.735   4.206   0.335
 6085SOL    HW119154   0.820   4.248   0.302
 6085SOL    HW219155   0.694   4.265   0.405
 6086SOL     OW19156   3.587   1.177   5.949
 6086SOL    HW119157   3.664   1.141   5.897
 6086SOL    HW219158   3.570   1.272   5.922
 6087SOL     OW19159   4.274   6.019   0.484
 6087SOL    HW119160   4.281   5.933   0.434
 6087SOL    HW219161   4.237   6.001   0.576
 6088SOL     OW19162   5.854   6.209   4.452
 6088SOL    HW119163   5.866   6.283   4.386
 6088SOL    HW219164   5.770   6.158   4.432
 6089SOL     OW19165   6.423   3.292   1.290
 6089SOL    HW119166   6.359   3.241   1.232
 6089SOL    HW219167   6.515   3.256   1.277
 6090SOL     OW19168   2.386   6.226   5.143
 6090SOL    HW119169   2.357   6.272   5.059
 6090SOL    HW219170   2.313   6.166   5.176
 6091SOL     OW19171   1.713   1.693   2.131
 6091SOL    HW119172   1.692   1.710   2.227
 6091SOL    HW219173   1.808   1.661   2.123
 6092SOL     OW19174   3.570   0.191   3.298
 6092SOL    HW119175   3.479   0.228   3.316
 6092SOL    HW219176   3.599   0.136   3.376
 6093SOL     OW19177   1.849   3.181   2.630
 6093SOL    HW119178   1.750   3.176   2.619
 6093SOL    HW219179   1.871   3.217   2.721
 6094SOL     OW19180   3.845   0.806   1.588
 6094SOL    HW119181   3.816   0.892   1.545
 6094SOL    HW219182   3.764   0.755   1.618
 6095SOL     OW19183   4.263   3.454   6.802
 6095SOL    HW119184   4.242   3.465   6.705
 6095SOL    HW219185   4.305   3.538   6.837
 6096SOL     OW19186   5.918   0.426   4.027
 6096SOL    HW119187   5.985   0.352   4.030
 6096SOL    HW219188   5.951   0.500   3.968
 6097SOL     OW19189   2.037   0.377   2.131
 6097SOL    HW119190   2.118   0.359   2.074
 6097SOL    HW219191   1.990   0.458   2.097
 6098SOL     OW19192   1.269   2.566   6.630
 6098SOL    HW119193   1.213   2.499   6.678
 6098SOL    HW219194   1.331   2.519   6.567
 6099SOL     OW19195   6.834   6.028   0.492
 6099SOL    HW119196   6.925   6.004   0.460
 6099SOL    HW219197   6.804   5.963   0.562
 6100SOL     OW19198   5.308   3.563   0.504
 6100SOL    HW119199   5.389   3.509   0.482
 6100SOL    HW219200   5.240   3.504   0.548
 6101SOL     OW19201   5.924   1.908   4.568
 6101SOL    HW119202   5.922   1.829   4.507
 6101SOL    HW219203   5.949   1.990   4.516
 6102SOL     OW19204   3.125   6.507   3.437
 6102SOL    HW119205   3.044   6.475   3.485
 6102SOL    HW219206   3.108   6.506   3.339
 6103SOL     OW19207   0.355   2.317   2.715
 6103SOL    HW119208   0.256   2.321   2.697
 6103SOL    HW219209   0.404   2.303   2.629
 6104SOL     OW19210   5.748   1.238   5.468
 6104SOL    HW119211   5.838   1.231   5.424
 6104SOL    HW219212   5.747   1.179   5.549
 6105SOL     OW19213   1.565   0.686   5.218
 6105SOL    HW119214   1.597   0.636   5.137
 6105SOL    HW219215   1.572   0.784   5.202
 6106SOL     OW19216   1.718   3.989   5.524
 6106SOL    HW119217   1.770   3.973   5.608
 6106SOL    HW219218   1.776   4.035   5.457
 6107SOL     OW19219   2.453   4.542   4.480
 6107SOL    HW119220   2.431   4.637   4.458
 6107SOL    HW219221   2.409   4.481   4.414
 6108SOL     OW19222   0.934   2.452   2.047
 6108SOL    HW119223   0.994   2.530   2.028
 6108SOL    HW219224   0.839   2.482   2.041
 6109SOL     OW19225   4.975   3.120   6.191
 6109SOL    HW119226   5.062   3.160   6.163
 6109SOL    HW219227   4.981   3.020   6.186
 6110SOL     OW19228   4.099   3.196   0.158
 6110SOL    HW119229   4.198   3.200   0.168
 6110SOL    HW219230   4.056   3.265   0.217
 6111SOL     OW19231   2.150   4.231   2.012
 6111SOL    HW119232   2.062   4.192   1.983
 6111SOL    HW219233   2.183   4.183   2.093
 6112SOL     OW19234   3.300   0.074   3.037
 6112SOL    HW119235   3.262   0.036   3.121
 6112SOL    HW219236   3.400   0.069   3.041
 6113SOL     OW19237   1.465   1.057   5.973
 6113SOL    HW119238   1.429   1.054   6.067
 6113SOL    HW219239   1.513   0.972   5.953
 6114SOL     OW19240   5.222   5.218   1.125
 6114SOL    HW119241   5.181   5.139   1.170
 6114SOL    HW219242   5.155   5.261   1.065
 6115SOL     OW19243   4.814   0.203   3.677
 6115SOL    HW119244   4.827   0.126   3.740
 6115SOL    HW219245   4.719   0.208   3.649
 6116SOL     OW19246   2.715   0.376   0.639
 6116SOL    HW119247   2.638   0.378   0.703
 6116SOL    HW219248   2.737   0.470   0.610
 6117SOL     OW19249   6.998   0.462   5.909
 6117SOL    HW119250   0.030   0.412   5.970
 6117SOL    HW219251   6.914   0.410   5.896
 6118SOL     OW19252   6.214   0.262   1.857
 6118SOL    HW119253   6.147   0.299   1.921
 6118SOL    HW219254   6.171   0.193   1.799
 6119SOL     OW19255   0.884   3.808   5.633
 6119SOL    HW119256   0.895   3.778   5.538
 6119SOL    HW219257   0.907   3.905   5.641
 6120SOL     OW19258   4.180   6.986   4.200
 6120SOL    HW119259   4.246   6.911   4.204
 6120SOL    HW219260   4.186   0.001   4.111
 6121SOL     OW19261   0.893   3.318   5.005
 6121SOL    HW119262   0.991   3.311   4.991
 6121SOL    HW219263   0.854   3.381   4.938
 6122SOL     OW19264   3.644   6.944   1.650
 6122SOL    HW119265   3.660   6.867   1.712
 6122SOL    HW219266   3.661   0.000   1.698
 6123SOL     OW19267   6.345   0.471   6.388
 6123SOL    HW119268   6.290   0.555   6.380
 6123SOL    HW219269   6.341   0.438   6.482
 6124SOL     OW19270   2.323   1.025   6.660
 6124SOL    HW119271   2.312   1.083   6.741
 6124SOL    HW219272   2.249   1.043   6.596
 6125SOL     OW19273   1.888   5.714   6.944
 6125SOL    HW119274   1.850   5.790   6.891
 6125SOL    HW219275   1.820   5.681   7.009
 6126SOL     OW19276   0.003   6.811   4.317
 6126SOL    HW119277   6.950   6.755   4.331
 6126SOL    HW219278   7.015   6.878   4.245
 6127SOL     OW19279   3.205   6.805   2.314
 6127SOL    HW119280   3.127   6.865   2.294
 6127SOL    HW219281   3.239   6.824   2.406
 6128SOL     OW19282   6.655   3.171   0.321
 6128SOL    HW119283   6.608   3.115   0.389
 6128SOL    HW219284   6.730   3.221   0.364
 6129SOL     OW19285   6.657   3.694   2.968
 6129SOL    HW119286   6.573   3.738   2.999
 6129SOL    HW219287   6.719   3.682   3.046
 6130SOL     OW19288   6.625   2.124   3.939
 6130SOL    HW119289   6.659   2.052   3.878
 6130SOL    HW219290   6.642   2.213   3.898
 6131SOL     OW19291   0.210   1.742   5.381
 6131SOL    HW119292   0.172   1.659   5.421
 6131SOL    HW219293   0.198   1.819   5.445
 6132SOL     OW19294   4.822   1.266   0.372
 6132SOL    HW119295   4.865   1.198   0.431
 6132SOL    HW219296   4.804   1.226   0.282
 6133SOL     OW19297   1.271   2.517   2.553
 6133SOL    HW119298   1.259   2.603   2.504
 6133SOL    HW219299   1.344   2.526   2.620
 6134SOL     OW19300   4.038   4.387   6.543
 6134SOL    HW119301   4.047   4.400   6.444
 6134SOL    HW219302   4.061   4.293   6.567
 6135SOL     OW19303   0.400   6.912   1.816
 6135SOL    HW119304   0.410   6.817   1.847
 6135SOL    HW219305   0.468   6.969   1.863
 6136SOL     OW19306   0.946   2.975   2.030
 6136SOL    HW119307   0.966   3.071   2.050
 6136SOL    HW219308   0.848   2.959   2.041
 6137SOL     OW19309   5.523   2.476   3.754
 6137SOL    HW119310   5.514   2.397   3.814
 6137SOL    HW219311   5.619   2.488   3.729
 6138SOL     OW19312   4.758   6.384   1.916
 6138SOL    HW119313   4.670   6.409   1.956
 6138SOL    HW219314   4.768   6.428   1.827
 6139SOL     OW19315   2.054   1.685   5.301
 6139SOL    HW119316   2.022   1.739   5.379
 6139SOL    HW219317   2.151   1.664   5.312
 6140SOL     OW19318   0.574   6.340   1.552
 6140SOL    HW119319   0.481   6.307   1.566
 6140SOL    HW219320   0.588   6.425   1.603
 6141SOL     OW19321   6.034   5.285   6.625
 6141SOL    HW119322   5.994   5.370   6.589
 6141SOL    HW219323   5.960   5.222   6.652
 6142SOL     OW19324   0.154   5.092   0.735
 6142SOL    HW119325   0.226   5.042   0.783
 6142SOL    HW219326   0.097   5.140   0.801
 6143SOL     OW19327   6.531   4.537   0.390
 6143SOL    HW119328   6.610   4.579   0.344
 6143SOL    HW219329   6.448   4.559   0.339
 6144SOL     OW19330   6.720   4.955   3.149
 6144SOL    HW119331   6.764   4.874   3.188
 6144SOL    HW219332   6.787   5.005   3.094
 6145SOL     OW19333   4.437   5.694   3.634
 6145SOL    HW119334   4.535   5.693   3.654
 6145SOL    HW219335   4.396   5.607   3.663
 6146SOL     OW19336   3.167   0.196   3.719
 6146SOL    HW119337   3.170   0.249   3.803
 6146SOL    HW219338   3.207   0.105   3.735
 6147SOL     OW19339   1.506   3.741   4.607
 6147SOL    HW119340   1.578   3.692   4.558
 6147SOL    HW219341   1.546   3.802   4.675
 6148SOL     OW19342   6.852   0.498   4.747
 6148SOL    HW119343   6.920   0.570   4.732
 6148SOL    HW219344   6.890   0.410   4.719
 6149SOL     OW19345   3.211   5.083   1.276
 6149SOL    HW119346   3.227   5.062   1.372
 6149SOL    HW219347   3.280   5.038   1.219
 6150SOL     OW19348   4.238   4.569   6.632
 6150SOL    HW119349   4.153   4.515   6.631
 6150SOL    HW219350   4.216   4.666   6.617
 6151SOL     OW19351   5.804   3.900   5.440
 6151SOL    HW119352   5.722   3.928   5.490
 6151SOL    HW219353   5.857   3.980   5.415
 6152SOL     OW19354   5.955   5.923   5.123
 6152SOL    HW119355   5.953   6.008   5.070
 6152SOL    HW219356   6.006   5.936   5.207
 6153SOL     OW19357   5.167   3.878   1.982
 6153SOL    HW119358   5.154   3.908   1.887
 6153SOL    HW219359   5.164   3.779   1.986
 6154SOL     OW19360   5.739   1.417   2.671
 6154SOL    HW119361   5.739   1.499   2.728
 6154SOL    HW219362   5.742   1.442   2.575
 6155SOL     OW19363   1.696   2.519   4.512
 6155SOL    HW119364   1.656   2.441   4.560
 6155SOL    HW219365   1.796   2.516   4.522
 6156SOL     OW19366   4.698   4.803   2.067
 6156SOL    HW119367   4.715   4.741   1.990
 6156SOL    HW219368   4.649   4.884   2.035
 6157SOL     OW19369   1.087   1.165   4.466
 6157SOL    HW119370   1.069   1.099   4.393
 6157SOL    HW219371   1.003   1.181   4.518
 6158SOL     OW19372   4.687   0.809   6.062
 6158SOL    HW119373   4.783   0.781   6.058
 6158SOL    HW219374   4.663   0.833   6.156
 6159SOL     OW19375   5.154   1.731   1.865
 6159SOL    HW119376   5.200   1.808   1.909
 6159SOL    HW219377   5.206   1.647   1.881
 6160SOL     OW19378   4.927   0.103   6.166
 6160SOL    HW119379   4.863   0.029   6.147
 6160SOL    HW219380   4.905   0.182   6.109
 6161SOL     OW19381   5.157   1.230   4.521
 6161SOL    HW119382   5.242   1.200   4.478
 6161SOL    HW219383   5.111   1.295   4.461
 6162SOL     OW19384   1.218   6.339   3.669
 6162SOL    HW119385   1.266   6.385   3.595
 6162SOL    HW219386   1.278   6.332   3.749
 6163SOL     OW19387   5.722   6.219   1.416
 6163SOL    HW119388   5.750   6.129   1.385
 6163SOL    HW219389   5.771   6.243   1.499
 6164SOL     OW19390   3.133   2.400   1.686
 6164SOL    HW119391   3.134   2.416   1.587
 6164SOL    HW219392   3.078   2.471   1.730
 6165SOL     OW19393   4.653   0.526   6.364
 6165SOL    HW119394   4.744   0.503   6.330
 6165SOL    HW219395   4.659   0.600   6.430
 6166SOL     OW19396   4.274   1.427   6.758
 6166SOL    HW119397   4.264   1.526   6.749
 6166SOL    HW219398   4.217   1.381   6.689
 6167SOL     OW19399   0.770   4.022   3.498
 6167SOL    HW119400   0.843   4.087   3.481
 6167SOL    HW219401   0.765   3.956   3.422
 6168SOL     OW19402   1.093   3.442   0.702
 6168SOL    HW119403   1.123   3.501   0.627
 6168SOL    HW219404   0.994   3.440   0.706
 6169SOL     OW19405   1.901   3.086   1.580
 6169SOL    HW119406   1.911   2.994   1.541
 6169SOL    HW219407   1.915   3.082   1.679
 6170SOL     OW19408   1.096   3.473   5.458
 6170SOL    HW119409   1.025   3.543   5.451
 6170SOL    HW219410   1.132   3.453   5.367
 6171SOL     OW19411   0.200   2.669   0.470
 6171SOL    HW119412   0.209   2.606   0.546
 6171SOL    HW219413   0.217   2.763   0.501
 6172SOL     OW19414   1.743   2.810   2.325
 6172SOL    HW119415   1.784   2.901   2.318
 6172SOL    HW219416   1.775   2.753   2.249
 6173SOL     OW19417   6.703   5.400   2.453
 6173SOL    HW119418   6.697   5.331   2.525
 6173SOL    HW219419   6.795   5.400   2.414
 6174SOL     OW19420   4.985   6.165   4.080
 6174SOL    HW119421   4.945   6.160   3.988
 6174SOL    HW219422   5.083   6.146   4.076
 6175SOL     OW19423   3.768   0.946   3.888
 6175SOL    HW119424   3.832   0.880   3.848
 6175SOL    HW219425   3.751   1.020   3.823
 6176SOL     OW19426   5.357   4.699   5.594
 6176SOL    HW119427   5.385   4.777   5.649
 6176SOL    HW219428   5.257   4.690   5.598
 6177SOL     OW19429   5.766   2.008   1.733
 6177SOL    HW119430   5.782   1.918   1.772
 6177SOL    HW219431   5.667   2.026   1.730
 6178SOL     OW19432   5.258   4.908   1.797
 6178SOL    HW119433   5.235   4.909   1.894
 6178SOL    HW219434   5.250   5.001   1.760
 6179SOL     OW19435   6.690   4.117   3.697
 6179SOL    HW119436   6.762   4.133   3.765
 6179SOL    HW219437   6.602   4.145   3.734
 6180SOL     OW19438   2.697   4.864   1.003
 6180SOL    HW119439   2.793   4.887   0.985
 6180SOL    HW219440   2.691   4.806   1.084
 6181SOL     OW19441   4.857   6.227   6.035
 6181SOL    HW119442   4.909   6.313   6.033
 6181SOL    HW219443   4.801   6.225   6.118
 6182SOL     OW19444   4.283   2.903   5.918
 6182SOL    HW119445   4.334   2.823   5.887
 6182SOL    HW219446   4.189   2.898   5.885
 6183SOL     OW19447   1.724   2.293   3.694
 6183SOL    HW119448   1.792   2.316   3.764
 6183SOL    HW219449   1.729   2.359   3.620
 6184SOL     OW19450   2.811   6.421   6.478
 6184SOL    HW119451   2.889   6.482   6.486
 6184SOL    HW219452   2.777   6.422   6.383
 6185SOL     OW19453   0.020   3.633   6.811
 6185SOL    HW119454   6.986   3.580   6.755
 6185SOL    HW219455   0.064   3.572   6.877
 6186SOL     OW19456   6.482   1.434   0.490
 6186SOL    HW119457   6.455   1.525   0.521
 6186SOL    HW219458   6.550   1.443   0.417
 6187SOL     OW19459   5.389   3.770   4.318
 6187SOL    HW119460   5.320   3.759   4.246
 6187SOL    HW219461   5.442   3.686   4.327
 6188SOL     OW19462   1.601   1.273   6.096
 6188SOL    HW119463   1.586   1.261   6.194
 6188SOL    HW219464   1.544   1.207   6.046
 6189SOL     OW19465   4.270   5.214   2.539
 6189SOL    HW119466   4.283   5.209   2.440
 6189SOL    HW219467   4.172   5.212   2.560
 6190SOL     OW19468   0.312   4.052   5.068
 6190SOL    HW119469   0.358   3.963   5.062
 6190SOL    HW219470   0.380   4.125   5.061
 6191SOL     OW19471   2.858   2.599   6.755
 6191SOL    HW119472   2.779   2.543   6.781
 6191SOL    HW219473   2.867   2.599   6.655
 6192SOL     OW19474   2.398   1.926   6.356
 6192SOL    HW119475   2.395   2.026   6.359
 6192SOL    HW219476   2.476   1.894   6.409
 6193SOL     OW19477   4.737   6.115   1.651
 6193SOL    HW119478   4.704   6.180   1.719
 6193SOL    HW219479   4.665   6.098   1.584
 6194SOL     OW19480   6.853   0.433   6.629
 6194SOL    HW119481   6.928   0.417   6.564
 6194SOL    HW219482   6.782   0.488   6.585
 6195SOL     OW19483   4.684   5.254   4.457
 6195SOL    HW119484   4.699   5.259   4.358
 6195SOL    HW219485   4.622   5.178   4.477
 6196SOL     OW19486   5.046   4.314   2.000
 6196SOL    HW119487   4.958   4.286   1.962
 6196SOL    HW219488   5.085   4.387   1.945
 6197SOL     OW19489   2.290   5.831   1.491
 6197SOL    HW119490   2.349   5.909   1.468
 6197SOL    HW219491   2.208   5.833   1.434
 6198SOL     OW19492   4.422   0.266   0.835
 6198SOL    HW119493   4.335   0.250   0.882
 6198SOL    HW219494   4.491   0.291   0.902
 6199SOL     OW19495   0.403   0.943   0.339
 6199SOL    HW119496   0.392   0.913   0.433
 6199SOL    HW219497   0.328   1.004   0.314
 6200SOL     OW19498   0.867   1.630   5.803
 6200SOL    HW119499   0.829   1.680   5.881
 6200SOL    HW219500   0.962   1.657   5.790
 6201SOL     OW19501   0.605   3.148   5.595
 6201SOL    HW119502   0.623   3.206   5.515
 6201SOL    HW219503   0.519   3.176   5.637
 6202SOL     OW19504   4.894   1.101   1.802
 6202SOL    HW119505   4.817   1.148   1.759
 6202SOL    HW219506   4.866   1.008   1.828
 6203SOL     OW19507   6.155   6.138   1.962
 6203SOL    HW119508   6.191   6.123   2.054
 6203SOL    HW219509   6.056   6.120   1.962
 6204SOL     OW19510   0.925   5.997   4.717
 6204SOL    HW119511   0.961   6.088   4.738
 6204SOL    HW219512   0.983   5.928   4.759
 6205SOL     OW19513   6.449   5.074   1.857
 6205SOL    HW119514   6.412   5.024   1.935
 6205SOL    HW219515   6.383   5.072   1.782
 6206SOL     OW19516   6.008   1.509   2.141
 6206SOL    HW119517   6.008   1.410   2.129
 6206SOL    HW219518   6.077   1.534   2.209
 6207SOL     OW19519   1.962   5.830   5.435
 6207SOL    HW119520   1.968   5.741   5.390
 6207SOL    HW219521   1.887   5.883   5.395
 6208SOL     OW19522   3.903   2.367   5.365
 6208SOL    HW119523   3.953   2.454   5.371
 6208SOL    HW219524   3.891   2.329   5.457
 6209SOL     OW19525   2.882   5.609   6.820
 6209SOL    HW119526   2.947   5.605   6.744
 6209SOL    HW219527   2.824   5.690   6.809
 6210SOL     OW19528   4.729   4.225   2.989
 6210SOL    HW119529   4.716   4.197   3.085
 6210SOL    HW219530   4.792   4.162   2.944
 6211SOL     OW19531   2.603   5.989   5.707
 6211SOL    HW119532   2.571   5.944   5.790
 6211SOL    HW219533   2.698   6.018   5.719
 6212SOL     OW19534   2.679   4.671   4.614
 6212SOL    HW119535   2.631   4.598   4.567
 6212SOL    HW219536   2.764   4.635   4.654
 6213SOL     OW19537   4.914   6.936   6.697
 6213SOL    HW119538   4.867   7.015   6.659
 6213SOL    HW219539   4.990   6.910   6.636
 6214SOL     OW19540   5.606   5.770   5.288
 6214SOL    HW119541   5.670   5.694   5.284
 6214SOL    HW219542   5.536   5.760   5.217
 6215SOL     OW19543   3.825   2.884   6.730
 6215SOL    HW119544   3.740   2.886   6.676
 6215SOL    HW219545   3.804   2.899   6.826
 6216SOL     OW19546   6.389   2.722   2.651
 6216SOL    HW119547   6.339   2.761   2.573
 6216SOL    HW219548   6.461   2.786   2.679
 6217SOL     OW19549   0.835   4.128   2.828
 6217SOL    HW119550   0.807   4.167   2.916
 6217SOL    HW219551   0.935   4.117   2.827
 6218SOL     OW19552   3.610   6.986   7.006
 6218SOL    HW119553   3.569   0.039   0.014
 6218SOL    HW219554   3.651   6.932   0.050
 6219SOL     OW19555   0.891   1.268   4.657
 6219SOL    HW119556   0.946   1.216   4.723
 6219SOL    HW219557   0.868   1.357   4.697
 6220SOL     OW19558   2.979   1.517   5.372
 6220SOL    HW119559   3.025   1.519   5.460
 6220SOL    HW219560   2.935   1.605   5.354
 6221SOL     OW19561   5.976   0.584   6.733
 6221SOL    HW119562   6.004   0.523   6.659
 6221SOL    HW219563   5.879   0.571   6.753
 6222SOL     OW19564   1.053   0.502   2.250
 6222SOL    HW119565   1.103   0.480   2.167
 6222SOL    HW219566   0.986   0.574   2.231
 6223SOL     OW19567   1.362   5.047   2.926
 6223SOL    HW119568   1.390   5.001   3.010
 6223SOL    HW219569   1.354   4.980   2.853
 6224SOL     OW19570   3.992   1.085   6.232
 6224SOL    HW119571   3.995   1.036   6.319
 6224SOL    HW219572   4.073   1.061   6.178
 6225SOL     OW19573   3.520   2.620   6.651
 6225SOL    HW119574   3.528   2.711   6.610
 6225SOL    HW219575   3.424   2.600   6.669
 6226SOL     OW19576   1.179   1.778   4.216
 6226SOL    HW119577   1.275   1.750   4.227
 6226SOL    HW219578   1.123   1.697   4.203
 6227SOL     OW19579   3.719   5.340   5.414
 6227SOL    HW119580   3.753   5.248   5.434
 6227SOL    HW219581   3.661   5.372   5.488
 6228SOL     OW19582   0.700   2.674   2.473
 6228SOL    HW119583   0.703   2.738   2.396
 6228SOL    HW219584   0.616   2.621   2.469
 6229SOL     OW19585   0.970   2.999   5.393
 6229SOL    HW119586   0.954   2.917   5.338
 6229SOL    HW219587   1.055   2.987   5.445
 6230SOL     OW19588   0.870   2.086   3.412
 6230SOL    HW119589   0.843   1.990   3.423
 6230SOL    HW219590   0.945   2.092   3.346
 6231SOL     OW19591   5.755   4.906   0.354
 6231SOL    HW119592   5.761   4.813   0.391
 6231SOL    HW219593   5.696   4.905   0.274
 6232SOL     OW19594   6.441   1.625   0.064
 6232SOL    HW119595   6.439   1.547   0.002
 6232SOL    HW219596   6.535   1.659   0.072
 6233SOL     OW19597   6.031   2.485   1.642
 6233SOL    HW119598   6.048   2.525   1.551
 6233SOL    HW219599   5.933   2.471   1.654
 6234SOL     OW19600   6.842   0.271   5.362
 6234SOL    HW119601   6.890   0.358   5.352
 6234SOL    HW219602   6.762   0.270   5.302
 6235SOL     OW19603   0.058   0.233   1.597
 6235SOL    HW119604   0.099   0.157   1.545
 6235SOL    HW219605   7.022   0.281   1.539
 6236SOL     OW19606   0.118   4.234   0.836
 6236SOL    HW119607   0.176   4.153   0.846
 6236SOL    HW219608   0.063   4.224   0.753
 6237SOL     OW19609   3.690   0.364   0.413
 6237SOL    HW119610   3.677   0.404   0.322
 6237SOL    HW219611   3.743   0.280   0.406
 6238SOL     OW19612   4.870   6.417   2.980
 6238SOL    HW119613   4.942   6.359   3.017
 6238SOL    HW219614   4.897   6.451   2.890
 6239SOL     OW19615   3.839   1.000   1.331
 6239SOL    HW119616   3.904   0.979   1.258
 6239SOL    HW219617   3.776   1.071   1.300
 6240SOL     OW19618   3.107   3.726   5.496
 6240SOL    HW119619   3.045   3.666   5.445
 6240SOL    HW219620   3.192   3.737   5.444
 6241SOL     OW19621   3.536   0.503   3.350
 6241SOL    HW119622   3.528   0.416   3.302
 6241SOL    HW219623   3.602   0.494   3.424
 6242SOL     OW19624   3.608   0.071   3.065
 6242SOL    HW119625   3.688   0.023   3.102
 6242SOL    HW219626   3.564   0.123   3.138
 6243SOL     OW19627   6.778   6.619   5.555
 6243SOL    HW119628   6.764   6.672   5.639
 6243SOL    HW219629   6.857   6.657   5.505
 6244SOL     OW19630   5.303   3.566   3.705
 6244SOL    HW119631   5.295   3.578   3.606
 6244SOL    HW219632   5.322   3.470   3.725
 6245SOL     OW19633   1.423   4.346   1.676
 6245SOL    HW119634   1.380   4.313   1.593
 6245SOL    HW219635   1.356   4.345   1.751
 6246SOL     OW19636   1.125   1.132   5.040
 6246SOL    HW119637   1.194   1.202   5.021
 6246SOL    HW219638   1.150   1.082   5.123
 6247SOL     OW19639   1.555   6.423   3.534
 6247SOL    HW119640   1.548   6.385   3.626
 6247SOL    HW219641   1.475   6.396   3.480
 6248SOL     OW19642   3.647   3.906   0.204
 6248SOL    HW119643   3.653   3.814   0.241
 6248SOL    HW219644   3.627   3.971   0.278
 6249SOL     OW19645   0.037   2.928   0.771
 6249SOL    HW119646   7.013   2.911   0.854
 6249SOL    HW219647   0.050   3.026   0.759
 6250SOL     OW19648   6.564   6.781   1.020
 6250SOL    HW119649   6.548   6.745   1.112
 6250SOL    HW219650   6.484   6.834   0.991
 6251SOL     OW19651   4.296   6.362   4.683
 6251SOL    HW119652   4.266   6.313   4.765
 6251SOL    HW219653   4.311   6.297   4.609
 6252SOL     OW19654   2.377   4.236   6.621
 6252SOL    HW119655   2.468   4.205   6.595
 6252SOL    HW219656   2.371   4.238   6.721
 6253SOL     OW19657   2.543   4.983   4.016
 6253SOL    HW119658   2.499   4.925   4.085
 6253SOL    HW219659   2.489   4.981   3.932
 6254SOL     OW19660   6.213   0.167   0.717
 6254SOL    HW119661   6.255   0.155   0.807
 6254SOL    HW219662   6.239   0.091   0.657
 6255SOL     OW19663   2.725   1.569   1.019
 6255SOL    HW119664   2.814   1.538   1.052
 6255SOL    HW219665   2.736   1.651   0.963
 6256SOL     OW19666   4.274   5.243   2.260
 6256SOL    HW119667   4.189   5.292   2.239
 6256SOL    HW219668   4.348   5.277   2.202
 6257SOL     OW19669   4.226   2.938   0.087
 6257SOL    HW119670   4.320   2.933   0.054
 6257SOL    HW219671   4.202   3.033   0.106
 6258SOL     OW19672   3.007   6.433   4.828
 6258SOL    HW119673   2.973   6.523   4.855
 6258SOL    HW219674   3.091   6.413   4.878
 6259SOL     OW19675   2.187   0.772   6.397
 6259SOL    HW119676   2.234   0.775   6.309
 6259SOL    HW219677   2.124   0.693   6.398
 6260SOL     OW19678   3.690   6.867   0.207
 6260SOL    HW119679   3.749   6.914   0.271
 6260SOL    HW219680   3.597   6.864   0.243
 6261SOL     OW19681   4.623   6.978   0.452
 6261SOL    HW119682   4.589   6.975   0.358
 6261SOL    HW219683   4.575   6.909   0.506
 6262SOL     OW19684   1.711   6.091   2.384
 6262SOL    HW119685   1.719   6.186   2.352
 6262SOL    HW219686   1.701   6.090   2.483
 6263SOL     OW19687   0.971   6.736   5.139
 6263SOL    HW119688   0.944   6.648   5.100
 6263SOL    HW219689   1.001   6.797   5.067
 6264SOL     OW19690   2.050   0.555   1.434
 6264SOL    HW119691   2.025   0.511   1.520
 6264SOL    HW219692   2.122   0.623   1.451
 6265SOL     OW19693   4.614   3.370   0.624
 6265SOL    HW119694   4.615   3.314   0.541
 6265SOL    HW219695   4.584   3.463   0.601
 6266SOL     OW19696   4.434   0.118   3.193
 6266SOL    HW119697   4.432   0.216   3.213
 6266SOL    HW219698   4.385   0.101   3.107
 6267SOL     OW19699   2.193   6.898   5.100
 6267SOL    HW119700   2.276   6.954   5.108
 6267SOL    HW219701   2.130   6.941   5.036
 6268SOL     OW19702   2.879   0.812   1.951
 6268SOL    HW119703   2.926   0.805   2.039
 6268SOL    HW219704   2.919   0.747   1.886
 6269SOL     OW19705   6.130   0.035   2.408
 6269SOL    HW119706   6.168   0.094   2.480
 6269SOL    HW219707   6.150   0.075   2.318
 6270SOL     OW19708   0.050   0.055   0.126
 6270SOL    HW119709   0.115   0.077   0.199
 6270SOL    HW219710   0.091   7.019   0.064
 6271SOL     OW19711   6.527   2.450   5.680
 6271SOL    HW119712   6.506   2.418   5.588
 6271SOL    HW219713   6.556   2.374   5.737
 6272SOL     OW19714   0.600   1.679   6.977
 6272SOL    HW119715   0.660   1.696   0.026
 6272SOL    HW219716   0.520   1.738   6.983
 6273SOL     OW19717   0.242   5.657   2.632
 6273SOL    HW119718   0.187   5.580   2.664
 6273SOL    HW219719   0.250   5.725   2.704
 6274SOL     OW19720   3.031   0.014   4.579
 6274SOL    HW119721   3.050   0.111   4.562
 6274SOL    HW219722   2.938   7.022   4.549
 6275SOL     OW19723   1.713   6.082   0.302
 6275SOL    HW119724   1.621   6.066   0.339
 6275SOL    HW219725   1.766   5.998   0.307
 6276SOL     OW19726   3.093   5.456   3.539
 6276SOL    HW119727   3.092   5.442   3.440
 6276SOL    HW219728   3.026   5.394   3.582
 6277SOL     OW19729   4.934   2.295   0.985
 6277SOL    HW119730   4.917   2.220   1.049
 6277SOL    HW219731   4.870   2.288   0.909
 6278SOL     OW19732   3.502   0.732   4.924
 6278SOL    HW119733   3.574   0.774   4.979
 6278SOL    HW219734   3.542   0.661   4.865
 6279SOL     OW19735   3.932   5.975   0.589
 6279SOL    HW119736   4.019   5.993   0.635
 6279SOL    HW219737   3.949   5.933   0.500
 6280SOL     OW19738   0.281   1.172   6.628
 6280SOL    HW119739   0.290   1.271   6.642
 6280SOL    HW219740   0.325   1.147   6.541
 6281SOL     OW19741   6.959   4.950   4.203
 6281SOL    HW119742   6.970   4.952   4.302
 6281SOL    HW219743   0.003   4.896   4.162
 6282SOL     OW19744   5.856   3.286   4.765
 6282SOL    HW119745   5.923   3.355   4.792
 6282SOL    HW219746   5.778   3.330   4.721
 6283SOL     OW19747   0.874   4.181   4.422
 6283SOL    HW119748   0.837   4.089   4.406
 6283SOL    HW219749   0.801   4.248   4.411
 6284SOL     OW19750   1.383   5.582   6.403
 6284SOL    HW119751   1.474   5.546   6.385
 6284SOL    HW219752   1.358   5.566   6.498
 6285SOL     OW19753   0.972   3.318   3.254
 6285SOL    HW119754   0.993   3.373   3.335
 6285SOL    HW219755   1.044   3.250   3.241
 6286SOL     OW19756   0.574   3.574   4.660
 6286SOL    HW119757   0.525   3.516   4.594
 6286SOL    HW219758   0.628   3.642   4.610
 6287SOL     OW19759   3.358   5.048   5.283
 6287SOL    HW119760   3.419   5.127   5.292
 6287SOL    HW219761   3.296   5.063   5.206
 6288SOL     OW19762   5.594   4.850   1.363
 6288SOL    HW119763   5.593   4.883   1.268
 6288SOL    HW219764   5.535   4.907   1.419
 6289SOL     OW19765   2.227   4.567   6.707
 6289SOL    HW119766   2.171   4.486   6.726
 6289SOL    HW219767   2.258   4.607   6.793
 6290SOL     OW19768   5.953   5.678   6.378
 6290SOL    HW119769   5.924   5.771   6.353
 6290SOL    HW219770   6.027   5.649   6.316
 6291SOL     OW19771   3.467   3.845   3.396
 6291SOL    HW119772   3.532   3.812   3.465
 6291SOL    HW219773   3.433   3.768   3.342
 6292SOL     OW19774   2.479   2.262   5.410
 6292SOL    HW119775   2.534   2.338   5.446
 6292SOL    HW219776   2.453   2.282   5.316
 6293SOL     OW19777   4.744   1.983   0.575
 6293SOL    HW119778   4.792   1.961   0.659
 6293SOL    HW219779   4.802   2.041   0.517
 6294SOL     OW19780   4.338   0.255   3.554
 6294SOL    HW119781   4.323   0.311   3.472
 6294SOL    HW219782   4.283   0.291   3.629
 6295SOL     OW19783   5.345   4.779   4.773
 6295SOL    HW119784   5.340   4.713   4.699
 6295SOL    HW219785   5.424   4.758   4.831
 6296SOL     OW19786   0.161   4.209   5.433
 6296SOL    HW119787   0.157   4.193   5.531
 6296SOL    HW219788   0.159   4.122   5.384
 6297SOL     OW19789   6.374   0.537   5.162
 6297SOL    HW119790   6.405   0.474   5.234
 6297SOL    HW219791   6.286   0.575   5.187
 6298SOL     OW19792   0.306   3.614   6.447
 6298SOL    HW119793   0.392   3.614   6.499
 6298SOL    HW219794   0.283   3.708   6.422
 6299SOL     OW19795   5.649   2.589   1.835
 6299SOL    HW119796   5.549   2.599   1.838
 6299SOL    HW219797   5.680   2.595   1.740
 6300SOL     OW19798   6.204   0.714   6.812
 6300SOL    HW119799   6.110   0.684   6.794
 6300SOL    HW219800   6.262   0.633   6.825
 6301SOL     OW19801   3.053   6.018   6.769
 6301SOL    HW119802   2.998   6.102   6.766
 6301SOL    HW219803   3.033   5.962   6.689
 6302SOL     OW19804   1.941   1.777   5.043
 6302SOL    HW119805   1.970   1.749   5.134
 6302SOL    HW219806   2.022   1.805   4.990
 6303SOL     OW19807   0.363   6.723   6.238
 6303SOL    HW119808   0.301   6.801   6.249
 6303SOL    HW219809   0.420   6.714   6.320
 6304SOL     OW19810   3.359   1.484   3.230
 6304SOL    HW119811   3.291   1.412   3.221
 6304SOL    HW219812   3.345   1.552   3.159
 6305SOL     OW19813   5.865   6.152   0.518
 6305SOL    HW119814   5.812   6.164   0.434
 6305SOL    HW219815   5.928   6.229   0.529
 6306SOL     OW19816   0.228   4.026   4.066
 6306SOL    HW119817   0.199   4.112   4.107
 6306SOL    HW219818   0.245   4.039   3.968
 6307SOL     OW19819   3.083   3.025   4.052
 6307SOL    HW119820   3.033   2.954   4.100
 6307SOL    HW219821   3.177   3.031   4.087
 6308SOL     OW19822   1.070   2.267   5.325
 6308SOL    HW119823   1.069   2.177   5.367
 6308SOL    HW219824   0.984   2.284   5.278
 6309SOL     OW19825   0.356   0.064   4.711
 6309SOL    HW119826   0.281   0.126   4.730
 6309SOL    HW219827   0.437   0.116   4.683
 6310SOL     OW19828   2.350   6.410   2.444
 6310SOL    HW119829   2.352   6.455   2.534
 6310SOL    HW219830   2.390   6.319   2.452
 6311SOL     OW19831   4.881   2.024   5.833
 6311SOL    HW119832   4.917   1.967   5.908
 6311SOL    HW219833   4.782   2.016   5.831
 6312SOL     OW19834   0.594   6.629   5.948
 6312SOL    HW119835   0.604   6.582   6.036
 6312SOL    HW219836   0.562   6.564   5.879
 6313SOL     OW19837   6.205   6.742   2.911
 6313SOL    HW119838   6.105   6.748   2.913
 6313SOL    HW219839   6.242   6.767   3.000
 6314SOL     OW19840   3.071   6.603   2.527
 6314SOL    HW119841   3.140   6.668   2.559
 6314SOL    HW219842   2.985   6.621   2.573
 6315SOL     OW19843   3.305   1.846   4.946
 6315SOL    HW119844   3.403   1.827   4.937
 6315SOL    HW219845   3.253   1.767   4.915
 6316SOL     OW19846   4.454   2.111   5.491
 6316SOL    HW119847   4.517   2.068   5.556
 6316SOL    HW219848   4.447   2.209   5.511
 6317SOL     OW19849   4.932   3.946   2.090
 6317SOL    HW119850   4.918   4.033   2.136
 6317SOL    HW219851   5.030   3.930   2.076
 6318SOL     OW19852   4.496   0.089   6.144
 6318SOL    HW119853   4.417   0.117   6.088
 6318SOL    HW219854   4.572   0.064   6.084
 6319SOL     OW19855   6.676   2.125   5.142
 6319SOL    HW119856   6.612   2.202   5.145
 6319SOL    HW219857   6.636   2.051   5.087
 6320SOL     OW19858   0.006   6.326   5.083
 6320SOL    HW119859   6.997   6.406   5.129
 6320SOL    HW219860   6.988   6.244   5.113
 6321SOL     OW19861   5.139   3.018   0.431
 6321SOL    HW119862   5.227   3.013   0.479
 6321SOL    HW219863   5.151   2.986   0.337
 6322SOL     OW19864   2.687   2.805   0.523
 6322SOL    HW119865   2.627   2.849   0.589
 6322SOL    HW219866   2.645   2.809   0.432
 6323SOL     OW19867   1.348   2.033   1.510
 6323SOL    HW119868   1.383   1.940   1.508
 6323SOL    HW219869   1.309   2.056   1.421
 6324SOL     OW19870   4.154   1.113   0.275
 6324SOL    HW119871   4.238   1.119   0.329
 6324SOL    HW219872   4.100   1.197   0.288
 6325SOL     OW19873   1.879   3.213   2.898
 6325SOL    HW119874   1.960   3.178   2.945
 6325SOL    HW219875   1.853   3.301   2.938
 6326SOL     OW19876   5.800   5.054   0.003
 6326SOL    HW119877   5.785   5.111   6.951
 6326SOL    HW219878   5.898   5.053   0.024
 6327SOL     OW19879   0.334   1.874   3.734
 6327SOL    HW119880   0.361   1.970   3.731
 6327SOL    HW219881   0.248   1.865   3.784
 6328SOL     OW19882   4.530   3.622   6.561
 6328SOL    HW119883   4.476   3.589   6.484
 6328SOL    HW219884   4.496   3.711   6.591
 6329SOL     OW19885   1.498   2.784   5.075
 6329SOL    HW119886   1.478   2.851   5.147
 6329SOL    HW219887   1.533   2.831   4.994
 6330SOL     OW19888   5.696   6.883   1.774
 6330SOL    HW119889   5.794   6.896   1.791
 6330SOL    HW219890   5.668   6.941   1.697
 6331SOL     OW19891   0.001   3.661   4.950
 6331SOL    HW119892   7.006   3.627   4.859
 6331SOL    HW219893   0.037   3.754   4.942
 6332SOL     OW19894   0.951   2.792   1.109
 6332SOL    HW119895   1.029   2.854   1.111
 6332SOL    HW219896   0.983   2.699   1.128
 6333SOL     OW19897   4.507   0.298   5.320
 6333SOL    HW119898   4.571   0.339   5.255
 6333SOL    HW219899   4.530   0.202   5.333
 6334SOL     OW19900   3.051   1.483   2.141
 6334SOL    HW119901   3.042   1.493   2.240
 6334SOL    HW219902   3.098   1.563   2.104
 6335SOL     OW19903   4.267   0.521   0.469
 6335SOL    HW119904   4.316   0.441   0.503
 6335SOL    HW219905   4.300   0.603   0.515
 6336SOL     OW19906   0.663   2.418   6.560
 6336SOL    HW119907   0.629   2.487   6.623
 6336SOL    HW219908   0.703   2.462   6.479
 6337SOL     OW19909   3.967   5.313   4.791
 6337SOL    HW119910   4.016   5.382   4.843
 6337SOL    HW219911   4.013   5.224   4.801
 6338SOL     OW19912   2.799   2.325   4.411
 6338SOL    HW119913   2.856   2.396   4.452
 6338SOL    HW219914   2.725   2.301   4.473
 6339SOL     OW19915   0.765   3.236   4.322
 6339SOL    HW119916   0.832   3.311   4.315
 6339SOL    HW219917   0.797   3.158   4.269
 6340SOL     OW19918   2.561   3.726   1.446
 6340SOL    HW119919   2.461   3.732   1.452
 6340SOL    HW219920   2.602   3.803   1.494
 6341SOL     OW19921   6.622   3.811   4.460
 6341SOL    HW119922   6.649   3.888   4.517
 6341SOL    HW219923   6.674   3.730   4.486
 6342SOL     OW19924   3.360   1.161   0.677
 6342SOL    HW119925   3.413   1.141   0.594
 6342SOL    HW219926   3.339   1.259   0.679
 6343SOL     OW19927   3.929   0.405   0.207
 6343SOL    HW119928   3.923   0.305   0.212
 6343SOL    HW219929   3.839   0.444   0.227
 6344SOL     OW19930   5.325   1.718   4.521
 6344SOL    HW119931   5.322   1.817   4.540
 6344SOL    HW219932   5.298   1.668   4.603
 6345SOL     OW19933   4.773   3.179   1.470
 6345SOL    HW119934   4.857   3.156   1.422
 6345SOL    HW219935   4.724   3.250   1.419
 6346SOL     OW19936   0.259   5.351   4.894
 6346SOL    HW119937   0.223   5.438   4.929
 6346SOL    HW219938   0.236   5.277   4.957
 6347SOL     OW19939   2.014   1.451   1.231
 6347SOL    HW119940   2.059   1.485   1.313
 6347SOL    HW219941   2.083   1.418   1.166
 6348SOL     OW19942   0.848   2.848   6.158
 6348SOL    HW119943   0.795   2.777   6.205
 6348SOL    HW219944   0.788   2.923   6.131
 6349SOL     OW19945   1.968   0.904   0.686
 6349SOL    HW119946   1.972   0.833   0.616
 6349SOL    HW219947   2.053   0.903   0.740
 6350SOL     OW19948   0.666   5.240   4.032
 6350SOL    HW119949   0.757   5.279   4.045
 6350SOL    HW219950   0.624   5.278   3.950
 6351SOL     OW19951   6.206   3.626   3.400
 6351SOL    HW119952   6.260   3.590   3.324
 6351SOL    HW219953   6.189   3.553   3.467
 6352SOL     OW19954   2.314   0.379   4.909
 6352SOL    HW119955   2.312   0.412   5.004
 6352SOL    HW219956   2.341   0.454   4.849
 6353SOL     OW19957   1.425   6.014   6.804
 6353SOL    HW119958   1.484   6.036   6.727
 6353SOL    HW219959   1.350   5.956   6.772
 6354SOL     OW19960   3.741   6.042   2.666
 6354SOL    HW119961   3.764   6.100   2.588
 6354SOL    HW219962   3.708   6.099   2.741
 6355SOL     OW19963   2.751   5.462   7.016
 6355SOL    HW119964   2.798   5.518   6.947
 6355SOL    HW219965   2.819   5.421   0.047
 6356SOL     OW19966   5.693   4.635   0.433
 6356SOL    HW119967   5.785   4.599   0.451
 6356SOL    HW219968   5.639   4.566   0.384
 6357SOL     OW19969   5.975   3.147   2.198
 6357SOL    HW119970   5.927   3.143   2.110
 6357SOL    HW219971   5.932   3.084   2.263
 6358SOL     OW19972   0.542   1.895   6.376
 6358SOL    HW119973   0.487   1.814   6.358
 6358SOL    HW219974   0.537   1.917   6.474
 6359SOL     OW19975   6.011   6.373   0.609
 6359SOL    HW119976   6.068   6.426   0.546
 6359SOL    HW219977   5.920   6.416   0.615
 6360SOL     OW19978   1.011   3.544   4.489
 6360SOL    HW119979   0.989   3.477   4.419
 6360SOL    HW219980   1.088   3.511   4.543
 6361SOL     OW19981   1.167   0.825   0.981
 6361SOL    HW119982   1.217   0.819   1.067
 6361SOL    HW219983   1.229   0.851   0.908
 6362SOL     OW19984   1.010   5.806   6.292
 6362SOL    HW119985   1.011   5.800   6.392
 6362SOL    HW219986   1.100   5.782   6.256
 6363SOL     OW19987   2.941   5.519   4.268
 6363SOL    HW119988   2.858   5.547   4.317
 6363SOL    HW219989   2.997   5.599   4.249
 6364SOL     OW19990   2.976   2.748   5.828
 6364SOL    HW119991   2.937   2.822   5.883
 6364SOL    HW219992   2.955   2.763   5.732
 6365SOL     OW19993   5.599   6.371   3.895
 6365SOL    HW119994   5.556   6.428   3.825
 6365SOL    HW219995   5.532   6.310   3.935
 6366SOL     OW19996   0.424   6.174   5.668
 6366SOL    HW119997   0.438   6.231   5.748
 6366SOL    HW219998   0.484   6.094   5.673
 6367SOL     OW19999   3.316   2.135   3.021
 6367SOL    HW120000   3.314   2.133   2.921
 6367SOL    HW220001   3.230   2.172   3.055
 6368SOL     OW20002   4.278   4.840   4.603
 6368SOL    HW120003   4.195   4.896   4.607
 6368SOL    HW220004   4.328   4.850   4.689
 6369SOL     OW20005   1.725   0.523   4.310
 6369SOL    HW120006   1.793   0.595   4.322
 6369SOL    HW220007   1.655   0.530   4.382
 6370SOL     OW20008   4.988   4.194   3.306
 6370SOL    HW120009   4.896   4.166   3.278
 6370SOL    HW220010   5.047   4.113   3.310
 6371SOL     OW20011   5.480   4.138   2.505
 6371SOL    HW120012   5.468   4.142   2.604
 6371SOL    HW220013   5.503   4.229   2.471
 6372SOL     OW20014   1.177   0.875   2.371
 6372SOL    HW120015   1.088   0.844   2.336
 6372SOL    HW220016   1.178   0.975   2.372
 6373SOL     OW20017   5.401   4.555   2.976
 6373SOL    HW120018   5.312   4.557   2.932
 6373SOL    HW220019   5.469   4.515   2.914
 6374SOL     OW20020   4.696   3.370   1.075
 6374SOL    HW120021   4.785   3.409   1.053
 6374SOL    HW220022   4.626   3.412   1.016
 6375SOL     OW20023   0.103   2.858   2.264
 6375SOL    HW120024   0.003   2.857   2.266
 6375SOL    HW220025   0.138   2.821   2.350
 6376SOL     OW20026   3.963   2.020   6.484
 6376SOL    HW120027   3.869   2.049   6.503
 6376SOL    HW220028   3.973   1.923   6.506
 6377SOL     OW20029   7.017   1.566   5.475
 6377SOL    HW120030   6.938   1.589   5.419
 6377SOL    HW220031   0.040   1.494   5.430
 6378SOL     OW20032   5.917   4.959   3.517
 6378SOL    HW120033   5.949   5.013   3.439
 6378SOL    HW220034   5.939   4.863   3.502
 6379SOL     OW20035   0.398   4.625   5.926
 6379SOL    HW120036   0.312   4.674   5.940
 6379SOL    HW220037   0.389   4.532   5.962
 6380SOL     OW20038   0.170   2.378   4.647
 6380SOL    HW120039   0.183   2.467   4.690
 6380SOL    HW220040   0.216   2.308   4.702
 6381SOL     OW20041   4.431   3.258   0.827
 6381SOL    HW120042   4.509   3.200   0.808
 6381SOL    HW220043   4.408   3.253   0.925
 6382SOL     OW20044   3.260   2.077   0.584
 6382SOL    HW120045   3.291   2.041   0.496
 6382SOL    HW220046   3.301   2.024   0.658
 6383SOL     OW20047   2.214   2.864   2.301
 6383SOL    HW120048   2.208   2.764   2.307
 6383SOL    HW220049   2.261   2.889   2.216
 6384SOL     OW20050   5.930   3.220   2.767
 6384SOL    HW120051   5.951   3.153   2.696
 6384SOL    HW220052   5.992   3.208   2.844
 6385SOL     OW20053   6.287   4.049   2.931
 6385SOL    HW120054   6.369   4.045   2.987
 6385SOL    HW220055   6.207   4.057   2.990
 6386SOL     OW20056   2.255   3.263   7.016
 6386SOL    HW120057   2.312   3.297   6.941
 6386SOL    HW220058   2.293   3.293   0.074
 6387SOL     OW20059   6.263   1.839   6.990
 6387SOL    HW120060   6.326   1.764   7.008
 6387SOL    HW220061   6.309   1.909   6.936
 6388SOL     OW20062   5.207   5.825   1.691
 6388SOL    HW120063   5.270   5.898   1.664
 6388SOL    HW220064   5.120   5.836   1.643
 6389SOL     OW20065   1.232   6.986   0.797
 6389SOL    HW120066   1.275   0.031   0.747
 6389SOL    HW220067   1.282   6.901   0.780
 6390SOL     OW20068   6.415   0.231   5.500
 6390SOL    HW120069   6.386   0.324   5.475
 6390SOL    HW220070   6.445   0.183   5.418
 6391SOL     OW20071   1.601   0.832   5.989
 6391SOL    HW120072   1.685   0.884   5.997
 6391SOL    HW220073   1.617   0.737   6.018
 6392SOL     OW20074   2.890   5.705   3.171
 6392SOL    HW120075   2.987   5.691   3.153
 6392SOL    HW220076   2.874   5.800   3.196
 6393SOL     OW20077   6.352   5.601   1.793
 6393SOL    HW120078   6.319   5.689   1.759
 6393SOL    HW220079   6.385   5.612   1.887
 6394SOL     OW20080   2.063   5.902   0.802
 6394SOL    HW120081   2.036   5.897   0.898
 6394SOL    HW220082   2.087   5.811   0.769
 6395SOL     OW20083   6.599   3.451   2.237
 6395SOL    HW120084   6.545   3.432   2.319
 6395SOL    HW220085   6.691   3.480   2.264
 6396SOL     OW20086   6.773   3.670   6.246
 6396SOL    HW120087   6.854   3.614   6.264
 6396SOL    HW220088   6.749   3.662   6.149
 6397SOL     OW20089   6.107   1.247   2.133
 6397SOL    HW120090   6.115   1.157   2.090
 6397SOL    HW220091   6.198   1.288   2.142
 6398SOL     OW20092   2.035   6.929   1.741
 6398SOL    HW120093   1.976   6.926   1.661
 6398SOL    HW220094   2.130   6.945   1.712
 6399SOL     OW20095   1.357   0.559   6.581
 6399SOL    HW120096   1.346   0.518   6.491
 6399SOL    HW220097   1.403   0.493   6.642
 6400SOL     OW20098   1.900   4.878   2.359
 6400SOL    HW120099   1.945   4.938   2.425
 6400SOL    HW220100   1.894   4.925   2.270
 6401SOL     OW20101   5.741   5.265   3.181
 6401SOL    HW120102   5.830   5.230   3.210
 6401SOL    HW220103   5.687   5.189   3.144
 6402SOL     OW20104   2.182   3.104   4.021
 6402SOL    HW120105   2.273   3.147   4.015
 6402SOL    HW220106   2.185   3.032   4.089
 6403SOL     OW20107   6.118   5.942   5.674
 6403SOL    HW120108   6.197   5.883   5.654
 6403SOL    HW220109   6.150   6.027   5.716
 6404SOL     OW20110   4.753   1.181   2.379
 6404SOL    HW120111   4.668   1.202   2.330
 6404SOL    HW220112   4.787   1.265   2.422
 6405SOL     OW20113   4.321   0.813   4.574
 6405SOL    HW120114   4.274   0.901   4.576
 6405SOL    HW220115   4.414   0.826   4.540
 6406SOL     OW20116   1.029   2.735   2.136
 6406SOL    HW120117   0.991   2.724   2.228
 6406SOL    HW220118   0.996   2.820   2.096
 6407SOL     OW20119   2.322   0.072   4.575
 6407SOL    HW120120   2.366   7.026   4.528
 6407SOL    HW220121   2.223   0.064   4.567
 6408SOL     OW20122   5.606   1.215   1.239
 6408SOL    HW120123   5.673   1.268   1.187
 6408SOL    HW220124   5.607   1.120   1.207
 6409SOL     OW20125   0.028   4.774   3.043
 6409SOL    HW120126   0.050   4.687   2.999
 6409SOL    HW220127   7.010   4.833   2.977
 6410SOL     OW20128   1.830   1.019   5.987
 6410SOL    HW120129   1.927   1.006   6.005
 6410SOL    HW220130   1.805   1.114   6.007
 6411SOL     OW20131   0.985   2.702   2.402
 6411SOL    HW120132   0.898   2.660   2.426
 6411SOL    HW220133   0.991   2.792   2.446
 6412SOL     OW20134   1.961   0.672   6.144
 6412SOL    HW120135   1.954   0.770   6.162
 6412SOL    HW220136   1.987   0.625   6.229
 6413SOL     OW20137   3.830   4.904   4.130
 6413SOL    HW120138   3.777   4.908   4.045
 6413SOL    HW220139   3.775   4.939   4.205
 6414SOL     OW20140   5.691   0.514   6.694
 6414SOL    HW120141   5.679   0.537   6.597
 6414SOL    HW220142   5.602   0.516   6.740
 6415SOL     OW20143   1.360   3.435   3.969
 6415SOL    HW120144   1.385   3.467   3.877
 6415SOL    HW220145   1.345   3.514   4.029
 6416SOL     OW20146   2.223   6.548   5.965
 6416SOL    HW120147   2.254   6.595   5.883
 6416SOL    HW220148   2.123   6.541   5.964
 6417SOL     OW20149   5.496   3.211   0.698
 6417SOL    HW120150   5.450   3.138   0.648
 6417SOL    HW220151   5.567   3.171   0.756
 6418SOL     OW20152   4.981   4.116   2.870
 6418SOL    HW120153   5.053   4.143   2.934
 6418SOL    HW220154   5.016   4.121   2.776
 6419SOL     OW20155   1.309   5.612   3.286
 6419SOL    HW120156   1.249   5.659   3.350
 6419SOL    HW220157   1.254   5.563   3.218
 6420SOL     OW20158   2.173   1.239   3.988
 6420SOL    HW120159   2.181   1.216   4.085
 6420SOL    HW220160   2.217   1.169   3.933
 6421SOL     OW20161   4.184   0.435   1.229
 6421SOL    HW120162   4.116   0.487   1.177
 6421SOL    HW220163   4.193   0.474   1.321
 6422SOL     OW20164   6.596   1.772   5.069
 6422SOL    HW120165   6.585   1.744   5.165
 6422SOL    HW220166   6.557   1.863   5.056
 6423SOL     OW20167   5.276   5.323   4.820
 6423SOL    HW120168   5.201   5.390   4.822
 6423SOL    HW220169   5.342   5.349   4.749
 6424SOL     OW20170   1.183   4.031   4.971
 6424SOL    HW120171   1.142   3.991   4.889
 6424SOL    HW220172   1.276   4.061   4.951
 6425SOL     OW20173   6.681   5.617   3.426
 6425SOL    HW120174   6.734   5.676   3.487
 6425SOL    HW220175   6.589   5.604   3.463
 6426SOL     OW20176   6.186   5.541   3.665
 6426SOL    HW120177   6.131   5.458   3.665
 6426SOL    HW220178   6.252   5.538   3.590
 6427SOL     OW20179   2.960   3.751   3.468
 6427SOL    HW120180   3.013   3.820   3.419
 6427SOL    HW220181   2.931   3.789   3.556
 6428SOL     OW20182   6.055   3.126   0.449
 6428SOL    HW120183   6.029   3.096   0.541
 6428SOL    HW220184   6.142   3.176   0.453
 6429SOL     OW20185   0.280   1.096   5.823
 6429SOL    HW120186   0.361   1.153   5.809
 6429SOL    HW220187   0.214   1.115   5.751
 6430SOL     OW20188   6.533   1.182   4.379
 6430SOL    HW120189   6.568   1.174   4.286
 6430SOL    HW220190   6.594   1.132   4.442
 6431SOL     OW20191   4.530   6.300   3.199
 6431SOL    HW120192   4.432   6.295   3.178
 6431SOL    HW220193   4.574   6.214   3.173
 6432SOL     OW20194   4.069   4.464   5.881
 6432SOL    HW120195   4.158   4.448   5.837
 6432SOL    HW220196   4.040   4.382   5.929
 6433SOL     OW20197   3.008   4.868   6.811
 6433SOL    HW120198   3.009   4.778   6.855
 6433SOL    HW220199   2.915   4.906   6.815
 6434SOL     OW20200   2.926   0.408   6.270
 6434SOL    HW120201   2.859   0.392   6.198
 6434SOL    HW220202   2.914   0.341   6.342
 6435SOL     OW20203   6.101   6.878   0.512
 6435SOL    HW120204   6.020   6.821   0.507
 6435SOL    HW220205   6.171   6.832   0.568
 6436SOL     OW20206   1.487   3.543   3.222
 6436SOL    HW120207   1.428   3.465   3.201
 6436SOL    HW220208   1.501   3.598   3.140
 6437SOL     OW20209   1.794   2.529   0.368
 6437SOL    HW120210   1.716   2.586   0.341
 6437SOL    HW220211   1.771   2.433   0.354
 6438SOL     OW20212   0.398   4.950   6.052
 6438SOL    HW120213   0.384   4.971   5.955
 6438SOL    HW220214   0.333   5.003   6.107
 6439SOL     OW20215   5.262   0.595   2.479
 6439SOL    HW120216   5.225   0.646   2.401
 6439SOL    HW220217   5.227   0.501   2.478
 6440SOL     OW20218   3.061   1.204   5.633
 6440SOL    HW120219   2.996   1.203   5.709
 6440SOL    HW220220   3.015   1.176   5.549
 6441SOL     OW20221   0.400   0.857   1.641
 6441SOL    HW120222   0.364   0.803   1.717
 6441SOL    HW220223   0.495   0.884   1.662
 6442SOL     OW20224   3.045   1.623   4.706
 6442SOL    HW120225   3.041   1.534   4.661
 6442SOL    HW220226   3.078   1.612   4.800
 6443SOL     OW20227   3.224   3.087   5.891
 6443SOL    HW120228   3.238   2.992   5.865
 6443SOL    HW220229   3.128   3.112   5.876
 6444SOL     OW20230   6.021   2.397   4.486
 6444SOL    HW120231   6.101   2.423   4.540
 6444SOL    HW220232   6.049   2.380   4.391
 6445SOL     OW20233   3.783   3.328   3.305
 6445SOL    HW120234   3.692   3.289   3.298
 6445SOL    HW220235   3.777   3.422   3.338
 6446SOL     OW20236   0.394   1.578   0.271
 6446SOL    HW120237   0.395   1.485   0.233
 6446SOL    HW220238   0.302   1.617   0.261
 6447SOL     OW20239   6.894   4.238   2.465
 6447SOL    HW120240   6.883   4.263   2.561
 6447SOL    HW220241   6.826   4.285   2.409
 6448SOL     OW20242   5.821   4.794   1.517
 6448SOL    HW120243   5.743   4.816   1.458
 6448SOL    HW220244   5.817   4.697   1.542
 6449SOL     OW20245   3.243   5.454   1.680
 6449SOL    HW120246   3.148   5.421   1.682
 6449SOL    HW220247   3.290   5.413   1.602
 6450SOL     OW20248   1.392   3.669   0.042
 6450SOL    HW120249   1.333   3.589   0.031
 6450SOL    HW220250   1.370   3.736   7.000
 6451SOL     OW20251   2.150   0.968   5.681
 6451SOL    HW120252   2.118   0.983   5.587
 6451SOL    HW220253   2.126   1.048   5.737
 6452SOL     OW20254   4.760   4.172   2.410
 6452SOL    HW120255   4.746   4.081   2.448
 6452SOL    HW220256   4.818   4.166   2.329
 6453SOL     OW20257   2.864   0.565   1.558
 6453SOL    HW120258   2.913   0.588   1.642
 6453SOL    HW220259   2.769   0.543   1.580
 6454SOL     OW20260   0.652   0.967   2.909
 6454SOL    HW120261   0.598   0.977   2.826
 6454SOL    HW220262   0.654   1.053   2.959
 6455SOL     OW20263   6.956   3.094   3.726
 6455SOL    HW120264   6.873   3.038   3.733
 6455SOL    HW220265   6.984   3.100   3.630
 6456SOL     OW20266   1.283   0.561   3.605
 6456SOL    HW120267   1.368   0.590   3.649
 6456SOL    HW220268   1.293   0.467   3.572
 6457SOL     OW20269   5.275   0.514   1.633
 6457SOL    HW120270   5.298   0.417   1.639
 6457SOL    HW220271   5.335   0.566   1.693
 6458SOL     OW20272   1.491   5.222   4.347
 6458SOL    HW120273   1.515   5.313   4.313
 6458SOL    HW220274   1.523   5.212   4.441
 6459SOL     OW20275   6.260   3.081   2.291
 6459SOL    HW120276   6.179   3.051   2.240
 6459SOL    HW220277   6.329   3.009   2.287
 6460SOL     OW20278   6.036   5.982   6.114
 6460SOL    HW120279   6.061   5.889   6.138
 6460SOL    HW220280   6.116   6.030   6.078
 6461SOL     OW20281   3.082   4.337   6.816
 6461SOL    HW120282   3.178   4.363   6.820
 6461SOL    HW220283   3.072   4.255   6.759
 6462SOL     OW20284   1.155   2.897   4.601
 6462SOL    HW120285   1.085   2.941   4.544
 6462SOL    HW220286   1.241   2.893   4.550
 6463SOL     OW20287   5.661   0.547   0.519
 6463SOL    HW120288   5.743   0.603   0.512
 6463SOL    HW220289   5.600   0.566   0.442
 6464SOL     OW20290   1.760   5.642   5.165
 6464SOL    HW120291   1.750   5.694   5.080
 6464SOL    HW220292   1.855   5.617   5.179
 6465SOL     OW20293   0.223   3.018   3.114
 6465SOL    HW120294   0.238   3.117   3.108
 6465SOL    HW220295   0.292   2.977   3.173
 6466SOL     OW20296   6.069   0.989   6.391
 6466SOL    HW120297   5.993   0.979   6.455
 6466SOL    HW220298   6.041   1.049   6.316
 6467SOL     OW20299   3.928   0.145   1.318
 6467SOL    HW120300   3.931   0.156   1.219
 6467SOL    HW220301   3.844   0.095   1.343
 6468SOL     OW20302   3.672   6.757   1.864
 6468SOL    HW120303   3.610   6.690   1.824
 6468SOL    HW220304   3.660   6.759   1.963
 6469SOL     OW20305   3.794   2.160   3.491
 6469SOL    HW120306   3.781   2.156   3.392
 6469SOL    HW220307   3.818   2.070   3.526
 6470SOL     OW20308   5.879   2.802   1.031
 6470SOL    HW120309   5.826   2.846   1.103
 6470SOL    HW220310   5.858   2.704   1.029
 6471SOL     OW20311   0.749   6.522   5.628
 6471SOL    HW120312   0.787   6.542   5.538
 6471SOL    HW220313   0.649   6.523   5.623
 6472SOL     OW20314   6.568   5.954   2.857
 6472SOL    HW120315   6.597   5.931   2.950
 6472SOL    HW220316   6.476   5.918   2.842
 6473SOL     OW20317   2.107   1.475   4.536
 6473SOL    HW120318   2.160   1.463   4.620
 6473SOL    HW220319   2.075   1.570   4.530
 6474SOL     OW20320   4.556   5.856   5.576
 6474SOL    HW120321   4.473   5.912   5.574
 6474SOL    HW220322   4.565   5.807   5.489
 6475SOL     OW20323   5.858   4.364   3.771
 6475SOL    HW120324   5.784   4.349   3.705
 6475SOL    HW220325   5.819   4.385   3.861
 6476SOL     OW20326   5.030   2.896   0.100
 6476SOL    HW120327   5.059   2.886   0.005
 6476SOL    HW220328   5.066   2.819   0.154
 6477SOL     OW20329   6.462   5.508   0.961
 6477SOL    HW120330   6.501   5.594   0.927
 6477SOL    HW220331   6.461   5.441   0.887
 6478SOL     OW20332   2.830   6.338   2.686
 6478SOL    HW120333   2.761   6.306   2.751
 6478SOL    HW220334   2.818   6.436   2.671
 6479SOL     OW20335   3.843   5.887   4.336
 6479SOL    HW120336   3.858   5.789   4.350
 6479SOL    HW220337   3.764   5.901   4.276
 6480SOL     OW20338   2.474   0.943   6.990
 6480SOL    HW120339   2.453   0.889   6.908
 6480SOL    HW220340   2.406   1.016   7.000
 6481SOL     OW20341   3.484   2.388   1.667
 6481SOL    HW120342   3.397   2.347   1.694
 6481SOL    HW220343   3.556   2.355   1.727
 6482SOL     OW20344   6.161   2.009   6.470
 6482SOL    HW120345   6.155   1.924   6.522
 6482SOL    HW220346   6.177   2.085   6.533
 6483SOL     OW20347   6.939   6.814   3.064
 6483SOL    HW120348   6.839   6.824   3.061
 6483SOL    HW220349   6.969   6.807   3.159
 6484SOL     OW20350   2.986   1.285   2.617
 6484SOL    HW120351   3.078   1.247   2.608
 6484SOL    HW220352   2.919   1.212   2.604
 6485SOL     OW20353   2.036   5.427   4.083
 6485SOL    HW120354   1.982   5.451   4.003
 6485SOL    HW220355   2.133   5.438   4.063
 6486SOL     OW20356   1.063   4.965   2.348
 6486SOL    HW120357   1.011   5.009   2.422
 6486SOL    HW220358   1.127   4.899   2.388
 6487SOL     OW20359   1.108   6.634   5.581
 6487SOL    HW120360   1.100   6.683   5.494
 6487SOL    HW220361   1.085   6.537   5.567
 6488SOL     OW20362   4.025   5.546   4.581
 6488SOL    HW120363   4.089   5.557   4.505
 6488SOL    HW220364   4.066   5.486   4.650
 6489SOL     OW20365   3.710   3.720   6.257
 6489SOL    HW120366   3.665   3.641   6.299
 6489SOL    HW220367   3.797   3.737   6.302
 6490SOL     OW20368   3.299   0.914   6.259
 6490SOL    HW120369   3.218   0.876   6.214
 6490SOL    HW220370   3.295   1.014   6.256
 6491SOL     OW20371   3.138   0.341   1.364
 6491SOL    HW120372   3.156   0.258   1.418
 6491SOL    HW220373   3.166   0.422   1.417
 6492SOL     OW20374   3.877   3.864   5.279
 6492SOL    HW120375   3.863   3.776   5.325
 6492SOL    HW220376   3.882   3.937   5.348
 6493SOL     OW20377   1.540   4.185   6.616
 6493SOL    HW120378   1.498   4.217   6.531
 6493SOL    HW220379   1.612   4.249   6.643
 6494SOL     OW20380   6.788   6.934   2.716
 6494SOL    HW120381   6.830   6.980   2.794
 6494SOL    HW220382   6.692   6.962   2.709
 6495SOL     OW20383   0.067   1.016   4.505
 6495SOL    HW120384   0.016   0.945   4.457
 6495SOL    HW220385   0.162   0.987   4.517
 6496SOL     OW20386   5.556   0.590   2.294
 6496SOL    HW120387   5.492   0.514   2.295
 6496SOL    HW220388   5.506   0.676   2.302
 6497SOL     OW20389   0.750   0.666   1.392
 6497SOL    HW120390   0.827   0.682   1.454
 6497SOL    HW220391   0.741   0.742   1.329
 6498SOL     OW20392   0.760   3.675   4.471
 6498SOL    HW120393   0.724   3.640   4.385
 6498SOL    HW220394   0.856   3.648   4.480
 6499SOL     OW20395   5.422   3.640   5.508
 6499SOL    HW120396   5.520   3.630   5.523
 6499SOL    HW220397   5.375   3.554   5.531
 6500SOL     OW20398   0.046   4.175   3.531
 6500SOL    HW120399   0.103   4.107   3.485
 6500SOL    HW220400   6.981   4.163   3.504
 6501SOL     OW20401   6.766   1.455   0.756
 6501SOL    HW120402   6.728   1.445   0.848
 6501SOL    HW220403   6.706   1.513   0.702
 6502SOL     OW20404   0.072   3.767   2.144
 6502SOL    HW120405   0.079   3.705   2.223
 6502SOL    HW220406   0.096   3.860   2.172
 6503SOL     OW20407   5.742   0.876   3.851
 6503SOL    HW120408   5.776   0.873   3.945
 6503SOL    HW220409   5.798   0.940   3.797
 6504SOL     OW20410   3.384   6.396   6.076
 6504SOL    HW120411   3.310   6.379   6.142
 6504SOL    HW220412   3.471   6.405   6.125
 6505SOL     OW20413   5.638   6.226   6.433
 6505SOL    HW120414   5.546   6.254   6.404
 6505SOL    HW220415   5.699   6.227   6.354
 6506SOL     OW20416   7.001   3.088   3.463
 6506SOL    HW120417   6.922   3.072   3.404
 6506SOL    HW220418   0.046   3.028   3.435
 6507SOL     OW20419   2.516   6.062   6.482
 6507SOL    HW120420   2.573   6.011   6.418
 6507SOL    HW220421   2.433   6.010   6.502
 6508SOL     OW20422   1.988   0.337   3.324
 6508SOL    HW120423   1.956   0.354   3.417
 6508SOL    HW220424   2.086   0.358   3.317
 6509SOL     OW20425   4.649   2.045   4.719
 6509SOL    HW120426   4.664   1.971   4.654
 6509SOL    HW220427   4.566   2.028   4.771
 6510SOL     OW20428   6.081   4.732   6.925
 6510SOL    HW120429   5.996   4.728   6.977
 6510SOL    HW220430   6.074   4.801   6.853
 6511SOL     OW20431   4.193   1.085   4.932
 6511SOL    HW120432   4.247   1.013   4.974
 6511SOL    HW220433   4.254   1.149   4.885
 6512SOL     OW20434   3.637   6.778   2.137
 6512SOL    HW120435   3.586   6.765   2.222
 6512SOL    HW220436   3.731   6.747   2.150
 6513SOL     OW20437   2.244   5.640   3.821
 6513SOL    HW120438   2.285   5.591   3.899
 6513SOL    HW220439   2.178   5.707   3.855
 6514SOL     OW20440   5.817   1.301   4.135
 6514SOL    HW120441   5.761   1.221   4.117
 6514SOL    HW220442   5.802   1.370   4.064
 6515SOL     OW20443   1.525   3.247   3.643
 6515SOL    HW120444   1.596   3.179   3.663
 6515SOL    HW220445   1.564   3.319   3.587
 6516SOL     OW20446   0.498   3.189   1.232
 6516SOL    HW120447   0.527   3.182   1.328
 6516SOL    HW220448   0.438   3.112   1.210
 6517SOL     OW20449   6.863   1.750   2.149
 6517SOL    HW120450   6.791   1.734   2.082
 6517SOL    HW220451   6.835   1.713   2.237
 6518SOL     OW20452   0.531   0.372   1.417
 6518SOL    HW120453   0.575   0.419   1.340
 6518SOL    HW220454   0.549   0.423   1.502
 6519SOL     OW20455   0.433   1.497   2.760
 6519SOL    HW120456   0.480   1.560   2.698
 6519SOL    HW220457   0.424   1.540   2.850
 6520SOL     OW20458   0.121   4.717   0.189
 6520SOL    HW120459   0.153   4.805   0.223
 6520SOL    HW220460   0.199   4.656   0.176
 6521SOL     OW20461   2.059   2.978   4.656
 6521SOL    HW120462   2.032   2.890   4.695
 6521SOL    HW220463   2.127   3.022   4.714
 6522SOL     OW20464   2.825   4.726   5.606
 6522SOL    HW120465   2.908   4.774   5.577
 6522SOL    HW220466   2.753   4.740   5.538
 6523SOL     OW20467   3.925   0.722   6.813
 6523SOL    HW120468   3.981   0.698   6.734
 6523SOL    HW220469   3.975   0.783   6.874
 6524SOL     OW20470   2.708   3.272   1.215
 6524SOL    HW120471   2.750   3.309   1.298
 6524SOL    HW220472   2.608   3.271   1.227
 6525SOL     OW20473   2.075   4.734   2.969
 6525SOL    HW120474   2.122   4.654   3.005
 6525SOL    HW220475   1.990   4.749   3.021
 6526SOL     OW20476   1.055   0.452   1.679
 6526SOL    HW120477   0.958   0.463   1.700
 6526SOL    HW220478   1.108   0.455   1.764
 6527SOL     OW20479   6.564   2.367   6.809
 6527SOL    HW120480   6.622   2.390   6.887
 6527SOL    HW220481   6.470   2.356   6.839
 6528SOL     OW20482   6.017   1.217   5.385
 6528SOL    HW120483   6.026   1.243   5.289
 6528SOL    HW220484   6.103   1.233   5.433
 6529SOL     OW20485   2.426   0.368   2.291
 6529SOL    HW120486   2.515   0.337   2.258
 6529SOL    HW220487   2.435   0.403   2.384
 6530SOL     OW20488   6.934   2.118   1.270
 6530SOL    HW120489   6.858   2.145   1.329
 6530SOL    HW220490   7.018   2.159   1.303
 6531SOL     OW20491   4.932   3.393   5.003
 6531SOL    HW120492   4.949   3.357   5.095
 6531SOL    HW220493   4.886   3.481   5.010
 6532SOL     OW20494   1.125   1.479   1.034
 6532SOL    HW120495   1.140   1.566   1.080
 6532SOL    HW220496   1.187   1.471   0.956
 6533SOL     OW20497   4.023   5.917   0.312
 6533SOL    HW120498   4.101   5.969   0.276
 6533SOL    HW220499   3.939   5.949   0.268
 6534SOL     OW20500   5.056   5.049   1.344
 6534SOL    HW120501   4.959   5.072   1.346
 6534SOL    HW220502   5.103   5.096   1.418
 6535SOL     OW20503   6.952   4.495   4.379
 6535SOL    HW120504   6.960   4.395   4.380
 6535SOL    HW220505   6.859   4.521   4.405
 6536SOL     OW20506   0.585   2.196   5.007
 6536SOL    HW120507   0.634   2.128   4.952
 6536SOL    HW220508   0.567   2.159   5.097
 6537SOL     OW20509   0.201   4.439   6.513
 6537SOL    HW120510   0.152   4.395   6.438
 6537SOL    HW220511   0.201   4.538   6.500
 6538SOL     OW20512   1.865   3.919   5.732
 6538SOL    HW120513   1.946   3.860   5.730
 6538SOL    HW220514   1.847   3.946   5.827
 6539SOL     OW20515   5.108   0.729   6.984
 6539SOL    HW120516   5.115   0.797   6.911
 6539SOL    HW220517   5.013   0.724   7.015
 6540SOL     OW20518   3.714   2.787   6.281
 6540SOL    HW120519   3.790   2.849   6.262
 6540SOL    HW220520   3.647   2.792   6.207
 6541SOL     OW20521   4.918   1.351   5.210
 6541SOL    HW120522   4.850   1.405   5.261
 6541SOL    HW220523   5.006   1.399   5.210
 6542SOL     OW20524   0.629   2.728   3.764
 6542SOL    HW120525   0.707   2.791   3.763
 6542SOL    HW220526   0.662   2.634   3.773
 6543SOL     OW20527   4.439   3.168   5.376
 6543SOL    HW120528   4.423   3.076   5.340
 6543SOL    HW220529   4.395   3.236   5.317
 6544SOL     OW20530   1.297   6.761   3.374
 6544SOL    HW120531   1.247   6.815   3.441
 6544SOL    HW220532   1.325   6.674   3.415
 6545SOL     OW20533   4.222   0.575   0.838
 6545SOL    HW120534   4.240   0.645   0.769
 6545SOL    HW220535   4.272   0.596   0.922
 6546SOL     OW20536   2.624   4.145   5.905
 6546SOL    HW120537   2.692   4.178   5.839
 6546SOL    HW220538   2.534   4.183   5.882
 6547SOL     OW20539   4.815   1.105   6.516
 6547SOL    HW120540   4.804   1.116   6.418
 6547SOL    HW220541   4.880   1.031   6.534
 6548SOL     OW20542   1.418   3.960   1.067
 6548SOL    HW120543   1.492   3.952   1.000
 6548SOL    HW220544   1.456   3.987   1.156
 6549SOL     OW20545   4.423   0.918   2.166
 6549SOL    HW120546   4.405   0.960   2.077
 6549SOL    HW220547   4.417   0.818   2.157
 6550SOL     OW20548   6.953   6.662   4.624
 6550SOL    HW120549   0.000   6.713   4.663
 6550SOL    HW220550   6.974   6.564   4.628
 6551SOL     OW20551   2.034   3.584   1.951
 6551SOL    HW120552   2.113   3.523   1.951
 6551SOL    HW220553   1.996   3.590   1.858
 6552SOL     OW20554   1.661   0.331   0.390
 6552SOL    HW120555   1.698   0.284   0.470
 6552SOL    HW220556   1.698   0.424   0.386
 6553SOL     OW20557   0.119   2.338   3.199
 6553SOL    HW120558   0.209   2.296   3.188
 6553SOL    HW220559   0.120   2.401   3.277
 6554SOL     OW20560   1.552   7.018   4.317
 6554SOL    HW120561   1.480   6.993   4.252
 6554SOL    HW220562   1.531   0.077   4.358
 6555SOL     OW20563   4.861   1.986   2.884
 6555SOL    HW120564   4.937   1.923   2.901
 6555SOL    HW220565   4.842   2.038   2.968
 6556SOL     OW20566   5.937   4.696   3.435
 6556SOL    HW120567   5.964   4.606   3.468
 6556SOL    HW220568   5.968   4.708   3.340
 6557SOL     OW20569   2.524   0.440   3.211
 6557SOL    HW120570   2.536   0.530   3.171
 6557SOL    HW220571   2.431   0.431   3.247
 6558SOL     OW20572   6.687   4.892   6.981
 6558SOL    HW120573   6.617   4.838   7.030
 6558SOL    HW220574   6.778   4.859   7.007
 6559SOL     OW20575   0.739   3.916   0.208
 6559SOL    HW120576   0.754   3.952   0.299
 6559SOL    HW220577   0.814   3.945   0.147
 6560SOL     OW20578   4.103   4.683   1.670
 6560SOL    HW120579   4.155   4.672   1.755
 6560SOL    HW220580   4.153   4.745   1.609
 6561SOL     OW20581   3.433   4.229   1.246
 6561SOL    HW120582   3.439   4.131   1.268
 6561SOL    HW220583   3.388   4.240   1.157
 6562SOL     OW20584   6.011   1.791   1.240
 6562SOL    HW120585   5.972   1.857   1.176
 6562SOL    HW220586   5.996   1.822   1.334
 6563SOL     OW20587   5.156   5.399   6.373
 6563SOL    HW120588   5.145   5.487   6.327
 6563SOL    HW220589   5.137   5.409   6.471
 6564SOL     OW20590   6.139   4.145   2.481
 6564SOL    HW120591   6.058   4.130   2.537
 6564SOL    HW220592   6.216   4.169   2.540
 6565SOL     OW20593   6.066   0.967   2.862
 6565SOL    HW120594   6.160   0.981   2.893
 6565SOL    HW220595   6.012   0.925   2.935
 6566SOL     OW20596   4.197   6.676   2.253
 6566SOL    HW120597   4.123   6.698   2.317
 6566SOL    HW220598   4.160   6.628   2.174
 6567SOL     OW20599   5.189   0.753   2.256
 6567SOL    HW120600   5.173   0.850   2.271
 6567SOL    HW220601   5.131   0.721   2.181
 6568SOL     OW20602   3.461   1.852   4.078
 6568SOL    HW120603   3.428   1.945   4.093
 6568SOL    HW220604   3.387   1.787   4.098
 6569SOL     OW20605   2.968   2.941   0.397
 6569SOL    HW120606   2.902   2.947   0.471
 6569SOL    HW220607   3.054   2.984   0.425
 6570SOL     OW20608   2.911   0.950   2.402
 6570SOL    HW120609   2.879   1.002   2.481
 6570SOL    HW220610   2.907   1.007   2.320
 6571SOL     OW20611   2.938   4.881   2.407
 6571SOL    HW120612   2.957   4.964   2.355
 6571SOL    HW220613   2.883   4.819   2.351
 6572SOL     OW20614   6.921   4.181   4.651
 6572SOL    HW120615   6.865   4.216   4.727
 6572SOL    HW220616   7.017   4.205   4.667
 6573SOL     OW20617   0.481   1.980   2.631
 6573SOL    HW120618   0.535   2.054   2.592
 6573SOL    HW220619   0.486   1.984   2.731
 6574SOL     OW20620   2.255   5.708   3.024
 6574SOL    HW120621   2.199   5.785   2.995
 6574SOL    HW220622   2.215   5.666   3.106
 6575SOL     OW20623   0.899   0.057   3.928
 6575SOL    HW120624   0.871   7.002   3.973
 6575SOL    HW220625   0.986   0.088   3.965
 6576SOL     OW20626   2.682   6.332   0.332
 6576SOL    HW120627   2.700   6.252   0.389
 6576SOL    HW220628   2.698   6.415   0.386
 6577SOL     OW20629   1.329   1.744   3.173
 6577SOL    HW120630   1.233   1.725   3.152
 6577SOL    HW220631   1.334   1.815   3.244
 6578SOL     OW20632   0.591   6.169   2.597
 6578SOL    HW120633   0.588   6.101   2.670
 6578SOL    HW220634   0.674   6.155   2.543
 6579SOL     OW20635   7.026   3.342   3.407
 6579SOL    HW120636   6.959   3.393   3.460
 6579SOL    HW220637   7.013   3.244   3.422
 6580SOL     OW20638   0.557   1.794   0.296
 6580SOL    HW120639   0.501   1.711   0.299
 6580SOL    HW220640   0.501   1.870   0.261
 6581SOL     OW20641   2.429   0.541   0.529
 6581SOL    HW120642   2.329   0.536   0.525
 6581SOL    HW220643   2.461   0.617   0.472
 6582SOL     OW20644   6.934   1.208   3.506
 6582SOL    HW120645   6.980   1.294   3.486
 6582SOL    HW220646   7.003   1.137   3.521
 6583SOL     OW20647   5.006   6.857   6.034
 6583SOL    HW120648   5.025   6.793   5.959
 6583SOL    HW220649   4.975   6.944   5.996
 6584SOL     OW20650   4.929   2.422   0.342
 6584SOL    HW120651   5.013   2.455   0.298
 6584SOL    HW220652   4.925   2.322   0.337
 6585SOL     OW20653   6.120   5.644   0.186
 6585SOL    HW120654   6.201   5.674   0.237
 6585SOL    HW220655   6.050   5.612   0.250
 6586SOL     OW20656   5.711   1.187   5.716
 6586SOL    HW120657   5.632   1.126   5.725
 6586SOL    HW220658   5.771   1.177   5.796
 6587SOL     OW20659   1.783   4.949   5.628
 6587SOL    HW120660   1.865   4.950   5.570
 6587SOL    HW220661   1.743   4.857   5.627
 6588SOL     OW20662   0.584   2.833   1.479
 6588SOL    HW120663   0.540   2.922   1.494
 6588SOL    HW220664   0.663   2.844   1.419
 6589SOL     OW20665   4.429   0.335   2.061
 6589SOL    HW120666   4.433   0.243   2.102
 6589SOL    HW220667   4.521   0.373   2.055
 6590SOL     OW20668   0.039   1.057   6.766
 6590SOL    HW120669   0.123   1.076   6.714
 6590SOL    HW220670   0.057   1.071   6.864
 6591SOL     OW20671   5.917   5.807   3.580
 6591SOL    HW120672   5.908   5.819   3.481
 6591SOL    HW220673   6.013   5.793   3.603
 6592SOL     OW20674   5.361   6.889   3.195
 6592SOL    HW120675   5.414   6.954   3.249
 6592SOL    HW220676   5.278   6.934   3.161
 6593SOL     OW20677   2.675   2.382   2.784
 6593SOL    HW120678   2.698   2.373   2.687
 6593SOL    HW220679   2.748   2.342   2.839
 6594SOL     OW20680   3.616   1.269   6.233
 6594SOL    HW120681   3.533   1.326   6.232
 6594SOL    HW220682   3.627   1.224   6.145
 6595SOL     OW20683   1.762   4.003   6.982
 6595SOL    HW120684   1.813   4.079   7.022
 6595SOL    HW220685   1.807   3.973   6.898
 6596SOL     OW20686   3.545   6.925   4.303
 6596SOL    HW120687   3.550   6.826   4.298
 6596SOL    HW220688   3.629   6.961   4.345
 6597SOL     OW20689   1.153   5.546   0.947
 6597SOL    HW120690   1.101   5.494   1.014
 6597SOL    HW220691   1.216   5.608   0.995
 6598SOL     OW20692   1.923   4.477   3.838
 6598SOL    HW120693   1.966   4.454   3.925
 6598SOL    HW220694   1.868   4.559   3.849
 6599SOL     OW20695   4.620   6.180   6.207
 6599SOL    HW120696   4.600   6.272   6.172
 6599SOL    HW220697   4.539   6.144   6.253
 6600SOL     OW20698   3.561   6.578   5.367
 6600SOL    HW120699   3.585   6.573   5.464
 6600SOL    HW220700   3.637   6.619   5.316
 6601SOL     OW20701   1.458   2.090   5.065
 6601SOL    HW120702   1.446   2.114   4.969
 6601SOL    HW220703   1.396   2.145   5.121
 6602SOL     OW20704   1.725   0.926   1.431
 6602SOL    HW120705   1.637   0.877   1.429
 6602SOL    HW220706   1.786   0.888   1.362
 6603SOL     OW20707   0.423   2.997   3.325
 6603SOL    HW120708   0.510   2.950   3.307
 6603SOL    HW220709   0.426   3.038   3.417
 6604SOL     OW20710   1.678   6.863   1.654
 6604SOL    HW120711   1.703   6.766   1.658
 6604SOL    HW220712   1.578   6.872   1.653
 6605SOL     OW20713   5.633   5.730   1.866
 6605SOL    HW120714   5.666   5.743   1.772
 6605SOL    HW220715   5.619   5.819   1.909
 6606SOL     OW20716   6.720   5.586   2.138
 6606SOL    HW120717   6.777   5.633   2.206
 6606SOL    HW220718   6.731   5.631   2.049
 6607SOL     OW20719   1.038   4.681   3.212
 6607SOL    HW120720   1.083   4.615   3.152
 6607SOL    HW220721   1.000   4.634   3.291
 6608SOL     OW20722   6.413   6.845   6.943
 6608SOL    HW120723   6.469   6.872   6.865
 6608SOL    HW220724   6.438   6.901   7.023
 6609SOL     OW20725   5.586   0.936   0.115
 6609SOL    HW120726   5.613   0.842   0.137
 6609SOL    HW220727   5.488   0.947   0.131
 6610SOL     OW20728   2.004   6.500   6.558
 6610SOL    HW120729   2.069   6.480   6.631
 6610SOL    HW220730   2.040   6.465   6.471
 6611SOL     OW20731   4.880   3.008   3.059
 6611SOL    HW120732   4.827   3.019   3.143
 6611SOL    HW220733   4.820   2.971   2.987
 6612SOL     OW20734   6.402   1.922   6.300
 6612SOL    HW120735   6.315   1.954   6.336
 6612SOL    HW220736   6.473   1.931   6.370
 6613SOL     OW20737   6.471   6.459   5.486
 6613SOL    HW120738   6.497   6.385   5.549
 6613SOL    HW220739   6.459   6.544   5.538
 6614SOL     OW20740   4.757   5.071   6.933
 6614SOL    HW120741   4.744   5.102   7.028
 6614SOL    HW220742   4.757   4.972   6.931
 6615SOL     OW20743   1.776   5.886   1.229
 6615SOL    HW120744   1.802   5.925   1.317
 6615SOL    HW220745   1.737   5.957   1.171
 6616SOL     OW20746   4.521   6.969   6.446
 6616SOL    HW120747   4.565   0.026   6.420
 6616SOL    HW220748   4.444   6.988   6.507
 6617SOL     OW20749   4.374   5.539   3.409
 6617SOL    HW120750   4.401   5.586   3.325
 6617SOL    HW220751   4.387   5.601   3.487
 6618SOL     OW20752   1.804   2.073   2.265
 6618SOL    HW120753   1.833   1.987   2.305
 6618SOL    HW220754   1.738   2.118   2.326
 6619SOL     OW20755   5.600   6.818   3.737
 6619SOL    HW120756   5.591   6.830   3.836
 6619SOL    HW220757   5.562   6.730   3.710
 6620SOL     OW20758   2.079   2.644   5.649
 6620SOL    HW120759   2.031   2.731   5.638
 6620SOL    HW220760   2.013   2.572   5.669
 6621SOL     OW20761   3.585   3.313   5.753
 6621SOL    HW120762   3.530   3.386   5.711
 6621SOL    HW220763   3.594   3.237   5.688
 6622SOL     OW20764   5.958   5.857   2.144
 6622SOL    HW120765   6.036   5.855   2.207
 6622SOL    HW220766   5.941   5.951   2.115
 6623SOL     OW20767   3.544   2.839   4.845
 6623SOL    HW120768   3.540   2.740   4.842
 6623SOL    HW220769   3.635   2.870   4.815
 6624SOL     OW20770   0.046   4.636   5.282
 6624SOL    HW120771   0.044   4.536   5.281
 6624SOL    HW220772   0.135   4.667   5.315
 6625SOL     OW20773   5.035   2.120   5.404
 6625SOL    HW120774   4.964   2.066   5.359
 6625SOL    HW220775   5.106   2.143   5.338
 6626SOL     OW20776   3.127   6.631   5.616
 6626SOL    HW120777   3.028   6.645   5.613
 6626SOL    HW220778   3.156   6.616   5.710
 6627SOL     OW20779   1.681   6.637   4.824
 6627SOL    HW120780   1.709   6.581   4.902
 6627SOL    HW220781   1.707   6.732   4.840
 6628SOL     OW20782   6.220   4.731   5.078
 6628SOL    HW120783   6.224   4.663   5.151
 6628SOL    HW220784   6.144   4.794   5.094
 6629SOL     OW20785   4.628   6.472   6.434
 6629SOL    HW120786   4.550   6.413   6.412
 6629SOL    HW220787   4.594   6.563   6.459
 6630SOL     OW20788   3.806   1.815   1.315
 6630SOL    HW120789   3.712   1.834   1.288
 6630SOL    HW220790   3.868   1.877   1.267
 6631SOL     OW20791   2.353   5.889   4.070
 6631SOL    HW120792   2.281   5.947   4.032
 6631SOL    HW220793   2.318   5.843   4.152
 6632SOL     OW20794   0.909   0.928   1.044
 6632SOL    HW120795   0.993   0.877   1.059
 6632SOL    HW220796   0.926   1.026   1.059
 6633SOL     OW20797   2.300   5.173   6.300
 6633SOL    HW120798   2.395   5.182   6.328
 6633SOL    HW220799   2.282   5.078   6.274
 6634SOL     OW20800   5.063   1.347   4.756
 6634SOL    HW120801   5.100   1.294   4.679
 6634SOL    HW220802   5.088   1.303   4.842
 6635SOL     OW20803   4.814   4.464   2.991
 6635SOL    HW120804   4.914   4.463   2.998
 6635SOL    HW220805   4.781   4.371   2.980
 6636SOL     OW20806   4.732   1.528   6.937
 6636SOL    HW120807   4.825   1.492   6.953
 6636SOL    HW220808   4.666   1.454   6.946
 6637SOL     OW20809   0.831   7.004   6.989
 6637SOL    HW120810   0.926   7.006   7.021
 6637SOL    HW220811   0.786   0.060   7.011
 6638SOL     OW20812   3.167   3.310   3.358
 6638SOL    HW120813   3.076   3.345   3.337
 6638SOL    HW220814   3.235   3.362   3.305
 6639SOL     OW20815   5.052   4.608   6.905
 6639SOL    HW120816   4.984   4.578   6.839
 6639SOL    HW220817   5.122   4.662   6.859
 6640SOL     OW20818   6.401   1.559   4.986
 6640SOL    HW120819   6.329   1.597   4.929
 6640SOL    HW220820   6.467   1.631   5.009
 6641SOL     OW20821   2.700   1.532   6.993
 6641SOL    HW120822   2.675   1.516   0.059
 6641SOL    HW220823   2.769   1.464   6.965
 6642SOL     OW20824   2.633   6.098   6.744
 6642SOL    HW120825   2.581   6.108   6.659
 6642SOL    HW220826   2.719   6.147   6.737
 6643SOL     OW20827   4.915   6.604   0.006
 6643SOL    HW120828   4.884   6.592   0.101
 6643SOL    HW220829   4.963   6.691   7.027
 6644SOL     OW20830   2.904   5.962   1.515
 6644SOL    HW120831   2.917   6.009   1.427
 6644SOL    HW220832   2.978   5.987   1.577
 6645SOL     OW20833   5.738   3.696   1.015
 6645SOL    HW120834   5.662   3.700   1.080
 6645SOL    HW220835   5.790   3.612   1.029
 6646SOL     OW20836   4.189   1.168   5.271
 6646SOL    HW120837   4.131   1.190   5.192
 6646SOL    HW220838   4.282   1.197   5.252
 6647SOL     OW20839   4.483   0.237   1.303
 6647SOL    HW120840   4.430   0.301   1.358
 6647SOL    HW220841   4.429   0.154   1.287
 6648SOL     OW20842   3.590   6.543   3.801
 6648SOL    HW120843   3.646   6.521   3.721
 6648SOL    HW220844   3.587   6.642   3.813
 6649SOL     OW20845   5.943   1.628   6.528
 6649SOL    HW120846   6.029   1.612   6.480
 6649SOL    HW220847   5.888   1.696   6.478
 6650SOL     OW20848   3.809   1.471   6.028
 6650SOL    HW120849   3.905   1.497   6.015
 6650SOL    HW220850   3.800   1.414   6.110
 6651SOL     OW20851   1.903   0.659   5.874
 6651SOL    HW120852   1.994   0.684   5.839
 6651SOL    HW220853   1.902   0.672   5.973
 6652SOL     OW20854   0.400   4.105   6.751
 6652SOL    HW120855   0.478   4.087   6.811
 6652SOL    HW220856   0.320   4.128   6.807
 6653SOL     OW20857   4.012   4.218   1.499
 6653SOL    HW120858   3.975   4.242   1.588
 6653SOL    HW220859   3.952   4.153   1.454
 6654SOL     OW20860   1.733   5.654   1.768
 6654SOL    HW120861   1.792   5.677   1.846
 6654SOL    HW220862   1.662   5.724   1.758
 6655SOL     OW20863   0.473   6.730   3.760
 6655SOL    HW120864   0.422   6.735   3.674
 6655SOL    HW220865   0.454   6.811   3.814
 6656SOL     OW20866   5.931   2.309   3.112
 6656SOL    HW120867   5.921   2.278   3.018
 6656SOL    HW220868   5.910   2.407   3.117
 6657SOL     OW20869   5.591   4.263   5.515
 6657SOL    HW120870   5.572   4.361   5.515
 6657SOL    HW220871   5.524   4.216   5.457
 6658SOL     OW20872   4.894   1.100   5.110
 6658SOL    HW120873   4.895   1.180   5.170
 6658SOL    HW220874   4.816   1.107   5.047
 6659SOL     OW20875   2.241   2.842   0.926
 6659SOL    HW120876   2.221   2.930   0.883
 6659SOL    HW220877   2.255   2.773   0.854
 6660SOL     OW20878   1.970   4.784   1.325
 6660SOL    HW120879   1.899   4.721   1.294
 6660SOL    HW220880   2.059   4.739   1.321
 6661SOL     OW20881   1.644   0.602   4.976
 6661SOL    HW120882   1.629   0.658   4.894
 6661SOL    HW220883   1.580   0.525   4.976
 6662SOL     OW20884   1.191   0.527   0.486
 6662SOL    HW120885   1.116   0.521   0.552
 6662SOL    HW220886   1.255   0.453   0.502
 6663SOL     OW20887   6.568   6.554   4.727
 6663SOL    HW120888   6.474   6.538   4.696
 6663SOL    HW220889   6.627   6.567   4.647
 6664SOL     OW20890   2.488   6.899   0.367
 6664SOL    HW120891   2.443   6.922   0.281
 6664SOL    HW220892   2.474   6.973   0.432
 6665SOL     OW20893   1.437   5.879   4.661
 6665SOL    HW120894   1.533   5.867   4.684
 6665SOL    HW220895   1.426   5.963   4.607
 6666SOL     OW20896   6.141   6.226   6.252
 6666SOL    HW120897   6.058   6.273   6.283
 6666SOL    HW220898   6.156   6.245   6.155
 6667SOL     OW20899   6.802   6.663   5.867
 6667SOL    HW120900   6.888   6.642   5.913
 6667SOL    HW220901   6.769   6.753   5.896
 6668SOL     OW20902   0.093   6.080   0.906
 6668SOL    HW120903   0.007   6.030   0.897
 6668SOL    HW220904   0.168   6.020   0.879
 6669SOL     OW20905   2.820   2.331   1.708
 6669SOL    HW120906   2.845   2.372   1.620
 6669SOL    HW220907   2.881   2.366   1.779
 6670SOL     OW20908   3.287   1.480   5.364
 6670SOL    HW120909   3.369   1.497   5.419
 6670SOL    HW220910   3.273   1.555   5.300
 6671SOL     OW20911   4.436   6.440   0.371
 6671SOL    HW120912   4.409   6.530   0.403
 6671SOL    HW220913   4.396   6.370   0.430
 6672SOL     OW20914   6.597   2.743   0.060
 6672SOL    HW120915   6.515   2.719   0.113
 6672SOL    HW220916   6.594   2.698   7.001
 6673SOL     OW20917   4.801   4.350   3.687
 6673SOL    HW120918   4.897   4.329   3.669
 6673SOL    HW220919   4.776   4.315   3.777
 6674SOL     OW20920   0.543   3.457   0.254
 6674SOL    HW120921   0.615   3.516   0.216
 6674SOL    HW220922   0.468   3.450   0.189
 6675SOL     OW20923   6.115   3.343   0.842
 6675SOL    HW120924   6.102   3.263   0.783
 6675SOL    HW220925   6.043   3.410   0.823
 6676SOL     OW20926   0.298   3.344   4.939
 6676SOL    HW120927   0.288   3.440   4.965
 6676SOL    HW220928   0.306   3.337   4.839
 6677SOL     OW20929   1.133   1.804   5.940
 6677SOL    HW120930   1.083   1.730   5.985
 6677SOL    HW220931   1.212   1.767   5.892
 6678SOL     OW20932   3.568   3.697   0.385
 6678SOL    HW120933   3.532   3.613   0.424
 6678SOL    HW220934   3.607   3.753   0.458
 6679SOL     OW20935   3.334   0.743   4.273
 6679SOL    HW120936   3.375   0.713   4.359
 6679SOL    HW220937   3.355   0.840   4.258
 6680SOL     OW20938   4.689   6.765   6.441
 6680SOL    HW120939   4.640   6.852   6.439
 6680SOL    HW220940   4.719   6.746   6.535
 6681SOL     OW20941   4.520   5.673   0.653
 6681SOL    HW120942   4.611   5.713   0.647
 6681SOL    HW220943   4.504   5.614   0.574
 6682SOL     OW20944   2.261   5.042   0.930
 6682SOL    HW120945   2.174   5.007   0.895
 6682SOL    HW220946   2.244   5.120   0.989
 6683SOL     OW20947   6.051   3.182   5.148
 6683SOL    HW120948   6.136   3.227   5.175
 6683SOL    HW220949   6.031   3.107   5.212
 6684SOL     OW20950   3.773   6.478   2.019
 6684SOL    HW120951   3.828   6.561   2.026
 6684SOL    HW220952   3.677   6.502   2.001
 6685SOL     OW20953   5.322   2.916   6.317
 6685SOL    HW120954   5.261   2.932   6.394
 6685SOL    HW220955   5.281   2.952   6.233
 6686SOL     OW20956   5.241   5.295   4.249
 6686SOL    HW120957   5.146   5.323   4.235
 6686SOL    HW220958   5.293   5.370   4.290
 6687SOL     OW20959   0.842   3.121   1.703
 6687SOL    HW120960   0.811   3.033   1.738
 6687SOL    HW220961   0.941   3.119   1.688
 6688SOL     OW20962   5.338   4.281   1.523
 6688SOL    HW120963   5.307   4.270   1.618
 6688SOL    HW220964   5.435   4.259   1.517
 6689SOL     OW20965   4.188   3.713   6.079
 6689SOL    HW120966   4.122   3.787   6.066
 6689SOL    HW220967   4.211   3.674   5.990
 6690SOL     OW20968   0.259   0.052   0.985
 6690SOL    HW120969   0.204   0.062   1.068
 6690SOL    HW220970   0.338   0.112   0.990
 6691SOL     OW20971   2.608   0.648   2.205
 6691SOL    HW120972   2.612   0.748   2.205
 6691SOL    HW220973   2.517   0.618   2.178
 6692SOL     OW20974   3.893   3.924   3.669
 6692SOL    HW120975   3.921   3.906   3.763
 6692SOL    HW220976   3.818   3.989   3.669
 6693SOL     OW20977   3.669   2.280   5.311
 6693SOL    HW120978   3.768   2.291   5.320
 6693SOL    HW220979   3.622   2.350   5.366
 6694SOL     OW20980   4.147   5.820   1.486
 6694SOL    HW120981   4.165   5.763   1.566
 6694SOL    HW220982   4.182   5.775   1.404
 6695SOL     OW20983   3.052   2.155   0.189
 6695SOL    HW120984   3.053   2.193   0.097
 6695SOL    HW220985   2.985   2.205   0.245
 6696SOL     OW20986   3.390   3.093   4.120
 6696SOL    HW120987   3.410   3.064   4.027
 6696SOL    HW220988   3.419   3.021   4.184
 6697SOL     OW20989   4.647   1.932   3.218
 6697SOL    HW120990   4.722   1.871   3.191
 6697SOL    HW220991   4.571   1.878   3.253
 6698SOL     OW20992   3.382   1.973   0.794
 6698SOL    HW120993   3.403   1.884   0.834
 6698SOL    HW220994   3.463   2.009   0.748
 6699SOL     OW20995   2.586   5.838   5.990
 6699SOL    HW120996   2.566   5.800   6.081
 6699SOL    HW220997   2.678   5.812   5.963
 6700SOL     OW20998   0.097   1.374   1.565
 6700SOL    HW120999   0.012   1.380   1.512
 6700SOL    HW221000   0.175   1.394   1.506
 6701SOL     OW21001   5.685   5.288   1.529
 6701SOL    HW121002   5.778   5.291   1.564
 6701SOL    HW221003   5.644   5.379   1.532
 6702SOL     OW21004   3.026   2.394   1.139
 6702SOL    HW121005   3.081   2.383   1.222
 6702SOL    HW221006   2.937   2.431   1.163
 6703SOL     OW21007   5.951   0.331   0.729
 6703SOL    HW121008   5.960   0.380   0.643
 6703SOL    HW221009   6.042   0.309   0.765
 6704SOL     OW21010   3.778   2.123   2.993
 6704SOL    HW121011   3.717   2.127   2.914
 6704SOL    HW221012   3.727   2.147   3.076
 6705SOL     OW21013   6.100   3.667   1.590
 6705SOL    HW121014   6.124   3.749   1.537
 6705SOL    HW221015   6.131   3.586   1.540
 6706SOL     OW21016   1.411   5.126   1.454
 6706SOL    HW121017   1.379   5.080   1.537
 6706SOL    HW221018   1.333   5.149   1.396
 6707SOL     OW21019   5.812   6.931   3.309
 6707SOL    HW121020   5.768   6.977   3.386
 6707SOL    HW221021   5.854   6.999   3.249
 6708SOL     OW21022   6.208   5.037   0.577
 6708SOL    HW121023   6.174   5.108   0.515
 6708SOL    HW221024   6.242   4.960   0.524
 6709SOL     OW21025   1.721   6.574   2.448
 6709SOL    HW121026   1.730   6.498   2.383
 6709SOL    HW221027   1.714   6.537   2.541
 6710SOL     OW21028   3.732   1.106   6.455
 6710SOL    HW121029   3.673   1.131   6.532
 6710SOL    HW221030   3.705   1.156   6.373
 6711SOL     OW21031   5.047   6.487   5.347
 6711SOL    HW121032   5.118   6.422   5.321
 6711SOL    HW221033   5.002   6.522   5.264
 6712SOL     OW21034   5.638   3.915   0.786
 6712SOL    HW121035   5.576   3.836   0.783
 6712SOL    HW221036   5.700   3.912   0.707
 6713SOL     OW21037   2.490   0.507   2.529
 6713SOL    HW121038   2.460   0.499   2.623
 6713SOL    HW221039   2.589   0.518   2.526
 6714SOL     OW21040   6.518   0.835   5.966
 6714SOL    HW121041   6.472   0.921   5.945
 6714SOL    HW221042   6.451   0.770   6.003
 6715SOL     OW21043   0.921   0.464   0.584
 6715SOL    HW121044   0.835   0.425   0.617
 6715SOL    HW221045   0.944   0.545   0.638
 6716SOL     OW21046   0.303   5.715   1.887
 6716SOL    HW121047   0.245   5.670   1.954
 6716SOL    HW221048   0.399   5.694   1.906
 6717SOL     OW21049   3.743   2.947   6.977
 6717SOL    HW121050   3.698   3.014   6.918
 6717SOL    HW221051   3.765   2.990   0.035
 6718SOL     OW21052   5.270   0.710   0.617
 6718SOL    HW121053   5.219   0.759   0.687
 6718SOL    HW221054   5.360   0.685   0.653
 6719SOL     OW21055   2.915   6.684   0.457
 6719SOL    HW121056   2.962   6.744   0.522
 6719SOL    HW221057   2.948   6.590   0.468
 6720SOL     OW21058   2.050   0.035   4.538
 6720SOL    HW121059   2.057   6.997   4.611
 6720SOL    HW221060   2.038   7.018   4.450
 6721SOL     OW21061   6.526   6.483   0.275
 6721SOL    HW121062   6.620   6.473   0.308
 6721SOL    HW221063   6.467   6.417   0.322
 6722SOL     OW21064   6.684   3.107   1.513
 6722SOL    HW121065   6.675   3.183   1.578
 6722SOL    HW221066   6.770   3.060   1.529
 6723SOL     OW21067   1.796   6.902   4.889
 6723SOL    HW121068   1.739   6.958   4.828
 6723SOL    HW221069   1.886   6.945   4.898
 6724SOL     OW21070   2.206   3.475   5.969
 6724SOL    HW121071   2.144   3.475   6.048
 6724SOL    HW221072   2.266   3.395   5.973
 6725SOL     OW21073   0.199   3.551   1.687
 6725SOL    HW121074   0.218   3.633   1.634
 6725SOL    HW221075   0.103   3.551   1.715
 6726SOL     OW21076   1.087   2.567   4.962
 6726SOL    HW121077   1.084   2.598   4.867
 6726SOL    HW221078   0.995   2.540   4.991
 6727SOL     OW21079   0.367   4.565   5.661
 6727SOL    HW121080   0.439   4.508   5.621
 6727SOL    HW221081   0.383   4.574   5.759
 6728SOL     OW21082   3.936   2.101   2.156
 6728SOL    HW121083   3.852   2.133   2.113
 6728SOL    HW221084   3.915   2.053   2.240
 6729SOL     OW21085   6.004   0.803   1.420
 6729SOL    HW121086   6.021   0.728   1.356
 6729SOL    HW221087   6.089   0.824   1.470
 6730SOL     OW21088   1.785   6.707   1.349
 6730SOL    HW121089   1.758   6.612   1.367
 6730SOL    HW221090   1.830   6.712   1.260
 6731SOL     OW21091   1.445   6.559   1.268
 6731SOL    HW121092   1.443   6.641   1.210
 6731SOL    HW221093   1.359   6.510   1.258
 6732SOL     OW21094   5.845   4.254   5.179
 6732SOL    HW121095   5.805   4.330   5.230
 6732SOL    HW221096   5.860   4.177   5.241
 6733SOL     OW21097   3.291   5.498   6.119
 6733SOL    HW121098   3.330   5.407   6.101
 6733SOL    HW221099   3.359   5.555   6.165
 6734SOL     OW21100   5.909   2.103   4.164
 6734SOL    HW121101   5.929   2.021   4.109
 6734SOL    HW221102   5.810   2.115   4.170
 6735SOL     OW21103   6.257   4.055   4.946
 6735SOL    HW121104   6.338   4.090   4.899
 6735SOL    HW221105   6.231   4.118   5.020
 6736SOL     OW21106   3.075   3.877   6.900
 6736SOL    HW121107   3.027   3.945   6.955
 6736SOL    HW221108   3.092   3.795   6.954
 6737SOL     OW21109   1.689   3.004   0.825
 6737SOL    HW121110   1.785   2.993   0.796
 6737SOL    HW221111   1.669   3.101   0.835
 6738SOL     OW21112   1.704   5.811   3.451
 6738SOL    HW121113   1.782   5.854   3.406
 6738SOL    HW221114   1.651   5.758   3.384
 6739SOL     OW21115   4.928   5.859   4.490
 6739SOL    HW121116   4.855   5.909   4.537
 6739SOL    HW221117   4.938   5.893   4.396
 6740SOL     OW21118   0.409   0.273   5.270
 6740SOL    HW121119   0.312   0.277   5.293
 6740SOL    HW221120   0.446   0.183   5.295
 6741SOL     OW21121   4.442   2.172   5.873
 6741SOL    HW121122   4.504   2.251   5.877
 6741SOL    HW221123   4.491   2.090   5.901
 6742SOL     OW21124   5.664   6.037   3.442
 6742SOL    HW121125   5.737   6.078   3.496
 6742SOL    HW221126   5.639   5.949   3.482
 6743SOL     OW21127   4.631   4.179   6.614
 6743SOL    HW121128   4.630   4.079   6.614
 6743SOL    HW221129   4.544   4.213   6.578
 6744SOL     OW21130   6.171   3.772   6.202
 6744SOL    HW121131   6.181   3.869   6.180
 6744SOL    HW221132   6.261   3.729   6.208
 6745SOL     OW21133   0.093   6.875   3.669
 6745SOL    HW121134   0.018   6.892   3.733
 6745SOL    HW221135   0.103   6.776   3.655
 6746SOL     OW21136   0.917   1.037   4.035
 6746SOL    HW121137   0.859   1.112   4.066
 6746SOL    HW221138   0.860   0.962   4.002
 6747SOL     OW21139   5.355   1.100   5.355
 6747SOL    HW121140   5.368   1.016   5.303
 6747SOL    HW221141   5.259   1.107   5.382
 6748SOL     OW21142   2.901   1.972   3.719
 6748SOL    HW121143   2.978   1.919   3.754
 6748SOL    HW221144   2.872   1.935   3.631
 6749SOL     OW21145   3.568   4.454   0.971
 6749SOL    HW121146   3.604   4.493   0.886
 6749SOL    HW221147   3.643   4.435   1.034
 6750SOL     OW21148   3.510   1.891   4.409
 6750SOL    HW121149   3.457   1.940   4.340
 6750SOL    HW221150   3.458   1.810   4.438
 6751SOL     OW21151   4.836   0.156   2.940
 6751SOL    HW121152   4.839   0.158   2.840
 6751SOL    HW221153   4.927   0.179   2.976
 6752SOL     OW21154   1.494   0.317   2.975
 6752SOL    HW121155   1.577   0.264   2.991
 6752SOL    HW221156   1.475   0.321   2.877
 6753SOL     OW21157   2.848   1.255   6.196
 6753SOL    HW121158   2.786   1.323   6.157
 6753SOL    HW221159   2.931   1.249   6.141
 6754SOL     OW21160   6.863   1.817   0.793
 6754SOL    HW121161   6.855   1.867   0.879
 6754SOL    HW221162   6.920   1.736   0.806
 6755SOL     OW21163   3.835   1.164   2.370
 6755SOL    HW121164   3.918   1.112   2.391
 6755SOL    HW221165   3.755   1.114   2.400
 6756SOL     OW21166   3.768   5.841   5.287
 6756SOL    HW121167   3.777   5.807   5.381
 6756SOL    HW221168   3.673   5.836   5.258
 6757SOL     OW21169   3.798   2.278   0.714
 6757SOL    HW121170   3.832   2.286   0.620
 6757SOL    HW221171   3.740   2.356   0.735
 6758SOL     OW21172   6.126   2.483   2.379
 6758SOL    HW121173   6.119   2.384   2.368
 6758SOL    HW221174   6.048   2.516   2.432
 6759SOL     OW21175   1.444   4.182   4.238
 6759SOL    HW121176   1.487   4.210   4.152
 6759SOL    HW221177   1.348   4.161   4.223
 6760SOL     OW21178   6.863   4.083   2.230
 6760SOL    HW121179   6.903   4.166   2.190
 6760SOL    HW221180   6.883   4.081   2.328
 6761SOL     OW21181   6.844   2.652   5.636
 6761SOL    HW121182   6.774   2.722   5.647
 6761SOL    HW221183   6.819   2.592   5.560
 6762SOL     OW21184   0.806   4.655   4.678
 6762SOL    HW121185   0.748   4.729   4.712
 6762SOL    HW221186   0.902   4.678   4.694
 6763SOL     OW21187   6.939   5.484   3.545
 6763SOL    HW121188   6.871   5.515   3.479
 6763SOL    HW221189   6.952   5.554   3.615
 6764SOL     OW21190   1.969   5.731   1.081
 6764SOL    HW121191   1.910   5.677   1.021
 6764SOL    HW221192   1.913   5.792   1.138
 6765SOL     OW21193   5.535   4.778   3.750
 6765SOL    HW121194   5.545   4.875   3.769
 6765SOL    HW221195   5.615   4.745   3.698
 6766SOL     OW21196   5.263   6.584   5.958
 6766SOL    HW121197   5.284   6.568   6.055
 6766SOL    HW221198   5.347   6.579   5.905
 6767SOL     OW21199   2.463   1.513   0.936
 6767SOL    HW121200   2.390   1.560   0.985
 6767SOL    HW221201   2.548   1.519   0.990
 6768SOL     OW21202   1.361   6.511   4.788
 6768SOL    HW121203   1.456   6.495   4.762
 6768SOL    HW221204   1.312   6.424   4.791
 6769SOL     OW21205   2.335   0.507   5.874
 6769SOL    HW121206   2.328   0.546   5.966
 6769SOL    HW221207   2.368   0.413   5.880
 6770SOL     OW21208   5.569   1.585   3.297
 6770SOL    HW121209   5.522   1.592   3.385
 6770SOL    HW221210   5.533   1.506   3.246
 6771SOL     OW21211   3.664   1.513   3.054
 6771SOL    HW121212   3.645   1.496   3.151
 6771SOL    HW221213   3.609   1.451   2.998
 6772SOL     OW21214   4.319   2.384   2.762
 6772SOL    HW121215   4.374   2.421   2.837
 6772SOL    HW221216   4.379   2.367   2.683
 6773SOL     OW21217   6.835   5.753   1.445
 6773SOL    HW121218   6.873   5.814   1.375
 6773SOL    HW221219   6.906   5.726   1.509
 6774SOL     OW21220   0.862   3.793   5.004
 6774SOL    HW121221   0.921   3.834   5.074
 6774SOL    HW221222   0.821   3.710   5.040
 6775SOL     OW21223   2.676   2.255   2.036
 6775SOL    HW121224   2.617   2.309   1.975
 6775SOL    HW221225   2.769   2.252   1.998
 6776SOL     OW21226   4.712   3.900   0.144
 6776SOL    HW121227   4.765   3.839   0.204
 6776SOL    HW221228   4.772   3.970   0.107
 6777SOL     OW21229   4.976   4.762   0.570
 6777SOL    HW121230   4.905   4.819   0.528
 6777SOL    HW221231   4.991   4.681   0.513
 6778SOL     OW21232   6.211   5.482   2.115
 6778SOL    HW121233   6.114   5.503   2.129
 6778SOL    HW221234   6.265   5.566   2.125
 6779SOL     OW21235   5.758   5.808   6.138
 6779SOL    HW121236   5.682   5.796   6.073
 6779SOL    HW221237   5.726   5.791   6.231
 6780SOL     OW21238   2.082   2.565   2.532
 6780SOL    HW121239   1.984   2.557   2.515
 6780SOL    HW221240   2.104   2.525   2.621
 6781SOL     OW21241   6.995   2.377   4.343
 6781SOL    HW121242   6.967   2.308   4.276
 6781SOL    HW221243   0.001   2.331   4.424
 6782SOL     OW21244   0.530   0.720   2.888
 6782SOL    HW121245   0.566   0.808   2.920
 6782SOL    HW221246   0.566   0.701   2.796
 6783SOL     OW21247   6.267   1.099   5.536
 6783SOL    HW121248   6.277   1.019   5.595
 6783SOL    HW221249   6.327   1.172   5.568
 6784SOL     OW21250   1.579   3.256   0.874
 6784SOL    HW121251   1.486   3.271   0.840
 6784SOL    HW221252   1.625   3.343   0.886
 6785SOL     OW21253   5.841   5.637   4.872
 6785SOL    HW121254   5.844   5.727   4.915
 6785SOL    HW221255   5.839   5.566   4.943
 6786SOL     OW21256   1.695   2.187   0.913
 6786SOL    HW121257   1.752   2.132   0.852
 6786SOL    HW221258   1.733   2.279   0.921
 6787SOL     OW21259   2.753   2.328   0.080
 6787SOL    HW121260   2.674   2.385   0.103
 6787SOL    HW221261   2.837   2.375   0.110
 6788SOL     OW21262   1.352   4.354   1.075
 6788SOL    HW121263   1.270   4.310   1.112
 6788SOL    HW221264   1.333   4.451   1.059
 6789SOL     OW21265   0.585   5.225   3.209
 6789SOL    HW121266   0.600   5.247   3.305
 6789SOL    HW221267   0.647   5.279   3.152
 6790SOL     OW21268   0.523   3.778   0.496
 6790SOL    HW121269   0.501   3.800   0.401
 6790SOL    HW221270   0.543   3.680   0.504
 6791SOL     OW21271   4.116   1.874   2.034
 6791SOL    HW121272   4.142   1.879   2.131
 6791SOL    HW221273   4.018   1.895   2.025
 6792SOL     OW21274   6.029   6.986   4.499
 6792SOL    HW121275   6.100   6.924   4.466
 6792SOL    HW221276   5.993   0.010   4.422
 6793SOL     OW21277   2.198   1.323   0.588
 6793SOL    HW121278   2.276   1.330   0.526
 6793SOL    HW221279   2.114   1.341   0.537
 6794SOL     OW21280   5.142   0.615   5.672
 6794SOL    HW121281   5.076   0.564   5.728
 6794SOL    HW221282   5.234   0.597   5.705
 6795SOL     OW21283   1.751   6.447   0.300
 6795SOL    HW121284   1.800   6.363   0.274
 6795SOL    HW221285   1.749   6.455   0.399
 6796SOL     OW21286   5.824   0.580   3.022
 6796SOL    HW121287   5.832   0.670   3.064
 6796SOL    HW221288   5.881   0.576   2.940
 6797SOL     OW21289   6.985   2.771   1.771
 6797SOL    HW121290   6.898   2.802   1.808
 6797SOL    HW221291   6.975   2.750   1.674
 6798SOL     OW21292   5.823   6.414   1.851
 6798SOL    HW121293   5.875   6.500   1.847
 6798SOL    HW221294   5.830   6.375   1.943
 6799SOL     OW21295   0.090   0.101   2.092
 6799SOL    HW121296   7.024   0.087   2.118
 6799SOL    HW221297   0.096   0.118   1.994
 6800SOL     OW21298   2.249   2.918   2.048
 6800SOL    HW121299   2.221   2.992   1.986
 6800SOL    HW221300   2.307   2.854   1.998
 6801SOL     OW21301   0.609   6.951   2.748
 6801SOL    HW121302   0.654   6.898   2.675
 6801SOL    HW221303   0.670   7.025   2.777
 6802SOL     OW21304   3.790   5.790   1.599
 6802SOL    HW121305   3.830   5.701   1.618
 6802SOL    HW221306   3.691   5.785   1.609
 6803SOL     OW21307   4.098   3.680   5.650
 6803SOL    HW121308   4.008   3.709   5.683
 6803SOL    HW221309   4.152   3.761   5.626
 6804SOL     OW21310   3.529   4.930   4.205
 6804SOL    HW121311   3.555   4.898   4.114
 6804SOL    HW221312   3.434   4.960   4.205
 6805SOL     OW21313   0.679   4.988   6.671
 6805SOL    HW121314   0.760   4.941   6.706
 6805SOL    HW221315   0.635   4.932   6.601
 6806SOL     OW21316   6.818   0.622   3.115
 6806SOL    HW121317   6.857   0.672   3.192
 6806SOL    HW221318   6.761   0.683   3.060
 6807SOL     OW21319   3.219   3.804   1.337
 6807SOL    HW121320   3.287   3.876   1.346
 6807SOL    HW221321   3.253   3.721   1.381
 6808SOL     OW21322   6.950   2.237   6.185
 6808SOL    HW121323   6.870   2.186   6.154
 6808SOL    HW221324   6.959   2.228   6.284
 6809SOL     OW21325   0.546   3.123   1.524
 6809SOL    HW121326   0.490   3.183   1.582
 6809SOL    HW221327   0.638   3.162   1.517
 6810SOL     OW21328   2.016   1.053   2.308
 6810SOL    HW121329   1.961   1.084   2.230
 6810SOL    HW221330   1.970   0.975   2.352
 6811SOL     OW21331   5.411   3.452   2.025
 6811SOL    HW121332   5.446   3.516   2.094
 6811SOL    HW221333   5.466   3.368   2.027
 6812SOL     OW21334   3.215   3.769   4.673
 6812SOL    HW121335   3.306   3.728   4.679
 6812SOL    HW221336   3.210   3.849   4.733
 6813SOL     OW21337   5.167   3.445   3.108
 6813SOL    HW121338   5.115   3.370   3.148
 6813SOL    HW221339   5.165   3.438   3.008
 6814SOL     OW21340   3.691   1.795   5.880
 6814SOL    HW121341   3.700   1.894   5.882
 6814SOL    HW221342   3.625   1.766   5.950
 6815SOL     OW21343   3.656   5.983   0.979
 6815SOL    HW121344   3.686   5.931   1.059
 6815SOL    HW221345   3.684   5.935   0.895
 6816SOL     OW21346   6.633   0.683   6.189
 6816SOL    HW121347   6.586   0.731   6.114
 6816SOL    HW221348   6.730   0.673   6.167
 6817SOL     OW21349   2.418   2.619   2.723
 6817SOL    HW121350   2.439   2.583   2.632
 6817SOL    HW221351   2.489   2.591   2.787
 6818SOL     OW21352   2.366   6.423   1.454
 6818SOL    HW121353   2.428   6.469   1.391
 6818SOL    HW221354   2.314   6.353   1.405
 6819SOL     OW21355   3.976   1.911   3.036
 6819SOL    HW121356   4.073   1.935   3.024
 6819SOL    HW221357   3.919   1.978   2.989
 6820SOL     OW21358   2.234   6.400   1.790
 6820SOL    HW121359   2.206   6.477   1.733
 6820SOL    HW221360   2.229   6.315   1.736
 6821SOL     OW21361   3.919   2.133   5.205
 6821SOL    HW121362   3.922   2.092   5.296
 6821SOL    HW221363   3.829   2.117   5.164
 6822SOL     OW21364   5.592   2.002   5.758
 6822SOL    HW121365   5.631   2.079   5.809
 6822SOL    HW221366   5.513   2.034   5.706
 6823SOL     OW21367   5.164   3.473   5.578
 6823SOL    HW121368   5.159   3.410   5.501
 6823SOL    HW221369   5.073   3.511   5.597
 6824SOL     OW21370   1.416   1.749   0.504
 6824SOL    HW121371   1.359   1.803   0.443
 6824SOL    HW221372   1.432   1.799   0.589
 6825SOL     OW21373   5.615   0.254   1.040
 6825SOL    HW121374   5.529   0.244   1.089
 6825SOL    HW221375   5.603   0.226   0.945
 6826SOL     OW21376   2.178   3.321   3.501
 6826SOL    HW121377   2.154   3.256   3.430
 6826SOL    HW221378   2.202   3.272   3.585
 6827SOL     OW21379   4.310   5.017   6.538
 6827SOL    HW121380   4.388   4.973   6.493
 6827SOL    HW221381   4.339   5.052   6.627
 6828SOL     OW21382   3.348   1.195   1.787
 6828SOL    HW121383   3.317   1.267   1.849
 6828SOL    HW221384   3.374   1.236   1.699
 6829SOL     OW21385   5.184   5.776   4.958
 6829SOL    HW121386   5.190   5.875   4.969
 6829SOL    HW221387   5.205   5.752   4.863
 6830SOL     OW21388   4.780   0.631   3.315
 6830SOL    HW121389   4.758   0.716   3.267
 6830SOL    HW221390   4.784   0.555   3.250
 6831SOL     OW21391   1.050   0.351   6.996
 6831SOL    HW121392   1.120   0.291   6.958
 6831SOL    HW221393   1.092   0.417   0.029
 6832SOL     OW21394   2.765   4.396   0.781
 6832SOL    HW121395   2.791   4.349   0.866
 6832SOL    HW221396   2.735   4.328   0.714
 6833SOL     OW21397   3.370   4.750   6.307
 6833SOL    HW121398   3.415   4.737   6.395
 6833SOL    HW221399   3.392   4.674   6.247
 6834SOL     OW21400   4.883   6.963   0.481
 6834SOL    HW121401   4.784   6.969   0.469
 6834SOL    HW221402   4.922   6.911   0.405
 6835SOL     OW21403   3.942   0.642   4.670
 6835SOL    HW121404   3.911   0.716   4.611
 6835SOL    HW221405   4.038   0.622   4.651
 6836SOL     OW21406   2.724   4.827   0.633
 6836SOL    HW121407   2.778   4.876   0.565
 6836SOL    HW221408   2.661   4.890   0.679
 6837SOL     OW21409   0.533   1.959   2.233
 6837SOL    HW121410   0.442   1.990   2.260
 6837SOL    HW221411   0.602   2.019   2.273
 6838SOL     OW21412   3.405   6.291   0.045
 6838SOL    HW121413   3.474   6.219   0.039
 6838SOL    HW221414   3.316   6.249   0.063
 6839SOL     OW21415   5.922   1.086   6.148
 6839SOL    HW121416   5.934   1.177   6.108
 6839SOL    HW221417   5.824   1.067   6.157
 6840SOL     OW21418   3.473   0.746   4.591
 6840SOL    HW121419   3.376   0.745   4.618
 6840SOL    HW221420   3.521   0.674   4.640
 6841SOL     OW21421   4.543   4.492   0.251
 6841SOL    HW121422   4.487   4.557   0.201
 6841SOL    HW221423   4.635   4.528   0.263
 6842SOL     OW21424   2.660   3.665   0.715
 6842SOL    HW121425   2.592   3.734   0.742
 6842SOL    HW221426   2.746   3.683   0.763
 6843SOL     OW21427   6.083   6.717   1.362
 6843SOL    HW121428   6.056   6.697   1.268
 6843SOL    HW221429   6.010   6.690   1.424
 6844SOL     OW21430   4.684   0.677   3.580
 6844SOL    HW121431   4.775   0.678   3.621
 6844SOL    HW221432   4.691   0.659   3.482
 6845SOL     OW21433   6.372   4.571   3.886
 6845SOL    HW121434   6.431   4.647   3.860
 6845SOL    HW221435   6.294   4.605   3.939
 6846SOL     OW21436   3.993   3.510   0.594
 6846SOL    HW121437   3.914   3.567   0.570
 6846SOL    HW221438   3.968   3.414   0.584
 6847SOL     OW21439   0.358   3.706   4.319
 6847SOL    HW121440   0.393   3.713   4.225
 6847SOL    HW221441   0.417   3.757   4.381
 6848SOL     OW21442   4.420   6.552   3.702
 6848SOL    HW121443   4.364   6.580   3.780
 6848SOL    HW221444   4.361   6.543   3.621
 6849SOL     OW21445   4.132   4.784   5.077
 6849SOL    HW121446   4.148   4.736   5.162
 6849SOL    HW221447   4.038   4.818   5.075
 6850SOL     OW21448   5.869   4.393   2.356
 6850SOL    HW121449   5.942   4.346   2.307
 6850SOL    HW221450   5.854   4.483   2.315
 6851SOL     OW21451   0.799   2.436   3.059
 6851SOL    HW121452   0.822   2.502   2.987
 6851SOL    HW221453   0.748   2.360   3.020
 6852SOL     OW21454   3.025   5.092   0.596
 6852SOL    HW121455   3.085   5.021   0.559
 6852SOL    HW221456   2.929   5.067   0.580
 6853SOL     OW21457   6.545   4.259   0.470
 6853SOL    HW121458   6.455   4.225   0.499
 6853SOL    HW221459   6.538   4.357   0.449
 6854SOL     OW21460   4.746   2.069   6.421
 6854SOL    HW121461   4.739   2.100   6.516
 6854SOL    HW221462   4.658   2.083   6.375
 6855SOL     OW21463   4.126   5.509   3.301
 6855SOL    HW121464   4.210   5.501   3.355
 6855SOL    HW221465   4.138   5.581   3.232
 6856SOL     OW21466   5.585   3.067   5.299
 6856SOL    HW121467   5.555   3.079   5.204
 6856SOL    HW221468   5.522   3.115   5.360
 6857SOL     OW21469   3.086   2.854   6.980
 6857SOL    HW121470   3.045   2.769   6.947
 6857SOL    HW221471   3.128   2.903   6.903
 6858SOL     OW21472   4.000   3.612   3.279
 6858SOL    HW121473   3.900   3.607   3.281
 6858SOL    HW221474   4.031   3.686   3.338
 6859SOL     OW21475   0.068   1.724   1.115
 6859SOL    HW121476   0.132   1.697   1.043
 6859SOL    HW221477   0.118   1.746   1.199
 6860SOL     OW21478   6.819   4.908   0.889
 6860SOL    HW121479   6.918   4.902   0.905
 6860SOL    HW221480   6.773   4.838   0.943
 6861SOL     OW21481   4.469   5.326   0.094
 6861SOL    HW121482   4.478   5.332   7.025
 6861SOL    HW221483   4.387   5.376   0.123
 6862SOL     OW21484   1.404   5.139   6.238
 6862SOL    HW121485   1.409   5.039   6.231
 6862SOL    HW221486   1.309   5.169   6.235
 6863SOL     OW21487   5.793   6.754   6.222
 6863SOL    HW121488   5.832   6.777   6.311
 6863SOL    HW221489   5.858   6.779   6.150
 6864SOL     OW21490   2.594   5.307   4.550
 6864SOL    HW121491   2.592   5.225   4.493
 6864SOL    HW221492   2.688   5.342   4.554
 6865SOL     OW21493   1.301   6.060   4.001
 6865SOL    HW121494   1.205   6.084   3.985
 6865SOL    HW221495   1.344   6.037   3.914
 6866SOL     OW21496   6.222   5.036   3.749
 6866SOL    HW121497   6.237   4.972   3.673
 6866SOL    HW221498   6.182   4.987   3.826
 6867SOL     OW21499   2.143   4.189   1.502
 6867SOL    HW121500   2.073   4.124   1.530
 6867SOL    HW221501   2.222   4.183   1.563
 6868SOL     OW21502   1.268   5.381   6.231
 6868SOL    HW121503   1.343   5.428   6.277
 6868SOL    HW221504   1.182   5.429   6.250
 6869SOL     OW21505   5.676   0.829   5.776
 6869SOL    HW121506   5.673   0.859   5.680
 6869SOL    HW221507   5.761   0.777   5.791
 6870SOL     OW21508   0.557   4.968   1.640
 6870SOL    HW121509   0.514   5.045   1.594
 6870SOL    HW221510   0.644   4.946   1.596
 6871SOL     OW21511   6.108   4.192   3.564
 6871SOL    HW121512   6.175   4.152   3.502
 6871SOL    HW221513   6.148   4.203   3.655
 6872SOL     OW21514   0.135   2.179   1.352
 6872SOL    HW121515   0.152   2.195   1.450
 6872SOL    HW221516   0.216   2.141   1.310
 6873SOL     OW21517   6.380   3.683   4.431
 6873SOL    HW121518   6.319   3.735   4.372
 6873SOL    HW221519   6.462   3.737   4.451
 6874SOL     OW21520   6.907   5.622   2.711
 6874SOL    HW121521   6.990   5.569   2.728
 6874SOL    HW221522   6.922   5.718   2.735
 6875SOL     OW21523   2.768   2.322   2.500
 6875SOL    HW121524   2.841   2.299   2.435
 6875SOL    HW221525   2.720   2.239   2.527
 6876SOL     OW21526   3.515   6.833   3.706
 6876SOL    HW121527   3.603   6.820   3.661
 6876SOL    HW221528   3.453   6.883   3.645
 6877SOL     OW21529   2.686   3.940   0.520
 6877SOL    HW121530   2.610   3.920   0.582
 6877SOL    HW221531   2.675   3.887   0.436
 6878SOL     OW21532   3.375   1.059   4.582
 6878SOL    HW121533   3.458   1.081   4.633
 6878SOL    HW221534   3.344   0.967   4.607
 6879SOL     OW21535   0.925   2.528   0.764
 6879SOL    HW121536   0.886   2.620   0.762
 6879SOL    HW221537   0.896   2.481   0.847
 6880SOL     OW21538   2.146   5.662   5.005
 6880SOL    HW121539   2.222   5.603   4.977
 6880SOL    HW221540   2.064   5.636   4.954
 6881SOL     OW21541   1.637   4.915   0.789
 6881SOL    HW121542   1.712   4.923   0.854
 6881SOL    HW221543   1.568   4.985   0.809
 6882SOL     OW21544   2.804   0.741   0.321
 6882SOL    HW121545   2.866   0.667   0.346
 6882SOL    HW221546   2.780   0.733   0.224
 6883SOL     OW21547   4.770   1.620   6.546
 6883SOL    HW121548   4.687   1.634   6.599
 6883SOL    HW221549   4.809   1.531   6.569
 6884SOL     OW21550   1.802   4.591   3.460
 6884SOL    HW121551   1.838   4.656   3.526
 6884SOL    HW221552   1.820   4.498   3.491
 6885SOL     OW21553   4.128   5.094   3.952
 6885SOL    HW121554   4.192   5.167   3.929
 6885SOL    HW221555   4.034   5.126   3.939
 6886SOL     OW21556   6.949   1.271   4.452
 6886SOL    HW121557   6.850   1.268   4.466
 6886SOL    HW221558   6.990   1.186   4.487
 6887SOL     OW21559   5.043   5.621   6.220
 6887SOL    HW121560   4.946   5.638   6.202
 6887SOL    HW221561   5.084   5.703   6.262
 6888SOL     OW21562   5.571   5.685   6.588
 6888SOL    HW121563   5.605   5.779   6.595
 6888SOL    HW221564   5.644   5.622   6.616
 6889SOL     OW21565   1.938   2.431   5.067
 6889SOL    HW121566   1.979   2.389   4.986
 6889SOL    HW221567   1.871   2.368   5.107
 6890SOL     OW21568   4.321   6.477   1.831
 6890SOL    HW121569   4.390   6.500   1.900
 6890SOL    HW221570   4.243   6.539   1.840
 6891SOL     OW21571   2.529   4.533   3.292
 6891SOL    HW121572   2.557   4.568   3.381
 6891SOL    HW221573   2.564   4.593   3.220
 6892SOL     OW21574   3.075   2.171   3.621
 6892SOL    HW121575   2.995   2.115   3.645
 6892SOL    HW221576   3.144   2.162   3.692
 6893SOL     OW21577   4.567   4.651   6.941
 6893SOL    HW121578   4.575   4.562   6.895
 6893SOL    HW221579   4.482   4.695   6.915
 6894SOL     OW21580   6.098   4.846   0.849
 6894SOL    HW121581   6.040   4.766   0.837
 6894SOL    HW221582   6.101   4.898   0.764
 6895SOL     OW21583   3.520   4.865   0.482
 6895SOL    HW121584   3.520   4.796   0.410
 6895SOL    HW221585   3.443   4.848   0.544
 6896SOL     OW21586   2.273   6.758   4.281
 6896SOL    HW121587   2.331   6.805   4.348
 6896SOL    HW221588   2.323   6.681   4.243
 6897SOL     OW21589   4.886   3.492   5.564
 6897SOL    HW121590   4.901   3.459   5.471
 6897SOL    HW221591   4.801   3.452   5.599
 6898SOL     OW21592   4.564   1.518   1.974
 6898SOL    HW121593   4.531   1.592   2.032
 6898SOL    HW221594   4.532   1.531   1.880
 6899SOL     OW21595   5.120   6.120   1.439
 6899SOL    HW121596   5.088   6.180   1.365
 6899SOL    HW221597   5.078   6.149   1.525
 6900SOL     OW21598   6.094   5.956   5.381
 6900SOL    HW121599   6.145   6.041   5.373
 6900SOL    HW221600   6.082   5.933   5.478
 6901SOL     OW21601   6.589   6.373   6.366
 6901SOL    HW121602   6.603   6.470   6.388
 6901SOL    HW221603   6.492   6.351   6.377
 6902SOL     OW21604   5.699   5.920   6.572
 6902SOL    HW121605   5.762   5.952   6.501
 6902SOL    HW221606   5.671   5.998   6.629
 6903SOL     OW21607   2.640   5.080   4.888
 6903SOL    HW121608   2.563   5.116   4.835
 6903SOL    HW221609   2.623   4.983   4.909
 6904SOL     OW21610   6.225   1.086   4.924
 6904SOL    HW121611   6.221   1.186   4.930
 6904SOL    HW221612   6.292   1.051   4.990
 6905SOL     OW21613   5.997   6.489   6.245
 6905SOL    HW121614   5.992   6.514   6.342
 6905SOL    HW221615   6.087   6.512   6.208
 6906SOL     OW21616   4.273   1.302   4.142
 6906SOL    HW121617   4.288   1.340   4.051
 6906SOL    HW221618   4.200   1.353   4.188
 6907SOL     OW21619   4.910   2.839   1.654
 6907SOL    HW121620   4.873   2.798   1.737
 6907SOL    HW221621   4.931   2.935   1.671
 6908SOL     OW21622   0.825   5.148   6.471
 6908SOL    HW121623   0.916   5.186   6.488
 6908SOL    HW221624   0.778   5.132   6.558
 6909SOL     OW21625   5.162   4.262   1.330
 6909SOL    HW121626   5.255   4.251   1.364
 6909SOL    HW221627   5.102   4.292   1.405
 6910SOL     OW21628   0.579   2.707   3.392
 6910SOL    HW121629   0.658   2.646   3.389
 6910SOL    HW221630   0.520   2.689   3.313
 6911SOL     OW21631   4.194   5.936   3.816
 6911SOL    HW121632   4.293   5.932   3.826
 6911SOL    HW221633   4.159   5.846   3.788
 6912SOL     OW21634   3.941   3.762   6.364
 6912SOL    HW121635   3.977   3.848   6.327
 6912SOL    HW221636   3.991   3.738   6.446
 6913SOL     OW21637   5.537   5.968   4.110
 6913SOL    HW121638   5.482   5.886   4.095
 6913SOL    HW221639   5.490   6.048   4.073
 6914SOL     OW21640   5.856   3.742   3.823
 6914SOL    HW121641   5.857   3.716   3.920
 6914SOL    HW221642   5.839   3.840   3.815
 6915SOL     OW21643   5.808   2.683   2.300
 6915SOL    HW121644   5.750   2.623   2.245
 6915SOL    HW221645   5.890   2.706   2.248
 6916SOL     OW21646   6.061   2.159   0.218
 6916SOL    HW121647   5.966   2.126   0.219
 6916SOL    HW221648   6.123   2.080   0.212
 6917SOL     OW21649   3.388   6.884   1.559
 6917SOL    HW121650   3.395   6.818   1.484
 6917SOL    HW221651   3.475   6.889   1.608
 6918SOL     OW21652   0.467   2.713   4.442
 6918SOL    HW121653   0.527   2.683   4.368
 6918SOL    HW221654   0.438   2.807   4.424
 6919SOL     OW21655   6.606   5.681   3.709
 6919SOL    HW121656   6.573   5.591   3.735
 6919SOL    HW221657   6.608   5.741   3.789
 6920SOL     OW21658   4.200   6.112   5.603
 6920SOL    HW121659   4.132   6.055   5.557
 6920SOL    HW221660   4.166   6.205   5.610
 6921SOL     OW21661   5.081   5.488   3.802
 6921SOL    HW121662   5.028   5.514   3.721
 6921SOL    HW221663   5.162   5.436   3.774
 6922SOL     OW21664   1.528   6.234   4.790
 6922SOL    HW121665   1.470   6.273   4.861
 6922SOL    HW221666   1.470   6.204   4.714
 6923SOL     OW21667   4.753   5.665   3.306
 6923SOL    HW121668   4.696   5.743   3.331
 6923SOL    HW221669   4.711   5.580   3.339
 6924SOL     OW21670   2.440   3.907   6.518
 6924SOL    HW121671   2.487   3.994   6.528
 6924SOL    HW221672   2.384   3.908   6.435
 6925SOL     OW21673   4.922   6.133   3.807
 6925SOL    HW121674   4.872   6.087   3.734
 6925SOL    HW221675   4.879   6.221   3.826
 6926SOL     OW21676   3.418   2.611   1.183
 6926SOL    HW121677   3.512   2.593   1.214
 6926SOL    HW221678   3.366   2.526   1.186
 6927SOL     OW21679   3.929   2.725   6.022
 6927SOL    HW121680   3.952   2.817   5.993
 6927SOL    HW221681   3.944   2.715   6.120
 6928SOL     OW21682   5.633   5.763   0.819
 6928SOL    HW121683   5.571   5.718   0.755
 6928SOL    HW221684   5.682   5.837   0.773
 6929SOL     OW21685   5.536   5.511   1.416
 6929SOL    HW121686   5.448   5.473   1.387
 6929SOL    HW221687   5.532   5.611   1.413
 6930SOL     OW21688   0.755   0.536   2.473
 6930SOL    HW121689   0.771   0.438   2.468
 6930SOL    HW221690   0.764   0.576   2.381
 6931SOL     OW21691   2.215   0.843   2.259
 6931SOL    HW121692   2.146   0.904   2.298
 6931SOL    HW221693   2.175   0.791   2.184
 6932SOL     OW21694   4.418   6.223   0.580
 6932SOL    HW121695   4.452   6.199   0.671
 6932SOL    HW221696   4.380   6.142   0.536
 6933SOL     OW21697   3.309   6.010   5.072
 6933SOL    HW121698   3.395   6.059   5.061
 6933SOL    HW221699   3.234   6.076   5.082
 6934SOL     OW21700   4.828   3.546   6.221
 6934SOL    HW121701   4.872   3.456   6.224
 6934SOL    HW221702   4.841   3.592   6.309
 6935SOL     OW21703   4.863   5.373   2.369
 6935SOL    HW121704   4.792   5.306   2.390
 6935SOL    HW221705   4.865   5.443   2.440
 6936SOL     OW21706   5.964   1.484   3.233
 6936SOL    HW121707   5.960   1.416   3.307
 6936SOL    HW221708   5.940   1.574   3.269
 6937SOL     OW21709   6.532   6.229   7.008
 6937SOL    HW121710   6.524   6.321   6.970
 6937SOL    HW221711   6.585   6.233   0.063
 6938SOL     OW21712   5.573   2.857   4.895
 6938SOL    HW121713   5.638   2.907   4.839
 6938SOL    HW221714   5.573   2.760   4.868
 6939SOL     OW21715   1.347   5.045   1.708
 6939SOL    HW121716   1.259   5.023   1.752
 6939SOL    HW221717   1.390   4.961   1.676
 6940SOL     OW21718   3.831   0.864   6.149
 6940SOL    HW121719   3.879   0.949   6.173
 6940SOL    HW221720   3.898   0.790   6.137
 6941SOL     OW21721   3.397   3.821   1.898
 6941SOL    HW121722   3.421   3.878   1.819
 6941SOL    HW221723   3.317   3.860   1.944
 6942SOL     OW21724   5.976   0.203   1.228
 6942SOL    HW121725   5.926   0.121   1.203
 6942SOL    HW221726   6.046   0.222   1.160
 6943SOL     OW21727   3.548   5.789   7.025
 6943SOL    HW121728   3.481   5.737   0.048
 6943SOL    HW221729   3.568   5.741   6.940
 6944SOL     OW21730   0.790   4.109   6.664
 6944SOL    HW121731   0.763   4.181   6.727
 6944SOL    HW221732   0.874   4.066   6.696
 6945SOL     OW21733   6.208   1.052   6.646
 6945SOL    HW121734   6.163   1.012   6.566
 6945SOL    HW221735   6.292   1.002   6.666
 6946SOL     OW21736   4.494   6.795   0.625
 6946SOL    HW121737   4.468   6.703   0.656
 6946SOL    HW221738   4.499   6.856   0.704
 6947SOL     OW21739   2.902   5.915   6.523
 6947SOL    HW121740   2.860   5.899   6.434
 6947SOL    HW221741   2.844   5.876   6.594
 6948SOL     OW21742   0.514   0.534   0.793
 6948SOL    HW121743   0.598   0.538   0.738
 6948SOL    HW221744   0.438   0.504   0.736
 6949SOL     OW21745   3.934   7.019   3.058
 6949SOL    HW121746   3.932   6.962   3.140
 6949SOL    HW221747   3.844   7.020   3.015
 6950SOL     OW21748   1.567   2.266   4.690
 6950SOL    HW121749   1.659   2.261   4.730
 6950SOL    HW221750   1.566   2.218   4.603
 6951SOL     OW21751   6.406   5.423   6.075
 6951SOL    HW121752   6.362   5.512   6.062
 6951SOL    HW221753   6.338   5.355   6.103
 6952SOL     OW21754   0.707   6.070   3.139
 6952SOL    HW121755   0.633   6.137   3.142
 6952SOL    HW221756   0.715   6.025   3.228
 6953SOL     OW21757   4.263   6.588   0.994
 6953SOL    HW121758   4.205   6.522   1.042
 6953SOL    HW221759   4.226   6.680   1.008
 6954SOL     OW21760   7.002   3.829   2.549
 6954SOL    HW121761   0.044   3.804   2.614
 6954SOL    HW221762   6.912   3.807   2.587
 6955SOL     OW21763   6.156   0.315   2.210
 6955SOL    HW121764   6.060   0.340   2.220
 6955SOL    HW221765   6.164   0.226   2.166
 6956SOL     OW21766   5.612   6.152   3.746
 6956SOL    HW121767   5.684   6.093   3.711
 6956SOL    HW221768   5.649   6.207   3.822
 6957SOL     OW21769   6.429   4.957   0.738
 6957SOL    HW121770   6.418   4.859   0.755
 6957SOL    HW221771   6.352   4.990   0.683
 6958SOL     OW21772   3.857   3.071   4.357
 6958SOL    HW121773   3.857   3.150   4.295
 6958SOL    HW221774   3.826   2.990   4.307
 6959SOL     OW21775   1.581   2.987   4.143
 6959SOL    HW121776   1.543   2.969   4.234
 6959SOL    HW221777   1.607   3.083   4.136
 6960SOL     OW21778   2.426   4.628   1.465
 6960SOL    HW121779   2.353   4.644   1.399
 6960SOL    HW221780   2.465   4.715   1.494
 6961SOL     OW21781   5.795   1.548   3.982
 6961SOL    HW121782   5.879   1.584   3.943
 6961SOL    HW221783   5.735   1.624   4.007
 6962SOL     OW21784   5.140   6.190   1.938
 6962SOL    HW121785   5.209   6.135   1.985
 6962SOL    HW221786   5.116   6.269   1.996
 6963SOL     OW21787   5.415   5.972   0.856
 6963SOL    HW121788   5.345   6.029   0.897
 6963SOL    HW221789   5.505   5.999   0.891
 6964SOL     OW21790   3.161   1.239   5.291
 6964SOL    HW121791   3.186   1.333   5.314
 6964SOL    HW221792   3.202   1.177   5.358
 6965SOL     OW21793   0.900   1.367   0.711
 6965SOL    HW121794   0.891   1.293   0.777
 6965SOL    HW221795   0.833   1.438   0.732
 6966SOL     OW21796   1.116   2.141   3.233
 6966SOL    HW121797   1.136   2.067   3.168
 6966SOL    HW221798   1.083   2.221   3.183
 6967SOL     OW21799   2.453   0.816   5.616
 6967SOL    HW121800   2.377   0.871   5.651
 6967SOL    HW221801   2.468   0.837   5.520
 6968SOL     OW21802   3.720   7.025   2.822
 6968SOL    HW121803   3.702   6.927   2.826
 6968SOL    HW221804   3.659   0.043   2.885
 6969SOL     OW21805   3.443   2.619   1.523
 6969SOL    HW121806   3.448   2.703   1.577
 6969SOL    HW221807   3.457   2.540   1.583
 6970SOL     OW21808   4.435   4.492   5.434
 6970SOL    HW121809   4.367   4.431   5.474
 6970SOL    HW221810   4.463   4.560   5.502
 6971SOL     OW21811   6.527   4.411   1.260
 6971SOL    HW121812   6.595   4.357   1.310
 6971SOL    HW221813   6.440   4.408   1.310
 6972SOL     OW21814   5.578   4.511   3.173
 6972SOL    HW121815   5.662   4.471   3.138
 6972SOL    HW221816   5.517   4.533   3.097
 6973SOL     OW21817   0.843   2.976   3.789
 6973SOL    HW121818   0.862   3.050   3.724
 6973SOL    HW221819   0.927   2.925   3.806
 6974SOL     OW21820   2.908   3.422   3.367
 6974SOL    HW121821   2.917   3.478   3.449
 6974SOL    HW221822   2.812   3.416   3.341
 6975SOL     OW21823   1.828   6.356   6.227
 6975SOL    HW121824   1.797   6.443   6.189
 6975SOL    HW221825   1.748   6.301   6.251
 6976SOL     OW21826   5.720   5.400   5.302
 6976SOL    HW121827   5.754   5.484   5.344
 6976SOL    HW221828   5.668   5.422   5.220
 6977SOL     OW21829   4.029   2.994   1.863
 6977SOL    HW121830   4.059   3.036   1.949
 6977SOL    HW221831   3.946   3.040   1.831
 6978SOL     OW21832   5.994   1.648   1.901
 6978SOL    HW121833   5.981   1.578   1.830
 6978SOL    HW221834   6.003   1.604   1.990
 6979SOL     OW21835   1.072   4.564   1.254
 6979SOL    HW121836   1.099   4.537   1.347
 6979SOL    HW221837   1.041   4.483   1.204
 6980SOL     OW21838   2.063   0.543   4.127
 6980SOL    HW121839   1.982   0.503   4.171
 6980SOL    HW221840   2.128   0.471   4.103
 6981SOL     OW21841   3.722   2.891   5.702
 6981SOL    HW121842   3.788   2.966   5.691
 6981SOL    HW221843   3.668   2.907   5.785
 6982SOL     OW21844   1.390   0.802   4.704
 6982SOL    HW121845   1.372   0.882   4.646
 6982SOL    HW221846   1.312   0.785   4.764
 6983SOL     OW21847   3.280   2.070   3.794
 6983SOL    HW121848   3.372   2.086   3.756
 6983SOL    HW221849   3.247   1.981   3.763
 6984SOL     OW21850   1.939   1.585   3.351
 6984SOL    HW121851   1.979   1.499   3.384
 6984SOL    HW221852   1.966   1.660   3.411
 6985SOL     OW21853   5.874   5.391   1.714
 6985SOL    HW121854   5.962   5.346   1.730
 6985SOL    HW221855   5.831   5.411   1.802
 6986SOL     OW21856   2.416   0.028   6.053
 6986SOL    HW121857   2.482   0.058   6.122
 6986SOL    HW221858   2.397   0.104   5.991
 6987SOL     OW21859   5.946   1.284   5.964
 6987SOL    HW121860   5.993   1.362   5.924
 6987SOL    HW221861   5.848   1.304   5.972
 6988SOL     OW21862   0.433   6.945   5.721
 6988SOL    HW121863   0.495   6.919   5.795
 6988SOL    HW221864   0.382   7.027   5.747
 6989SOL     OW21865   0.964   3.756   3.209
 6989SOL    HW121866   0.959   3.855   3.196
 6989SOL    HW221867   1.053   3.731   3.247
 6990SOL     OW21868   5.083   2.300   1.475
 6990SOL    HW121869   5.037   2.382   1.441
 6990SOL    HW221870   5.103   2.239   1.399
 6991SOL     OW21871   4.114   4.799   3.084
 6991SOL    HW121872   4.142   4.791   2.988
 6991SOL    HW221873   4.157   4.725   3.137
 6992SOL     OW21874   5.346   6.569   6.211
 6992SOL    HW121875   5.442   6.592   6.228
 6992SOL    HW221876   5.288   6.614   6.278
 6993SOL     OW21877   5.334   0.176   3.119
 6993SOL    HW121878   5.345   0.204   3.215
 6993SOL    HW221879   5.424   0.158   3.080
 6994SOL     OW21880   0.167   2.569   4.337
 6994SOL    HW121881   0.175   2.639   4.408
 6994SOL    HW221882   0.098   2.502   4.363
 6995SOL     OW21883   0.243   4.722   6.487
 6995SOL    HW121884   0.249   4.782   6.567
 6995SOL    HW221885   0.331   4.675   6.475
 6996SOL     OW21886   1.536   6.788   6.760
 6996SOL    HW121887   1.603   6.854   6.794
 6996SOL    HW221888   1.579   6.697   6.757
 6997SOL     OW21889   6.630   6.103   5.301
 6997SOL    HW121890   6.557   6.083   5.366
 6997SOL    HW221891   6.605   6.184   5.247
 6998SOL     OW21892   2.446   0.748   1.662
 6998SOL    HW121893   2.513   0.756   1.588
 6998SOL    HW221894   2.458   0.824   1.726
 6999SOL     OW21895   2.092   1.917   0.062
 6999SOL    HW121896   2.118   1.838   0.117
 6999SOL    HW221897   2.174   1.972   0.043
 7000SOL     OW21898   4.940   0.115   1.101
 7000SOL    HW121899   5.020   0.100   1.159
 7000SOL    HW221900   4.874   0.172   1.151
 7001SOL     OW21901   1.501   3.102   5.746
 7001SOL    HW121902   1.588   3.153   5.744
 7001SOL    HW221903   1.440   3.143   5.813
 7002SOL     OW21904   1.625   5.312   3.821
 7002SOL    HW121905   1.695   5.360   3.767
 7002SOL    HW221906   1.534   5.334   3.784
 7003SOL     OW21907   4.396   5.506   0.464
 7003SOL    HW121908   4.345   5.474   0.544
 7003SOL    HW221909   4.348   5.481   0.380
 7004SOL     OW21910   0.766   5.537   2.213
 7004SOL    HW121911   0.832   5.544   2.288
 7004SOL    HW221912   0.805   5.483   2.139
 7005SOL     OW21913   0.956   6.907   0.747
 7005SOL    HW121914   1.037   6.963   0.765
 7005SOL    HW221915   0.882   6.966   0.716
 7006SOL     OW21916   5.254   5.160   3.975
 7006SOL    HW121917   5.304   5.219   4.038
 7006SOL    HW221918   5.176   5.119   4.022
 7007SOL     OW21919   4.502   0.813   4.014
 7007SOL    HW121920   4.505   0.728   3.962
 7007SOL    HW221921   4.432   0.873   3.974
 7008SOL     OW21922   0.142   4.303   4.576
 7008SOL    HW121923   0.241   4.294   4.584
 7008SOL    HW221924   0.116   4.398   4.593
 7009SOL     OW21925   5.746   6.006   2.313
 7009SOL    HW121926   5.681   5.937   2.281
 7009SOL    HW221927   5.715   6.042   2.401
 7010SOL     OW21928   5.482   4.026   3.800
 7010SOL    HW121929   5.479   3.930   3.827
 7010SOL    HW221930   5.390   4.058   3.779
 7011SOL     OW21931   3.024   6.749   0.058
 7011SOL    HW121932   3.118   6.784   0.058
 7011SOL    HW221933   2.992   6.741   6.993
 7012SOL     OW21934   0.490   1.851   1.868
 7012SOL    HW121935   0.543   1.935   1.868
 7012SOL    HW221936   0.396   1.870   1.897
 7013SOL     OW21937   0.573   0.276   0.289
 7013SOL    HW121938   0.671   0.285   0.269
 7013SOL    HW221939   0.527   0.238   0.209
 7014SOL     OW21940   4.303   3.527   1.026
 7014SOL    HW121941   4.248   3.565   0.951
 7014SOL    HW221942   4.260   3.444   1.060
 7015SOL     OW21943   6.344   4.178   1.554
 7015SOL    HW121944   6.329   4.262   1.502
 7015SOL    HW221945   6.269   4.114   1.536
 7016SOL     OW21946   3.450   4.965   1.154
 7016SOL    HW121947   3.508   4.983   1.233
 7016SOL    HW221948   3.481   4.882   1.108
 7017SOL     OW21949   2.545   4.957   3.142
 7017SOL    HW121950   2.509   4.947   3.235
 7017SOL    HW221951   2.505   5.038   3.099
 7018SOL     OW21952   5.436   2.993   4.328
 7018SOL    HW121953   5.469   3.086   4.345
 7018SOL    HW221954   5.496   2.928   4.375
 7019SOL     OW21955   4.193   4.290   0.586
 7019SOL    HW121956   4.278   4.327   0.550
 7019SOL    HW221957   4.212   4.240   0.671
 7020SOL     OW21958   6.758   4.601   6.262
 7020SOL    HW121959   6.747   4.697   6.287
 7020SOL    HW221960   6.733   4.543   6.339
 7021SOL     OW21961   1.632   1.879   5.681
 7021SOL    HW121962   1.688   1.948   5.636
 7021SOL    HW221963   1.589   1.821   5.612
 7022SOL     OW21964   4.296   6.492   5.630
 7022SOL    HW121965   4.303   6.527   5.537
 7022SOL    HW221966   4.342   6.555   5.693
 7023SOL     OW21967   0.341   2.515   3.740
 7023SOL    HW121968   0.387   2.501   3.828
 7023SOL    HW221969   0.371   2.602   3.701
 7024SOL     OW21970   2.858   3.830   5.177
 7024SOL    HW121971   2.862   3.787   5.267
 7024SOL    HW221972   2.886   3.764   5.108
 7025SOL     OW21973   3.520   0.833   0.641
 7025SOL    HW121974   3.530   0.785   0.555
 7025SOL    HW221975   3.425   0.861   0.653
 7026SOL     OW21976   3.199   2.144   2.237
 7026SOL    HW121977   3.180   2.072   2.304
 7026SOL    HW221978   3.291   2.132   2.200
 7027SOL     OW21979   2.561   5.079   4.399
 7027SOL    HW121980   2.624   5.039   4.465
 7027SOL    HW221981   2.521   5.007   4.343
 7028SOL     OW21982   3.107   1.811   3.794
 7028SOL    HW121983   3.175   1.756   3.744
 7028SOL    HW221984   3.076   1.759   3.874
 7029SOL     OW21985   4.975   4.995   4.942
 7029SOL    HW121986   4.963   4.976   4.844
 7029SOL    HW221987   5.067   4.967   4.970
 7030SOL     OW21988   1.126   0.747   4.833
 7030SOL    HW121989   1.088   0.710   4.917
 7030SOL    HW221990   1.054   0.754   4.764
 7031SOL     OW21991   4.105   5.847   5.799
 7031SOL    HW121992   4.195   5.803   5.802
 7031SOL    HW221993   4.075   5.854   5.704
 7032SOL     OW21994   4.091   1.274   3.879
 7032SOL    HW121995   4.104   1.177   3.856
 7032SOL    HW221996   4.179   1.322   3.874
 7033SOL     OW21997   1.454   2.334   3.489
 7033SOL    HW121998   1.409   2.258   3.537
 7033SOL    HW221999   1.493   2.397   3.557
 7034SOL     OW22000   0.128   0.647   3.489
 7034SOL    HW122001   0.119   0.671   3.586
 7034SOL    HW222002   0.135   0.548   3.479
 7035SOL     OW22003   1.847   6.713   0.655
 7035SOL    HW122004   1.785   6.791   0.642
 7035SOL    HW222005   1.921   6.718   0.587
 7036SOL     OW22006   7.020   0.177   3.025
 7036SOL    HW122007   0.042   0.227   3.094
 7036SOL    HW222008   0.043   0.098   2.994
 7037SOL     OW22009   1.568   1.057   6.532
 7037SOL    HW122010   1.662   1.092   6.532
 7037SOL    HW222011   1.521   1.087   6.615
 7038SOL     OW22012   2.071   3.513   5.163
 7038SOL    HW122013   2.137   3.587   5.145
 7038SOL    HW222014   2.110   3.426   5.131
 7039SOL     OW22015   1.995   5.438   2.442
 7039SOL    HW122016   2.038   5.352   2.414
 7039SOL    HW222017   2.066   5.508   2.453
 7040SOL     OW22018   5.358   2.129   5.681
 7040SOL    HW122019   5.265   2.091   5.679
 7040SOL    HW222020   5.361   2.205   5.745
 7041SOL     OW22021   6.334   1.345   1.997
 7041SOL    HW122022   6.398   1.386   2.062
 7041SOL    HW222023   6.370   1.256   1.967
 7042SOL     OW22024   4.399   5.243   5.022
 7042SOL    HW122025   4.488   5.288   5.025
 7042SOL    HW222026   4.411   5.145   5.035
 7043SOL     OW22027   2.036   4.794   2.678
 7043SOL    HW122028   2.034   4.713   2.620
 7043SOL    HW222029   1.993   4.774   2.766
 7044SOL     OW22030   5.958   5.050   4.386
 7044SOL    HW122031   5.960   5.025   4.483
 7044SOL    HW222032   5.979   5.147   4.376
 7045SOL     OW22033   4.767   5.438   2.895
 7045SOL    HW122034   4.709   5.463   2.818
 7045SOL    HW222035   4.834   5.370   2.866
 7046SOL     OW22036   2.795   1.015   3.535
 7046SOL    HW122037   2.711   1.067   3.551
 7046SOL    HW222038   2.801   0.991   3.438
 7047SOL     OW22039   6.393   1.018   2.234
 7047SOL    HW122040   6.476   1.056   2.274
 7047SOL    HW222041   6.319   1.020   2.301
 7048SOL     OW22042   5.290   0.274   3.621
 7048SOL    HW122043   5.241   0.231   3.698
 7048SOL    HW222044   5.383   0.237   3.616
 7049SOL     OW22045   3.315   1.452   0.650
 7049SOL    HW122046   3.378   1.528   0.633
 7049SOL    HW222047   3.240   1.455   0.585
 7050SOL     OW22048   4.140   3.951   1.799
 7050SOL    HW122049   4.165   3.856   1.779
 7050SOL    HW222050   4.131   3.963   1.897
 7051SOL     OW22051   6.362   6.381   0.895
 7051SOL    HW122052   6.268   6.374   0.861
 7051SOL    HW222053   6.362   6.379   0.995
 7052SOL     OW22054   6.011   1.821   3.395
 7052SOL    HW122055   6.084   1.862   3.340
 7052SOL    HW222056   5.925   1.826   3.344
 7053SOL     OW22057   1.517   3.009   5.309
 7053SOL    HW122058   1.606   3.045   5.279
 7053SOL    HW222059   1.447   3.078   5.293
 7054SOL     OW22060   6.558   6.909   0.579
 7054SOL    HW122061   6.514   6.823   0.607
 7054SOL    HW222062   6.655   6.905   0.601
 7055SOL     OW22063   2.897   6.795   6.388
 7055SOL    HW122064   2.839   6.810   6.308
 7055SOL    HW222065   2.839   6.791   6.470
 7056SOL     OW22066   0.116   4.814   1.462
 7056SOL    HW122067   0.136   4.736   1.522
 7056SOL    HW222068   0.120   4.899   1.515
 7057SOL     OW22069   2.697   4.644   4.130
 7057SOL    HW122070   2.630   4.576   4.160
 7057SOL    HW222071   2.721   4.628   4.034
 7058SOL     OW22072   5.460   4.031   5.157
 7058SOL    HW122073   5.478   3.936   5.182
 7058SOL    HW222074   5.417   4.078   5.234
 7059SOL     OW22075   0.595   1.462   3.599
 7059SOL    HW122076   0.646   1.445   3.515
 7059SOL    HW222077   0.574   1.374   3.643
 7060SOL     OW22078   3.238   6.941   1.812
 7060SOL    HW122079   3.306   6.921   1.882
 7060SOL    HW222080   3.266   6.901   1.725
 7061SOL     OW22081   0.086   3.094   4.135
 7061SOL    HW122082   0.141   3.053   4.061
 7061SOL    HW222083   0.032   3.170   4.098
 7062SOL     OW22084   3.582   2.030   5.783
 7062SOL    HW122085   3.525   2.107   5.815
 7062SOL    HW222086   3.632   2.058   5.702
 7063SOL     OW22087   1.241   6.785   1.744
 7063SOL    HW122088   1.283   6.737   1.667
 7063SOL    HW222089   1.243   6.727   1.825
 7064SOL     OW22090   3.859   2.049   6.863
 7064SOL    HW122091   3.947   2.089   6.839
 7064SOL    HW222092   3.843   2.060   6.961
 7065SOL     OW22093   5.177   3.666   6.005
 7065SOL    HW122094   5.206   3.629   6.093
 7065SOL    HW222095   5.164   3.765   6.013
 7066SOL     OW22096   4.108   0.304   6.664
 7066SOL    HW122097   4.207   0.312   6.656
 7066SOL    HW222098   4.075   0.231   6.604
 7067SOL     OW22099   1.732   2.706   5.640
 7067SOL    HW122100   1.683   2.636   5.693
 7067SOL    HW222101   1.666   2.772   5.604
 7068SOL     OW22102   6.206   4.806   4.792
 7068SOL    HW122103   6.249   4.764   4.713
 7068SOL    HW222104   6.228   4.754   4.874
 7069SOL     OW22105   5.237   2.311   4.512
 7069SOL    HW122106   5.253   2.252   4.591
 7069SOL    HW222107   5.179   2.387   4.538
 7070SOL     OW22108   0.124   6.859   4.687
 7070SOL    HW122109   0.165   6.914   4.760
 7070SOL    HW222110   0.152   6.895   4.598
 7071SOL     OW22111   3.602   6.212   5.529
 7071SOL    HW122112   3.534   6.224   5.602
 7071SOL    HW222113   3.561   6.235   5.441
 7072SOL     OW22114   1.824   5.932   6.798
 7072SOL    HW122115   1.757   5.999   6.830
 7072SOL    HW222116   1.809   5.915   6.700
 7073SOL     OW22117   5.259   0.268   4.128
 7073SOL    HW122118   5.358   0.253   4.121
 7073SOL    HW222119   5.240   0.366   4.124
 7074SOL     OW22120   6.244   2.461   1.814
 7074SOL    HW122121   6.155   2.473   1.769
 7074SOL    HW222122   6.312   2.437   1.745
 7075SOL     OW22123   1.708   4.310   4.947
 7075SOL    HW122124   1.694   4.307   4.848
 7075SOL    HW222125   1.797   4.270   4.970
 7076SOL     OW22126   5.833   2.611   6.807
 7076SOL    HW122127   5.832   2.641   6.711
 7076SOL    HW222128   5.927   2.592   6.834
 7077SOL     OW22129   2.164   4.560   3.756
 7077SOL    HW122130   2.079   4.518   3.786
 7077SOL    HW222131   2.150   4.657   3.739
 7078SOL     OW22132   6.705   6.370   1.924
 7078SOL    HW122133   6.726   6.332   2.014
 7078SOL    HW222134   6.731   6.467   1.921
 7079SOL     OW22135   0.227   6.962   4.444
 7079SOL    HW122136   0.317   6.922   4.464
 7079SOL    HW222137   0.173   6.897   4.391
 7080SOL     OW22138   3.568   1.327   5.096
 7080SOL    HW122139   3.572   1.427   5.104
 7080SOL    HW222140   3.509   1.303   5.020
 7081SOL     OW22141   2.040   6.267   6.844
 7081SOL    HW122142   2.069   6.346   6.898
 7081SOL    HW222143   1.951   6.286   6.803
 7082SOL     OW22144   6.758   4.483   7.009
 7082SOL    HW122145   6.827   4.539   6.965
 7082SOL    HW222146   6.669   4.500   6.967
 7083SOL     OW22147   1.709   0.309   1.553
 7083SOL    HW122148   1.693   0.389   1.495
 7083SOL    HW222149   1.653   0.316   1.636
 7084SOL     OW22150   0.375   5.300   5.334
 7084SOL    HW122151   0.343   5.206   5.345
 7084SOL    HW222152   0.297   5.359   5.313
 7085SOL     OW22153   0.402   1.727   2.528
 7085SOL    HW122154   0.430   1.823   2.537
 7085SOL    HW222155   0.446   1.687   2.448
 7086SOL     OW22156   6.027   0.500   6.025
 7086SOL    HW122157   6.093   0.519   6.097
 7086SOL    HW222158   6.019   0.401   6.013
 7087SOL     OW22159   5.861   3.656   3.290
 7087SOL    HW122160   5.923   3.646   3.368
 7087SOL    HW222161   5.766   3.653   3.321
 7088SOL     OW22162   4.900   2.566   4.040
 7088SOL    HW122163   4.842   2.488   4.064
 7088SOL    HW222164   4.990   2.533   4.012
 7089SOL     OW22165   2.678   2.188   4.697
 7089SOL    HW122166   2.745   2.196   4.770
 7089SOL    HW222167   2.588   2.213   4.730
 7090SOL     OW22168   1.614   1.069   0.618
 7090SOL    HW122169   1.613   1.148   0.680
 7090SOL    HW222170   1.524   1.060   0.575
 7091SOL     OW22171   0.327   2.196   0.819
 7091SOL    HW122172   0.333   2.282   0.869
 7091SOL    HW222173   0.406   2.187   0.759
 7092SOL     OW22174   4.113   2.896   5.444
 7092SOL    HW122175   4.087   2.800   5.456
 7092SOL    HW222176   4.205   2.902   5.405
 7093SOL     OW22177   3.135   4.057   1.974
 7093SOL    HW122178   3.086   3.972   1.952
 7093SOL    HW222179   3.149   4.062   2.073
 7094SOL     OW22180   6.905   5.906   5.612
 7094SOL    HW122181   6.821   5.875   5.567
 7094SOL    HW222182   6.951   5.828   5.654
 7095SOL     OW22183   3.259   4.758   5.630
 7095SOL    HW122184   3.317   4.764   5.549
 7095SOL    HW222185   3.163   4.765   5.603
 7096SOL     OW22186   6.653   1.006   2.344
 7096SOL    HW122187   6.672   1.100   2.373
 7096SOL    HW222188   6.721   0.978   2.276
 7097SOL     OW22189   4.794   0.826   1.587
 7097SOL    HW122190   4.887   0.812   1.621
 7097SOL    HW222191   4.734   0.853   1.663
 7098SOL     OW22192   2.501   5.598   5.352
 7098SOL    HW122193   2.500   5.498   5.362
 7098SOL    HW222194   2.420   5.627   5.301
 7099SOL     OW22195   3.858   1.579   5.352
 7099SOL    HW122196   3.811   1.650   5.299
 7099SOL    HW222197   3.794   1.537   5.415
 7100SOL     OW22198   6.962   3.652   0.109
 7100SOL    HW122199   6.989   3.743   0.079
 7100SOL    HW222200   6.862   3.645   0.109
 7101SOL     OW22201   2.873   1.750   5.342
 7101SOL    HW122202   2.888   1.832   5.397
 7101SOL    HW222203   2.775   1.727   5.343
 7102SOL     OW22204   5.397   0.144   1.210
 7102SOL    HW122205   5.393   0.056   1.255
 7102SOL    HW222206   5.367   0.216   1.272
 7103SOL     OW22207   5.737   5.463   1.953
 7103SOL    HW122208   5.823   5.499   1.989
 7103SOL    HW222209   5.687   5.536   1.906
 7104SOL     OW22210   6.204   3.817   2.825
 7104SOL    HW122211   6.113   3.827   2.785
 7104SOL    HW222212   6.229   3.902   2.872
 7105SOL     OW22213   2.818   3.370   5.253
 7105SOL    HW122214   2.827   3.358   5.154
 7105SOL    HW222215   2.723   3.355   5.280
 7106SOL     OW22216   3.751   3.392   1.994
 7106SOL    HW122217   3.840   3.419   2.031
 7106SOL    HW222218   3.679   3.418   2.059
 7107SOL     OW22219   4.860   0.483   0.620
 7107SOL    HW122220   4.833   0.542   0.696
 7107SOL    HW222221   4.957   0.497   0.600
 7108SOL     OW22222   3.246   5.783   2.851
 7108SOL    HW122223   3.185   5.845   2.801
 7108SOL    HW222224   3.340   5.795   2.819
 7109SOL     OW22225   1.897   6.720   5.295
 7109SOL    HW122226   1.935   6.702   5.385
 7109SOL    HW222227   1.949   6.670   5.225
 7110SOL     OW22228   2.842   5.668   4.518
 7110SOL    HW122229   2.901   5.656   4.598
 7110SOL    HW222230   2.755   5.622   4.534
 7111SOL     OW22231   0.788   2.610   5.192
 7111SOL    HW122232   0.727   2.541   5.154
 7111SOL    HW222233   0.812   2.586   5.286
 7112SOL     OW22234   1.817   5.227   4.307
 7112SOL    HW122235   1.914   5.203   4.301
 7112SOL    HW222236   1.769   5.188   4.228
 7113SOL     OW22237   3.427   4.130   4.739
 7113SOL    HW122238   3.470   4.219   4.720
 7113SOL    HW222239   3.333   4.130   4.703
 7114SOL     OW22240   5.367   5.400   0.617
 7114SOL    HW122241   5.419   5.483   0.635
 7114SOL    HW222242   5.279   5.405   0.663
 7115SOL     OW22243   4.787   3.048   0.065
 7115SOL    HW122244   4.878   3.006   0.060
 7115SOL    HW222245   4.722   2.992   0.013
 7116SOL     OW22246   5.775   4.338   3.065
 7116SOL    HW122247   5.831   4.332   3.148
 7116SOL    HW222248   5.769   4.248   3.022
 7117SOL     OW22249   0.763   6.090   5.217
 7117SOL    HW122250   0.714   6.014   5.260
 7117SOL    HW222251   0.723   6.177   5.246
 7118SOL     OW22252   3.172   5.134   6.374
 7118SOL    HW122253   3.135   5.145   6.282
 7118SOL    HW222254   3.121   5.061   6.421
 7119SOL     OW22255   5.134   1.355   4.197
 7119SOL    HW122256   5.145   1.286   4.125
 7119SOL    HW222257   5.093   1.438   4.158
 7120SOL     OW22258   3.436   2.104   2.059
 7120SOL    HW122259   3.405   2.122   1.966
 7120SOL    HW222260   3.534   2.121   2.066
 7121SOL     OW22261   0.773   6.846   3.831
 7121SOL    HW122262   0.796   6.939   3.803
 7121SOL    HW222263   0.686   6.819   3.788
 7122SOL     OW22264   1.394   0.795   5.847
 7122SOL    HW122265   1.479   0.807   5.899
 7122SOL    HW222266   1.411   0.817   5.751
 7123SOL     OW22267   1.321   4.896   3.560
 7123SOL    HW122268   1.296   4.932   3.470
 7123SOL    HW222269   1.343   4.799   3.552
 7124SOL     OW22270   0.209   2.107   1.625
 7124SOL    HW122271   0.173   2.199   1.609
 7124SOL    HW222272   0.133   2.046   1.650
 7125SOL     OW22273   0.738   0.331   0.785
 7125SOL    HW122274   0.652   0.322   0.733
 7125SOL    HW222275   0.773   0.239   0.805
 7126SOL     OW22276   3.678   5.220   0.514
 7126SOL    HW122277   3.686   5.231   0.613
 7126SOL    HW222278   3.591   5.175   0.493
 7127SOL     OW22279   2.302   5.870   6.505
 7127SOL    HW122280   2.266   5.805   6.438
 7127SOL    HW222281   2.318   5.823   6.592
 7128SOL     OW22282   3.702   4.085   6.703
 7128SOL    HW122283   3.607   4.088   6.735
 7128SOL    HW222284   3.704   4.051   6.609
 7129SOL     OW22285   2.434   1.350   0.422
 7129SOL    HW122286   2.405   1.385   0.333
 7129SOL    HW222287   2.482   1.422   0.472
 7130SOL     OW22288   3.689   5.879   3.738
 7130SOL    HW122289   3.767   5.865   3.678
 7130SOL    HW222290   3.708   5.839   3.828
 7131SOL     OW22291   2.849   1.047   1.485
 7131SOL    HW122292   2.935   0.996   1.492
 7131SOL    HW222293   2.807   1.054   1.575
 7132SOL     OW22294   3.878   4.430   0.324
 7132SOL    HW122295   3.969   4.401   0.356
 7132SOL    HW222296   3.808   4.372   0.366
 7133SOL     OW22297   4.415   4.740   5.293
 7133SOL    HW122298   4.490   4.797   5.324
 7133SOL    HW222299   4.335   4.756   5.351
 7134SOL     OW22300   4.658   6.815   1.706
 7134SOL    HW122301   4.647   6.778   1.798
 7134SOL    HW222302   4.610   6.757   1.641
 7135SOL     OW22303   1.683   2.516   3.532
 7135SOL    HW122304   1.676   2.551   3.438
 7135SOL    HW222305   1.715   2.589   3.592
 7136SOL     OW22306   2.878   1.852   0.334
 7136SOL    HW122307   2.943   1.840   0.258
 7136SOL    HW222308   2.882   1.771   0.393
 7137SOL     OW22309   2.762   1.254   0.237
 7137SOL    HW122310   2.840   1.250   0.299
 7137SOL    HW222311   2.731   1.162   0.215
 7138SOL     OW22312   1.985   2.013   0.504
 7138SOL    HW122313   2.054   2.075   0.541
 7138SOL    HW222314   1.943   2.053   0.423
 7139SOL     OW22315   5.511   4.847   1.717
 7139SOL    HW122316   5.416   4.868   1.739
 7139SOL    HW222317   5.546   4.914   1.652
 7140SOL     OW22318   6.745   4.094   1.107
 7140SOL    HW122319   6.667   4.149   1.137
 7140SOL    HW222320   6.830   4.141   1.131
 7141SOL     OW22321   3.713   6.361   0.518
 7141SOL    HW122322   3.689   6.452   0.552
 7141SOL    HW222323   3.790   6.368   0.455
 7142SOL     OW22324   3.852   6.651   3.201
 7142SOL    HW122325   3.865   6.707   3.283
 7142SOL    HW222326   3.935   6.655   3.144
 7143SOL     OW22327   1.831   3.423   6.905
 7143SOL    HW122328   1.890   3.502   6.922
 7143SOL    HW222329   1.736   3.452   6.903
 7144SOL     OW22330   1.463   1.777   2.716
 7144SOL    HW122331   1.379   1.796   2.767
 7144SOL    HW222332   1.541   1.813   2.767
 7145SOL     OW22333   3.536   0.459   6.354
 7145SOL    HW122334   3.563   0.474   6.259
 7145SOL    HW222335   3.467   0.527   6.379
 7146SOL     OW22336   1.468   0.280   6.639
 7146SOL    HW122337   1.448   0.238   6.728
 7146SOL    HW222338   1.427   0.225   6.567
 7147SOL     OW22339   0.240   6.263   3.221
 7147SOL    HW122340   0.183   6.216   3.153
 7147SOL    HW222341   0.210   6.358   3.228
 7148SOL     OW22342   6.466   6.418   1.157
 7148SOL    HW122343   6.480   6.515   1.177
 7148SOL    HW222344   6.550   6.381   1.116
 7149SOL     OW22345   0.308   6.332   4.356
 7149SOL    HW122346   0.264   6.246   4.330
 7149SOL    HW222347   0.260   6.372   4.434
 7150SOL     OW22348   3.876   2.901   0.775
 7150SOL    HW122349   3.850   2.805   0.769
 7150SOL    HW222350   3.922   2.927   0.690
 7151SOL     OW22351   3.457   6.609   0.638
 7151SOL    HW122352   3.399   6.529   0.649
 7151SOL    HW222353   3.436   6.676   0.709
 7152SOL     OW22354   6.622   0.850   5.501
 7152SOL    HW122355   6.573   0.763   5.493
 7152SOL    HW222356   6.697   0.840   5.566
 7153SOL     OW22357   4.066   5.157   1.530
 7153SOL    HW122358   3.985   5.213   1.516
 7153SOL    HW222359   4.144   5.197   1.483
 7154SOL     OW22360   4.844   6.520   3.450
 7154SOL    HW122361   4.897   6.595   3.409
 7154SOL    HW222362   4.788   6.556   3.524
 7155SOL     OW22363   3.141   3.428   1.034
 7155SOL    HW122364   3.095   3.456   1.119
 7155SOL    HW222365   3.114   3.334   1.012
 7156SOL     OW22366   6.803   3.743   2.723
 7156SOL    HW122367   6.734   3.814   2.705
 7156SOL    HW222368   6.798   3.715   2.818
 7157SOL     OW22369   0.232   4.805   1.220
 7157SOL    HW122370   0.283   4.891   1.220
 7157SOL    HW222371   0.191   4.791   1.309
 7158SOL     OW22372   1.033   0.397   4.279
 7158SOL    HW122373   1.086   0.313   4.266
 7158SOL    HW222374   1.048   0.431   4.372
 7159SOL     OW22375   0.927   4.828   3.746
 7159SOL    HW122376   1.014   4.868   3.774
 7159SOL    HW222377   0.853   4.894   3.764
 7160SOL     OW22378   5.907   0.115   3.164
 7160SOL    HW122379   5.862   0.194   3.123
 7160SOL    HW222380   6.001   0.137   3.186
 7161SOL     OW22381   3.271   4.133   2.900
 7161SOL    HW122382   3.358   4.179   2.913
 7161SOL    HW222383   3.233   4.157   2.811
 7162SOL     OW22384   1.605   5.292   6.138
 7162SOL    HW122385   1.568   5.331   6.054
 7162SOL    HW222386   1.542   5.224   6.174
 7163SOL     OW22387   2.767   0.247   2.427
 7163SOL    HW122388   2.736   0.280   2.338
 7163SOL    HW222389   2.839   0.307   2.462
 7164SOL     OW22390   2.911   0.253   5.216
 7164SOL    HW122391   2.974   0.227   5.143
 7164SOL    HW222392   2.848   0.323   5.182
 7165SOL     OW22393   5.964   6.645   1.834
 7165SOL    HW122394   6.060   6.636   1.861
 7165SOL    HW222395   5.944   6.741   1.815
 7166SOL     OW22396   5.042   2.126   0.581
 7166SOL    HW122397   5.076   2.038   0.548
 7166SOL    HW222398   5.092   2.153   0.663
 7167SOL     OW22399   5.249   3.241   4.626
 7167SOL    HW122400   5.243   3.292   4.540
 7167SOL    HW222401   5.245   3.305   4.703
 7168SOL     OW22402   2.037   2.646   3.869
 7168SOL    HW122403   2.008   2.715   3.802
 7168SOL    HW222404   2.133   2.624   3.853
 7169SOL     OW22405   0.100   3.789   5.679
 7169SOL    HW122406   0.002   3.804   5.691
 7169SOL    HW222407   0.117   3.753   5.587
 7170SOL     OW22408   4.573   6.880   2.412
 7170SOL    HW122409   4.629   6.798   2.418
 7170SOL    HW222410   4.618   6.956   2.458
 7171SOL     OW22411   5.887   4.051   0.545
 7171SOL    HW122412   5.970   4.046   0.601
 7171SOL    HW222413   5.847   3.960   0.536
 7172SOL     OW22414   2.046   0.018   4.889
 7172SOL    HW122415   2.051   0.110   4.851
 7172SOL    HW222416   2.061   6.981   4.816
 7173SOL     OW22417   6.371   4.175   6.994
 7173SOL    HW122418   6.446   4.217   0.016
 7173SOL    HW222419   6.284   4.205   0.002
 7174SOL     OW22420   0.931   3.938   0.898
 7174SOL    HW122421   0.939   3.867   0.828
 7174SOL    HW222422   0.932   3.895   0.989
 7175SOL     OW22423   6.030   3.119   4.898
 7175SOL    HW122424   6.038   3.165   4.986
 7175SOL    HW222425   5.949   3.151   4.849
 7176SOL     OW22426   0.088   1.530   3.219
 7176SOL    HW122427   0.038   1.500   3.299
 7176SOL    HW222428   0.170   1.581   3.247
 7177SOL     OW22429   1.127   4.779   5.073
 7177SOL    HW122430   1.121   4.757   4.976
 7177SOL    HW222431   1.041   4.817   5.105
 7178SOL     OW22432   6.745   1.894   5.612
 7178SOL    HW122433   6.806   1.889   5.691
 7178SOL    HW222434   6.794   1.935   5.535
 7179SOL     OW22435   1.676   3.785   4.952
 7179SOL    HW122436   1.694   3.823   4.862
 7179SOL    HW222437   1.740   3.710   4.970
 7180SOL     OW22438   2.489   4.622   0.413
 7180SOL    HW122439   2.399   4.610   0.455
 7180SOL    HW222440   2.536   4.699   0.456
 7181SOL     OW22441   2.434   0.461   0.213
 7181SOL    HW122442   2.410   0.552   0.247
 7181SOL    HW222443   2.465   0.404   0.288
 7182SOL     OW22444   0.118   3.820   4.193
 7182SOL    HW122445   0.192   3.758   4.218
 7182SOL    HW222446   0.155   3.899   4.145
 7183SOL     OW22447   1.877   5.889   1.562
 7183SOL    HW122448   1.787   5.901   1.521
 7183SOL    HW222449   1.918   5.804   1.530
 7184SOL     OW22450   6.829   1.438   4.026
 7184SOL    HW122451   6.915   1.386   4.025
 7184SOL    HW222452   6.809   1.467   4.119
 7185SOL     OW22453   5.062   0.966   5.287
 7185SOL    HW122454   5.066   1.020   5.372
 7185SOL    HW222455   4.999   1.010   5.223
 7186SOL     OW22456   6.642   1.662   2.029
 7186SOL    HW122457   6.571   1.629   2.091
 7186SOL    HW222458   6.608   1.662   1.935
 7187SOL     OW22459   2.963   4.085   5.218
 7187SOL    HW122460   2.943   3.989   5.196
 7187SOL    HW222461   2.880   4.130   5.250
 7188SOL     OW22462   4.763   6.710   6.697
 7188SOL    HW122463   4.803   6.800   6.716
 7188SOL    HW222464   4.837   6.643   6.685
 7189SOL     OW22465   6.689   1.420   5.584
 7189SOL    HW122466   6.663   1.332   5.545
 7189SOL    HW222467   6.784   1.440   5.560
 7190SOL     OW22468   6.595   5.276   1.723
 7190SOL    HW122469   6.560   5.215   1.652
 7190SOL    HW222470   6.535   5.271   1.803
 7191SOL     OW22471   1.619   4.867   2.437
 7191SOL    HW122472   1.549   4.912   2.382
 7191SOL    HW222473   1.709   4.883   2.395
 7192SOL     OW22474   1.897   4.282   5.856
 7192SOL    HW122475   1.953   4.232   5.922
 7192SOL    HW222476   1.926   4.258   5.763
 7193SOL     OW22477   1.687   2.365   2.058
 7193SOL    HW122478   1.598   2.326   2.034
 7193SOL    HW222479   1.758   2.324   2.000
 7194SOL     OW22480   2.040   2.675   0.624
 7194SOL    HW122481   1.979   2.729   0.566
 7194SOL    HW222482   1.995   2.656   0.711
 7195SOL     OW22483   0.293   4.099   0.210
 7195SOL    HW122484   0.349   4.163   0.158
 7195SOL    HW222485   0.347   4.017   0.231
 7196SOL     OW22486   2.215   3.722   1.589
 7196SOL    HW122487   2.250   3.773   1.668
 7196SOL    HW222488   2.221   3.624   1.608
 7197SOL     OW22489   0.691   2.969   5.399
 7197SOL    HW122490   0.660   3.034   5.468
 7197SOL    HW222491   0.785   2.941   5.419
 7198SOL     OW22492   0.307   1.082   0.589
 7198SOL    HW122493   0.313   1.164   0.533
 7198SOL    HW222494   0.258   1.011   0.538
 7199SOL     OW22495   0.877   0.029   2.201
 7199SOL    HW122496   0.927   0.112   2.228
 7199SOL    HW222497   0.817   0.001   2.276
 7200SOL     OW22498   2.096   2.893   6.791
 7200SOL    HW122499   2.096   2.972   6.731
 7200SOL    HW222500   2.188   2.880   6.829
 7201SOL     OW22501   0.734   6.101   3.893
 7201SOL    HW122502   0.719   6.190   3.936
 7201SOL    HW222503   0.777   6.039   3.959
 7202SOL     OW22504   4.311   6.658   6.521
 7202SOL    HW122505   4.280   6.709   6.601
 7202SOL    HW222506   4.282   6.706   6.438
 7203SOL     OW22507   7.016   0.871   1.103
 7203SOL    HW122508   0.053   0.916   1.162
 7203SOL    HW222509   6.934   0.928   1.096
 7204SOL     OW22510   0.397   1.196   6.124
 7204SOL    HW122511   0.347   1.142   6.056
 7204SOL    HW222512   0.390   1.151   6.213
 7205SOL     OW22513   1.488   4.033   5.248
 7205SOL    HW122514   1.465   4.130   5.259
 7205SOL    HW222515   1.577   4.025   5.203
 7206SOL     OW22516   1.032   0.227   2.340
 7206SOL    HW122517   1.115   0.204   2.390
 7206SOL    HW222518   1.036   0.322   2.310
 7207SOL     OW22519   3.452   0.303   3.734
 7207SOL    HW122520   3.396   0.293   3.651
 7207SOL    HW222521   3.545   0.328   3.708
 7208SOL     OW22522   4.307   0.066   3.905
 7208SOL    HW122523   4.263   7.019   3.860
 7208SOL    HW222524   4.238   0.122   3.951
 7209SOL     OW22525   2.827   3.215   1.658
 7209SOL    HW122526   2.871   3.133   1.694
 7209SOL    HW222527   2.821   3.284   1.730
 7210SOL     OW22528   3.936   0.980   2.577
 7210SOL    HW122529   3.935   0.943   2.670
 7210SOL    HW222530   3.892   0.915   2.515
 7211SOL     OW22531   1.735   6.117   4.912
 7211SOL    HW122532   1.659   6.169   4.873
 7211SOL    HW222533   1.706   6.075   4.998
 7212SOL     OW22534   0.415   6.385   4.853
 7212SOL    HW122535   0.364   6.412   4.934
 7212SOL    HW222536   0.481   6.314   4.877
 7213SOL     OW22537   3.997   6.400   6.328
 7213SOL    HW122538   3.940   6.347   6.266
 7213SOL    HW222539   4.026   6.341   6.404
 7214SOL     OW22540   6.931   0.238   4.680
 7214SOL    HW122541   6.930   0.197   4.588
 7214SOL    HW222542   6.891   0.174   4.746
 7215SOL     OW22543   6.740   3.496   3.880
 7215SOL    HW122544   6.709   3.568   3.818
 7215SOL    HW222545   6.661   3.453   3.924
 7216SOL     OW22546   3.344   0.162   0.768
 7216SOL    HW122547   3.298   0.152   0.857
 7216SOL    HW222548   3.397   0.247   0.768
 7217SOL     OW22549   1.990   4.067   3.269
 7217SOL    HW122550   2.032   3.976   3.264
 7217SOL    HW222551   2.061   4.137   3.255
 7218SOL     OW22552   6.183   2.777   3.757
 7218SOL    HW122553   6.161   2.867   3.796
 7218SOL    HW222554   6.148   2.705   3.817
 7219SOL     OW22555   3.872   0.300   3.372
 7219SOL    HW122556   3.802   0.244   3.328
 7219SOL    HW222557   3.848   0.314   3.468
 7220SOL     OW22558   7.024   4.388   4.817
 7220SOL    HW122559   6.944   4.409   4.874
 7220SOL    HW222560   0.077   4.395   4.873
 7221SOL     OW22561   3.592   5.521   4.616
 7221SOL    HW122562   3.545   5.504   4.530
 7221SOL    HW222563   3.620   5.434   4.657
 7222SOL     OW22564   6.368   6.634   3.484
 7222SOL    HW122565   6.391   6.634   3.387
 7222SOL    HW222566   6.269   6.641   3.496
 7223SOL     OW22567   3.459   1.342   1.190
 7223SOL    HW122568   3.511   1.425   1.170
 7223SOL    HW222569   3.373   1.343   1.139
 7224SOL     OW22570   5.403   1.930   4.067
 7224SOL    HW122571   5.305   1.934   4.089
 7224SOL    HW222572   5.414   1.938   3.968
 7225SOL     OW22573   1.446   6.255   0.594
 7225SOL    HW122574   1.387   6.285   0.669
 7225SOL    HW222575   1.392   6.249   0.509
 7226SOL     OW22576   5.893   0.197   1.799
 7226SOL    HW122577   5.860   0.169   1.889
 7226SOL    HW222578   5.837   0.153   1.728
 7227SOL     OW22579   3.039   2.075   1.390
 7227SOL    HW122580   2.962   2.010   1.398
 7227SOL    HW222581   3.104   2.040   1.322
 7228SOL     OW22582   0.833   2.243   2.761
 7228SOL    HW122583   0.895   2.303   2.711
 7228SOL    HW222584   0.871   2.150   2.763
 7229SOL     OW22585   0.945   5.882   5.869
 7229SOL    HW122586   0.996   5.960   5.833
 7229SOL    HW222587   1.003   5.800   5.868
 7230SOL     OW22588   3.707   5.197   5.055
 7230SOL    HW122589   3.701   5.133   4.978
 7230SOL    HW222590   3.616   5.213   5.092
 7231SOL     OW22591   4.097   0.534   6.343
 7231SOL    HW122592   4.008   0.538   6.387
 7231SOL    HW222593   4.133   0.441   6.347
 7232SOL     OW22594   4.978   5.842   2.507
 7232SOL    HW122595   5.023   5.931   2.500
 7232SOL    HW222596   4.892   5.844   2.456
 7233SOL     OW22597   1.543   1.383   3.746
 7233SOL    HW122598   1.484   1.463   3.743
 7233SOL    HW222599   1.591   1.373   3.659
 7234SOL     OW22600   5.276   2.410   3.634
 7234SOL    HW122601   5.371   2.431   3.657
 7234SOL    HW222602   5.272   2.371   3.542
 7235SOL     OW22603   6.946   4.693   2.671
 7235SOL    HW122604   0.012   4.669   2.685
 7235SOL    HW222605   6.922   4.678   2.575
 7236SOL     OW22606   2.704   2.010   1.597
 7236SOL    HW122607   2.617   1.959   1.597
 7236SOL    HW222608   2.779   1.947   1.580
 7237SOL     OW22609   3.765   0.392   4.566
 7237SOL    HW122610   3.836   0.458   4.544
 7237SOL    HW222611   3.798   0.331   4.638
 7238SOL     OW22612   4.255   2.388   6.955
 7238SOL    HW122613   4.342   2.338   6.946
 7238SOL    HW222614   4.260   2.450   0.003
 7239SOL     OW22615   0.991   1.777   2.111
 7239SOL    HW122616   0.921   1.839   2.077
 7239SOL    HW222617   1.048   1.825   2.178
 7240SOL     OW22618   1.291   1.058   6.177
 7240SOL    HW122619   1.223   1.123   6.209
 7240SOL    HW222620   1.329   1.008   6.254
 7241SOL     OW22621   2.002   0.375   1.258
 7241SOL    HW122622   2.064   0.298   1.244
 7241SOL    HW222623   2.050   0.448   1.308
 7242SOL     OW22624   6.850   5.760   6.682
 7242SOL    HW122625   6.844   5.849   6.638
 7242SOL    HW222626   6.777   5.751   6.750
 7243SOL     OW22627   6.677   4.012   6.576
 7243SOL    HW122628   6.617   3.953   6.522
 7243SOL    HW222629   6.768   3.972   6.582
 7244SOL     OW22630   6.776   0.418   2.072
 7244SOL    HW122631   6.809   0.350   2.137
 7244SOL    HW222632   6.685   0.450   2.100
 7245SOL     OW22633   1.783   3.077   5.184
 7245SOL    HW122634   1.824   3.029   5.106
 7245SOL    HW222635   1.763   3.171   5.159
 7246SOL     OW22636   0.483   0.349   4.074
 7246SOL    HW122637   0.471   0.401   3.990
 7246SOL    HW222638   0.560   0.387   4.126
 7247SOL     OW22639   2.491   1.302   4.219
 7247SOL    HW122640   2.563   1.284   4.153
 7247SOL    HW222641   2.402   1.277   4.181
 7248SOL     OW22642   2.621   1.264   3.382
 7248SOL    HW122643   2.555   1.252   3.457
 7248SOL    HW222644   2.576   1.243   3.295
 7249SOL     OW22645   6.111   5.133   2.521
 7249SOL    HW122646   6.175   5.150   2.446
 7249SOL    HW222647   6.083   5.219   2.561
 7250SOL     OW22648   5.491   6.312   5.729
 7250SOL    HW122649   5.557   6.352   5.665
 7250SOL    HW222650   5.482   6.371   5.809
 7251SOL     OW22651   0.371   6.333   5.445
 7251SOL    HW122652   0.366   6.262   5.515
 7251SOL    HW222653   0.327   6.302   5.361
 7252SOL     OW22654   4.086   3.122   2.110
 7252SOL    HW122655   4.145   3.044   2.128
 7252SOL    HW222656   4.055   3.161   2.198
 7253SOL     OW22657   1.484   5.814   6.998
 7253SOL    HW122658   1.448   5.874   0.040
 7253SOL    HW222659   1.495   5.866   6.913
 7254SOL     OW22660   4.863   4.941   4.670
 7254SOL    HW122661   4.778   4.927   4.620
 7254SOL    HW222662   4.926   4.997   4.615
 7255SOL     OW22663   4.074   4.012   0.219
 7255SOL    HW122664   3.977   4.008   0.242
 7255SOL    HW222665   4.118   3.925   0.241
 7256SOL     OW22666   3.237   5.751   4.860
 7256SOL    HW122667   3.296   5.677   4.893
 7256SOL    HW222668   3.293   5.820   4.814
 7257SOL     OW22669   5.791   1.732   3.171
 7257SOL    HW122670   5.758   1.800   3.105
 7257SOL    HW222671   5.715   1.672   3.198
 7258SOL     OW22672   4.994   1.662   2.632
 7258SOL    HW122673   5.018   1.684   2.726
 7258SOL    HW222674   5.070   1.611   2.590
 7259SOL     OW22675   2.165   4.020   0.985
 7259SOL    HW122676   2.132   3.927   1.000
 7259SOL    HW222677   2.264   4.022   1.001
 7260SOL     OW22678   4.302   1.489   1.083
 7260SOL    HW122679   4.387   1.471   1.133
 7260SOL    HW222680   4.226   1.497   1.148
 7261SOL     OW22681   1.514   3.045   1.388
 7261SOL    HW122682   1.581   2.996   1.445
 7261SOL    HW222683   1.559   3.076   1.304
 7262SOL     OW22684   5.063   2.618   6.397
 7262SOL    HW122685   5.010   2.697   6.427
 7262SOL    HW222686   5.037   2.593   6.304
 7263SOL     OW22687   1.080   7.013   0.048
 7263SOL    HW122688   1.091   6.921   0.086
 7263SOL    HW222689   1.166   0.013   0.007
 7264SOL     OW22690   5.088   2.060   6.706
 7264SOL    HW122691   5.113   1.991   6.774
 7264SOL    HW222692   5.097   2.151   6.747
 7265SOL     OW22693   5.915   4.958   5.379
 7265SOL    HW122694   5.818   4.957   5.401
 7265SOL    HW222695   5.969   4.959   5.463
 7266SOL     OW22696   5.399   6.399   2.012
 7266SOL    HW122697   5.302   6.383   2.030
 7266SOL    HW222698   5.414   6.406   1.914
 7267SOL     OW22699   6.582   6.315   5.103
 7267SOL    HW122700   6.630   6.350   5.022
 7267SOL    HW222701   6.516   6.383   5.134
 7268SOL     OW22702   6.081   5.291   3.709
 7268SOL    HW122703   6.142   5.212   3.721
 7268SOL    HW222704   5.988   5.264   3.730
 7269SOL     OW22705   0.081   6.239   6.634
 7269SOL    HW122706   0.034   6.309   6.580
 7269SOL    HW222707   0.170   6.219   6.593
 7270SOL     OW22708   1.414   3.519   5.385
 7270SOL    HW122709   1.330   3.479   5.422
 7270SOL    HW222710   1.390   3.594   5.323
 7271SOL     OW22711   0.297   6.047   3.724
 7271SOL    HW122712   0.262   6.128   3.677
 7271SOL    HW222713   0.309   6.068   3.821
 7272SOL     OW22714   6.142   5.533   2.615
 7272SOL    HW122715   6.090   5.448   2.615
 7272SOL    HW222716   6.224   5.522   2.559
 7273SOL     OW22717   6.496   4.575   1.886
 7273SOL    HW122718   6.461   4.569   1.792
 7273SOL    HW222719   6.513   4.670   1.910
 7274SOL     OW22720   0.272   5.158   6.220
 7274SOL    HW122721   0.264   5.231   6.152
 7274SOL    HW222722   0.195   5.163   6.283
 7275SOL     OW22723   0.077   6.158   2.319
 7275SOL    HW122724   0.161   6.107   2.338
 7275SOL    HW222725   0.093   6.256   2.332
 7276SOL     OW22726   3.915   1.014   3.553
 7276SOL    HW122727   3.871   1.096   3.515
 7276SOL    HW222728   3.954   1.035   3.642
 7277SOL     OW22729   4.322   1.029   3.956
 7277SOL    HW122730   4.224   1.009   3.963
 7277SOL    HW222731   4.359   1.048   4.047
 7278SOL     OW22732   3.654   2.532   1.311
 7278SOL    HW122733   3.668   2.440   1.274
 7278SOL    HW222734   3.599   2.526   1.394
 7279SOL     OW22735   4.767   4.170   5.914
 7279SOL    HW122736   4.755   4.263   5.950
 7279SOL    HW222737   4.799   4.176   5.819
 7280SOL     OW22738   0.430   1.683   3.553
 7280SOL    HW122739   0.503   1.618   3.577
 7280SOL    HW222740   0.413   1.744   3.631
 7281SOL     OW22741   1.916   1.177   0.681
 7281SOL    HW122742   1.928   1.078   0.676
 7281SOL    HW222743   1.932   1.218   0.591
 7282SOL     OW22744   5.947   5.568   2.115
 7282SOL    HW122745   5.890   5.580   2.196
 7282SOL    HW222746   5.973   5.658   2.079
 7283SOL     OW22747   4.932   0.496   2.729
 7283SOL    HW122748   4.902   0.572   2.787
 7283SOL    HW222749   5.029   0.477   2.746
 7284SOL     OW22750   0.264   2.764   5.846
 7284SOL    HW122751   0.313   2.800   5.926
 7284SOL    HW222752   0.329   2.749   5.771
 7285SOL     OW22753   5.563   3.246   2.424
 7285SOL    HW122754   5.620   3.318   2.386
 7285SOL    HW222755   5.545   3.265   2.521
 7286SOL     OW22756   1.964   1.124   1.166
 7286SOL    HW122757   1.911   1.043   1.139
 7286SOL    HW222758   1.989   1.175   1.084
 7287SOL     OW22759   0.636   2.714   5.408
 7287SOL    HW122760   0.665   2.810   5.408
 7287SOL    HW222761   0.603   2.690   5.318
 7288SOL     OW22762   1.870   1.249   2.086
 7288SOL    HW122763   1.786   1.280   2.041
 7288SOL    HW222764   1.902   1.165   2.042
 7289SOL     OW22765   5.873   1.901   3.996
 7289SOL    HW122766   5.851   1.906   3.898
 7289SOL    HW222767   5.806   1.843   4.042
 7290SOL     OW22768   3.862   1.927   5.650
 7290SOL    HW122769   3.787   1.955   5.591
 7290SOL    HW222770   3.835   1.847   5.704
 7291SOL     OW22771   0.691   6.852   0.127
 7291SOL    HW122772   0.737   6.889   0.046
 7291SOL    HW222773   0.724   6.900   0.209
 7292SOL     OW22774   3.126   0.469   3.340
 7292SOL    HW122775   3.156   0.543   3.280
 7292SOL    HW222776   3.031   0.446   3.319
 7293SOL     OW22777   1.449   2.032   4.799
 7293SOL    HW122778   1.527   1.972   4.783
 7293SOL    HW222779   1.462   2.117   4.747
 7294SOL     OW22780   2.572   4.484   6.860
 7294SOL    HW122781   2.480   4.505   6.893
 7294SOL    HW222782   2.598   4.392   6.891
 7295SOL     OW22783   5.981   3.826   1.348
 7295SOL    HW122784   6.035   3.898   1.392
 7295SOL    HW222785   6.042   3.755   1.313
 7296SOL     OW22786   3.585   6.183   1.990
 7296SOL    HW122787   3.562   6.121   2.066
 7296SOL    HW222788   3.679   6.165   1.961
 7297SOL     OW22789   3.675   0.053   1.422
 7297SOL    HW122790   3.675   7.026   1.504
 7297SOL    HW222791   3.592   0.110   1.420
 7298SOL     OW22792   4.956   5.241   6.066
 7298SOL    HW122793   4.918   5.290   6.145
 7298SOL    HW222794   4.908   5.269   5.984
 7299SOL     OW22795   1.050   2.545   1.183
 7299SOL    HW122796   1.143   2.576   1.201
 7299SOL    HW222797   1.011   2.507   1.267
 7300SOL     OW22798   0.437   6.704   1.984
 7300SOL    HW122799   0.358   6.665   2.030
 7300SOL    HW222800   0.516   6.700   2.045
 7301SOL     OW22801   5.716   1.725   4.438
 7301SOL    HW122802   5.634   1.677   4.470
 7301SOL    HW222803   5.797   1.672   4.461
 7302SOL     OW22804   0.838   2.433   5.608
 7302SOL    HW122805   0.749   2.462   5.575
 7302SOL    HW222806   0.838   2.430   5.708
 7303SOL     OW22807   4.050   0.963   6.876
 7303SOL    HW122808   4.141   0.944   6.839
 7303SOL    HW222809   4.048   1.056   6.913
 7304SOL     OW22810   2.962   5.455   1.638
 7304SOL    HW122811   2.932   5.517   1.710
 7304SOL    HW222812   2.989   5.509   1.557
 7305SOL     OW22813   5.346   1.103   0.753
 7305SOL    HW122814   5.289   1.115   0.672
 7305SOL    HW222815   5.295   1.127   0.835
 7306SOL     OW22816   4.481   1.680   0.928
 7306SOL    HW122817   4.436   1.633   1.005
 7306SOL    HW222818   4.439   1.651   0.842
 7307SOL     OW22819   2.611   6.571   2.849
 7307SOL    HW122820   2.538   6.535   2.791
 7307SOL    HW222821   2.674   6.625   2.793
 7308SOL     OW22822   6.895   2.937   4.973
 7308SOL    HW122823   6.979   2.884   4.967
 7308SOL    HW222824   6.903   3.019   4.918
 7309SOL     OW22825   4.069   4.960   0.664
 7309SOL    HW122826   4.104   4.889   0.724
 7309SOL    HW222827   4.133   4.976   0.589
 7310SOL     OW22828   2.642   4.222   0.598
 7310SOL    HW122829   2.667   4.131   0.566
 7310SOL    HW222830   2.685   4.291   0.540
 7311SOL     OW22831   1.811   2.038   1.681
 7311SOL    HW122832   1.854   2.017   1.769
 7311SOL    HW222833   1.783   2.134   1.679
 7312SOL     OW22834   1.160   3.334   4.940
 7312SOL    HW122835   1.199   3.407   4.883
 7312SOL    HW222836   1.161   3.248   4.889
 7313SOL     OW22837   2.224   0.939   1.077
 7313SOL    HW122838   2.276   0.872   1.130
 7313SOL    HW222839   2.126   0.923   1.089
 7314SOL     OW22840   0.022   5.211   6.426
 7314SOL    HW122841   6.998   5.157   6.490
 7314SOL    HW222842   7.009   5.207   6.335
 7315SOL     OW22843   6.112   6.070   1.682
 7315SOL    HW122844   6.109   6.110   1.774
 7315SOL    HW222845   6.145   6.138   1.617
 7316SOL     OW22846   3.815   3.582   6.618
 7316SOL    HW122847   3.906   3.621   6.631
 7316SOL    HW222848   3.810   3.537   6.529
 7317SOL     OW22849   4.733   1.490   2.172
 7317SOL    HW122850   4.669   1.496   2.095
 7317SOL    HW222851   4.681   1.479   2.257
 7318SOL     OW22852   3.000   0.398   1.905
 7318SOL    HW122853   2.971   0.304   1.922
 7318SOL    HW222854   2.998   0.450   1.990
 7319SOL     OW22855   6.647   3.171   6.801
 7319SOL    HW122856   6.615   3.247   6.857
 7319SOL    HW222857   6.745   3.180   6.783
 7320SOL     OW22858   0.935   3.749   2.304
 7320SOL    HW122859   0.955   3.836   2.349
 7320SOL    HW222860   0.900   3.684   2.371
 7321SOL     OW22861   1.218   6.693   6.501
 7321SOL    HW122862   1.206   6.599   6.467
 7321SOL    HW222863   1.175   6.701   6.591
 7322SOL     OW22864   7.027   2.945   2.970
 7322SOL    HW122865   6.973   3.023   2.939
 7322SOL    HW222866   0.086   2.976   3.002
 7323SOL     OW22867   2.344   2.718   1.139
 7323SOL    HW122868   2.315   2.778   1.064
 7323SOL    HW222869   2.332   2.765   1.226
 7324SOL     OW22870   5.511   6.073   1.562
 7324SOL    HW122871   5.588   6.136   1.566
 7324SOL    HW222872   5.467   6.068   1.652
 7325SOL     OW22873   2.638   0.696   6.406
 7325SOL    HW122874   2.588   0.775   6.441
 7325SOL    HW222875   2.634   0.622   6.474
 7326SOL     OW22876   2.703   6.466   6.722
 7326SOL    HW122877   2.612   6.433   6.744
 7326SOL    HW222878   2.726   6.441   6.628
 7327SOL     OW22879   6.246   1.729   5.773
 7327SOL    HW122880   6.205   1.821   5.771
 7327SOL    HW222881   6.325   1.729   5.835
 7328SOL     OW22882   3.805   0.552   5.977
 7328SOL    HW122883   3.872   0.592   6.038
 7328SOL    HW222884   3.838   0.464   5.943
 7329SOL     OW22885   1.067   3.406   0.987
 7329SOL    HW122886   1.152   3.377   1.031
 7329SOL    HW222887   1.083   3.424   0.890
 7330SOL     OW22888   1.867   2.823   6.902
 7330SOL    HW122889   1.815   2.907   6.919
 7330SOL    HW222890   1.944   2.844   6.842
 7331SOL     OW22891   5.333   5.962   1.370
 7331SOL    HW122892   5.249   6.016   1.374
 7331SOL    HW222893   5.406   6.009   1.420
 7332SOL     OW22894   3.400   6.066   6.753
 7332SOL    HW122895   3.308   6.040   6.782
 7332SOL    HW222896   3.459   6.074   6.833
 7333SOL     OW22897   6.648   3.171   2.533
 7333SOL    HW122898   6.707   3.250   2.516
 7333SOL    HW222899   6.556   3.191   2.501
 7334SOL     OW22900   2.146   5.748   6.302
 7334SOL    HW122901   2.103   5.823   6.251
 7334SOL    HW222902   2.080   5.673   6.313
 7335SOL     OW22903   0.754   2.932   3.274
 7335SOL    HW122904   0.757   2.884   3.187
 7335SOL    HW222905   0.713   2.873   3.344
 7336SOL     OW22906   1.835   6.701   2.822
 7336SOL    HW122907   1.899   6.706   2.745
 7336SOL    HW222908   1.869   6.634   2.889
 7337SOL     OW22909   0.773   2.919   0.943
 7337SOL    HW122910   0.821   2.876   1.018
 7337SOL    HW222911   0.738   3.009   0.972
 7338SOL     OW22912   4.995   1.501   2.126
 7338SOL    HW122913   4.900   1.479   2.148
 7338SOL    HW222914   5.004   1.515   2.028
 7339SOL     OW22915   6.082   0.875   4.575
 7339SOL    HW122916   6.063   0.783   4.609
 7339SOL    HW222917   6.058   0.942   4.645
 7340SOL     OW22918   3.029   1.243   0.387
 7340SOL    HW122919   3.017   1.157   0.437
 7340SOL    HW222920   3.119   1.244   0.343
 7341SOL     OW22921   0.601   4.273   5.906
 7341SOL    HW122922   0.648   4.323   5.978
 7341SOL    HW222923   0.668   4.227   5.848
 7342SOL     OW22924   6.798   1.057   0.015
 7342SOL    HW122925   6.699   1.041   0.022
 7342SOL    HW222926   6.839   0.987   6.985
 7343SOL     OW22927   6.334   4.504   2.114
 7343SOL    HW122928   6.248   4.554   2.102
 7343SOL    HW222929   6.391   4.517   2.032
 7344SOL     OW22930   0.447   0.795   6.211
 7344SOL    HW122931   0.478   0.834   6.298
 7344SOL    HW222932   0.385   0.858   6.166
 7345SOL     OW22933   4.981   5.077   5.498
 7345SOL    HW122934   4.907   5.135   5.532
 7345SOL    HW222935   5.054   5.135   5.462
 7346SOL     OW22936   4.561   5.060   1.759
 7346SOL    HW122937   4.644   5.103   1.796
 7346SOL    HW222938   4.580   4.964   1.737
 7347SOL     OW22939   0.259   2.535   0.692
 7347SOL    HW122940   0.242   2.464   0.761
 7347SOL    HW222941   0.350   2.574   0.705
 7348SOL     OW22942   1.591   3.938   4.188
 7348SOL    HW122943   1.536   4.018   4.213
 7348SOL    HW222944   1.601   3.933   4.089
 7349SOL     OW22945   5.091   1.808   1.319
 7349SOL    HW122946   5.072   1.719   1.278
 7349SOL    HW222947   5.115   1.795   1.415
 7350SOL     OW22948   1.924   2.876   5.675
 7350SOL    HW122949   1.837   2.829   5.665
 7350SOL    HW222950   1.948   2.920   5.588
 7351SOL     OW22951   5.000   6.690   4.890
 7351SOL    HW122952   5.100   6.695   4.891
 7351SOL    HW222953   4.963   6.760   4.830
 7352SOL     OW22954   2.092   2.196   3.142
 7352SOL    HW122955   2.037   2.136   3.084
 7352SOL    HW222956   2.032   2.254   3.197
 7353SOL     OW22957   0.776   0.640   6.498
 7353SOL    HW122958   0.763   0.704   6.422
 7353SOL    HW222959   0.860   0.589   6.486
 7354SOL     OW22960   7.028   1.561   5.740
 7354SOL    HW122961   7.016   1.560   5.641
 7354SOL    HW222962   7.000   1.650   5.777
 7355SOL     OW22963   1.993   0.524   1.011
 7355SOL    HW122964   1.928   0.459   1.050
 7355SOL    HW222965   1.949   0.613   1.002
 7356SOL     OW22966   4.083   3.997   5.805
 7356SOL    HW122967   4.042   4.011   5.715
 7356SOL    HW222968   4.175   3.959   5.794
 7357SOL     OW22969   4.140   6.671   1.873
 7357SOL    HW122970   4.054   6.708   1.837
 7357SOL    HW222971   4.207   6.745   1.881
 7358SOL     OW22972   6.075   3.325   2.980
 7358SOL    HW122973   6.164   3.337   2.935
 7358SOL    HW222974   6.028   3.413   2.984
 7359SOL     OW22975   2.718   1.530   6.595
 7359SOL    HW122976   2.739   1.455   6.532
 7359SOL    HW222977   2.798   1.589   6.604
 7360SOL     OW22978   2.939   3.742   5.688
 7360SOL    HW122979   2.869   3.672   5.673
 7360SOL    HW222980   3.002   3.743   5.611
 7361SOL     OW22981   4.408   0.094   2.208
 7361SOL    HW122982   4.432   7.026   2.204
 7361SOL    HW222983   4.490   0.147   2.228
 7362SOL     OW22984   1.522   4.767   4.761
 7362SOL    HW122985   1.464   4.848   4.757
 7362SOL    HW222986   1.470   4.687   4.733
 7363SOL     OW22987   4.489   1.922   1.469
 7363SOL    HW122988   4.562   1.904   1.534
 7363SOL    HW222989   4.417   1.976   1.513
 7364SOL     OW22990   4.653   0.712   1.875
 7364SOL    HW122991   4.597   0.783   1.832
 7364SOL    HW222992   4.740   0.751   1.905
 7365SOL     OW22993   0.529   5.562   1.922
 7365SOL    HW122994   0.513   5.525   2.014
 7365SOL    HW222995   0.507   5.492   1.854
 7366SOL     OW22996   2.282   5.679   6.697
 7366SOL    HW122997   2.278   5.579   6.699
 7366SOL    HW222998   2.195   5.717   6.727
 7367SOL     OW22999   5.130   2.162   1.221
 7367SOL    HW123000   5.195   2.090   1.245
 7367SOL    HW223001   5.040   2.121   1.202
 7368SOL     OW23002   3.741   2.906   2.725
 7368SOL    HW123003   3.694   2.819   2.742
 7368SOL    HW223004   3.775   2.943   2.811
 7369SOL     OW23005   4.070   2.754   6.987
 7369SOL    HW123006   4.115   2.825   0.012
 7369SOL    HW223007   4.051   2.674   0.015
 7370SOL     OW23008   2.675   0.537   4.368
 7370SOL    HW123009   2.576   0.523   4.369
 7370SOL    HW223010   2.718   0.459   4.322
 7371SOL     OW23011   1.953   6.498   3.531
 7371SOL    HW123012   1.961   6.582   3.477
 7371SOL    HW223013   1.885   6.437   3.490
 7372SOL     OW23014   4.324   1.112   4.329
 7372SOL    HW123015   4.360   1.148   4.415
 7372SOL    HW223016   4.315   1.186   4.263
 7373SOL     OW23017   6.086   1.605   4.022
 7373SOL    HW123018   6.122   1.523   4.067
 7373SOL    HW223019   6.129   1.616   3.933
 7374SOL     OW23020   2.604   1.682   5.253
 7374SOL    HW123021   2.549   1.740   5.192
 7374SOL    HW223022   2.545   1.644   5.324
 7375SOL     OW23023   2.078   2.665   3.192
 7375SOL    HW123024   2.111   2.673   3.286
 7375SOL    HW223025   2.125   2.588   3.147
 7376SOL     OW23026   2.566   1.112   0.456
 7376SOL    HW123027   2.536   1.205   0.438
 7376SOL    HW223028   2.665   1.106   0.445
 7377SOL     OW23029   5.972   4.566   0.550
 7377SOL    HW123030   6.049   4.628   0.563
 7377SOL    HW223031   6.002   4.484   0.500
 7378SOL     OW23032   0.167   0.845   5.932
 7378SOL    HW123033   0.222   0.914   5.883
 7378SOL    HW223034   0.193   0.844   6.028
 7379SOL     OW23035   2.808   1.860   3.142
 7379SOL    HW123036   2.787   1.763   3.154
 7379SOL    HW223037   2.907   1.874   3.151
 7380SOL     OW23038   6.658   4.557   4.470
 7380SOL    HW123039   6.676   4.650   4.501
 7380SOL    HW223040   6.595   4.559   4.393
 7381SOL     OW23041   4.590   3.943   0.994
 7381SOL    HW123042   4.668   3.925   1.054
 7381SOL    HW223043   4.559   4.037   1.008
 7382SOL     OW23044   6.989   6.150   5.691
 7382SOL    HW123045   6.973   6.058   5.655
 7382SOL    HW223046   6.915   6.211   5.660
 7383SOL     OW23047   1.831   6.941   1.052
 7383SOL    HW123048   1.752   6.965   0.996
 7383SOL    HW223049   1.835   7.002   1.132
 7384SOL     OW23050   6.184   6.796   2.399
 7384SOL    HW123051   6.277   6.783   2.433
 7384SOL    HW223052   6.165   6.894   2.389
 7385SOL     OW23053   3.895   6.063   2.157
 7385SOL    HW123054   3.907   6.076   2.255
 7385SOL    HW223055   3.802   6.030   2.139
 7386SOL     OW23056   0.364   1.980   5.986
 7386SOL    HW123057   0.422   1.902   6.010
 7386SOL    HW223058   0.413   2.065   6.005
 7387SOL     OW23059   5.640   6.565   4.504
 7387SOL    HW123060   5.723   6.583   4.451
 7387SOL    HW223061   5.644   6.616   4.589
 7388SOL     OW23062   0.315   4.992   2.147
 7388SOL    HW123063   0.275   5.082   2.133
 7388SOL    HW223064   0.414   5.000   2.158
 7389SOL     OW23065   6.571   3.810   6.349
 7389SOL    HW123066   6.653   3.771   6.307
 7389SOL    HW223067   6.490   3.780   6.299
 7390SOL     OW23068   1.225   1.875   0.334
 7390SOL    HW123069   1.142   1.928   0.320
 7390SOL    HW223070   1.283   1.882   0.253
 7391SOL     OW23071   3.959   3.881   3.931
 7391SOL    HW123072   3.922   3.947   3.996
 7391SOL    HW223073   3.989   3.799   3.979
 7392SOL     OW23074   2.594   6.370   0.050
 7392SOL    HW123075   2.625   6.349   0.142
 7392SOL    HW223076   2.640   6.452   0.017
 7393SOL     OW23077   6.042   4.046   3.090
 7393SOL    HW123078   6.005   4.122   3.037
 7393SOL    HW223079   5.990   4.036   3.175
 7394SOL     OW23080   2.197   3.011   6.094
 7394SOL    HW123081   2.171   2.969   6.181
 7394SOL    HW223082   2.127   2.991   6.025
 7395SOL     OW23083   1.641   2.823   1.066
 7395SOL    HW123084   1.734   2.840   1.099
 7395SOL    HW223085   1.626   2.876   0.983
 7396SOL     OW23086   1.407   6.776   1.073
 7396SOL    HW123087   1.424   6.874   1.056
 7396SOL    HW223088   1.469   6.722   1.016
 7397SOL     OW23089   4.346   5.128   4.721
 7397SOL    HW123090   4.398   5.213   4.721
 7397SOL    HW223091   4.323   5.103   4.815
 7398SOL     OW23092   2.355   4.756   4.794
 7398SOL    HW123093   2.360   4.811   4.710
 7398SOL    HW223094   2.447   4.743   4.831
 7399SOL     OW23095   1.093   2.759   5.288
 7399SOL    HW123096   1.163   2.712   5.235
 7399SOL    HW223097   1.033   2.691   5.331
 7400SOL     OW23098   3.913   2.377   5.649
 7400SOL    HW123099   3.936   2.342   5.740
 7400SOL    HW223100   3.898   2.476   5.655
 7401SOL     OW23101   1.576   1.854   4.522
 7401SOL    HW123102   1.540   1.940   4.484
 7401SOL    HW223103   1.646   1.874   4.590
 7402SOL     OW23104   2.954   6.188   6.557
 7402SOL    HW123105   2.930   6.094   6.533
 7402SOL    HW223106   2.883   6.251   6.523
 7403SOL     OW23107   2.111   3.537   2.212
 7403SOL    HW123108   2.177   3.528   2.138
 7403SOL    HW223109   2.020   3.555   2.174
 7404SOL     OW23110   2.720   5.330   1.614
 7404SOL    HW123111   2.706   5.265   1.539
 7404SOL    HW223112   2.808   5.376   1.603
 7405SOL     OW23113   3.784   4.892   4.591
 7405SOL    HW123114   3.700   4.904   4.538
 7405SOL    HW223115   3.863   4.889   4.529
 7406SOL     OW23116   0.158   2.487   3.419
 7406SOL    HW123117   0.216   2.417   3.463
 7406SOL    HW223118   0.151   2.566   3.479
 7407SOL     OW23119   1.017   0.088   5.216
 7407SOL    HW123120   1.104   0.115   5.173
 7407SOL    HW223121   0.941   0.123   5.161
 7408SOL     OW23122   3.353   3.786   6.859
 7408SOL    HW123123   3.257   3.814   6.861
 7408SOL    HW223124   3.368   3.723   6.782
 7409SOL     OW23125   5.626   2.223   0.120
 7409SOL    HW123126   5.577   2.146   0.079
 7409SOL    HW223127   5.676   2.273   0.048
 7410SOL     OW23128   0.121   6.788   0.659
 7410SOL    HW123129   0.221   6.795   0.657
 7410SOL    HW223130   0.085   6.846   0.732
 7411SOL     OW23131   2.186   6.937   6.082
 7411SOL    HW123132   2.271   6.980   6.052
 7411SOL    HW223133   2.110   7.001   6.069
 7412SOL     OW23134   5.220   0.616   1.978
 7412SOL    HW123135   5.317   0.605   2.000
 7412SOL    HW223136   5.170   0.533   2.002
 7413SOL     OW23137   5.273   5.824   4.228
 7413SOL    HW123138   5.180   5.801   4.199
 7413SOL    HW223139   5.338   5.765   4.179
 7414SOL     OW23140   0.536   0.564   3.846
 7414SOL    HW123141   0.619   0.516   3.871
 7414SOL    HW223142   0.513   0.544   3.750
 7415SOL     OW23143   1.608   5.007   3.663
 7415SOL    HW123144   1.510   4.990   3.650
 7415SOL    HW223145   1.620   5.082   3.728
 7416SOL     OW23146   2.054   1.252   2.671
 7416SOL    HW123147   2.022   1.347   2.678
 7416SOL    HW223148   2.046   1.208   2.761
 7417SOL     OW23149   1.357   1.503   0.418
 7417SOL    HW123150   1.365   1.595   0.456
 7417SOL    HW223151   1.367   1.436   0.491
 7418SOL     OW23152   2.708   5.990   0.349
 7418SOL    HW123153   2.693   6.054   0.424
 7418SOL    HW223154   2.730   5.900   0.385
 7419SOL     OW23155   6.481   2.969   3.924
 7419SOL    HW123156   6.508   2.906   3.851
 7419SOL    HW223157   6.513   2.933   4.012
 7420SOL     OW23158   0.315   6.950   1.292
 7420SOL    HW123159   0.302   0.020   1.291
 7420SOL    HW223160   0.393   6.926   1.234
 7421SOL     OW23161   4.291   4.558   0.940
 7421SOL    HW123162   4.391   4.555   0.936
 7421SOL    HW223163   4.258   4.644   0.901
 7422SOL     OW23164   0.520   3.810   2.317
 7422SOL    HW123165   0.524   3.770   2.226
 7422SOL    HW223166   0.557   3.745   2.384
 7423SOL     OW23167   5.884   2.662   5.433
 7423SOL    HW123168   5.871   2.625   5.525
 7423SOL    HW223169   5.968   2.624   5.394
 7424SOL     OW23170   6.552   6.521   5.825
 7424SOL    HW123171   6.641   6.558   5.849
 7424SOL    HW223172   6.563   6.441   5.767
 7425SOL     OW23173   3.982   6.242   6.562
 7425SOL    HW123174   3.929   6.318   6.601
 7425SOL    HW223175   4.027   6.192   6.636
 7426SOL     OW23176   3.013   1.643   5.651
 7426SOL    HW123177   3.102   1.633   5.696
 7426SOL    HW223178   3.020   1.711   5.578
 7427SOL     OW23179   4.284   0.904   3.640
 7427SOL    HW123180   4.253   0.810   3.656
 7427SOL    HW223181   4.383   0.908   3.644
 7428SOL     OW23182   4.242   1.935   5.360
 7428SOL    HW123183   4.303   2.006   5.393
 7428SOL    HW223184   4.147   1.960   5.380
 7429SOL     OW23185   0.076   6.547   4.340
 7429SOL    HW123186   0.051   6.644   4.343
 7429SOL    HW223187   0.023   6.497   4.409
 7430SOL     OW23188   1.473   3.574   0.350
 7430SOL    HW123189   1.457   3.499   0.414
 7430SOL    HW223190   1.493   3.537   0.259
 7431SOL     OW23191   1.678   2.846   3.444
 7431SOL    HW123192   1.745   2.875   3.375
 7431SOL    HW223193   1.685   2.905   3.524
 7432SOL     OW23194   0.761   1.008   3.225
 7432SOL    HW123195   0.729   1.083   3.167
 7432SOL    HW223196   0.842   1.037   3.275
 7433SOL     OW23197   4.366   6.055   5.803
 7433SOL    HW123198   4.443   6.101   5.757
 7433SOL    HW223199   4.285   6.061   5.745
 7434SOL     OW23200   4.848   6.152   5.666
 7434SOL    HW123201   4.944   6.177   5.659
 7434SOL    HW223202   4.838   6.067   5.717
 7435SOL     OW23203   3.762   5.684   1.078
 7435SOL    HW123204   3.695   5.682   1.151
 7435SOL    HW223205   3.718   5.664   0.991
 7436SOL     OW23206   4.992   3.932   6.044
 7436SOL    HW123207   5.046   3.937   6.128
 7436SOL    HW223208   5.008   4.014   5.989
 7437SOL     OW23209   1.865   5.850   0.273
 7437SOL    HW123210   1.817   5.768   0.240
 7437SOL    HW223211   1.959   5.848   0.241
 7438SOL     OW23212   1.387   5.994   0.174
 7438SOL    HW123213   1.440   6.007   0.257
 7438SOL    HW223214   1.319   5.922   0.189
 7439SOL     OW23215   1.587   6.562   5.694
 7439SOL    HW123216   1.583   6.522   5.786
 7439SOL    HW223217   1.631   6.498   5.631
 7440SOL     OW23218   0.236   2.655   4.769
 7440SOL    HW123219   0.299   2.611   4.706
 7440SOL    HW223220   0.212   2.746   4.734
 7441SOL     OW23221   5.037   6.492   4.268
 7441SOL    HW123222   5.090   6.408   4.255
 7441SOL    HW223223   5.086   6.569   4.227
 7442SOL     OW23224   6.400   1.090   5.919
 7442SOL    HW123225   6.422   1.165   5.857
 7442SOL    HW223226   6.334   1.122   5.988
 7443SOL     OW23227   6.954   6.276   1.689
 7443SOL    HW123228   0.001   6.296   1.749
 7443SOL    HW223229   6.943   6.351   1.623
 7444SOL     OW23230   5.735   2.111   5.435
 7444SOL    HW123231   5.778   2.053   5.505
 7444SOL    HW223232   5.639   2.084   5.424
 7445SOL     OW23233   4.006   0.968   1.099
 7445SOL    HW123234   3.992   1.040   1.031
 7445SOL    HW223235   3.951   0.888   1.075
 7446SOL     OW23236   6.034   3.267   1.102
 7446SOL    HW123237   6.105   3.198   1.119
 7446SOL    HW223238   6.050   3.308   1.012
 7447SOL     OW23239   6.482   3.013   0.043
 7447SOL    HW123240   6.483   2.914   0.027
 7447SOL    HW223241   6.570   3.052   0.017
 7448SOL     OW23242   6.073   6.790   5.116
 7448SOL    HW123243   6.041   6.781   5.022
 7448SOL    HW223244   6.155   6.847   5.118
 7449SOL     OW23245   0.772   4.191   1.933
 7449SOL    HW123246   0.816   4.199   1.843
 7449SOL    HW223247   0.702   4.119   1.929
 7450SOL     OW23248   5.452   2.369   5.033
 7450SOL    HW123249   5.405   2.419   4.960
 7450SOL    HW223250   5.422   2.273   5.032
 7451SOL     OW23251   6.859   6.366   2.959
 7451SOL    HW123252   6.765   6.336   2.972
 7451SOL    HW223253   6.920   6.287   2.960
 7452SOL     OW23254   6.112   6.632   4.433
 7452SOL    HW123255   6.152   6.624   4.524
 7452SOL    HW223256   6.185   6.649   4.366
 7453SOL     OW23257   4.864   6.407   5.777
 7453SOL    HW123258   4.849   6.318   5.734
 7453SOL    HW223259   4.794   6.423   5.847
 7454SOL     OW23260   0.949   2.211   1.863
 7454SOL    HW123261   0.972   2.298   1.906
 7454SOL    HW223262   0.989   2.207   1.771
 7455SOL     OW23263   6.463   2.841   2.108
 7455SOL    HW123264   6.420   2.889   2.032
 7455SOL    HW223265   6.529   2.774   2.073
 7456SOL     OW23266   1.391   1.256   3.961
 7456SOL    HW123267   1.443   1.303   3.890
 7456SOL    HW223268   1.452   1.198   4.015
 7457SOL     OW23269   3.288   0.500   5.983
 7457SOL    HW123270   3.236   0.428   6.028
 7457SOL    HW223271   3.380   0.465   5.961
 7458SOL     OW23272   1.337   6.336   5.634
 7458SOL    HW123273   1.320   6.362   5.729
 7458SOL    HW223274   1.427   6.292   5.627
 7459SOL     OW23275   4.823   0.357   2.305
 7459SOL    HW123276   4.854   0.443   2.347
 7459SOL    HW223277   4.744   0.322   2.355
 7460SOL     OW23278   1.080   5.010   0.522
 7460SOL    HW123279   1.047   4.996   0.429
 7460SOL    HW223280   1.142   5.089   0.523
 7461SOL     OW23281   5.923   0.660   6.338
 7461SOL    HW123282   5.848   0.669   6.272
 7461SOL    HW223283   5.920   0.569   6.379
 7462SOL     OW23284   1.931   3.890   2.337
 7462SOL    HW123285   1.924   3.799   2.377
 7462SOL    HW223286   1.963   3.882   2.242
 7463SOL     OW23287   3.155   5.075   0.284
 7463SOL    HW123288   3.241   5.081   0.335
 7463SOL    HW223289   3.133   4.979   0.268
 7464SOL     OW23290   5.442   0.075   5.693
 7464SOL    HW123291   5.350   0.108   5.672
 7464SOL    HW223292   5.457   7.015   5.651
 7465SOL     OW23293   1.991   5.444   6.883
 7465SOL    HW123294   2.042   5.468   6.800
 7465SOL    HW223295   1.939   5.524   6.914
 7466SOL     OW23296   0.548   0.891   4.695
 7466SOL    HW123297   0.610   0.967   4.676
 7466SOL    HW223298   0.597   0.805   4.686
 7467SOL     OW23299   0.576   1.464   0.581
 7467SOL    HW123300   0.592   1.380   0.528
 7467SOL    HW223301   0.651   1.528   0.566
 7468SOL     OW23302   5.786   2.891   3.314
 7468SOL    HW123303   5.785   2.834   3.397
 7468SOL    HW223304   5.822   2.981   3.336
 7469SOL     OW23305   6.423   0.493   0.714
 7469SOL    HW123306   6.372   0.579   0.720
 7469SOL    HW223307   6.395   0.444   0.631
 7470SOL     OW23308   6.286   3.947   3.218
 7470SOL    HW123309   6.293   3.930   3.316
 7470SOL    HW223310   6.193   3.927   3.187
 7471SOL     OW23311   5.467   6.868   5.554
 7471SOL    HW123312   5.411   6.854   5.472
 7471SOL    HW223313   5.495   6.780   5.590
 7472SOL     OW23314   5.942   0.330   5.609
 7472SOL    HW123315   5.882   0.259   5.648
 7472SOL    HW223316   5.981   0.297   5.523
 7473SOL     OW23317   5.844   5.696   3.857
 7473SOL    HW123318   5.879   5.788   3.843
 7473SOL    HW223319   5.918   5.630   3.843
 7474SOL     OW23320   0.846   1.547   6.180
 7474SOL    HW123321   0.821   1.576   6.272
 7474SOL    HW223322   0.806   1.610   6.113
 7475SOL     OW23323   4.818   2.511   2.644
 7475SOL    HW123324   4.762   2.436   2.678
 7475SOL    HW223325   4.868   2.481   2.563
 7476SOL     OW23326   3.233   0.359   3.938
 7476SOL    HW123327   3.328   0.356   3.906
 7476SOL    HW223328   3.219   0.444   3.989
 7477SOL     OW23329   0.491   1.394   5.959
 7477SOL    HW123330   0.456   1.328   6.025
 7477SOL    HW223331   0.590   1.381   5.947
 7478SOL     OW23332   5.619   3.960   5.626
 7478SOL    HW123333   5.628   4.031   5.695
 7478SOL    HW223334   5.531   3.914   5.637
 7479SOL     OW23335   4.208   2.272   2.229
 7479SOL    HW123336   4.109   2.265   2.220
 7479SOL    HW223337   4.242   2.344   2.168
 7480SOL     OW23338   1.262   4.475   2.426
 7480SOL    HW123339   1.321   4.437   2.497
 7480SOL    HW223340   1.170   4.437   2.436
 7481SOL     OW23341   6.095   5.653   0.932
 7481SOL    HW123342   6.059   5.571   0.888
 7481SOL    HW223343   6.060   5.660   1.025
 7482SOL     OW23344   4.622   2.605   3.062
 7482SOL    HW123345   4.633   2.553   3.147
 7482SOL    HW223346   4.568   2.550   2.997
 7483SOL     OW23347   4.917   3.003   4.586
 7483SOL    HW123348   4.877   3.053   4.663
 7483SOL    HW223349   5.015   3.022   4.581
 7484SOL     OW23350   1.395   6.891   4.835
 7484SOL    HW123351   1.356   6.934   4.917
 7484SOL    HW223352   1.410   6.794   4.853
 7485SOL     OW23353   3.415   6.789   4.567
 7485SOL    HW123354   3.399   6.847   4.488
 7485SOL    HW223355   3.327   6.761   4.607
 7486SOL     OW23356   1.943   6.233   0.363
 7486SOL    HW123357   2.010   6.169   0.401
 7486SOL    HW223358   1.861   6.183   0.336
 7487SOL     OW23359   1.803   7.029   3.300
 7487SOL    HW123360   1.781   0.093   3.273
 7487SOL    HW223361   1.718   6.976   3.306
 7488SOL     OW23362   2.748   6.283   4.121
 7488SOL    HW123363   2.804   6.260   4.200
 7488SOL    HW223364   2.699   6.201   4.090
 7489SOL     OW23365   6.071   2.312   5.611
 7489SOL    HW123366   6.125   2.392   5.635
 7489SOL    HW223367   6.011   2.334   5.534
 7490SOL     OW23368   1.237   0.132   2.507
 7490SOL    HW123369   1.209   0.089   2.593
 7490SOL    HW223370   1.330   0.105   2.485
 7491SOL     OW23371   5.063   2.879   6.846
 7491SOL    HW123372   5.155   2.857   6.816
 7491SOL    HW223373   5.039   2.972   6.817
 7492SOL     OW23374   1.732   0.257   3.242
 7492SOL    HW123375   1.813   0.315   3.225
 7492SOL    HW223376   1.688   0.286   3.327
 7493SOL     OW23377   0.412   3.188   6.926
 7493SOL    HW123378   0.369   3.254   6.865
 7493SOL    HW223379   0.341   3.146   6.984
 7494SOL     OW23380   5.334   1.841   2.821
 7494SOL    HW123381   5.295   1.753   2.792
 7494SOL    HW223382   5.276   1.882   2.891
 7495SOL     OW23383   1.734   1.968   6.572
 7495SOL    HW123384   1.776   2.022   6.645
 7495SOL    HW223385   1.636   1.963   6.586
 7496SOL     OW23386   6.355   3.583   4.137
 7496SOL    HW123387   6.423   3.656   4.128
 7496SOL    HW223388   6.301   3.599   4.219
 7497SOL     OW23389   2.851   4.550   6.828
 7497SOL    HW123390   2.906   4.476   6.869
 7497SOL    HW223391   2.757   4.519   6.818
 7498SOL     OW23392   3.112   0.497   5.265
 7498SOL    HW123393   3.062   0.541   5.190
 7498SOL    HW223394   3.204   0.535   5.269
 7499SOL     OW23395   3.687   1.015   3.175
 7499SOL    HW123396   3.660   0.936   3.230
 7499SOL    HW223397   3.786   1.025   3.176
 7500SOL     OW23398   3.239   5.654   3.090
 7500SOL    HW123399   3.272   5.567   3.052
 7500SOL    HW223400   3.212   5.715   3.016
 7501SOL     OW23401   5.216   3.681   4.716
 7501SOL    HW123402   5.142   3.701   4.779
 7501SOL    HW223403   5.196   3.720   4.626
 7502SOL     OW23404   3.228   0.814   4.694
 7502SOL    HW123405   3.158   0.770   4.749
 7502SOL    HW223406   3.198   0.818   4.598
 7503SOL     OW23407   1.499   0.035   1.063
 7503SOL    HW123408   1.478   0.132   1.051
 7503SOL    HW223409   1.556   0.022   1.144
 7504SOL     OW23410   0.722   6.511   3.560
 7504SOL    HW123411   0.764   6.421   3.570
 7504SOL    HW223412   0.679   6.518   3.471
 7505SOL     OW23413   1.700   2.941   5.886
 7505SOL    HW123414   1.609   2.973   5.863
 7505SOL    HW223415   1.768   2.989   5.830
 7506SOL     OW23416   5.001   1.420   3.241
 7506SOL    HW123417   5.093   1.379   3.240
 7506SOL    HW223418   4.942   1.368   3.179
 7507SOL     OW23419   0.051   1.471   2.563
 7507SOL    HW123420   0.069   1.493   2.659
 7507SOL    HW223421   6.984   1.450   2.552
 7508SOL     OW23422   1.330   0.008   1.761
 7508SOL    HW123423   1.371   0.042   1.676
 7508SOL    HW223424   1.283   6.951   1.744
 7509SOL     OW23425   6.082   4.033   0.730
 7509SOL    HW123426   6.179   4.053   0.745
 7509SOL    HW223427   6.036   4.024   0.818
 7510SOL     OW23428   3.564   3.314   5.290
 7510SOL    HW123429   3.502   3.392   5.299
 7510SOL    HW223430   3.538   3.261   5.210
 7511SOL     OW23431   2.673   5.998   4.129
 7511SOL    HW123432   2.575   5.976   4.136
 7511SOL    HW223433   2.725   5.940   4.192
 7512SOL     OW23434   2.715   6.766   6.591
 7512SOL    HW123435   2.742   6.719   6.675
 7512SOL    HW223436   2.649   6.710   6.541
 7513SOL     OW23437   1.717   1.078   1.645
 7513SOL    HW123438   1.717   1.029   1.558
 7513SOL    HW223439   1.788   1.149   1.643
 7514SOL     OW23440   2.812   5.465   2.001
 7514SOL    HW123441   2.832   5.368   1.988
 7514SOL    HW223442   2.858   5.519   1.930
 7515SOL     OW23443   6.927   5.325   4.738
 7515SOL    HW123444   7.000   5.286   4.681
 7515SOL    HW223445   6.863   5.375   4.680
 7516SOL     OW23446   6.602   5.972   6.134
 7516SOL    HW123447   6.507   6.003   6.135
 7516SOL    HW223448   6.627   5.946   6.041
 7517SOL     OW23449   0.524   2.151   0.625
 7517SOL    HW123450   0.620   2.173   0.610
 7517SOL    HW223451   0.513   2.052   0.633
 7518SOL     OW23452   4.422   4.775   4.060
 7518SOL    HW123453   4.432   4.859   4.115
 7518SOL    HW223454   4.357   4.714   4.104
 7519SOL     OW23455   0.396   6.600   4.271
 7519SOL    HW123456   0.299   6.582   4.288
 7519SOL    HW223457   0.451   6.542   4.331
 7520SOL     OW23458   2.678   0.084   1.951
 7520SOL    HW123459   2.639   0.028   2.023
 7520SOL    HW223460   2.634   0.062   1.864
 7521SOL     OW23461   4.585   3.031   5.607
 7521SOL    HW123462   4.648   2.998   5.537
 7521SOL    HW223463   4.503   3.069   5.564
 7522SOL     OW23464   1.663   1.471   5.909
 7522SOL    HW123465   1.629   1.565   5.917
 7522SOL    HW223466   1.639   1.420   5.991
 7523SOL     OW23467   5.406   0.071   6.345
 7523SOL    HW123468   5.427   0.018   6.428
 7523SOL    HW223469   5.484   0.128   6.321
 7524SOL     OW23470   1.284   2.618   5.147
 7524SOL    HW123471   1.246   2.607   5.055
 7524SOL    HW223472   1.367   2.673   5.142
 7525SOL     OW23473   3.256   0.579   6.304
 7525SOL    HW123474   3.250   0.507   6.235
 7525SOL    HW223475   3.253   0.668   6.258
 7526SOL     OW23476   3.913   3.370   1.193
 7526SOL    HW123477   3.821   3.338   1.217
 7526SOL    HW223478   3.977   3.343   1.265
 7527SOL     OW23479   3.087   5.716   3.541
 7527SOL    HW123480   2.997   5.741   3.506
 7527SOL    HW223481   3.090   5.618   3.561
 7528SOL     OW23482   6.415   2.121   0.633
 7528SOL    HW123483   6.323   2.111   0.595
 7528SOL    HW223484   6.412   2.101   0.731
 7529SOL     OW23485   5.090   1.533   4.428
 7529SOL    HW123486   5.162   1.599   4.451
 7529SOL    HW223487   5.124   1.470   4.358
 7530SOL     OW23488   0.416   3.041   2.235
 7530SOL    HW123489   0.332   3.088   2.264
 7530SOL    HW223490   0.392   2.960   2.182
 7531SOL     OW23491   5.621   2.851   4.496
 7531SOL    HW123492   5.715   2.830   4.466
 7531SOL    HW223493   5.624   2.895   4.585
 7532SOL     OW23494   4.495   6.087   0.099
 7532SOL    HW123495   4.510   6.099   0.001
 7532SOL    HW223496   4.528   5.996   0.126
 7533SOL     OW23497   3.650   1.258   1.594
 7533SOL    HW123498   3.727   1.263   1.530
 7533SOL    HW223499   3.565   1.255   1.542
 7534SOL     OW23500   4.013   6.381   4.941
 7534SOL    HW123501   3.968   6.340   4.861
 7534SOL    HW223502   3.996   6.323   5.021
 7535SOL     OW23503   2.065   0.622   4.587
 7535SOL    HW123504   2.153   0.664   4.566
 7535SOL    HW223505   2.057   0.536   4.537
 7536SOL     OW23506   5.069   4.731   4.325
 7536SOL    HW123507   4.989   4.775   4.365
 7536SOL    HW223508   5.108   4.791   4.255
 7537SOL     OW23509   2.672   5.846   1.918
 7537SOL    HW123510   2.602   5.880   1.856
 7537SOL    HW223511   2.748   5.808   1.866
 7538SOL     OW23512   2.227   2.473   1.185
 7538SOL    HW123513   2.279   2.548   1.144
 7538SOL    HW223514   2.251   2.388   1.139
 7539SOL     OW23515   1.877   3.780   3.759
 7539SOL    HW123516   1.964   3.735   3.736
 7539SOL    HW223517   1.823   3.719   3.816
 7540SOL     OW23518   3.861   0.592   4.914
 7540SOL    HW123519   3.904   0.622   4.828
 7540SOL    HW223520   3.764   0.616   4.912
 7541SOL     OW23521   0.496   4.468   5.348
 7541SOL    HW123522   0.507   4.413   5.431
 7541SOL    HW223523   0.418   4.529   5.359
 7542SOL     OW23524   1.287   5.134   0.098
 7542SOL    HW123525   1.301   5.112   0.194
 7542SOL    HW223526   1.232   5.218   0.091
 7543SOL     OW23527   3.961   1.323   5.591
 7543SOL    HW123528   3.979   1.228   5.616
 7543SOL    HW223529   4.041   1.361   5.544
 7544SOL     OW23530   6.626   2.445   2.610
 7544SOL    HW123531   6.552   2.407   2.555
 7544SOL    HW223532   6.630   2.399   2.698
 7545SOL     OW23533   0.401   5.312   0.090
 7545SOL    HW123534   0.465   5.236   0.079
 7545SOL    HW223535   0.421   5.383   0.022
 7546SOL     OW23536   3.588   1.984   1.119
 7546SOL    HW123537   3.680   2.023   1.127
 7546SOL    HW223538   3.545   1.981   1.209
 7547SOL     OW23539   5.340   1.712   0.252
 7547SOL    HW123540   5.329   1.781   0.323
 7547SOL    HW223541   5.255   1.703   0.200
 7548SOL     OW23542   4.318   2.306   0.396
 7548SOL    HW123543   4.248   2.377   0.395
 7548SOL    HW223544   4.375   2.317   0.477
 7549SOL     OW23545   3.353   2.698   6.976
 7549SOL    HW123546   3.393   2.610   6.949
 7549SOL    HW223547   3.257   2.700   6.949
 7550SOL     OW23548   1.950   4.830   3.605
 7550SOL    HW123549   2.023   4.813   3.539
 7550SOL    HW223550   1.872   4.870   3.558
 7551SOL     OW23551   5.470   3.178   5.691
 7551SOL    HW123552   5.392   3.115   5.696
 7551SOL    HW223553   5.550   3.135   5.732
 7552SOL     OW23554   1.413   5.961   2.649
 7552SOL    HW123555   1.393   5.884   2.588
 7552SOL    HW223556   1.327   6.003   2.679
 7553SOL     OW23557   3.904   6.607   5.605
 7553SOL    HW123558   3.851   6.687   5.575
 7553SOL    HW223559   3.945   6.627   5.694
 7554SOL     OW23560   5.180   0.904   6.741
 7554SOL    HW123561   5.272   0.876   6.714
 7554SOL    HW223562   5.186   0.988   6.795
 7555SOL     OW23563   2.279   4.950   6.498
 7555SOL    HW123564   2.339   4.870   6.495
 7555SOL    HW223565   2.191   4.928   6.456
 7556SOL     OW23566   2.215   3.112   0.844
 7556SOL    HW123567   2.220   3.148   0.751
 7556SOL    HW223568   2.145   3.162   0.896
 7557SOL     OW23569   5.428   0.468   6.043
 7557SOL    HW123570   5.458   0.379   6.010
 7557SOL    HW223571   5.507   0.523   6.069
 7558SOL     OW23572   2.185   2.531   4.717
 7558SOL    HW123573   2.280   2.560   4.729
 7558SOL    HW223574   2.123   2.604   4.748
 7559SOL     OW23575   4.492   3.617   0.570
 7559SOL    HW123576   4.537   3.650   0.487
 7559SOL    HW223577   4.501   3.686   0.642
 7560SOL     OW23578   4.653   6.726   0.954
 7560SOL    HW123579   4.712   6.752   1.031
 7560SOL    HW223580   4.596   6.649   0.981
 7561SOL     OW23581   0.753   3.044   6.796
 7561SOL    HW123582   0.668   3.028   6.846
 7561SOL    HW223583   0.731   3.079   6.705
 7562SOL     OW23584   0.642   5.552   5.186
 7562SOL    HW123585   0.574   5.625   5.196
 7562SOL    HW223586   0.598   5.470   5.151
 7563SOL     OW23587   2.982   0.047   1.277
 7563SOL    HW123588   3.060   0.074   1.333
 7563SOL    HW223589   3.013   0.026   1.184
 7564SOL     OW23590   3.963   0.128   3.803
 7564SOL    HW123591   3.949   0.150   3.900
 7564SOL    HW223592   3.926   0.037   3.784
 7565SOL     OW23593   5.522   2.923   6.550
 7565SOL    HW123594   5.535   3.022   6.558
 7565SOL    HW223595   5.475   2.903   6.464
 7566SOL     OW23596   6.870   4.722   3.228
 7566SOL    HW123597   6.949   4.766   3.185
 7566SOL    HW223598   6.817   4.673   3.158
 7567SOL     OW23599   1.708   1.697   4.928
 7567SOL    HW123600   1.807   1.706   4.939
 7567SOL    HW223601   1.663   1.709   5.018
 7568SOL     OW23602   5.272   5.288   2.701
 7568SOL    HW123603   5.218   5.211   2.666
 7568SOL    HW223604   5.275   5.361   2.633
 7569SOL     OW23605   3.478   4.899   5.923
 7569SOL    HW123606   3.386   4.898   5.884
 7569SOL    HW223607   3.505   4.806   5.946
 7570SOL     OW23608   5.193   4.183   5.070
 7570SOL    HW123609   5.177   4.125   4.990
 7570SOL    HW223610   5.261   4.140   5.130
 7571SOL     OW23611   4.368   4.651   2.892
 7571SOL    HW123612   4.324   4.650   2.803
 7571SOL    HW223613   4.447   4.589   2.891
 7572SOL     OW23614   4.522   1.158   1.881
 7572SOL    HW123615   4.435   1.122   1.917
 7572SOL    HW223616   4.583   1.178   1.958
 7573SOL     OW23617   0.043   0.101   5.088
 7573SOL    HW123618   0.037   0.091   5.187
 7573SOL    HW223619   0.139   0.107   5.061
 7574SOL     OW23620   4.893   0.712   5.157
 7574SOL    HW123621   4.949   0.734   5.077
 7574SOL    HW223622   4.951   0.701   5.237
 7575SOL     OW23623   5.624   0.852   6.260
 7575SOL    HW123624   5.606   0.841   6.162
 7575SOL    HW223625   5.647   0.948   6.279
 7576SOL     OW23626   5.373   2.999   0.576
 7576SOL    HW123627   5.449   2.937   0.557
 7576SOL    HW223628   5.331   2.975   0.664
 7577SOL     OW23629   0.605   6.900   6.749
 7577SOL    HW123630   0.698   6.902   6.714
 7577SOL    HW223631   0.588   6.814   6.795
 7578SOL     OW23632   3.429   5.242   1.960
 7578SOL    HW123633   3.333   5.212   1.959
 7578SOL    HW223634   3.473   5.215   1.874
 7579SOL     OW23635   0.054   0.863   2.721
 7579SOL    HW123636   0.059   0.856   2.622
 7579SOL    HW223637   0.034   0.772   2.760
 7580SOL     OW23638   0.747   4.227   4.064
 7580SOL    HW123639   0.732   4.132   4.092
 7580SOL    HW223640   0.659   4.273   4.053
 7581SOL     OW23641   0.060   1.918   2.169
 7581SOL    HW123642   6.997   1.883   2.176
 7581SOL    HW223643   0.076   1.984   2.242
 7582SOL     OW23644   3.678   1.345   2.529
 7582SOL    HW123645   3.696   1.282   2.605
 7582SOL    HW223646   3.730   1.315   2.448
 7583SOL     OW23647   5.375   2.486   2.301
 7583SOL    HW123648   5.297   2.533   2.260
 7583SOL    HW223649   5.418   2.546   2.368
 7584SOL     OW23650   3.493   0.654   2.789
 7584SOL    HW123651   3.579   0.674   2.743
 7584SOL    HW223652   3.507   0.585   2.860
 7585SOL     OW23653   1.676   2.725   6.638
 7585SOL    HW123654   1.663   2.808   6.585
 7585SOL    HW223655   1.773   2.709   6.653
 7586SOL     OW23656   2.714   6.856   4.060
 7586SOL    HW123657   2.660   6.774   4.082
 7586SOL    HW223658   2.810   6.837   4.078
 7587SOL     OW23659   2.067   1.841   6.802
 7587SOL    HW123660   2.067   1.827   6.901
 7587SOL    HW223661   2.099   1.933   6.781
 7588SOL     OW23662   1.350   2.659   3.894
 7588SOL    HW123663   1.359   2.678   3.796
 7588SOL    HW223664   1.272   2.599   3.909
 7589SOL     OW23665   0.545   0.068   2.035
 7589SOL    HW123666   0.611   7.023   2.036
 7589SOL    HW223667   0.467   0.044   2.094
 7590SOL     OW23668   3.758   2.482   6.597
 7590SOL    HW123669   3.823   2.498   6.672
 7590SOL    HW223670   3.670   2.523   6.620
 7591SOL     OW23671   6.351   4.050   0.793
 7591SOL    HW123672   6.370   4.110   0.871
 7591SOL    HW223673   6.395   3.962   0.807
 7592SOL     OW23674   6.405   5.912   5.174
 7592SOL    HW123675   6.485   5.871   5.217
 7592SOL    HW223676   6.432   5.960   5.091
 7593SOL     OW23677   6.475   2.643   0.420
 7593SOL    HW123678   6.497   2.739   0.406
 7593SOL    HW223679   6.551   2.598   0.467
 7594SOL     OW23680   1.819   4.645   2.255
 7594SOL    HW123681   1.738   4.664   2.200
 7594SOL    HW223682   1.844   4.726   2.307
 7595SOL     OW23683   6.126   2.752   5.795
 7595SOL    HW123684   6.061   2.806   5.743
 7595SOL    HW223685   6.214   2.800   5.800
 7596SOL     OW23686   3.920   5.761   3.584
 7596SOL    HW123687   4.020   5.765   3.588
 7596SOL    HW223688   3.891   5.687   3.523
 7597SOL     OW23689   1.261   6.748   3.083
 7597SOL    HW123690   1.254   6.767   3.181
 7597SOL    HW223691   1.340   6.795   3.045
 7598SOL     OW23692   6.265   0.744   3.002
 7598SOL    HW123693   6.284   0.841   2.987
 7598SOL    HW223694   6.249   0.700   2.914
 7599SOL     OW23695   5.072   1.964   2.180
 7599SOL    HW123696   4.994   2.016   2.146
 7599SOL    HW223697   5.152   2.024   2.186
 7600SOL     OW23698   1.484   1.505   3.426
 7600SOL    HW123699   1.470   1.523   3.328
 7600SOL    HW223700   1.557   1.438   3.437
 7601SOL     OW23701   2.072   4.664   2.125
 7601SOL    HW123702   1.983   4.683   2.166
 7601SOL    HW223703   2.091   4.732   2.054
 7602SOL     OW23704   2.434   3.847   0.022
 7602SOL    HW123705   2.423   3.866   6.954
 7602SOL    HW223706   2.345   3.828   0.063
 7603SOL     OW23707   1.466   5.924   6.460
 7603SOL    HW123708   1.417   5.873   6.531
 7603SOL    HW223709   1.485   5.863   6.383
 7604SOL     OW23710   1.641   3.257   4.207
 7604SOL    HW123711   1.606   3.351   4.204
 7604SOL    HW223712   1.739   3.258   4.224
 7605SOL     OW23713   0.953   1.023   1.376
 7605SOL    HW123714   0.996   1.098   1.426
 7605SOL    HW223715   0.891   1.060   1.307
 7606SOL     OW23716   5.951   3.799   4.666
 7606SOL    HW123717   5.970   3.715   4.614
 7606SOL    HW223718   5.852   3.811   4.673
 7607SOL     OW23719   3.669   5.033   0.173
 7607SOL    HW123720   3.575   5.061   0.159
 7607SOL    HW223721   3.672   4.934   0.191
 7608SOL     OW23722   3.880   4.051   1.295
 7608SOL    HW123723   3.788   4.085   1.274
 7608SOL    HW223724   3.911   3.990   1.223
 7609SOL     OW23725   1.403   2.917   4.456
 7609SOL    HW123726   1.465   2.859   4.509
 7609SOL    HW223727   1.416   3.012   4.482
 7610SOL     OW23728   4.080   4.439   6.256
 7610SOL    HW123729   4.005   4.385   6.218
 7610SOL    HW223730   4.166   4.412   6.213
 7611SOL     OW23731   5.429   3.924   1.870
 7611SOL    HW123732   5.421   3.891   1.775
 7611SOL    HW223733   5.364   3.874   1.927
 7612SOL     OW23734   4.996   3.240   2.452
 7612SOL    HW123735   4.921   3.188   2.494
 7612SOL    HW223736   5.044   3.181   2.386
 7613SOL     OW23737   6.931   2.324   0.831
 7613SOL    HW123738   6.969   2.234   0.809
 7613SOL    HW223739   6.863   2.314   0.904
 7614SOL     OW23740   5.722   3.170   1.336
 7614SOL    HW123741   5.819   3.172   1.311
 7614SOL    HW223742   5.676   3.250   1.297
 7615SOL     OW23743   3.790   4.990   6.892
 7615SOL    HW123744   3.823   5.084   6.887
 7615SOL    HW223745   3.735   4.978   6.975
 7616SOL     OW23746   6.340   6.429   4.628
 7616SOL    HW123747   6.360   6.347   4.575
 7616SOL    HW223748   6.249   6.422   4.668
 7617SOL     OW23749   3.611   6.209   3.346
 7617SOL    HW123750   3.523   6.163   3.355
 7617SOL    HW223751   3.660   6.204   3.434
 7618SOL     OW23752   6.916   2.521   6.135
 7618SOL    HW123753   6.870   2.550   6.051
 7618SOL    HW223754   6.943   2.425   6.126
 7619SOL     OW23755   6.604   3.210   4.520
 7619SOL    HW123756   6.512   3.227   4.555
 7619SOL    HW223757   6.668   3.271   4.565
 7620SOL     OW23758   4.195   5.649   1.698
 7620SOL    HW123759   4.193   5.717   1.771
 7620SOL    HW223760   4.283   5.602   1.698
 7621SOL     OW23761   6.720   1.084   0.721
 7621SOL    HW123762   6.783   1.139   0.776
 7621SOL    HW223763   6.770   1.008   0.680
 7622SOL     OW23764   4.143   4.821   6.580
 7622SOL    HW123765   4.209   4.895   6.566
 7622SOL    HW223766   4.112   4.786   6.492
 7623SOL     OW23767   5.230   3.319   6.683
 7623SOL    HW123768   5.170   3.248   6.719
 7623SOL    HW223769   5.251   3.299   6.587
 7624SOL     OW23770   6.703   3.758   5.083
 7624SOL    HW123771   6.659   3.669   5.080
 7624SOL    HW223772   6.688   3.806   4.996
 7625SOL     OW23773   4.842   0.762   7.009
 7625SOL    HW123774   4.843   0.846   6.956
 7625SOL    HW223775   4.748   0.730   7.019
 7626SOL     OW23776   6.606   0.289   4.830
 7626SOL    HW123777   6.596   0.241   4.743
 7626SOL    HW223778   6.696   0.332   4.834
 7627SOL     OW23779   4.746   3.263   0.219
 7627SOL    HW123780   4.700   3.246   0.306
 7627SOL    HW223781   4.760   3.177   0.171
 7628SOL     OW23782   3.388   2.750   1.780
 7628SOL    HW123783   3.445   2.827   1.753
 7628SOL    HW223784   3.443   2.682   1.828
 7629SOL     OW23785   0.358   4.725   3.479
 7629SOL    HW123786   0.381   4.671   3.560
 7629SOL    HW223787   0.260   4.745   3.480
 7630SOL     OW23788   0.714   0.458   1.226
 7630SOL    HW123789   0.759   0.461   1.136
 7630SOL    HW223790   0.741   0.538   1.279
 7631SOL     OW23791   0.791   2.041   6.123
 7631SOL    HW123792   0.802   2.027   6.221
 7631SOL    HW223793   0.723   2.112   6.106
 7632SOL     OW23794   5.083   4.307   0.846
 7632SOL    HW123795   5.027   4.337   0.923
 7632SOL    HW223796   5.114   4.214   0.861
 7633SOL     OW23797   5.217   0.328   2.078
 7633SOL    HW123798   5.300   0.288   2.115
 7633SOL    HW223799   5.140   0.309   2.139
 7634SOL     OW23800   1.967   1.604   2.076
 7634SOL    HW123801   1.954   1.567   1.984
 7634SOL    HW223802   2.003   1.533   2.136
 7635SOL     OW23803   3.510   4.888   5.138
 7635SOL    HW123804   3.594   4.873   5.190
 7635SOL    HW223805   3.456   4.959   5.182
 7636SOL     OW23806   1.942   2.985   4.047
 7636SOL    HW123807   1.937   2.912   4.114
 7636SOL    HW223808   2.017   3.046   4.069
 7637SOL     OW23809   2.879   6.436   2.283
 7637SOL    HW123810   2.927   6.514   2.324
 7637SOL    HW223811   2.935   6.354   2.291
 7638SOL     OW23812   2.080   5.871   1.313
 7638SOL    HW123813   2.056   5.947   1.253
 7638SOL    HW223814   1.997   5.822   1.341
 7639SOL     OW23815   0.415   1.676   1.166
 7639SOL    HW123816   0.337   1.662   1.227
 7639SOL    HW223817   0.383   1.696   1.074
 7640SOL     OW23818   2.794   1.690   5.802
 7640SOL    HW123819   2.879   1.660   5.760
 7640SOL    HW223820   2.814   1.742   5.886
 7641SOL     OW23821   1.561   3.593   2.295
 7641SOL    HW123822   1.575   3.574   2.392
 7641SOL    HW223823   1.477   3.647   2.284
 7642SOL     OW23824   3.258   1.581   2.570
 7642SOL    HW123825   3.341   1.571   2.625
 7642SOL    HW223826   3.179   1.549   2.622
 7643SOL     OW23827   4.823   2.338   3.142
 7643SOL    HW123828   4.757   2.404   3.178
 7643SOL    HW223829   4.915   2.361   3.175
 7644SOL     OW23830   4.600   2.394   1.945
 7644SOL    HW123831   4.678   2.418   2.003
 7644SOL    HW223832   4.581   2.471   1.884
 7645SOL     OW23833   5.223   3.811   5.026
 7645SOL    HW123834   5.143   3.785   5.080
 7645SOL    HW223835   5.210   3.904   4.990
 7646SOL     OW23836   1.916   2.681   4.103
 7646SOL    HW123837   1.823   2.715   4.087
 7646SOL    HW223838   1.961   2.664   4.015
 7647SOL     OW23839   0.094   2.359   3.703
 7647SOL    HW123840   0.174   2.415   3.723
 7647SOL    HW223841   0.076   2.297   3.780
 7648SOL     OW23842   2.815   1.649   2.797
 7648SOL    HW123843   2.730   1.698   2.817
 7648SOL    HW223844   2.833   1.652   2.699
 7649SOL     OW23845   1.114   1.016   3.825
 7649SOL    HW123846   1.206   0.978   3.818
 7649SOL    HW223847   1.069   0.981   3.907
 7650SOL     OW23848   5.785   1.292   0.271
 7650SOL    HW123849   5.867   1.320   0.320
 7650SOL    HW223850   5.775   1.193   0.276
 7651SOL     OW23851   2.227   0.327   4.116
 7651SOL    HW123852   2.298   0.270   4.075
 7651SOL    HW223853   2.145   0.272   4.131
 7652SOL     OW23854   6.079   3.184   4.297
 7652SOL    HW123855   6.149   3.121   4.331
 7652SOL    HW223856   6.059   3.163   4.201
 7653SOL     OW23857   0.411   1.894   7.015
 7653SOL    HW123858   0.330   1.852   6.973
 7653SOL    HW223859   0.428   1.983   6.972
 7654SOL     OW23860   4.893   3.214   4.818
 7654SOL    HW123861   4.902   3.311   4.839
 7654SOL    HW223862   4.930   3.160   4.894
 7655SOL     OW23863   4.249   6.690   3.431
 7655SOL    HW123864   4.340   6.729   3.418
 7655SOL    HW223865   4.246   6.598   3.392
 7656SOL     OW23866   4.076   3.832   6.878
 7656SOL    HW123867   4.116   3.908   6.828
 7656SOL    HW223868   4.001   3.865   6.936
 7657SOL     OW23869   1.432   1.860   3.675
 7657SOL    HW123870   1.526   1.891   3.690
 7657SOL    HW223871   1.392   1.912   3.599
 7658SOL     OW23872   2.868   0.428   0.032
 7658SOL    HW123873   2.797   0.375   7.014
 7658SOL    HW223874   2.842   0.524   0.034
 7659SOL     OW23875   5.601   4.428   6.328
 7659SOL    HW123876   5.559   4.393   6.244
 7659SOL    HW223877   5.608   4.528   6.322
 7660SOL     OW23878   0.275   5.666   3.574
 7660SOL    HW123879   0.177   5.684   3.586
 7660SOL    HW223880   0.287   5.578   3.527
 7661SOL     OW23881   5.250   2.168   5.229
 7661SOL    HW123882   5.331   2.180   5.286
 7661SOL    HW223883   5.277   2.163   5.133
 7662SOL     OW23884   1.685   3.241   4.602
 7662SOL    HW123885   1.607   3.220   4.542
 7662SOL    HW223886   1.659   3.312   4.667
 7663SOL     OW23887   6.104   4.312   6.106
 7663SOL    HW123888   6.202   4.322   6.093
 7663SOL    HW223889   6.057   4.321   6.018
 7664SOL     OW23890   4.290   1.033   1.957
 7664SOL    HW123891   4.238   0.956   1.921
 7664SOL    HW223892   4.229   1.098   2.000
 7665SOL     OW23893   5.997   0.966   4.820
 7665SOL    HW123894   5.926   0.942   4.887
 7665SOL    HW223895   6.075   1.007   4.867
 7666SOL     OW23896   0.583   4.804   2.387
 7666SOL    HW123897   0.676   4.792   2.423
 7666SOL    HW223898   0.563   4.732   2.321
 7667SOL     OW23899   4.342   0.099   2.623
 7667SOL    HW123900   4.301   0.108   2.532
 7667SOL    HW223901   4.270   0.096   2.692
 7668SOL     OW23902   3.414   5.119   0.426
 7668SOL    HW123903   3.412   5.152   0.331
 7668SOL    HW223904   3.468   5.035   0.431
 7669SOL     OW23905   4.479   1.026   5.139
 7669SOL    HW123906   4.395   0.973   5.126
 7669SOL    HW223907   4.555   0.964   5.158
 7670SOL     OW23908   0.596   4.316   0.542
 7670SOL    HW123909   0.650   4.256   0.601
 7670SOL    HW223910   0.516   4.350   0.592
 7671SOL     OW23911   3.828   1.620   2.437
 7671SOL    HW123912   3.921   1.601   2.468
 7671SOL    HW223913   3.771   1.540   2.452
 7672SOL     OW23914   7.022   6.155   2.996
 7672SOL    HW123915   6.962   6.117   2.926
 7672SOL    HW223916   0.086   6.159   2.961
 7673SOL     OW23917   1.895   6.276   1.325
 7673SOL    HW123918   1.810   6.327   1.312
 7673SOL    HW223919   1.916   6.224   1.243
 7674SOL     OW23920   4.712   1.523   3.572
 7674SOL    HW123921   4.708   1.424   3.558
 7674SOL    HW223922   4.759   1.543   3.658
 7675SOL     OW23923   6.424   6.844   2.772
 7675SOL    HW123924   6.334   6.815   2.807
 7675SOL    HW223925   6.427   6.943   2.765
 7676SOL     OW23926   2.215   1.699   0.238
 7676SOL    HW123927   2.289   1.637   0.265
 7676SOL    HW223928   2.226   1.786   0.285
 7677SOL     OW23929   0.906   4.264   1.592
 7677SOL    HW123930   0.995   4.311   1.590
 7677SOL    HW223931   0.873   4.253   1.498
 7678SOL     OW23932   2.496   2.719   5.250
 7678SOL    HW123933   2.501   2.810   5.210
 7678SOL    HW223934   2.460   2.655   5.182
 7679SOL     OW23935   3.086   6.668   6.147
 7679SOL    HW123936   3.063   6.582   6.192
 7679SOL    HW223937   3.004   6.725   6.141
 7680SOL     OW23938   1.426   0.281   1.003
 7680SOL    HW123939   1.447   0.308   1.097
 7680SOL    HW223940   1.330   0.302   0.984
 7681SOL     OW23941   3.035   0.761   0.990
 7681SOL    HW123942   2.941   0.795   0.992
 7681SOL    HW223943   3.054   0.711   1.074
 7682SOL     OW23944   3.530   0.161   2.411
 7682SOL    HW123945   3.558   0.111   2.492
 7682SOL    HW223946   3.593   0.237   2.395
 7683SOL     OW23947   6.592   2.395   4.495
 7683SOL    HW123948   6.517   2.389   4.430
 7683SOL    HW223949   6.660   2.461   4.461
 7684SOL     OW23950   4.100   1.724   1.179
 7684SOL    HW123951   4.129   1.666   1.255
 7684SOL    HW223952   4.015   1.688   1.141
 7685SOL     OW23953   2.721   1.440   5.694
 7685SOL    HW123954   2.694   1.449   5.598
 7685SOL    HW223955   2.739   1.530   5.733
 7686SOL     OW23956   0.045   6.449   3.607
 7686SOL    HW123957   0.080   6.499   3.686
 7686SOL    HW223958   7.019   6.509   3.552
 7687SOL     OW23959   6.065   5.307   4.375
 7687SOL    HW123960   6.108   5.342   4.457
 7687SOL    HW223961   6.135   5.288   4.306
 7688SOL     OW23962   0.482   5.909   5.724
 7688SOL    HW123963   0.561   5.853   5.750
 7688SOL    HW223964   0.415   5.909   5.799
 7689SOL     OW23965   6.122   6.583   2.530
 7689SOL    HW123966   6.135   6.669   2.482
 7689SOL    HW223967   6.163   6.509   2.476
 7690SOL     OW23968   5.886   4.791   0.109
 7690SOL    HW123969   5.927   4.828   0.192
 7690SOL    HW223970   5.840   4.864   0.059
 7691SOL     OW23971   4.935   3.816   3.369
 7691SOL    HW123972   4.907   3.900   3.323
 7691SOL    HW223973   4.937   3.741   3.302
 7692SOL     OW23974   0.712   6.105   1.612
 7692SOL    HW123975   0.672   6.053   1.687
 7692SOL    HW223976   0.641   6.158   1.567
 7693SOL     OW23977   3.238   0.188   1.912
 7693SOL    HW123978   3.242   0.088   1.913
 7693SOL    HW223979   3.142   0.217   1.907
 7694SOL     OW23980   5.132   3.988   3.942
 7694SOL    HW123981   5.045   4.031   3.967
 7694SOL    HW223982   5.150   4.004   3.845
 7695SOL     OW23983   4.386   0.101   1.535
 7695SOL    HW123984   4.290   0.119   1.512
 7695SOL    HW223985   4.392   0.069   1.630
 7696SOL     OW23986   0.495   1.410   6.265
 7696SOL    HW123987   0.467   1.338   6.202
 7696SOL    HW223988   0.594   1.409   6.275
 7697SOL     OW23989   2.609   6.930   3.524
 7697SOL    HW123990   2.701   6.890   3.530
 7697SOL    HW223991   2.543   6.857   3.505
 7698SOL     OW23992   5.499   1.692   3.613
 7698SOL    HW123993   5.560   1.750   3.667
 7698SOL    HW223994   5.519   1.596   3.631
 7699SOL     OW23995   2.998   6.209   6.104
 7699SOL    HW123996   3.029   6.121   6.141
 7699SOL    HW223997   3.048   6.283   6.148
 7700SOL     OW23998   5.104   5.568   3.099
 7700SOL    HW123999   5.087   5.487   3.155
 7700SOL    HW224000   5.018   5.615   3.082
 7701SOL     OW24001   6.339   2.307   6.432
 7701SOL    HW124002   6.336   2.401   6.466
 7701SOL    HW224003   6.348   2.307   6.333
 7702SOL     OW24004   4.159   6.086   4.894
 7702SOL    HW124005   4.110   6.031   4.826
 7702SOL    HW224006   4.093   6.128   4.957
 7703SOL     OW24007   5.782   6.317   5.870
 7703SOL    HW124008   5.693   6.361   5.869
 7703SOL    HW224009   5.771   6.219   5.886
 7704SOL     OW24010   5.640   0.417   3.866
 7704SOL    HW124011   5.699   0.458   3.936
 7704SOL    HW224012   5.580   0.488   3.828
 7705SOL     OW24013   2.514   6.296   0.745
 7705SOL    HW124014   2.417   6.296   0.768
 7705SOL    HW224015   2.564   6.356   0.808
 7706SOL     OW24016   3.170   3.655   5.069
 7706SOL    HW124017   3.231   3.695   5.139
 7706SOL    HW224018   3.142   3.726   5.005
 7707SOL     OW24019   0.759   3.866   5.883
 7707SOL    HW124020   0.675   3.902   5.923
 7707SOL    HW224021   0.752   3.868   5.783
 7708SOL     OW24022   0.881   6.640   5.848
 7708SOL    HW124023   0.867   6.588   5.764
 7708SOL    HW224024   0.794   6.652   5.896
 7709SOL     OW24025   6.709   4.427   2.000
 7709SOL    HW124026   6.786   4.474   1.955
 7709SOL    HW224027   6.625   4.477   1.981
 7710SOL     OW24028   3.146   2.623   0.284
 7710SOL    HW124029   3.173   2.632   0.188
 7710SOL    HW224030   3.219   2.575   0.334
 7711SOL     OW24031   5.623   6.193   5.498
 7711SOL    HW124032   5.559   6.117   5.512
 7711SOL    HW224033   5.717   6.162   5.517
 7712SOL     OW24034   6.552   5.127   1.497
 7712SOL    HW124035   6.504   5.186   1.431
 7712SOL    HW224036   6.648   5.118   1.470
 7713SOL     OW24037   1.780   4.462   0.771
 7713SOL    HW124038   1.836   4.514   0.835
 7713SOL    HW224039   1.789   4.500   0.679
 7714SOL     OW24040   0.054   4.505   5.634
 7714SOL    HW124041   7.029   4.586   5.652
 7714SOL    HW224042   0.149   4.531   5.617
 7715SOL     OW24043   2.871   2.667   0.296
 7715SOL    HW124044   2.964   2.632   0.312
 7715SOL    HW224045   2.866   2.762   0.325
 7716SOL     OW24046   6.986   4.517   1.059
 7716SOL    HW124047   0.014   4.592   1.029
 7716SOL    HW224048   6.917   4.497   0.989
 7717SOL     OW24049   1.122   0.920   5.939
 7717SOL    HW124050   1.117   0.957   6.032
 7717SOL    HW224051   1.216   0.890   5.921
 7718SOL     OW24052   6.450   4.322   3.774
 7718SOL    HW124053   6.440   4.413   3.813
 7718SOL    HW224054   6.367   4.269   3.791
 7719SOL     OW24055   0.132   3.966   5.290
 7719SOL    HW124056   0.036   3.979   5.268
 7719SOL    HW224057   0.188   4.020   5.226
 7720SOL     OW24058   6.354   2.780   6.614
 7720SOL    HW124059   6.450   2.789   6.642
 7720SOL    HW224060   6.295   2.787   6.694
 7721SOL     OW24061   0.264   5.259   2.437
 7721SOL    HW124062   0.320   5.178   2.457
 7721SOL    HW224063   0.212   5.243   2.353
 7722SOL     OW24064   1.337   3.829   3.700
 7722SOL    HW124065   1.257   3.888   3.690
 7722SOL    HW224066   1.420   3.885   3.689
 7723SOL     OW24067   4.501   3.283   6.329
 7723SOL    HW124068   4.514   3.243   6.237
 7723SOL    HW224069   4.493   3.382   6.321
 7724SOL     OW24070   3.025   3.836   0.742
 7724SOL    HW124071   2.963   3.787   0.803
 7724SOL    HW224072   2.974   3.906   0.692
 7725SOL     OW24073   6.024   1.328   2.701
 7725SOL    HW124074   6.043   1.232   2.680
 7725SOL    HW224075   5.936   1.354   2.662
 7726SOL     OW24076   2.050   5.081   5.808
 7726SOL    HW124077   2.033   5.022   5.729
 7726SOL    HW224078   2.130   5.138   5.791
 7727SOL     OW24079   6.453   2.917   2.361
 7727SOL    HW124080   6.464   2.873   2.272
 7727SOL    HW224081   6.543   2.941   2.397
 7728SOL     OW24082   2.099   2.919   5.049
 7728SOL    HW124083   2.185   2.958   5.018
 7728SOL    HW224084   2.110   2.883   5.141
 7729SOL     OW24085   6.294   1.760   1.263
 7729SOL    HW124086   6.276   1.745   1.360
 7729SOL    HW224087   6.208   1.779   1.215
 7730SOL     OW24088   6.366   4.768   6.489
 7730SOL    HW124089   6.382   4.867   6.498
 7730SOL    HW224090   6.419   4.719   6.558
 7731SOL     OW24091   5.810   1.007   0.283
 7731SOL    HW124092   5.754   0.962   0.213
 7731SOL    HW224093   5.906   1.007   0.253
 7732SOL     OW24094   4.425   6.743   0.335
 7732SOL    HW124095   4.410   6.749   0.434
 7732SOL    HW224096   4.337   6.731   0.289
 7733SOL     OW24097   5.577   6.221   2.119
 7733SOL    HW124098   5.597   6.234   2.217
 7733SOL    HW224099   5.554   6.309   2.078
 7734SOL     OW24100   1.586   4.729   4.096
 7734SOL    HW124101   1.542   4.818   4.109
 7734SOL    HW224102   1.535   4.677   4.028
 7735SOL     OW24103   4.773   5.957   6.221
 7735SOL    HW124104   4.839   6.002   6.282
 7735SOL    HW224105   4.696   6.020   6.204
 7736SOL     OW24106   2.352   2.876   6.855
 7736SOL    HW124107   2.411   2.798   6.833
 7736SOL    HW224108   2.404   2.944   6.905
 7737SOL     OW24109   3.211   6.953   2.816
 7737SOL    HW124110   3.245   7.020   2.882
 7737SOL    HW224111   3.159   7.000   2.745
 7738SOL     OW24112   3.665   5.488   0.086
 7738SOL    HW124113   3.636   5.448   7.029
 7738SOL    HW224114   3.588   5.531   0.131
 7739SOL     OW24115   0.477   2.666   2.135
 7739SOL    HW124116   0.484   2.671   2.235
 7739SOL    HW224117   0.393   2.710   2.105
 7740SOL     OW24118   2.968   0.703   3.123
 7740SOL    HW124119   3.002   0.770   3.057
 7740SOL    HW224120   2.914   0.634   3.076
 7741SOL     OW24121   0.202   4.870   5.607
 7741SOL    HW124122   0.223   4.958   5.565
 7741SOL    HW224123   0.102   4.857   5.609
 7742SOL     OW24124   4.137   2.191   2.825
 7742SOL    HW124125   4.094   2.215   2.912
 7742SOL    HW224126   4.199   2.264   2.797
 7743SOL     OW24127   4.565   2.005   0.005
 7743SOL    HW124128   4.663   1.990   0.015
 7743SOL    HW224129   4.549   2.096   6.996
 7744SOL     OW24130   0.930   0.835   4.626
 7744SOL    HW124131   0.954   0.916   4.679
 7744SOL    HW224132   0.852   0.789   4.668
 7745SOL     OW24133   3.748   1.003   6.808
 7745SOL    HW124134   3.713   0.922   6.761
 7745SOL    HW224135   3.848   0.997   6.815
 7746SOL     OW24136   0.828   0.754   0.847
 7746SOL    HW124137   0.787   0.787   0.763
 7746SOL    HW224138   0.863   0.831   0.900
 7747SOL     OW24139   5.855   6.565   1.085
 7747SOL    HW124140   5.909   6.485   1.110
 7747SOL    HW224141   5.820   6.555   0.992
 7748SOL     OW24142   2.979   3.730   4.252
 7748SOL    HW124143   2.989   3.812   4.196
 7748SOL    HW224144   2.945   3.655   4.195
 7749SOL     OW24145   3.368   3.141   5.603
 7749SOL    HW124146   3.360   3.225   5.550
 7749SOL    HW224147   3.311   3.070   5.561
 7750SOL     OW24148   0.051   5.898   0.412
 7750SOL    HW124149   0.008   5.856   0.332
 7750SOL    HW224150   0.120   5.964   0.382
 7751SOL     OW24151   1.345   2.916   2.922
 7751SOL    HW124152   1.311   2.868   3.003
 7751SOL    HW224153   1.443   2.932   2.932
 7752SOL     OW24154   5.959   6.617   5.483
 7752SOL    HW124155   5.862   6.623   5.505
 7752SOL    HW224156   5.988   6.700   5.435
 7753SOL     OW24157   2.293   0.337   4.581
 7753SOL    HW124158   2.330   0.247   4.560
 7753SOL    HW224159   2.369   0.402   4.594
 7754SOL     OW24160   4.777   0.043   1.780
 7754SOL    HW124161   4.847   0.078   1.719
 7754SOL    HW224162   4.735   6.992   1.738
 7755SOL     OW24163   1.609   2.055   5.878
 7755SOL    HW124164   1.603   1.997   5.797
 7755SOL    HW224165   1.593   2.150   5.852
 7756SOL     OW24166   3.607   5.290   1.690
 7756SOL    HW124167   3.558   5.360   1.638
 7756SOL    HW224168   3.556   5.204   1.689
 7757SOL     OW24169   5.863   5.647   5.189
 7757SOL    HW124170   5.932   5.580   5.217
 7757SOL    HW224171   5.906   5.737   5.177
 7758SOL     OW24172   1.335   1.754   6.425
 7758SOL    HW124173   1.237   1.765   6.412
 7758SOL    HW224174   1.372   1.832   6.474
 7759SOL     OW24175   1.138   1.625   5.618
 7759SOL    HW124176   1.133   1.532   5.652
 7759SOL    HW224177   1.126   1.626   5.519
 7760SOL     OW24178   5.316   3.841   2.576
 7760SOL    HW124179   5.331   3.856   2.673
 7760SOL    HW224180   5.278   3.749   2.561
 7761SOL     OW24181   0.940   0.230   6.158
 7761SOL    HW124182   0.928   0.213   6.060
 7761SOL    HW224183   0.921   0.146   6.209
 7762SOL     OW24184   4.381   0.398   4.437
 7762SOL    HW124185   4.374   0.470   4.369
 7762SOL    HW224186   4.422   0.317   4.396
 7763SOL     OW24187   1.068   1.332   0.149
 7763SOL    HW124188   1.114   1.411   0.191
 7763SOL    HW224189   1.135   1.273   0.105
 7764SOL     OW24190   3.665   2.947   3.210
 7764SOL    HW124191   3.747   2.970   3.262
 7764SOL    HW224192   3.591   2.923   3.273
 7765SOL     OW24193   6.088   2.590   3.998
 7765SOL    HW124194   6.063   2.598   4.095
 7765SOL    HW224195   6.137   2.505   3.983
 7766SOL     OW24196   6.338   2.717   6.962
 7766SOL    HW124197   6.418   2.684   6.911
 7766SOL    HW224198   6.322   2.658   0.011
 7767SOL     OW24199   4.220   5.896   3.226
 7767SOL    HW124200   4.237   5.873   3.131
 7767SOL    HW224201   4.122   5.909   3.240
 7768SOL     OW24202   4.236   4.753   2.357
 7768SOL    HW124203   4.244   4.839   2.307
 7768SOL    HW224204   4.265   4.678   2.299
 7769SOL     OW24205   4.992   2.938   2.744
 7769SOL    HW124206   4.948   2.911   2.659
 7769SOL    HW224207   4.931   2.920   2.821
 7770SOL     OW24208   1.804   4.165   2.321
 7770SOL    HW124209   1.859   4.083   2.303
 7770SOL    HW224210   1.707   4.142   2.318
 7771SOL     OW24211   3.343   2.283   5.391
 7771SOL    HW124212   3.284   2.304   5.313
 7771SOL    HW224213   3.390   2.367   5.421
 7772SOL     OW24214   5.163   0.326   2.483
 7772SOL    HW124215   5.145   0.281   2.570
 7772SOL    HW224216   5.108   0.285   2.411
 7773SOL     OW24217   2.531   5.702   4.700
 7773SOL    HW124218   2.524   5.745   4.790
 7773SOL    HW224219   2.443   5.661   4.675
 7774SOL     OW24220   5.454   1.899   6.035
 7774SOL    HW124221   5.486   1.934   5.947
 7774SOL    HW224222   5.442   1.800   6.029
 7775SOL     OW24223   5.072   6.384   2.089
 7775SOL    HW124224   5.061   6.480   2.063
 7775SOL    HW224225   4.989   6.352   2.135
 7776SOL     OW24226   1.814   5.050   6.904
 7776SOL    HW124227   1.875   5.026   6.828
 7776SOL    HW224228   1.852   5.127   6.954
 7777SOL     OW24229   1.148   0.266   4.796
 7777SOL    HW124230   1.164   0.241   4.891
 7777SOL    HW224231   1.206   0.211   4.736
 7778SOL     OW24232   5.467   3.950   0.997
 7778SOL    HW124233   5.444   4.044   1.021
 7778SOL    HW224234   5.506   3.947   0.905
 7779SOL     OW24235   2.819   2.789   1.345
 7779SOL    HW124236   2.909   2.774   1.303
 7779SOL    HW224237   2.747   2.765   1.280
 7780SOL     OW24238   0.888   4.862   5.481
 7780SOL    HW124239   0.883   4.764   5.496
 7780SOL    HW224240   0.826   4.909   5.545
 7781SOL     OW24241   1.262   4.765   0.337
 7781SOL    HW124242   1.349   4.760   0.385
 7781SOL    HW224243   1.229   4.859   0.337
 7782SOL     OW24244   6.570   4.621   4.777
 7782SOL    HW124245   6.579   4.710   4.823
 7782SOL    HW224246   6.661   4.581   4.766
 7783SOL     OW24247   0.436   5.902   5.079
 7783SOL    HW124248   0.424   5.840   5.157
 7783SOL    HW224249   0.531   5.899   5.048
 7784SOL     OW24250   3.078   2.724   1.225
 7784SOL    HW124251   3.117   2.670   1.150
 7784SOL    HW224252   3.121   2.697   1.311
 7785SOL     OW24253   1.649   5.727   3.962
 7785SOL    HW124254   1.660   5.798   4.031
 7785SOL    HW224255   1.560   5.683   3.974
 7786SOL     OW24256   3.070   6.481   0.163
 7786SOL    HW124257   3.033   6.562   0.117
 7786SOL    HW224258   3.140   6.509   0.228
 7787SOL     OW24259   2.306   2.552   6.651
 7787SOL    HW124260   2.225   2.566   6.709
 7787SOL    HW224261   2.334   2.639   6.611
 7788SOL     OW24262   2.441   5.587   1.509
 7788SOL    HW124263   2.393   5.523   1.569
 7788SOL    HW224264   2.393   5.675   1.509
 7789SOL     OW24265   1.787   6.702   6.236
 7789SOL    HW124266   1.784   6.656   6.324
 7789SOL    HW224267   1.805   6.800   6.250
 7790SOL     OW24268   5.544   5.536   3.426
 7790SOL    HW124269   5.571   5.629   3.448
 7790SOL    HW224270   5.625   5.479   3.414
 7791SOL     OW24271   1.960   5.890   3.333
 7791SOL    HW124272   1.998   5.983   3.331
 7791SOL    HW224273   2.022   5.830   3.382
 7792SOL     OW24274   1.377   5.038   4.760
 7792SOL    HW124275   1.431   5.110   4.716
 7792SOL    HW224276   1.340   5.073   4.846
 7793SOL     OW24277   3.658   1.026   0.241
 7793SOL    HW124278   3.743   0.999   0.287
 7793SOL    HW224279   3.636   0.959   0.170
 7794SOL     OW24280   6.267   4.605   2.848
 7794SOL    HW124281   6.311   4.607   2.937
 7794SOL    HW224282   6.239   4.511   2.827
 7795SOL     OW24283   1.791   4.306   5.299
 7795SOL    HW124284   1.822   4.215   5.270
 7795SOL    HW224285   1.738   4.348   5.225
 7796SOL     OW24286   4.042   3.788   3.488
 7796SOL    HW124287   4.025   3.712   3.550
 7796SOL    HW224288   3.999   3.871   3.523
 7797SOL     OW24289   1.470   7.002   2.875
 7797SOL    HW124290   1.378   7.029   2.904
 7797SOL    HW224291   1.537   0.038   2.909
 7798SOL     OW24292   2.259   4.141   5.549
 7798SOL    HW124293   2.174   4.097   5.578
 7798SOL    HW224294   2.301   4.088   5.475
 7799SOL     OW24295   0.850   6.136   2.466
 7799SOL    HW124296   0.918   6.075   2.424
 7799SOL    HW224297   0.834   6.214   2.406
 7800SOL     OW24298   0.717   5.249   1.450
 7800SOL    HW124299   0.718   5.311   1.371
 7800SOL    HW224300   0.634   5.193   1.448
 7801SOL     OW24301   2.146   1.779   1.588
 7801SOL    HW124302   2.150   1.866   1.539
 7801SOL    HW224303   2.093   1.791   1.673
 7802SOL     OW24304   5.775   2.555   1.060
 7802SOL    HW124305   5.734   2.478   1.011
 7802SOL    HW224306   5.707   2.594   1.122
 7803SOL     OW24307   4.836   1.669   6.132
 7803SOL    HW124308   4.742   1.633   6.128
 7803SOL    HW224309   4.844   1.732   6.208
 7804SOL     OW24310   4.712   2.100   3.619
 7804SOL    HW124311   4.764   2.136   3.541
 7804SOL    HW224312   4.626   2.061   3.585
 7805SOL     OW24313   5.587   2.674   1.217
 7805SOL    HW124314   5.489   2.653   1.212
 7805SOL    HW224315   5.619   2.665   1.311
 7806SOL     OW24316   5.480   1.903   6.661
 7806SOL    HW124317   5.545   1.960   6.711
 7806SOL    HW224318   5.471   1.937   6.567
 7807SOL     OW24319   1.468   4.554   5.358
 7807SOL    HW124320   1.471   4.582   5.454
 7807SOL    HW224321   1.529   4.612   5.304
 7808SOL     OW24322   6.484   3.319   3.648
 7808SOL    HW124323   6.488   3.327   3.748
 7808SOL    HW224324   6.561   3.264   3.616
 7809SOL     OW24325   2.454   5.253   3.681
 7809SOL    HW124326   2.390   5.280   3.609
 7809SOL    HW224327   2.535   5.312   3.676
 7810SOL     OW24328   3.731   0.184   4.360
 7810SOL    HW124329   3.825   0.219   4.357
 7810SOL    HW224330   3.680   0.233   4.431
 7811SOL     OW24331   1.789   5.468   2.283
 7811SOL    HW124332   1.751   5.382   2.315
 7811SOL    HW224333   1.871   5.491   2.336
 7812SOL     OW24334   0.360   1.462   4.032
 7812SOL    HW124335   0.431   1.531   4.021
 7812SOL    HW224336   0.270   1.504   4.022
 7813SOL     OW24337   5.146   2.411   0.181
 7813SOL    HW124338   5.222   2.371   0.130
 7813SOL    HW224339   5.075   2.441   0.117
 7814SOL     OW24340   0.322   3.306   3.140
 7814SOL    HW124341   0.301   3.311   3.237
 7814SOL    HW224342   0.421   3.293   3.128
 7815SOL     OW24343   5.284   0.273   5.583
 7815SOL    HW124344   5.313   0.367   5.604
 7815SOL    HW224345   5.197   0.254   5.628
 7816SOL     OW24346   1.878   2.421   6.247
 7816SOL    HW124347   1.903   2.384   6.337
 7816SOL    HW224348   1.865   2.519   6.254
 7817SOL     OW24349   5.624   4.818   3.022
 7817SOL    HW124350   5.636   4.825   3.121
 7817SOL    HW224351   5.658   4.730   2.990
 7818SOL     OW24352   4.312   0.618   2.604
 7818SOL    HW124353   4.400   0.573   2.594
 7818SOL    HW224354   4.325   0.717   2.603
 7819SOL     OW24355   0.178   3.855   1.727
 7819SOL    HW124356   0.230   3.833   1.645
 7819SOL    HW224357   0.240   3.886   1.799
 7820SOL     OW24358   1.874   2.164   6.041
 7820SOL    HW124359   1.883   2.236   6.110
 7820SOL    HW224360   1.796   2.105   6.064
 7821SOL     OW24361   5.347   5.943   0.238
 7821SOL    HW124362   5.344   5.876   0.164
 7821SOL    HW224363   5.386   6.029   0.204
 7822SOL     OW24364   2.134   1.889   6.444
 7822SOL    HW124365   2.106   1.828   6.518
 7822SOL    HW224366   2.225   1.863   6.411
 7823SOL     OW24367   2.625   3.930   5.278
 7823SOL    HW124368   2.698   3.882   5.228
 7823SOL    HW224369   2.545   3.939   5.219
 7824SOL     OW24370   6.666   0.711   4.369
 7824SOL    HW124371   6.741   0.716   4.302
 7824SOL    HW224372   6.579   0.728   4.324
 7825SOL     OW24373   2.075   2.597   1.400
 7825SOL    HW124374   2.110   2.567   1.311
 7825SOL    HW224375   2.149   2.599   1.467
 7826SOL     OW24376   6.655   1.660   0.652
 7826SOL    HW124377   6.564   1.693   0.624
 7826SOL    HW224378   6.718   1.737   0.656
 7827SOL     OW24379   2.594   6.036   1.106
 7827SOL    HW124380   2.595   5.986   1.193
 7827SOL    HW224381   2.551   5.980   1.036
 7828SOL     OW24382   1.392   4.290   0.041
 7828SOL    HW124383   1.484   4.289   0.081
 7828SOL    HW224384   1.391   4.349   6.990
 7829SOL     OW24385   2.773   3.950   1.011
 7829SOL    HW124386   2.761   3.940   1.110
 7829SOL    HW224387   2.731   3.872   0.964
 7830SOL     OW24388   2.118   4.686   5.480
 7830SOL    HW124389   2.163   4.648   5.400
 7830SOL    HW224390   2.134   4.626   5.559
 7831SOL     OW24391   2.129   6.438   0.887
 7831SOL    HW124392   2.103   6.353   0.841
 7831SOL    HW224393   2.047   6.481   0.926
 7832SOL     OW24394   5.006   0.908   3.095
 7832SOL    HW124395   4.913   0.874   3.086
 7832SOL    HW224396   5.009   0.983   3.160
 7833SOL     OW24397   0.848   1.033   6.741
 7833SOL    HW124398   0.837   1.130   6.760
 7833SOL    HW224399   0.861   0.983   6.827
 7834SOL     OW24400   6.774   1.625   3.339
 7834SOL    HW124401   6.747   1.667   3.253
 7834SOL    HW224402   6.704   1.644   3.408
 7835SOL     OW24403   3.657   2.298   6.135
 7835SOL    HW124404   3.674   2.385   6.089
 7835SOL    HW224405   3.660   2.311   6.234
 7836SOL     OW24406   3.338   2.975   4.948
 7836SOL    HW124407   3.403   2.911   4.907
 7836SOL    HW224408   3.271   3.003   4.879
 7837SOL     OW24409   6.385   5.419   0.194
 7837SOL    HW124410   6.302   5.366   0.180
 7837SOL    HW224411   6.379   5.470   0.280
 7838SOL     OW24412   4.156   6.785   0.273
 7838SOL    HW124413   4.148   6.713   0.342
 7838SOL    HW224414   4.072   6.839   0.271
 7839SOL     OW24415   5.978   4.521   5.059
 7839SOL    HW124416   5.953   4.429   5.089
 7839SOL    HW224417   6.077   4.528   5.050
 7840SOL     OW24418   6.728   2.576   4.092
 7840SOL    HW124419   6.784   2.517   4.035
 7840SOL    HW224420   6.757   2.566   4.188
 7841SOL     OW24421   3.700   2.037   6.501
 7841SOL    HW124422   3.712   1.978   6.581
 7841SOL    HW224423   3.665   1.982   6.425
 7842SOL     OW24424   2.235   2.232   2.689
 7842SOL    HW124425   2.152   2.182   2.713
 7842SOL    HW224426   2.250   2.226   2.591
 7843SOL     OW24427   6.716   5.563   3.163
 7843SOL    HW124428   6.709   5.649   3.112
 7843SOL    HW224429   6.727   5.583   3.260
 7844SOL     OW24430   3.862   6.989   2.540
 7844SOL    HW124431   3.954   6.979   2.578
 7844SOL    HW224432   3.804   0.008   2.605
 7845SOL     OW24433   5.605   2.107   3.385
 7845SOL    HW124434   5.586   2.052   3.466
 7845SOL    HW224435   5.680   2.171   3.405
 7846SOL     OW24436   0.750   1.258   2.160
 7846SOL    HW124437   0.781   1.221   2.072
 7846SOL    HW224438   0.698   1.342   2.145
 7847SOL     OW24439   6.710   1.813   3.157
 7847SOL    HW124440   6.617   1.813   3.121
 7847SOL    HW224441   6.775   1.826   3.081
 7848SOL     OW24442   3.861   3.643   0.381
 7848SOL    HW124443   3.764   3.633   0.359
 7848SOL    HW224444   3.915   3.588   0.318
 7849SOL     OW24445   5.682   4.216   4.012
 7849SOL    HW124446   5.675   4.117   4.014
 7849SOL    HW224447   5.626   4.252   3.937
 7850SOL     OW24448   0.650   1.916   4.673
 7850SOL    HW124449   0.554   1.930   4.649
 7850SOL    HW224450   0.659   1.911   4.773
 7851SOL     OW24451   6.785   1.170   1.411
 7851SOL    HW124452   6.711   1.200   1.351
 7851SOL    HW224453   6.873   1.180   1.363
 7852SOL     OW24454   2.687   1.489   6.201
 7852SOL    HW124455   2.680   1.440   6.288
 7852SOL    HW224456   2.602   1.540   6.186
 7853SOL     OW24457   4.974   2.012   1.609
 7853SOL    HW124458   4.925   2.004   1.696
 7853SOL    HW224459   4.949   2.098   1.565
 7854SOL     OW24460   3.681   3.115   0.180
 7854SOL    HW124461   3.717   3.209   0.181
 7854SOL    HW224462   3.582   3.118   0.190
 7855SOL     OW24463   4.737   5.933   3.948
 7855SOL    HW124464   4.781   5.896   4.030
 7855SOL    HW224465   4.800   5.995   3.901
 7856SOL     OW24466   6.627   4.709   5.567
 7856SOL    HW124467   6.648   4.759   5.482
 7856SOL    HW224468   6.570   4.630   5.546
 7857SOL     OW24469   5.470   1.698   5.744
 7857SOL    HW124470   5.543   1.633   5.724
 7857SOL    HW224471   5.399   1.691   5.675
 7858SOL     OW24472   5.912   6.681   4.085
 7858SOL    HW124473   5.897   6.595   4.036
 7858SOL    HW224474   5.876   6.674   4.178
 7859SOL     OW24475   4.645   2.873   6.370
 7859SOL    HW124476   4.591   2.947   6.331
 7859SOL    HW224477   4.665   2.805   6.300
 7860SOL     OW24478   3.327   0.374   3.049
 7860SOL    HW124479   3.240   0.406   3.012
 7860SOL    HW224480   3.338   0.277   3.029
 7861SOL     OW24481   3.696   4.864   1.705
 7861SOL    HW124482   3.653   4.837   1.791
 7861SOL    HW224483   3.790   4.893   1.723
 7862SOL     OW24484   1.669   4.187   1.475
 7862SOL    HW124485   1.748   4.146   1.430
 7862SOL    HW224486   1.681   4.182   1.575
 7863SOL     OW24487   0.518   5.019   4.057
 7863SOL    HW124488   0.544   5.115   4.044
 7863SOL    HW224489   0.477   4.984   3.972
 7864SOL     OW24490   0.377   5.678   5.566
 7864SOL    HW124491   0.397   5.767   5.608
 7864SOL    HW224492   0.453   5.616   5.580
 7865SOL     OW24493   6.123   6.810   3.647
 7865SOL    HW124494   6.028   6.802   3.674
 7865SOL    HW224495   6.174   6.858   3.719
 7866SOL     OW24496   1.555   1.289   6.362
 7866SOL    HW124497   1.617   1.233   6.417
 7866SOL    HW224498   1.461   1.271   6.389
 7867SOL     OW24499   5.992   6.244   3.916
 7867SOL    HW124500   5.942   6.172   3.963
 7867SOL    HW224501   6.084   6.211   3.893
 7868SOL     OW24502   5.005   6.184   1.671
 7868SOL    HW124503   5.017   6.210   1.767
 7868SOL    HW224504   4.908   6.165   1.654
 7869SOL     OW24505   6.285   3.729   0.361
 7869SOL    HW124506   6.241   3.639   0.351
 7869SOL    HW224507   6.214   3.799   0.373
 7870SOL     OW24508   4.266   4.684   4.250
 7870SOL    HW124509   4.275   4.702   4.348
 7870SOL    HW224510   4.210   4.755   4.208
 7871SOL     OW24511   4.757   2.573   2.292
 7871SOL    HW124512   4.669   2.570   2.340
 7871SOL    HW224513   4.827   2.530   2.348
 7872SOL     OW24514   2.203   3.911   3.140
 7872SOL    HW124515   2.175   3.850   3.066
 7872SOL    HW224516   2.205   3.860   3.226
 7873SOL     OW24517   5.582   6.854   6.080
 7873SOL    HW124518   5.654   6.830   6.146
 7873SOL    HW224519   5.492   6.839   6.122
 7874SOL     OW24520   5.204   1.846   6.868
 7874SOL    HW124521   5.176   1.854   6.963
 7874SOL    HW224522   5.290   1.795   6.862
 7875SOL     OW24523   4.698   2.857   6.641
 7875SOL    HW124524   4.679   2.860   6.543
 7875SOL    HW224525   4.618   2.891   6.691
 7876SOL     OW24526   1.261   0.097   4.605
 7876SOL    HW124527   1.172   0.107   4.559
 7876SOL    HW224528   1.287   0.001   4.606
 7877SOL     OW24529   0.640   2.235   2.932
 7877SOL    HW124530   0.609   2.141   2.917
 7877SOL    HW224531   0.720   2.253   2.874
 7878SOL     OW24532   5.788   4.518   4.576
 7878SOL    HW124533   5.776   4.603   4.525
 7878SOL    HW224534   5.830   4.538   4.665
 7879SOL     OW24535   4.099   5.202   3.133
 7879SOL    HW124536   4.141   5.158   3.212
 7879SOL    HW224537   4.088   5.299   3.151
 7880SOL     OW24538   2.129   5.641   0.765
 7880SOL    HW124539   2.052   5.589   0.802
 7880SOL    HW224540   2.200   5.650   0.835
 7881SOL     OW24541   6.469   4.806   4.452
 7881SOL    HW124542   6.405   4.746   4.500
 7881SOL    HW224543   6.447   4.807   4.354
 7882SOL     OW24544   1.274   2.955   1.642
 7882SOL    HW124545   1.225   2.870   1.625
 7882SOL    HW224546   1.372   2.941   1.624
 7883SOL     OW24547   1.043   0.563   1.066
 7883SOL    HW124548   0.955   0.546   1.023
 7883SOL    HW224549   1.082   0.648   1.031
 7884SOL     OW24550   1.983   3.701   4.520
 7884SOL    HW124551   2.017   3.777   4.465
 7884SOL    HW224552   1.966   3.622   4.460
 7885SOL     OW24553   6.426   5.388   1.371
 7885SOL    HW124554   6.504   5.450   1.377
 7885SOL    HW224555   6.394   5.366   1.463
 7886SOL     OW24556   3.160   5.353   6.567
 7886SOL    HW124557   3.155   5.270   6.511
 7886SOL    HW224558   3.251   5.394   6.557
 7887SOL     OW24559   3.687   2.725   5.261
 7887SOL    HW124560   3.657   2.819   5.251
 7887SOL    HW224561   3.609   2.663   5.256
 7888SOL     OW24562   6.328   6.973   5.117
 7888SOL    HW124563   6.386   6.950   5.039
 7888SOL    HW224564   6.366   6.934   5.201
 7889SOL     OW24565   1.892   5.269   0.778
 7889SOL    HW124566   1.955   5.191   0.765
 7889SOL    HW224567   1.820   5.265   0.709
 7890SOL     OW24568   1.409   2.499   3.270
 7890SOL    HW124569   1.433   2.449   3.353
 7890SOL    HW224570   1.492   2.532   3.226
 7891SOL     OW24571   2.178   3.743   3.797
 7891SOL    HW124572   2.163   3.651   3.759
 7891SOL    HW224573   2.172   3.811   3.724
 7892SOL     OW24574   1.981   0.840   3.736
 7892SOL    HW124575   1.950   0.795   3.820
 7892SOL    HW224576   1.909   0.832   3.667
 7893SOL     OW24577   6.621   6.245   3.010
 7893SOL    HW124578   6.600   6.161   2.959
 7893SOL    HW224579   6.537   6.295   3.028
 7894SOL     OW24580   3.832   6.666   0.313
 7894SOL    HW124581   3.781   6.739   0.268
 7894SOL    HW224582   3.856   6.695   0.406
 7895SOL     OW24583   5.652   0.615   5.050
 7895SOL    HW124584   5.723   0.613   5.121
 7895SOL    HW224585   5.695   0.602   4.960
 7896SOL     OW24586   4.890   3.381   0.757
 7896SOL    HW124587   4.930   3.294   0.785
 7896SOL    HW224588   4.813   3.364   0.695
 7897SOL     OW24589   2.958   4.031   0.070
 7897SOL    HW124590   2.983   3.973   0.148
 7897SOL    HW224591   2.859   4.025   0.055
 7898SOL     OW24592   4.026   2.252   3.360
 7898SOL    HW124593   3.934   2.234   3.394
 7898SOL    HW224594   4.085   2.278   3.436
 7899SOL     OW24595   5.672   0.750   1.461
 7899SOL    HW124596   5.765   0.756   1.427
 7899SOL    HW224597   5.627   0.839   1.451
 7900SOL     OW24598   1.842   5.173   1.929
 7900SOL    HW124599   1.855   5.269   1.955
 7900SOL    HW224600   1.757   5.163   1.877
 7901SOL     OW24601   5.146   1.336   6.564
 7901SOL    HW124602   5.065   1.394   6.556
 7901SOL    HW224603   5.198   1.362   6.645
 7902SOL     OW24604   5.645   6.881   0.996
 7902SOL    HW124605   5.565   6.840   1.041
 7902SOL    HW224606   5.651   6.848   0.902
 7903SOL     OW24607   5.668   1.736   0.560
 7903SOL    HW124608   5.677   1.738   0.460
 7903SOL    HW224609   5.746   1.782   0.602
 7904SOL     OW24610   5.560   0.388   3.304
 7904SOL    HW124611   5.633   0.377   3.237
 7904SOL    HW224612   5.521   0.480   3.297
 7905SOL     OW24613   4.782   2.413   6.796
 7905SOL    HW124614   4.847   2.487   6.812
 7905SOL    HW224615   4.698   2.451   6.756
 7906SOL     OW24616   0.136   5.244   0.359
 7906SOL    HW124617   0.196   5.271   0.435
 7906SOL    HW224618   0.137   5.315   0.289
 7907SOL     OW24619   5.343   2.693   3.080
 7907SOL    HW124620   5.409   2.621   3.059
 7907SOL    HW224621   5.275   2.698   3.007
 7908SOL     OW24622   1.078   1.113   5.730
 7908SOL    HW124623   1.055   1.178   5.802
 7908SOL    HW224624   0.998   1.056   5.710
 7909SOL     OW24625   5.406   4.095   4.217
 7909SOL    HW124626   5.477   4.137   4.273
 7909SOL    HW224627   5.338   4.052   4.277
 7910SOL     OW24628   2.742   3.564   5.652
 7910SOL    HW124629   2.704   3.481   5.611
 7910SOL    HW224630   2.681   3.598   5.723
 7911SOL     OW24631   1.997   3.212   0.308
 7911SOL    HW124632   1.971   3.191   0.213
 7911SOL    HW224633   1.977   3.133   0.366
 7912SOL     OW24634   6.769   4.960   0.413
 7912SOL    HW124635   6.711   4.945   0.493
 7912SOL    HW224636   6.803   4.872   0.380
 7913SOL     OW24637   1.227   4.954   1.056
 7913SOL    HW124638   1.261   4.860   1.064
 7913SOL    HW224639   1.251   5.006   1.138
 7914SOL     OW24640   0.491   4.260   0.185
 7914SOL    HW124641   0.566   4.229   0.244
 7914SOL    HW224642   0.438   4.330   0.233
 7915SOL     OW24643   4.971   3.024   1.975
 7915SOL    HW124644   4.994   3.086   1.900
 7915SOL    HW224645   4.872   3.008   1.975
 7916SOL     OW24646   0.702   4.260   5.320
 7916SOL    HW124647   0.649   4.339   5.350
 7916SOL    HW224648   0.743   4.279   5.231
 7917SOL     OW24649   3.860   3.685   4.515
 7917SOL    HW124650   3.764   3.681   4.488
 7917SOL    HW224651   3.868   3.665   4.613
 7918SOL     OW24652   6.993   1.348   6.743
 7918SOL    HW124653   7.022   1.255   6.724
 7918SOL    HW224654   6.940   1.350   6.828
 7919SOL     OW24655   1.944   4.397   2.199
 7919SOL    HW124656   1.903   4.484   2.225
 7919SOL    HW224657   1.884   4.322   2.228
 7920SOL     OW24658   0.184   5.755   0.903
 7920SOL    HW124659   0.107   5.696   0.930
 7920SOL    HW224660   0.169   5.789   0.811
 7921SOL     OW24661   5.647   6.868   0.482
 7921SOL    HW124662   5.630   6.967   0.477
 7921SOL    HW224663   5.561   6.819   0.492
 7922SOL     OW24664   7.025   6.417   0.118
 7922SOL    HW124665   0.088   6.428   0.154
 7922SOL    HW224666   6.997   6.322   0.125
 7923SOL     OW24667   3.163   0.165   2.186
 7923SOL    HW124668   3.224   0.124   2.118
 7923SOL    HW224669   3.095   0.097   2.214
 7924SOL     OW24670   4.221   0.122   2.385
 7924SOL    HW124671   4.293   0.125   2.316
 7924SOL    HW224672   4.140   0.170   2.352
 7925SOL     OW24673   1.227   2.029   6.160
 7925SOL    HW124674   1.258   1.962   6.092
 7925SOL    HW224675   1.174   2.100   6.114
 7926SOL     OW24676   4.513   1.521   5.450
 7926SOL    HW124677   4.510   1.437   5.396
 7926SOL    HW224678   4.471   1.595   5.398
 7927SOL     OW24679   4.315   5.277   2.984
 7927SOL    HW124680   4.256   5.229   3.049
 7927SOL    HW224681   4.258   5.328   2.920
 7928SOL     OW24682   1.252   2.203   4.583
 7928SOL    HW124683   1.275   2.109   4.555
 7928SOL    HW224684   1.236   2.204   4.682
 7929SOL     OW24685   3.838   4.997   6.190
 7929SOL    HW124686   3.800   4.986   6.099
 7929SOL    HW224687   3.822   4.914   6.243
 7930SOL     OW24688   4.456   5.463   4.578
 7930SOL    HW124689   4.507   5.383   4.547
 7930SOL    HW224690   4.470   5.538   4.514
 7931SOL     OW24691   1.842   2.116   6.388
 7931SOL    HW124692   1.824   2.033   6.441
 7931SOL    HW224693   1.824   2.197   6.445
 7932SOL     OW24694   1.581   6.113   6.615
 7932SOL    HW124695   1.670   6.130   6.574
 7932SOL    HW224696   1.522   6.065   6.550
 7933SOL     OW24697   0.426   5.684   6.496
 7933SOL    HW124698   0.340   5.735   6.505
 7933SOL    HW224699   0.410   5.604   6.439
 7934SOL     OW24700   2.419   4.856   0.590
 7934SOL    HW124701   2.451   4.936   0.640
 7934SOL    HW224702   2.395   4.784   0.654
 7935SOL     OW24703   5.818   5.681   6.866
 7935SOL    HW124704   5.724   5.687   6.899
 7935SOL    HW224705   5.866   5.766   6.887
 7936SOL     OW24706   3.992   6.357   2.472
 7936SOL    HW124707   4.064   6.420   2.501
 7936SOL    HW224708   3.905   6.406   2.469
 7937SOL     OW24709   6.707   6.769   3.679
 7937SOL    HW124710   6.662   6.681   3.693
 7937SOL    HW224711   6.639   6.842   3.683
 7938SOL     OW24712   6.393   5.644   4.863
 7938SOL    HW124713   6.472   5.630   4.922
 7938SOL    HW224714   6.367   5.557   4.821
 7939SOL     OW24715   1.935   2.392   5.612
 7939SOL    HW124716   1.871   2.447   5.558
 7939SOL    HW224717   1.960   2.310   5.559
 7940SOL     OW24718   1.938   3.826   2.068
 7940SOL    HW124719   1.845   3.791   2.081
 7940SOL    HW224720   1.994   3.756   2.024
 7941SOL     OW24721   6.273   0.716   0.642
 7941SOL    HW124722   6.182   0.751   0.664
 7941SOL    HW224723   6.332   0.791   0.611
 7942SOL     OW24724   6.513   5.988   2.580
 7942SOL    HW124725   6.515   5.918   2.651
 7942SOL    HW224726   6.426   6.037   2.583
 7943SOL     OW24727   6.445   3.119   0.973
 7943SOL    HW124728   6.403   3.210   0.985
 7943SOL    HW224729   6.531   3.128   0.923
 7944SOL     OW24730   0.537   2.431   1.770
 7944SOL    HW124731   0.454   2.487   1.766
 7944SOL    HW224732   0.512   2.334   1.765
 7945SOL     OW24733   5.779   5.797   1.638
 7945SOL    HW124734   5.879   5.803   1.642
 7945SOL    HW224735   5.740   5.889   1.632
 7946SOL     OW24736   2.394   1.553   5.405
 7946SOL    HW124737   2.444   1.481   5.453
 7946SOL    HW224738   2.352   1.514   5.323
 7947SOL     OW24739   3.347   2.273   6.385
 7947SOL    HW124740   3.348   2.177   6.357
 7947SOL    HW224741   3.440   2.310   6.382
 7948SOL     OW24742   1.091   6.266   1.017
 7948SOL    HW124743   1.076   6.329   0.941
 7948SOL    HW224744   1.092   6.318   1.103
 7949SOL     OW24745   4.405   4.602   4.555
 7949SOL    HW124746   4.380   4.517   4.601
 7949SOL    HW224747   4.349   4.677   4.589
 7950SOL     OW24748   6.031   5.235   4.769
 7950SOL    HW124749   5.950   5.212   4.715
 7950SOL    HW224750   6.020   5.199   4.861
 7951SOL     OW24751   2.254   4.328   1.745
 7951SOL    HW124752   2.344   4.370   1.746
 7951SOL    HW224753   2.194   4.375   1.809
 7952SOL     OW24754   0.499   2.904   6.802
 7952SOL    HW124755   0.427   2.963   6.838
 7952SOL    HW224756   0.509   2.824   6.862
 7953SOL     OW24757   2.359   2.683   4.142
 7953SOL    HW124758   2.456   2.665   4.161
 7953SOL    HW224759   2.303   2.639   4.213
 7954SOL     OW24760   4.832   4.084   5.413
 7954SOL    HW124761   4.799   4.000   5.370
 7954SOL    HW224762   4.910   4.119   5.361
 7955SOL     OW24763   1.125   6.686   6.755
 7955SOL    HW124764   1.095   6.781   6.765
 7955SOL    HW224765   1.121   6.641   6.844
 7956SOL     OW24766   3.955   5.876   2.519
 7956SOL    HW124767   3.956   5.798   2.582
 7956SOL    HW224768   3.880   5.937   2.543
 7957SOL     OW24769   0.605   0.729   1.974
 7957SOL    HW124770   0.642   0.782   1.897
 7957SOL    HW224771   0.508   0.710   1.957
 7958SOL     OW24772   3.790   5.607   4.431
 7958SOL    HW124773   3.869   5.571   4.479
 7958SOL    HW224774   3.706   5.581   4.479
 7959SOL     OW24775   4.346   5.788   1.114
 7959SOL    HW124776   4.348   5.733   1.030
 7959SOL    HW224777   4.290   5.869   1.099
 7960SOL     OW24778   2.719   0.959   0.828
 7960SOL    HW124779   2.718   0.907   0.742
 7960SOL    HW224780   2.755   1.051   0.810
 7961SOL     OW24781   0.144   0.401   1.268
 7961SOL    HW124782   0.195   0.316   1.282
 7961SOL    HW224783   0.178   0.471   1.332
 7962SOL     OW24784   1.398   0.557   0.147
 7962SOL    HW124785   1.464   0.627   0.171
 7962SOL    HW224786   1.433   0.467   0.175
 7963SOL     OW24787   6.846   0.582   3.730
 7963SOL    HW124788   6.945   0.572   3.744
 7963SOL    HW224789   6.800   0.584   3.819
 7964SOL     OW24790   0.298   5.065   3.821
 7964SOL    HW124791   0.268   4.985   3.770
 7964SOL    HW224792   0.219   5.122   3.844
 7965SOL     OW24793   3.595   2.852   6.549
 7965SOL    HW124794   3.647   2.856   6.464
 7965SOL    HW224795   3.512   2.908   6.541
 7966SOL     OW24796   0.894   3.045   5.079
 7966SOL    HW124797   0.864   3.139   5.064
 7966SOL    HW224798   0.994   3.043   5.087
 7967SOL     OW24799   2.759   5.966   3.840
 7967SOL    HW124800   2.723   6.051   3.801
 7967SOL    HW224801   2.684   5.904   3.863
 7968SOL     OW24802   2.426   2.723   3.163
 7968SOL    HW124803   2.381   2.763   3.084
 7968SOL    HW224804   2.495   2.657   3.132
 7969SOL     OW24805   4.179   5.970   0.715
 7969SOL    HW124806   4.208   6.051   0.767
 7969SOL    HW224807   4.126   5.910   0.774
 7970SOL     OW24808   0.217   3.038   2.790
 7970SOL    HW124809   0.208   3.113   2.855
 7970SOL    HW224810   0.127   3.017   2.751
 7971SOL     OW24811   4.406   1.615   0.663
 7971SOL    HW124812   4.381   1.712   0.664
 7971SOL    HW224813   4.493   1.604   0.614
 7972SOL     OW24814   1.707   3.517   0.877
 7972SOL    HW124815   1.666   3.549   0.791
 7972SOL    HW224816   1.656   3.556   0.954
 7973SOL     OW24817   5.084   4.583   4.048
 7973SOL    HW124818   5.180   4.598   4.071
 7973SOL    HW224819   5.063   4.486   4.054
 7974SOL     OW24820   5.479   1.019   5.655
 7974SOL    HW124821   5.435   1.090   5.599
 7974SOL    HW224822   5.446   0.929   5.626
 7975SOL     OW24823   5.160   0.377   2.776
 7975SOL    HW124824   5.172   0.401   2.872
 7975SOL    HW224825   5.206   0.290   2.757
 7976SOL     OW24826   0.456   0.594   6.939
 7976SOL    HW124827   0.492   0.573   6.848
 7976SOL    HW224828   0.410   0.682   6.938
 7977SOL     OW24829   4.974   5.686   1.796
 7977SOL    HW124830   5.049   5.724   1.741
 7977SOL    HW224831   4.899   5.752   1.799
 7978SOL     OW24832   6.140   3.393   6.083
 7978SOL    HW124833   6.072   3.399   6.156
 7978SOL    HW224834   6.223   3.350   6.118
 7979SOL     OW24835   3.330   6.763   5.453
 7979SOL    HW124836   3.385   6.681   5.439
 7979SOL    HW224837   3.240   6.738   5.488
 7980SOL     OW24838   2.466   5.412   0.001
 7980SOL    HW124839   2.565   5.417   7.013
 7980SOL    HW224840   2.421   5.368   6.953
 7981SOL     OW24841   0.320   5.607   1.639
 7981SOL    HW124842   0.298   5.657   1.723
 7981SOL    HW224843   0.284   5.514   1.645
 7982SOL     OW24844   0.157   1.692   0.137
 7982SOL    HW124845   0.182   1.751   0.060
 7982SOL    HW224846   0.083   1.734   0.189
 7983SOL     OW24847   5.658   1.768   2.384
 7983SOL    HW124848   5.605   1.772   2.299
 7983SOL    HW224849   5.621   1.832   2.450
 7984SOL     OW24850   1.629   1.517   0.902
 7984SOL    HW124851   1.695   1.527   0.977
 7984SOL    HW224852   1.542   1.559   0.928
 7985SOL     OW24853   2.233   6.936   3.749
 7985SOL    HW124854   2.297   7.011   3.732
 7985SOL    HW224855   2.282   6.857   3.785
 7986SOL     OW24856   3.467   1.416   6.906
 7986SOL    HW124857   3.385   1.415   6.848
 7986SOL    HW224858   3.440   1.415   7.002
 7987SOL     OW24859   1.546   3.246   6.810
 7987SOL    HW124860   1.456   3.226   6.851
 7987SOL    HW224861   1.571   3.340   6.831
 7988SOL     OW24862   1.312   2.131   3.643
 7988SOL    HW124863   1.347   2.118   3.736
 7988SOL    HW224864   1.241   2.201   3.644
 7989SOL     OW24865   3.740   3.151   5.481
 7989SOL    HW124866   3.715   3.055   5.492
 7989SOL    HW224867   3.675   3.195   5.418
 7990SOL     OW24868   6.650   3.263   3.273
 7990SOL    HW124869   6.578   3.251   3.341
 7990SOL    HW224870   6.609   3.277   3.183
 7991SOL     OW24871   6.413   0.536   3.703
 7991SOL    HW124872   6.441   0.556   3.610
 7991SOL    HW224873   6.398   0.622   3.753
 7992SOL     OW24874   1.010   0.022   1.650
 7992SOL    HW124875   1.070   0.102   1.659
 7992SOL    HW224876   0.959   0.010   1.735
 7993SOL     OW24877   0.624   6.581   6.593
 7993SOL    HW124878   0.710   6.547   6.631
 7993SOL    HW224879   0.570   6.505   6.557
 7994SOL     OW24880   4.387   0.015   2.938
 7994SOL    HW124881   4.480   0.043   2.915
 7994SOL    HW224882   4.385   6.946   2.952
 7995SOL     OW24883   4.427   4.875   3.378
 7995SOL    HW124884   4.472   4.944   3.435
 7995SOL    HW224885   4.468   4.876   3.287
 7996SOL     OW24886   2.643   0.262   4.888
 7996SOL    HW124887   2.559   0.209   4.875
 7996SOL    HW224888   2.641   0.306   4.977
 7997SOL     OW24889   0.534   1.104   1.407
 7997SOL    HW124890   0.535   1.182   1.470
 7997SOL    HW224891   0.625   1.063   1.404
 7998SOL     OW24892   3.984   5.164   0.844
 7998SOL    HW124893   4.013   5.084   0.794
 7998SOL    HW224894   3.908   5.208   0.796
 7999SOL     OW24895   0.504   6.484   6.188
 7999SOL    HW124896   0.477   6.417   6.258
 7999SOL    HW224897   0.449   6.567   6.198
 8000SOL     OW24898   5.609   0.276   0.243
 8000SOL    HW124899   5.526   0.269   0.298
 8000SOL    HW224900   5.689   0.260   0.301
 8001SOL     OW24901   3.245   5.915   0.888
 8001SOL    HW124902   3.298   5.958   0.961
 8001SOL    HW224903   3.160   5.878   0.926
 8002SOL     OW24904   1.007   2.518   5.399
 8002SOL    HW124905   0.938   2.486   5.463
 8002SOL    HW224906   1.065   2.441   5.371
 8003SOL     OW24907   2.803   4.999   2.625
 8003SOL    HW124908   2.755   4.929   2.571
 8003SOL    HW224909   2.892   5.017   2.584
 8004SOL     OW24910   2.129   3.380   4.012
 8004SOL    HW124911   2.123   3.281   4.019
 8004SOL    HW224912   2.123   3.408   3.916
 8005SOL     OW24913   3.706   0.746   2.646
 8005SOL    HW124914   3.713   0.772   2.550
 8005SOL    HW224915   3.750   0.816   2.703
 8006SOL     OW24916   2.375   0.424   6.430
 8006SOL    HW124917   2.371   0.351   6.362
 8006SOL    HW224918   2.375   0.385   6.522
 8007SOL     OW24919   0.140   1.259   4.950
 8007SOL    HW124920   0.216   1.311   4.990
 8007SOL    HW224921   0.112   1.302   4.864
 8008SOL     OW24922   4.571   6.182   5.638
 8008SOL    HW124923   4.516   6.154   5.559
 8008SOL    HW224924   4.668   6.165   5.619
 8009SOL     OW24925   5.574   0.794   2.834
 8009SOL    HW124926   5.620   0.809   2.747
 8009SOL    HW224927   5.512   0.716   2.826
 8010SOL     OW24928   0.653   1.300   0.111
 8010SOL    HW124929   0.653   1.200   0.113
 8010SOL    HW224930   0.740   1.332   0.075
 8011SOL     OW24931   3.323   2.355   0.833
 8011SOL    HW124932   3.365   2.273   0.872
 8011SOL    HW224933   3.273   2.404   0.904
 8012SOL     OW24934   2.160   4.629   1.653
 8012SOL    HW124935   2.229   4.565   1.618
 8012SOL    HW224936   2.185   4.722   1.626
 8013SOL     OW24937   1.379   4.824   3.083
 8013SOL    HW124938   1.398   4.738   3.036
 8013SOL    HW224939   1.280   4.837   3.088
 8014SOL     OW24940   0.643   6.297   5.387
 8014SOL    HW124941   0.547   6.327   5.395
 8014SOL    HW224942   0.669   6.245   5.468
 8015SOL     OW24943   2.527   0.767   0.406
 8015SOL    HW124944   2.528   0.834   0.480
 8015SOL    HW224945   2.616   0.767   0.360
 8016SOL     OW24946   5.137   0.030   6.343
 8016SOL    HW124947   5.220   0.085   6.336
 8016SOL    HW224948   5.067   0.067   6.281
 8017SOL     OW24949   6.529   6.629   0.602
 8017SOL    HW124950   6.568   6.602   0.690
 8017SOL    HW224951   6.585   6.592   0.527
 8018SOL     OW24952   3.077   2.375   6.111
 8018SOL    HW124953   3.068   2.277   6.096
 8018SOL    HW224954   3.173   2.402   6.098
 8019SOL     OW24955   2.374   4.240   5.828
 8019SOL    HW124956   2.277   4.241   5.854
 8019SOL    HW224957   2.392   4.315   5.764
 8020SOL     OW24958   6.136   6.194   0.783
 8020SOL    HW124959   6.096   6.268   0.729
 8020SOL    HW224960   6.062   6.140   0.824
 8021SOL     OW24961   1.423   1.703   1.081
 8021SOL    HW124962   1.446   1.659   1.168
 8021SOL    HW224963   1.492   1.772   1.059
 8022SOL     OW24964   4.697   6.889   2.768
 8022SOL    HW124965   4.775   6.878   2.829
 8022SOL    HW224966   4.614   6.858   2.813
 8023SOL     OW24967   6.289   5.115   3.348
 8023SOL    HW124968   6.249   5.025   3.363
 8023SOL    HW224969   6.233   5.185   3.393
 8024SOL     OW24970   3.249   5.268   6.858
 8024SOL    HW124971   3.151   5.276   6.874
 8024SOL    HW224972   3.273   5.315   6.774
 8025SOL     OW24973   2.495   6.352   6.469
 8025SOL    HW124974   2.509   6.255   6.487
 8025SOL    HW224975   2.540   6.377   6.383
 8026SOL     OW24976   1.527   3.971   6.794
 8026SOL    HW124977   1.601   3.975   6.861
 8026SOL    HW224978   1.543   4.038   6.722
 8027SOL     OW24979   4.272   1.213   5.751
 8027SOL    HW124980   4.275   1.143   5.679
 8027SOL    HW224981   4.272   1.304   5.710
 8028SOL     OW24982   3.292   4.924   4.576
 8028SOL    HW124983   3.220   4.898   4.512
 8028SOL    HW224984   3.266   4.895   4.669
 8029SOL     OW24985   4.883   3.050   0.946
 8029SOL    HW124986   4.880   2.950   0.946
 8029SOL    HW224987   4.851   3.085   1.034
 8030SOL     OW24988   4.303   4.592   0.140
 8030SOL    HW124989   4.268   4.509   0.098
 8030SOL    HW224990   4.317   4.662   0.069
 8031SOL     OW24991   5.341   6.611   3.141
 8031SOL    HW124992   5.389   6.551   3.206
 8031SOL    HW224993   5.375   6.705   3.153
 8032SOL     OW24994   5.914   4.128   6.091
 8032SOL    HW124995   5.819   4.157   6.086
 8032SOL    HW224996   5.972   4.208   6.108
 8033SOL     OW24997   4.738   2.787   6.052
 8033SOL    HW124998   4.692   2.722   6.112
 8033SOL    HW224999   4.825   2.814   6.092
 8034SOL     OW25000   6.033   0.625   4.647
 8034SOL    HW125001   6.016   0.562   4.571
 8034SOL    HW225002   6.065   0.572   4.726
 8035SOL     OW25003   4.865   1.672   4.341
 8035SOL    HW125004   4.849   1.659   4.244
 8035SOL    HW225005   4.945   1.619   4.369
 8036SOL     OW25006   0.956   4.490   2.697
 8036SOL    HW125007   0.880   4.491   2.762
 8036SOL    HW225008   0.933   4.548   2.618
 8037SOL     OW25009   1.247   2.939   1.315
 8037SOL    HW125010   1.239   2.842   1.338
 8037SOL    HW225011   1.343   2.966   1.317
 8038SOL     OW25012   3.801   0.772   3.517
 8038SOL    HW125013   3.708   0.791   3.487
 8038SOL    HW225014   3.851   0.858   3.528
 8039SOL     OW25015   0.456   1.401   4.263
 8039SOL    HW125016   0.435   1.314   4.307
 8039SOL    HW225017   0.417   1.402   4.171
 8040SOL     OW25018   1.481   6.414   0.314
 8040SOL    HW125019   1.569   6.441   0.352
 8040SOL    HW225020   1.487   6.411   0.214
 8041SOL     OW25021   2.937   1.685   1.658
 8041SOL    HW125022   2.962   1.770   1.704
 8041SOL    HW225023   2.837   1.676   1.657
 8042SOL     OW25024   3.384   2.985   3.854
 8042SOL    HW125025   3.454   3.005   3.785
 8042SOL    HW225026   3.293   3.003   3.816
 8043SOL     OW25027   3.975   6.675   2.420
 8043SOL    HW125028   3.902   6.610   2.399
 8043SOL    HW225029   3.949   6.730   2.500
 8044SOL     OW25030   3.823   2.970   1.110
 8044SOL    HW125031   3.843   3.021   1.194
 8044SOL    HW225032   3.823   2.872   1.130
 8045SOL     OW25033   5.373   0.837   1.288
 8045SOL    HW125034   5.442   0.896   1.246
 8045SOL    HW225035   5.316   0.797   1.217
 8046SOL     OW25036   0.245   4.887   0.558
 8046SOL    HW125037   0.225   4.906   0.462
 8046SOL    HW225038   0.223   4.968   0.613
 8047SOL     OW25039   3.494   5.452   4.359
 8047SOL    HW125040   3.544   5.365   4.360
 8047SOL    HW225041   3.415   5.443   4.298
 8048SOL     OW25042   5.338   0.801   5.835
 8048SOL    HW125043   5.427   0.826   5.874
 8048SOL    HW225044   5.347   0.716   5.783
 8049SOL     OW25045   0.899   0.253   0.340
 8049SOL    HW125046   0.895   0.325   0.271
 8049SOL    HW225047   0.873   0.291   0.429
 8050SOL     OW25048   1.811   3.978   2.882
 8050SOL    HW125049   1.793   4.008   2.976
 8050SOL    HW225050   1.756   3.897   2.862
 8051SOL     OW25051   4.993   5.930   3.167
 8051SOL    HW125052   4.928   5.854   3.157
 8051SOL    HW225053   4.998   5.956   3.263
 8052SOL     OW25054   4.848   1.472   1.682
 8052SOL    HW125055   4.859   1.536   1.758
 8052SOL    HW225056   4.800   1.391   1.714
 8053SOL     OW25057   3.076   3.903   3.680
 8053SOL    HW125058   3.143   3.831   3.700
 8053SOL    HW225059   3.089   3.934   3.586
 8054SOL     OW25060   4.332   0.162   4.745
 8054SOL    HW125061   4.301   0.141   4.652
 8054SOL    HW225062   4.429   0.184   4.744
 8055SOL     OW25063   0.281   0.205   5.716
 8055SOL    HW125064   0.185   0.180   5.704
 8055SOL    HW225065   0.291   0.262   5.797
 8056SOL     OW25066   4.101   2.220   3.677
 8056SOL    HW125067   4.007   2.200   3.704
 8056SOL    HW225068   4.157   2.231   3.758
 8057SOL     OW25069   3.241   2.000   3.457
 8057SOL    HW125070   3.276   2.045   3.375
 8057SOL    HW225071   3.159   2.047   3.489
 8058SOL     OW25072   4.644   0.715   2.302
 8058SOL    HW125073   4.638   0.788   2.371
 8058SOL    HW225074   4.723   0.658   2.321
 8059SOL     OW25075   4.403   2.444   4.645
 8059SOL    HW125076   4.428   2.476   4.736
 8059SOL    HW225077   4.304   2.447   4.633
 8060SOL     OW25078   0.927   2.616   3.790
 8060SOL    HW125079   0.846   2.563   3.766
 8060SOL    HW225080   0.933   2.623   3.890
 8061SOL     OW25081   6.973   0.303   2.238
 8061SOL    HW125082   7.028   0.265   2.163
 8061SOL    HW225083   0.003   0.350   2.303
 8062SOL     OW25084   3.594   5.197   4.353
 8062SOL    HW125085   3.627   5.109   4.387
 8062SOL    HW225086   3.608   5.202   4.254
 8063SOL     OW25087   0.640   2.772   0.521
 8063SOL    HW125088   0.604   2.687   0.484
 8063SOL    HW225089   0.668   2.832   0.446
 8064SOL     OW25090   0.297   4.447   1.130
 8064SOL    HW125091   0.222   4.450   1.196
 8064SOL    HW225092   0.261   4.467   1.039
 8065SOL     OW25093   3.515   5.920   4.283
 8065SOL    HW125094   3.460   5.871   4.351
 8065SOL    HW225095   3.507   5.874   4.195
 8066SOL     OW25096   0.113   2.055   5.822
 8066SOL    HW125097   0.091   2.152   5.813
 8066SOL    HW225098   0.190   2.044   5.885
 8067SOL     OW25099   4.783   2.742   1.853
 8067SOL    HW125100   4.694   2.699   1.838
 8067SOL    HW225101   4.770   2.832   1.896
 8068SOL     OW25102   6.722   4.634   0.225
 8068SOL    HW125103   6.739   4.575   0.147
 8068SOL    HW225104   6.808   4.676   0.255
 8069SOL     OW25105   1.868   6.216   0.923
 8069SOL    HW125106   1.785   6.178   0.883
 8069SOL    HW225107   1.854   6.312   0.945
 8070SOL     OW25108   3.073   3.221   0.394
 8070SOL    HW125109   2.992   3.218   0.451
 8070SOL    HW225110   3.142   3.280   0.436
 8071SOL     OW25111   2.785   6.374   4.672
 8071SOL    HW125112   2.866   6.391   4.727
 8071SOL    HW225113   2.813   6.333   4.585
 8072SOL     OW25114   3.359   0.770   6.941
 8072SOL    HW125115   3.338   0.687   6.890
 8072SOL    HW225116   3.298   0.844   6.912
 8073SOL     OW25117   4.303   5.990   5.153
 8073SOL    HW125118   4.239   6.050   5.105
 8073SOL    HW225119   4.286   5.895   5.127
 8074SOL     OW25120   3.808   2.628   0.805
 8074SOL    HW125121   3.749   2.556   0.767
 8074SOL    HW225122   3.829   2.606   0.900
 8075SOL     OW25123   6.366   1.180   0.469
 8075SOL    HW125124   6.382   1.277   0.488
 8075SOL    HW225125   6.409   1.156   0.382
 8076SOL     OW25126   5.134   2.537   5.525
 8076SOL    HW125127   5.152   2.506   5.432
 8076SOL    HW225128   5.221   2.548   5.574
 8077SOL     OW25129   1.782   5.722   2.042
 8077SOL    HW125130   1.774   5.622   2.044
 8077SOL    HW225131   1.700   5.763   2.082
 8078SOL     OW25132   6.024   1.391   0.379
 8078SOL    HW125133   6.050   1.439   0.295
 8078SOL    HW225134   6.010   1.457   0.453
 8079SOL     OW25135   4.661   1.460   3.229
 8079SOL    HW125136   4.721   1.451   3.149
 8079SOL    HW225137   4.716   1.481   3.309
 8080SOL     OW25138   0.468   2.984   0.219
 8080SOL    HW125139   0.511   2.894   0.210
 8080SOL    HW225140   0.399   2.981   0.291
 8081SOL     OW25141   5.172   6.779   4.247
 8081SOL    HW125142   5.249   6.741   4.299
 8081SOL    HW225143   5.128   6.851   4.301
 8082SOL     OW25144   5.430   0.077   1.735
 8082SOL    HW125145   5.452   0.037   1.824
 8082SOL    HW225146   5.356   0.143   1.746
 8083SOL     OW25147   5.181   3.990   2.286
 8083SOL    HW125148   5.275   3.989   2.320
 8083SOL    HW225149   5.147   3.896   2.279
 8084SOL     OW25150   5.296   0.039   0.007
 8084SOL    HW125151   5.364   0.045   0.080
 8084SOL    HW225152   5.336   0.073   6.952
 8085SOL     OW25153   5.939   6.882   2.686
 8085SOL    HW125154   5.956   6.849   2.594
 8085SOL    HW225155   5.846   6.918   2.692
 8086SOL     OW25156   4.501   1.182   3.754
 8086SOL    HW125157   4.470   1.189   3.849
 8086SOL    HW225158   4.539   1.091   3.738
 8087SOL     OW25159   2.919   1.134   1.052
 8087SOL    HW125160   2.845   1.083   1.097
 8087SOL    HW225161   2.884   1.178   0.969
 8088SOL     OW25162   5.318   2.578   1.180
 8088SOL    HW125163   5.338   2.483   1.201
 8088SOL    HW225164   5.231   2.584   1.132
 8089SOL     OW25165   5.140   2.682   0.267
 8089SOL    HW125166   5.044   2.693   0.292
 8089SOL    HW225167   5.156   2.589   0.236
 8090SOL     OW25168   3.867   2.361   6.923
 8090SOL    HW125169   3.840   2.439   6.867
 8090SOL    HW225170   3.953   2.324   6.888
 8091SOL     OW25171   2.724   4.145   6.147
 8091SOL    HW125172   2.673   4.147   6.062
 8091SOL    HW225173   2.706   4.059   6.195
 8092SOL     OW25174   0.001   2.626   5.420
 8092SOL    HW125175   0.070   2.698   5.413
 8092SOL    HW225176   6.970   2.646   5.497
 8093SOL     OW25177   4.905   5.834   2.775
 8093SOL    HW125178   4.925   5.822   2.678
 8093SOL    HW225179   4.904   5.745   2.820
 8094SOL     OW25180   1.394   3.640   5.018
 8094SOL    HW125181   1.471   3.695   4.986
 8094SOL    HW225182   1.340   3.692   5.083
 8095SOL     OW25183   6.394   4.026   4.577
 8095SOL    HW125184   6.334   3.954   4.612
 8095SOL    HW225185   6.415   4.008   4.481
 8096SOL     OW25186   3.108   5.646   3.889
 8096SOL    HW125187   3.098   5.613   3.795
 8096SOL    HW225188   3.087   5.744   3.893
 8097SOL     OW25189   4.703   6.600   3.665
 8097SOL    HW125190   4.604   6.592   3.665
 8097SOL    HW225191   4.730   6.684   3.712
 8098SOL     OW25192   2.427   6.403   3.889
 8098SOL    HW125193   2.523   6.377   3.906
 8098SOL    HW225194   2.377   6.401   3.975
 8099SOL     OW25195   4.531   6.976   3.820
 8099SOL    HW125196   4.470   6.902   3.792
 8099SOL    HW225197   4.477   0.024   3.851
 8100SOL     OW25198   6.473   0.200   0.208
 8100SOL    HW125199   6.458   0.262   0.132
 8100SOL    HW225200   6.442   0.243   0.293
 8101SOL     OW25201   1.946   6.713   3.997
 8101SOL    HW125202   1.866   6.740   4.050
 8101SOL    HW225203   2.005   6.656   4.054
 8102SOL     OW25204   0.577   4.803   4.424
 8102SOL    HW125205   0.553   4.900   4.421
 8102SOL    HW225206   0.536   4.761   4.505
 8103SOL     OW25207   4.593   0.383   1.060
 8103SOL    HW125208   4.690   0.403   1.064
 8103SOL    HW225209   4.567   0.326   1.139
 8104SOL     OW25210   2.777   6.515   5.673
 8104SOL    HW125211   2.685   6.509   5.633
 8104SOL    HW225212   2.829   6.586   5.626
 8105SOL     OW25213   1.157   2.462   3.359
 8105SOL    HW125214   1.251   2.470   3.327
 8105SOL    HW225215   1.113   2.384   3.314
 8106SOL     OW25216   2.357   6.007   3.117
 8106SOL    HW125217   2.326   6.100   3.095
 8106SOL    HW225218   2.296   5.940   3.075
 8107SOL     OW25219   0.149   5.426   5.232
 8107SOL    HW125220   0.153   5.453   5.136
 8107SOL    HW225221   0.151   5.508   5.290
 8108SOL     OW25222   6.198   3.893   4.741
 8108SOL    HW125223   6.201   3.951   4.823
 8108SOL    HW225224   6.106   3.856   4.730
 8109SOL     OW25225   1.310   3.675   4.432
 8109SOL    HW125226   1.374   3.683   4.508
 8109SOL    HW225227   1.239   3.745   4.440
 8110SOL     OW25228   2.912   6.496   0.861
 8110SOL    HW125229   2.908   6.409   0.813
 8110SOL    HW225230   2.844   6.559   0.824
 8111SOL     OW25231   4.287   0.823   5.042
 8111SOL    HW125232   4.210   0.760   5.057
 8111SOL    HW225233   4.351   0.782   4.977
 8112SOL     OW25234   2.076   1.963   4.434
 8112SOL    HW125235   2.054   1.913   4.351
 8112SOL    HW225236   2.175   1.969   4.445
 8113SOL     OW25237   3.380   3.336   0.935
 8113SOL    HW125238   3.299   3.375   0.978
 8113SOL    HW225239   3.353   3.275   0.860
 8114SOL     OW25240   2.085   3.884   1.390
 8114SOL    HW125241   2.107   3.802   1.337
 8114SOL    HW225242   2.153   3.896   1.462
 8115SOL     OW25243   4.000   0.376   0.812
 8115SOL    HW125244   3.984   0.369   0.910
 8115SOL    HW225245   4.092   0.413   0.796
 8116SOL     OW25246   4.705   6.566   4.835
 8116SOL    HW125247   4.803   6.576   4.850
 8116SOL    HW225248   4.662   6.531   4.919
 8117SOL     OW25249   1.876   1.153   3.693
 8117SOL    HW125250   1.780   1.125   3.682
 8117SOL    HW225251   1.899   1.152   3.791
 8118SOL     OW25252   6.219   2.885   5.476
 8118SOL    HW125253   6.227   2.822   5.398
 8118SOL    HW225254   6.307   2.930   5.491
 8119SOL     OW25255   6.328   5.781   5.646
 8119SOL    HW125256   6.328   5.694   5.696
 8119SOL    HW225257   6.421   5.815   5.637
 8120SOL     OW25258   3.527   4.777   6.943
 8120SOL    HW125259   3.525   4.861   6.888
 8120SOL    HW225260   3.530   4.698   6.882
 8121SOL     OW25261   0.052   5.729   1.597
 8121SOL    HW125262   0.042   5.661   1.670
 8121SOL    HW225263   0.142   5.719   1.556
 8122SOL     OW25264   1.680   5.714   2.418
 8122SOL    HW125265   1.725   5.633   2.382
 8122SOL    HW225266   1.747   5.773   2.462
 8123SOL     OW25267   6.961   0.304   0.230
 8123SOL    HW125268   6.993   0.226   0.176
 8123SOL    HW225269   7.004   0.387   0.195
 8124SOL     OW25270   6.966   6.460   0.515
 8124SOL    HW125271   0.035   6.450   0.502
 8124SOL    HW225272   6.929   6.375   0.552
 8125SOL     OW25273   1.434   0.424   3.251
 8125SOL    HW125274   1.455   0.381   3.164
 8125SOL    HW225275   1.482   0.377   3.325
 8126SOL     OW25276   5.807   4.647   2.591
 8126SOL    HW125277   5.842   4.702   2.667
 8126SOL    HW225278   5.883   4.616   2.534
 8127SOL     OW25279   3.151   5.716   7.016
 8127SOL    HW125280   3.068   5.681   6.973
 8127SOL    HW225281   3.167   5.811   6.987
 8128SOL     OW25282   3.360   3.161   1.308
 8128SOL    HW125283   3.337   3.204   1.221
 8128SOL    HW225284   3.423   3.084   1.292
 8129SOL     OW25285   4.199   1.002   6.100
 8129SOL    HW125286   4.202   0.903   6.118
 8129SOL    HW225287   4.286   1.030   6.059
 8130SOL     OW25288   0.270   4.427   6.765
 8130SOL    HW125289   0.242   4.423   6.669
 8130SOL    HW225290   0.302   4.338   6.794
 8131SOL     OW25291   3.574   0.914   0.915
 8131SOL    HW125292   3.512   0.846   0.954
 8131SOL    HW225293   3.558   0.921   0.816
 8132SOL     OW25294   5.363   6.044   6.332
 8132SOL    HW125295   5.416   5.991   6.399
 8132SOL    HW225296   5.361   6.140   6.361
 8133SOL     OW25297   3.315   4.944   1.493
 8133SOL    HW125298   3.361   4.998   1.563
 8133SOL    HW225299   3.320   4.847   1.517
 8134SOL     OW25300   0.733   1.969   4.927
 8134SOL    HW125301   0.732   1.870   4.943
 8134SOL    HW225302   0.824   2.005   4.949
 8135SOL     OW25303   1.988   6.083   1.129
 8135SOL    HW125304   2.086   6.077   1.115
 8135SOL    HW225305   1.943   6.115   1.046
 8136SOL     OW25306   4.922   4.737   2.730
 8136SOL    HW125307   4.887   4.648   2.704
 8136SOL    HW225308   4.845   4.798   2.753
 8137SOL     OW25309   2.729   1.390   4.452
 8137SOL    HW125310   2.717   1.294   4.477
 8137SOL    HW225311   2.820   1.421   4.480
 8138SOL     OW25312   5.698   2.420   0.375
 8138SOL    HW125313   5.681   2.501   0.319
 8138SOL    HW225314   5.684   2.337   0.320
 8139SOL     OW25315   1.777   2.126   4.147
 8139SOL    HW125316   1.754   2.220   4.120
 8139SOL    HW225317   1.870   2.124   4.183
 8140SOL     OW25318   4.513   6.782   6.968
 8140SOL    HW125319   4.419   6.805   6.992
 8140SOL    HW225320   4.515   6.744   6.875
 8141SOL     OW25321   4.360   0.063   5.486
 8141SOL    HW125322   4.388   0.003   5.411
 8141SOL    HW225323   4.261   0.076   5.482
 8142SOL     OW25324   2.002   5.428   0.300
 8142SOL    HW125325   2.078   5.363   0.305
 8142SOL    HW225326   2.019   5.504   0.362
 8143SOL     OW25327   6.061   5.322   0.182
 8143SOL    HW125328   5.970   5.323   0.224
 8143SOL    HW225329   6.052   5.316   0.082
 8144SOL     OW25330   0.552   6.100   6.056
 8144SOL    HW125331   0.504   6.066   6.136
 8144SOL    HW225332   0.633   6.043   6.039
 8145SOL     OW25333   5.690   5.472   0.506
 8145SOL    HW125334   5.600   5.469   0.463
 8145SOL    HW225335   5.689   5.417   0.590
 8146SOL     OW25336   5.218   0.193   5.018
 8146SOL    HW125337   5.155   0.115   5.012
 8146SOL    HW225338   5.270   0.186   5.103
 8147SOL     OW25339   6.404   0.878   1.438
 8147SOL    HW125340   6.481   0.815   1.437
 8147SOL    HW225341   6.323   0.834   1.398
 8148SOL     OW25342   5.283   4.952   0.176
 8148SOL    HW125343   5.343   5.032   0.168
 8148SOL    HW225344   5.212   4.957   0.106
 8149SOL     OW25345   1.563   6.886   3.321
 8149SOL    HW125346   1.467   6.868   3.299
 8149SOL    HW225347   1.593   6.822   3.391
 8150SOL     OW25348   1.683   4.175   0.832
 8150SOL    HW125349   1.710   4.271   0.826
 8150SOL    HW225350   1.583   4.169   0.830
 8151SOL     OW25351   6.095   5.288   3.449
 8151SOL    HW125352   6.072   5.377   3.411
 8151SOL    HW225353   6.110   5.296   3.547
 8152SOL     OW25354   6.143   3.229   3.265
 8152SOL    HW125355   6.114   3.273   3.180
 8152SOL    HW225356   6.142   3.130   3.253
 8153SOL     OW25357   1.410   1.603   3.690
 8153SOL    HW125358   1.392   1.562   3.600
 8153SOL    HW225359   1.404   1.703   3.683
 8154SOL     OW25360   3.798   6.143   2.420
 8154SOL    HW125361   3.731   6.172   2.352
 8154SOL    HW225362   3.864   6.217   2.435
 8155SOL     OW25363   1.268   3.831   2.046
 8155SOL    HW125364   1.281   3.804   2.141
 8155SOL    HW225365   1.331   3.906   2.024
 8156SOL     OW25366   4.220   6.199   0.873
 8156SOL    HW125367   4.161   6.267   0.831
 8156SOL    HW225368   4.316   6.228   0.864
 8157SOL     OW25369   6.248   4.035   6.446
 8157SOL    HW125370   6.300   3.959   6.486
 8157SOL    HW225371   6.168   4.054   6.502
 8158SOL     OW25372   5.169   4.019   0.449
 8158SOL    HW125373   5.222   3.937   0.427
 8158SOL    HW225374   5.075   4.008   0.418
 8159SOL     OW25375   2.408   5.353   3.291
 8159SOL    HW125376   2.321   5.388   3.326
 8159SOL    HW225377   2.481   5.375   3.356
 8160SOL     OW25378   5.087   0.500   3.714
 8160SOL    HW125379   5.065   0.422   3.772
 8160SOL    HW225380   5.160   0.475   3.650
 8161SOL     OW25381   5.875   2.520   5.703
 8161SOL    HW125382   5.928   2.488   5.782
 8161SOL    HW225383   5.829   2.606   5.727
 8162SOL     OW25384   6.491   6.574   0.000
 8162SOL    HW125385   6.486   6.672   7.010
 8162SOL    HW225386   6.500   6.561   0.099
 8163SOL     OW25387   2.298   4.605   5.267
 8163SOL    HW125388   2.390   4.566   5.264
 8163SOL    HW225389   2.285   4.665   5.188
 8164SOL     OW25390   4.943   1.918   0.308
 8164SOL    HW125391   5.020   1.920   0.372
 8164SOL    HW225392   4.909   1.825   0.300
 8165SOL     OW25393   6.862   3.785   5.627
 8165SOL    HW125394   6.810   3.850   5.572
 8165SOL    HW225395   6.865   3.817   5.722
 8166SOL     OW25396   1.235   0.271   3.531
 8166SOL    HW125397   1.261   0.194   3.472
 8166SOL    HW225398   1.144   0.255   3.569
 8167SOL     OW25399   0.046   1.052   3.794
 8167SOL    HW125400   0.111   0.987   3.832
 8167SOL    HW225401   6.989   1.006   3.774
 8168SOL     OW25402   2.444   1.451   1.385
 8168SOL    HW125403   2.538   1.421   1.374
 8168SOL    HW225404   2.383   1.371   1.381
 8169SOL     OW25405   4.826   2.167   0.297
 8169SOL    HW125406   4.849   2.071   0.310
 8169SOL    HW225407   4.727   2.179   0.299
 8170SOL     OW25408   1.726   5.452   1.602
 8170SOL    HW125409   1.757   5.531   1.655
 8170SOL    HW225410   1.805   5.400   1.570
 8171SOL     OW25411   1.674   1.492   6.851
 8171SOL    HW125412   1.600   1.518   6.789
 8171SOL    HW225413   1.705   1.573   6.902
 8172SOL     OW25414   6.760   1.931   2.463
 8172SOL    HW125415   6.818   2.001   2.423
 8172SOL    HW225416   6.734   1.958   2.556
 8173SOL     OW25417   5.304   2.152   2.168
 8173SOL    HW125418   5.377   2.090   2.196
 8173SOL    HW225419   5.343   2.240   2.141
 8174SOL     OW25420   6.789   0.472   2.396
 8174SOL    HW125421   6.830   0.395   2.347
 8174SOL    HW225422   6.777   0.447   2.492
 8175SOL     OW25423   0.130   3.403   5.381
 8175SOL    HW125424   0.221   3.425   5.416
 8175SOL    HW225425   0.065   3.471   5.413
 8176SOL     OW25426   2.543   4.852   1.523
 8176SOL    HW125427   2.610   4.779   1.537
 8176SOL    HW225428   2.576   4.936   1.565
 8177SOL     OW25429   4.180   0.236   4.063
 8177SOL    HW125430   4.213   0.328   4.041
 8177SOL    HW225431   4.104   0.243   4.128
 8178SOL     OW25432   3.480   7.002   0.660
 8178SOL    HW125433   3.460   7.007   0.563
 8178SOL    HW225434   3.428   0.042   0.709
 8179SOL     OW25435   4.812   1.350   4.509
 8179SOL    HW125436   4.846   1.442   4.493
 8179SOL    HW225437   4.791   1.339   4.607
 8180SOL     OW25438   6.203   0.938   5.783
 8180SOL    HW125439   6.138   0.920   5.857
 8180SOL    HW225440   6.283   0.985   5.819
 8181SOL     OW25441   1.078   1.708   0.567
 8181SOL    HW125442   1.145   1.699   0.493
 8181SOL    HW225443   0.986   1.693   0.531
 8182SOL     OW25444   3.299   3.331   5.930
 8182SOL    HW125445   3.291   3.237   5.896
 8182SOL    HW225446   3.340   3.388   5.859
 8183SOL     OW25447   6.473   2.341   4.814
 8183SOL    HW125448   6.458   2.435   4.782
 8183SOL    HW225449   6.545   2.299   4.759
 8184SOL     OW25450   6.820   6.917   0.623
 8184SOL    HW125451   6.860   6.897   0.534
 8184SOL    HW225452   6.873   6.871   0.695
 8185SOL     OW25453   2.027   0.453   6.670
 8185SOL    HW125454   1.978   0.505   6.600
 8185SOL    HW225455   2.123   0.480   6.672
 8186SOL     OW25456   3.439   4.752   5.387
 8186SOL    HW125457   3.386   4.811   5.326
 8186SOL    HW225458   3.536   4.755   5.362
 8187SOL     OW25459   2.077   1.362   5.022
 8187SOL    HW125460   2.087   1.362   4.923
 8187SOL    HW225461   2.041   1.274   5.052
 8188SOL     OW25462   4.884   3.455   3.715
 8188SOL    HW125463   4.964   3.469   3.773
 8188SOL    HW225464   4.801   3.456   3.772
 8189SOL     OW25465   5.372   5.285   2.961
 8189SOL    HW125466   5.351   5.360   3.024
 8189SOL    HW225467   5.322   5.298   2.875
 8190SOL     OW25468   4.841   4.128   4.514
 8190SOL    HW125469   4.828   4.045   4.568
 8190SOL    HW225470   4.834   4.208   4.574
 8191SOL     OW25471   3.960   6.340   1.595
 8191SOL    HW125472   4.015   6.418   1.622
 8191SOL    HW225473   3.984   6.314   1.501
 8192SOL     OW25474   3.464   5.371   1.003
 8192SOL    HW125475   3.410   5.436   1.057
 8192SOL    HW225476   3.524   5.421   0.941
 8193SOL     OW25477   5.984   5.542   6.064
 8193SOL    HW125478   5.950   5.636   6.068
 8193SOL    HW225479   5.910   5.479   6.088
 8194SOL     OW25480   4.970   1.544   0.755
 8194SOL    HW125481   4.888   1.584   0.796
 8194SOL    HW225482   5.043   1.539   0.823
 8195SOL     OW25483   0.814   6.970   3.083
 8195SOL    HW125484   0.755   0.014   3.115
 8195SOL    HW225485   0.767   6.882   3.094
 8196SOL     OW25486   4.336   5.985   6.634
 8196SOL    HW125487   4.278   5.983   6.553
 8196SOL    HW225488   4.304   5.917   6.700
 8197SOL     OW25489   4.010   1.397   0.635
 8197SOL    HW125490   3.972   1.315   0.592
 8197SOL    HW225491   4.065   1.371   0.715
 8198SOL     OW25492   2.892   6.343   2.984
 8198SOL    HW125493   2.946   6.340   2.899
 8198SOL    HW225494   2.884   6.251   3.021
 8199SOL     OW25495   5.914   2.208   5.824
 8199SOL    HW125496   5.966   2.254   5.752
 8199SOL    HW225497   5.976   2.150   5.877
 8200SOL     OW25498   5.622   5.210   2.151
 8200SOL    HW125499   5.662   5.122   2.126
 8200SOL    HW225500   5.570   5.247   2.073
 8201SOL     OW25501   5.683   0.617   4.076
 8201SOL    HW125502   5.763   0.673   4.055
 8201SOL    HW225503   5.696   0.572   4.165
 8202SOL     OW25504   0.087   5.657   3.911
 8202SOL    HW125505   0.066   5.591   3.983
 8202SOL    HW225506   0.185   5.657   3.893
 8203SOL     OW25507   3.055   2.273   6.975
 8203SOL    HW125508   3.140   2.261   6.924
 8203SOL    HW225509   2.979   2.238   6.921
 8204SOL     OW25510   3.471   5.110   6.832
 8204SOL    HW125511   3.496   5.105   6.735
 8204SOL    HW225512   3.375   5.137   6.840
 8205SOL     OW25513   0.465   4.727   0.612
 8205SOL    HW125514   0.434   4.637   0.644
 8205SOL    HW225515   0.388   4.791   0.613
 8206SOL     OW25516   5.116   1.898   6.472
 8206SOL    HW125517   5.112   1.818   6.533
 8206SOL    HW225518   5.114   1.981   6.526
 8207SOL     OW25519   2.861   3.528   4.101
 8207SOL    HW125520   2.879   3.433   4.126
 8207SOL    HW225521   2.767   3.536   4.067
 8208SOL     OW25522   1.366   0.309   1.545
 8208SOL    HW125523   1.271   0.314   1.514
 8208SOL    HW225524   1.400   0.215   1.534
 8209SOL     OW25525   0.811   1.503   4.814
 8209SOL    HW125526   0.766   1.427   4.860
 8209SOL    HW225527   0.856   1.562   4.881
 8210SOL     OW25528   1.992   1.208   1.421
 8210SOL    HW125529   1.986   1.176   1.326
 8210SOL    HW225530   1.910   1.261   1.443
 8211SOL     OW25531   3.699   4.225   1.831
 8211SOL    HW125532   3.642   4.267   1.761
 8211SOL    HW225533   3.785   4.193   1.791
 8212SOL     OW25534   2.213   2.249   1.702
 8212SOL    HW125535   2.276   2.317   1.741
 8212SOL    HW225536   2.235   2.159   1.739
 8213SOL     OW25537   6.712   4.389   2.319
 8213SOL    HW125538   6.692   4.395   2.221
 8213SOL    HW225539   6.630   4.362   2.369
 8214SOL     OW25540   5.767   5.830   4.531
 8214SOL    HW125541   5.858   5.791   4.518
 8214SOL    HW225542   5.700   5.757   4.543
 8215SOL     OW25543   2.779   5.363   5.884
 8215SOL    HW125544   2.682   5.363   5.909
 8215SOL    HW225545   2.794   5.430   5.811
 8216SOL     OW25546   5.468   5.020   3.873
 8216SOL    HW125547   5.512   5.062   3.793
 8216SOL    HW225548   5.394   5.079   3.905
 8217SOL     OW25549   2.034   3.941   0.544
 8217SOL    HW125550   2.044   4.036   0.574
 8217SOL    HW225551   2.028   3.881   0.624
 8218SOL     OW25552   6.994   6.736   5.348
 8218SOL    HW125553   0.049   6.703   5.388
 8218SOL    HW225554   7.000   6.835   5.333
 8219SOL     OW25555   4.356   2.969   0.456
 8219SOL    HW125556   4.274   2.930   0.414
 8219SOL    HW225557   4.375   2.920   0.542
 8220SOL     OW25558   3.129   3.073   3.781
 8220SOL    HW125559   3.060   3.066   3.852
 8220SOL    HW225560   3.097   3.136   3.710
 8221SOL     OW25561   5.901   6.795   3.839
 8221SOL    HW125562   5.814   6.838   3.814
 8221SOL    HW225563   5.896   6.763   3.934
 8222SOL     OW25564   6.098   1.366   1.442
 8222SOL    HW125565   6.089   1.425   1.362
 8222SOL    HW225566   6.168   1.297   1.424
 8223SOL     OW25567   0.653   4.683   5.391
 8223SOL    HW125568   0.600   4.599   5.374
 8223SOL    HW225569   0.746   4.659   5.416
 8224SOL     OW25570   5.664   1.147   2.338
 8224SOL    HW125571   5.750   1.128   2.383
 8224SOL    HW225572   5.593   1.167   2.406
 8225SOL     OW25573   3.225   1.369   1.060
 8225SOL    HW125574   3.156   1.364   1.132
 8225SOL    HW225575   3.180   1.379   0.971
 8226SOL     OW25576   3.755   0.302   0.690
 8226SOL    HW125577   3.840   0.337   0.731
 8226SOL    HW225578   3.751   0.330   0.594
 8227SOL     OW25579   6.763   1.221   2.819
 8227SOL    HW125580   6.773   1.153   2.747
 8227SOL    HW225581   6.830   1.204   2.891
 8228SOL     OW25582   6.674   1.533   5.867
 8228SOL    HW125583   6.703   1.495   5.779
 8228SOL    HW225584   6.743   1.512   5.937
 8229SOL     OW25585   4.839   2.662   0.711
 8229SOL    HW125586   4.740   2.659   0.697
 8229SOL    HW225587   4.881   2.580   0.673
 8230SOL     OW25588   3.504   6.948   5.292
 8230SOL    HW125589   3.523   7.021   5.358
 8230SOL    HW225590   3.461   6.871   5.340
 8231SOL     OW25591   3.261   3.901   0.844
 8231SOL    HW125592   3.189   3.873   0.781
 8231SOL    HW225593   3.271   3.833   0.916
 8232SOL     OW25594   4.539   1.503   1.202
 8232SOL    HW125595   4.623   1.454   1.177
 8232SOL    HW225596   4.559   1.571   1.272
 8233SOL     OW25597   0.886   6.203   6.098
 8233SOL    HW125598   0.853   6.109   6.104
 8233SOL    HW225599   0.852   6.255   6.177
 8234SOL     OW25600   2.811   3.969   6.623
 8234SOL    HW125601   2.798   3.891   6.684
 8234SOL    HW225602   2.872   3.943   6.548
 8235SOL     OW25603   0.540   2.548   0.420
 8235SOL    HW125604   0.451   2.567   0.378
 8235SOL    HW225605   0.597   2.496   0.356
 8236SOL     OW25606   0.442   4.450   0.721
 8236SOL    HW125607   0.506   4.443   0.797
 8236SOL    HW225608   0.351   4.473   0.755
 8237SOL     OW25609   4.321   6.521   5.041
 8237SOL    HW125610   4.269   6.601   5.011
 8237SOL    HW225611   4.258   6.451   5.074
 8238SOL     OW25612   0.611   5.276   6.346
 8238SOL    HW125613   0.654   5.360   6.312
 8238SOL    HW225614   0.680   5.218   6.389
 8239SOL     OW25615   6.822   0.751   5.681
 8239SOL    HW125616   6.920   0.759   5.701
 8239SOL    HW225617   6.788   0.665   5.719
 8240SOL     OW25618   3.327   3.967   2.314
 8240SOL    HW125619   3.373   3.880   2.298
 8240SOL    HW225620   3.229   3.955   2.301
 8241SOL     OW25621   3.900   6.148   5.439
 8241SOL    HW125622   3.803   6.148   5.464
 8241SOL    HW225623   3.948   6.219   5.490
 8242SOL     OW25624   0.841   4.396   6.280
 8242SOL    HW125625   0.749   4.402   6.241
 8242SOL    HW225626   0.908   4.408   6.207
 8243SOL     OW25627   0.271   2.904   0.610
 8243SOL    HW125628   0.360   2.899   0.653
 8243SOL    HW225629   0.200   2.918   0.679
 8244SOL     OW25630   0.283   0.867   4.641
 8244SOL    HW125631   0.376   0.889   4.672
 8244SOL    HW225632   0.286   0.784   4.587
 8245SOL     OW25633   4.001   1.601   1.998
 8245SOL    HW125634   3.950   1.579   2.080
 8245SOL    HW225635   4.051   1.686   2.011
 8246SOL     OW25636   1.363   3.199   6.077
 8246SOL    HW125637   1.415   3.252   6.144
 8246SOL    HW225638   1.314   3.261   6.016
 8247SOL     OW25639   1.660   0.701   2.667
 8247SOL    HW125640   1.721   0.656   2.602
 8247SOL    HW225641   1.686   0.798   2.675
 8248SOL     OW25642   0.022   5.642   4.715
 8248SOL    HW125643   0.078   5.590   4.650
 8248SOL    HW225644   6.962   5.659   4.675
 8249SOL     OW25645   1.867   2.494   5.851
 8249SOL    HW125646   1.881   2.444   5.765
 8249SOL    HW225647   1.895   2.438   5.928
 8250SOL     OW25648   3.297   3.990   1.656
 8250SOL    HW125649   3.241   4.029   1.583
 8250SOL    HW225650   3.263   3.900   1.680
 8251SOL     OW25651   4.963   3.419   4.677
 8251SOL    HW125652   4.940   3.325   4.704
 8251SOL    HW225653   4.922   3.438   4.588
 8252SOL     OW25654   3.141   1.818   5.428
 8252SOL    HW125655   3.200   1.894   5.399
 8252SOL    HW225656   3.195   1.752   5.480
 8253SOL     OW25657   4.423   5.263   5.897
 8253SOL    HW125658   4.492   5.328   5.929
 8253SOL    HW225659   4.361   5.310   5.834
 8254SOL     OW25660   4.683   4.387   5.237
 8254SOL    HW125661   4.705   4.319   5.167
 8254SOL    HW225662   4.765   4.412   5.287
 8255SOL     OW25663   1.848   0.068   5.149
 8255SOL    HW125664   1.939   0.035   5.124
 8255SOL    HW225665   1.785   7.021   5.157
 8256SOL     OW25666   6.521   6.051   1.536
 8256SOL    HW125667   6.555   6.116   1.469
 8256SOL    HW225668   6.501   6.099   1.622
 8257SOL     OW25669   5.099   4.427   3.019
 8257SOL    HW125670   5.139   4.336   3.007
 8257SOL    HW225671   5.132   4.488   2.948
 8258SOL     OW25672   5.627   2.221   1.134
 8258SOL    HW125673   5.626   2.219   1.034
 8258SOL    HW225674   5.533   2.223   1.168
 8259SOL     OW25675   3.801   1.548   4.191
 8259SOL    HW125676   3.715   1.525   4.145
 8259SOL    HW225677   3.876   1.541   4.125
 8260SOL     OW25678   2.429   6.756   0.767
 8260SOL    HW125679   2.330   6.754   0.779
 8260SOL    HW225680   2.473   6.761   0.857
 8261SOL     OW25681   5.986   6.899   1.734
 8261SOL    HW125682   6.065   6.909   1.794
 8261SOL    HW225683   6.014   6.915   1.639
 8262SOL     OW25684   1.016   2.663   0.308
 8262SOL    HW125685   1.024   2.680   0.406
 8262SOL    HW225686   1.021   2.751   0.259
 8263SOL     OW25687   0.550   2.721   6.293
 8263SOL    HW125688   0.539   2.816   6.264
 8263SOL    HW225689   0.479   2.697   6.359
 8264SOL     OW25690   2.215   6.150   2.187
 8264SOL    HW125691   2.196   6.141   2.090
 8264SOL    HW225692   2.131   6.175   2.236
 8265SOL     OW25693   6.559   1.038   1.249
 8265SOL    HW125694   6.536   1.127   1.209
 8265SOL    HW225695   6.492   1.016   1.320
 8266SOL     OW25696   2.229   1.521   3.938
 8266SOL    HW125697   2.290   1.515   3.859
 8266SOL    HW225698   2.211   1.429   3.974
 8267SOL     OW25699   2.020   3.551   1.005
 8267SOL    HW125700   1.958   3.576   0.930
 8267SOL    HW225701   1.967   3.543   1.090
 8268SOL     OW25702   1.814   6.607   5.965
 8268SOL    HW125703   1.780   6.662   5.889
 8268SOL    HW225704   1.803   6.657   6.051
 8269SOL     OW25705   4.775   0.951   2.147
 8269SOL    HW125706   4.739   0.891   2.218
 8269SOL    HW225707   4.743   1.045   2.163
 8270SOL     OW25708   3.082   6.167   5.128
 8270SOL    HW125709   2.996   6.168   5.077
 8270SOL    HW225710   3.063   6.169   5.226
 8271SOL     OW25711   0.317   0.060   4.001
 8271SOL    HW125712   0.389   0.128   4.016
 8271SOL    HW225713   0.275   0.074   3.912
 8272SOL     OW25714   6.338   2.214   2.795
 8272SOL    HW125715   6.245   2.184   2.773
 8272SOL    HW225716   6.373   2.273   2.722
 8273SOL     OW25717   2.696   1.000   1.107
 8273SOL    HW125718   2.615   1.054   1.124
 8273SOL    HW225719   2.690   0.957   1.017
 8274SOL     OW25720   4.422   5.200   3.989
 8274SOL    HW125721   4.484   5.277   4.005
 8274SOL    HW225722   4.446   5.124   4.050
 8275SOL     OW25723   5.651   1.226   4.599
 8275SOL    HW125724   5.657   1.184   4.690
 8275SOL    HW225725   5.717   1.300   4.593
 8276SOL     OW25726   0.882   2.403   4.286
 8276SOL    HW125727   0.921   2.489   4.317
 8276SOL    HW225728   0.906   2.330   4.350
 8277SOL     OW25729   0.305   6.122   6.491
 8277SOL    HW125730   0.356   6.057   6.547
 8277SOL    HW225731   0.317   6.099   6.394
 8278SOL     OW25732   3.152   1.370   6.455
 8278SOL    HW125733   3.157   1.285   6.402
 8278SOL    HW225734   3.134   1.446   6.393
 8279SOL     OW25735   1.160   6.272   4.719
 8279SOL    HW125736   1.100   6.329   4.663
 8279SOL    HW225737   1.128   6.272   4.814
 8280SOL     OW25738   2.315   3.040   0.382
 8280SOL    HW125739   2.350   3.115   0.327
 8280SOL    HW225740   2.234   3.002   0.338
 8281SOL     OW25741   2.869   4.322   1.672
 8281SOL    HW125742   2.967   4.301   1.665
 8281SOL    HW225743   2.856   4.407   1.723
 8282SOL     OW25744   4.926   3.718   0.196
 8282SOL    HW125745   4.963   3.626   0.211
 8282SOL    HW225746   4.981   3.785   0.246
 8283SOL     OW25747   1.326   5.280   5.283
 8283SOL    HW125748   1.250   5.218   5.300
 8283SOL    HW225749   1.401   5.258   5.345
 8284SOL     OW25750   0.921   3.843   1.592
 8284SOL    HW125751   1.006   3.791   1.585
 8284SOL    HW225752   0.919   3.913   1.520
 8285SOL     OW25753   3.209   3.989   5.201
 8285SOL    HW125754   3.133   4.041   5.241
 8285SOL    HW225755   3.203   3.994   5.101
 8286SOL     OW25756   5.386   1.859   5.516
 8286SOL    HW125757   5.453   1.791   5.487
 8286SOL    HW225758   5.397   1.942   5.461
 8287SOL     OW25759   1.331   4.840   4.349
 8287SOL    HW125760   1.270   4.904   4.395
 8287SOL    HW225761   1.372   4.884   4.269
 8288SOL     OW25762   3.059   2.101   2.015
 8288SOL    HW125763   3.111   2.112   2.099
 8288SOL    HW225764   3.020   2.189   1.988
 8289SOL     OW25765   0.774   6.263   0.034
 8289SOL    HW125766   0.729   6.278   0.123
 8289SOL    HW225767   0.860   6.214   0.049
 8290SOL     OW25768   5.220   1.454   0.873
 8290SOL    HW125769   5.206   1.364   0.914
 8290SOL    HW225770   5.277   1.446   0.792
 8291SOL     OW25771   4.432   6.032   4.820
 8291SOL    HW125772   4.518   6.073   4.852
 8291SOL    HW225773   4.355   6.076   4.866
 8292SOL     OW25774   3.283   6.816   6.665
 8292SOL    HW125775   3.358   6.804   6.729
 8292SOL    HW225776   3.318   6.813   6.571
 8293SOL     OW25777   2.477   5.667   0.487
 8293SOL    HW125778   2.460   5.606   0.564
 8293SOL    HW225779   2.478   5.614   0.402
 8294SOL     OW25780   5.612   3.811   5.249
 8294SOL    HW125781   5.669   3.824   5.330
 8294SOL    HW225782   5.619   3.716   5.219
 8295SOL     OW25783   5.224   5.194   1.784
 8295SOL    HW125784   5.128   5.199   1.812
 8295SOL    HW225785   5.282   5.216   1.862
 8296SOL     OW25786   2.023   4.738   6.625
 8296SOL    HW125787   2.018   4.696   6.534
 8296SOL    HW225788   2.110   4.712   6.668
 8297SOL     OW25789   0.171   3.275   2.920
 8297SOL    HW125790   0.080   3.315   2.918
 8297SOL    HW225791   0.210   3.284   3.012
 8298SOL     OW25792   6.287   1.445   1.078
 8298SOL    HW125793   6.207   1.462   1.136
 8298SOL    HW225794   6.268   1.369   1.016
 8299SOL     OW25795   0.418   2.608   2.419
 8299SOL    HW125796   0.368   2.688   2.452
 8299SOL    HW225797   0.383   2.526   2.463
 8300SOL     OW25798   6.873   5.586   4.239
 8300SOL    HW125799   6.839   5.522   4.307
 8300SOL    HW225800   6.843   5.679   4.262
 8301SOL     OW25801   3.712   1.642   0.695
 8301SOL    HW125802   3.719   1.614   0.599
 8301SOL    HW225803   3.746   1.567   0.753
 8302SOL     OW25804   5.394   0.036   6.744
 8302SOL    HW125805   5.360   6.979   6.778
 8302SOL    HW225806   5.476   0.062   6.795
 8303SOL     OW25807   6.376   0.776   3.823
 8303SOL    HW125808   6.443   0.849   3.813
 8303SOL    HW225809   6.288   0.814   3.851
 8304SOL     OW25810   6.260   3.092   1.202
 8304SOL    HW125811   6.266   3.034   1.283
 8304SOL    HW225812   6.308   3.048   1.126
 8305SOL     OW25813   4.357   5.101   3.741
 8305SOL    HW125814   4.317   5.011   3.757
 8305SOL    HW225815   4.380   5.143   3.829
 8306SOL     OW25816   5.157   1.481   5.115
 8306SOL    HW125817   5.247   1.498   5.074
 8306SOL    HW225818   5.129   1.560   5.169
 8307SOL     OW25819   3.585   5.202   1.339
 8307SOL    HW125820   3.601   5.231   1.245
 8307SOL    HW225821   3.605   5.104   1.348
 8308SOL     OW25822   2.931   5.585   1.229
 8308SOL    HW125823   2.843   5.577   1.182
 8308SOL    HW225824   2.973   5.673   1.208
 8309SOL     OW25825   6.648   5.829   3.944
 8309SOL    HW125826   6.650   5.736   3.983
 8309SOL    HW225827   6.741   5.864   3.937
 8310SOL     OW25828   0.164   5.407   1.247
 8310SOL    HW125829   0.070   5.440   1.240
 8310SOL    HW225830   0.185   5.349   1.168
 8311SOL     OW25831   0.557   2.164   5.288
 8311SOL    HW125832   0.606   2.160   5.376
 8311SOL    HW225833   0.493   2.240   5.289
 8312SOL     OW25834   4.643   0.331   6.940
 8312SOL    HW125835   4.703   0.251   6.939
 8312SOL    HW225836   4.629   0.361   0.005
 8313SOL     OW25837   4.991   6.837   0.249
 8313SOL    HW125838   5.064   6.773   0.226
 8313SOL    HW225839   4.999   6.919   0.192
 8314SOL     OW25840   4.729   0.366   0.221
 8314SOL    HW125841   4.728   0.292   0.288
 8314SOL    HW225842   4.639   0.411   0.220
 8315SOL     OW25843   4.546   2.952   1.004
 8315SOL    HW125844   4.618   3.002   1.053
 8315SOL    HW225845   4.558   2.854   1.018
 8316SOL     OW25846   1.276   2.076   1.760
 8316SOL    HW125847   1.305   2.053   1.668
 8316SOL    HW225848   1.217   2.004   1.796
 8317SOL     OW25849   1.569   2.816   2.559
 8317SOL    HW125850   1.626   2.759   2.617
 8317SOL    HW225851   1.620   2.841   2.476
 8318SOL     OW25852   4.084   1.581   6.055
 8318SOL    HW125853   4.119   1.495   6.092
 8318SOL    HW225854   4.120   1.657   6.109
 8319SOL     OW25855   1.458   1.925   0.716
 8319SOL    HW125856   1.512   1.902   0.797
 8319SOL    HW225857   1.362   1.940   0.743
 8320SOL     OW25858   3.126   3.457   2.218
 8320SOL    HW125859   3.037   3.418   2.194
 8320SOL    HW225860   3.126   3.485   2.314
 8321SOL     OW25861   0.041   0.330   6.497
 8321SOL    HW125862   0.087   0.390   6.432
 8321SOL    HW225863   0.108   0.276   6.547
 8322SOL     OW25864   6.611   0.416   0.895
 8322SOL    HW125865   6.532   0.448   0.843
 8322SOL    HW225866   6.691   0.472   0.872
 8323SOL     OW25867   5.578   5.982   2.014
 8323SOL    HW125868   5.582   6.068   2.065
 8323SOL    HW225869   5.609   5.907   2.073
 8324SOL     OW25870   5.949   6.804   1.097
 8324SOL    HW125871   5.888   6.882   1.081
 8324SOL    HW225872   5.895   6.721   1.106
 8325SOL     OW25873   1.943   4.052   5.376
 8325SOL    HW125874   1.980   3.959   5.369
 8325SOL    HW225875   1.993   4.112   5.313
 8326SOL     OW25876   5.210   3.116   5.764
 8326SOL    HW125877   5.198   3.203   5.812
 8326SOL    HW225878   5.167   3.043   5.817
 8327SOL     OW25879   6.694   0.529   5.740
 8327SOL    HW125880   6.596   0.509   5.747
 8327SOL    HW225881   6.747   0.452   5.775
 8328SOL     OW25882   2.695   6.413   6.234
 8328SOL    HW125883   2.689   6.321   6.196
 8328SOL    HW225884   2.634   6.474   6.183
 8329SOL     OW25885   1.306   2.938   6.105
 8329SOL    HW125886   1.390   2.892   6.134
 8329SOL    HW225887   1.325   3.034   6.088
 8330SOL     OW25888   2.742   1.299   6.451
 8330SOL    HW125889   2.804   1.259   6.383
 8330SOL    HW225890   2.724   1.233   6.523
 8331SOL     OW25891   3.260   0.535   1.530
 8331SOL    HW125892   3.316   0.571   1.455
 8331SOL    HW225893   3.274   0.590   1.612
 8332SOL     OW25894   5.192   5.484   2.511
 8332SOL    HW125895   5.092   5.477   2.508
 8332SOL    HW225896   5.232   5.422   2.443
 8333SOL     OW25897   6.986   5.525   6.353
 8333SOL    HW125898   6.899   5.478   6.363
 8333SOL    HW225899   6.974   5.623   6.367
 8334SOL     OW25900   3.701   1.164   4.084
 8334SOL    HW125901   3.721   1.089   4.021
 8334SOL    HW225902   3.666   1.127   4.170
 8335SOL     OW25903   5.200   0.612   0.200
 8335SOL    HW125904   5.221   0.632   0.105
 8335SOL    HW225905   5.102   0.595   0.210
 8336SOL     OW25906   0.314   4.550   3.249
 8336SOL    HW125907   0.362   4.606   3.317
 8336SOL    HW225908   0.241   4.498   3.294
 8337SOL     OW25909   2.057   6.751   3.122
 8337SOL    HW125910   1.995   6.696   3.066
 8337SOL    HW225911   2.075   6.838   3.076
 8338SOL     OW25912   3.787   5.286   1.891
 8338SOL    HW125913   3.711   5.297   1.827
 8338SOL    HW225914   3.832   5.198   1.875
 8339SOL     OW25915   6.634   0.160   1.824
 8339SOL    HW125916   6.727   0.178   1.792
 8339SOL    HW225917   6.593   0.245   1.857
 8340SOL     OW25918   4.940   2.907   0.604
 8340SOL    HW125919   4.930   2.814   0.640
 8340SOL    HW225920   4.993   2.904   0.519
 8341SOL     OW25921   3.336   6.804   0.308
 8341SOL    HW125922   3.250   6.846   0.280
 8341SOL    HW225923   3.321   6.708   0.330
 8342SOL     OW25924   4.359   6.536   0.722
 8342SOL    HW125925   4.404   6.447   0.721
 8342SOL    HW225926   4.333   6.560   0.815
 8343SOL     OW25927   1.124   5.519   4.680
 8343SOL    HW125928   1.188   5.455   4.638
 8343SOL    HW225929   1.172   5.576   4.746
 8344SOL     OW25930   5.041   5.511   4.789
 8344SOL    HW125931   5.005   5.603   4.801
 8344SOL    HW225932   4.972   5.453   4.744
 8345SOL     OW25933   4.504   1.203   2.830
 8345SOL    HW125934   4.486   1.250   2.917
 8345SOL    HW225935   4.452   1.248   2.757
 8346SOL     OW25936   4.148   5.193   0.243
 8346SOL    HW125937   4.166   5.107   0.196
 8346SOL    HW225938   4.052   5.196   0.273
 8347SOL     OW25939   3.981   5.533   3.934
 8347SOL    HW125940   3.920   5.568   4.005
 8347SOL    HW225941   3.930   5.471   3.875
 8348SOL     OW25942   2.310   1.131   1.753
 8348SOL    HW125943   2.303   1.108   1.656
 8348SOL    HW225944   2.406   1.146   1.777
 8349SOL     OW25945   6.241   6.605   1.852
 8349SOL    HW125946   6.329   6.623   1.808
 8349SOL    HW225947   6.249   6.524   1.911
 8350SOL     OW25948   3.346   6.779   6.148
 8350SOL    HW125949   3.252   6.750   6.134
 8350SOL    HW225950   3.388   6.724   6.220
 8351SOL     OW25951   5.593   5.112   4.139
 8351SOL    HW125952   5.687   5.081   4.147
 8351SOL    HW225953   5.552   5.074   4.056
 8352SOL     OW25954   0.426   0.241   3.528
 8352SOL    HW125955   0.517   0.245   3.569
 8352SOL    HW225956   0.403   0.146   3.507
 8353SOL     OW25957   6.858   3.392   1.412
 8353SOL    HW125958   6.760   3.406   1.398
 8353SOL    HW225959   6.908   3.470   1.375
 8354SOL     OW25960   4.407   6.928   5.256
 8354SOL    HW125961   4.407   6.831   5.281
 8354SOL    HW225962   4.464   6.942   5.176
 8355SOL     OW25963   2.331   0.800   6.181
 8355SOL    HW125964   2.362   0.708   6.160
 8355SOL    HW225965   2.409   0.862   6.187
 8356SOL     OW25966   0.877   6.893   1.045
 8356SOL    HW125967   0.819   6.850   1.115
 8356SOL    HW225968   0.848   6.860   0.955
 8357SOL     OW25969   3.389   6.510   4.757
 8357SOL    HW125970   3.329   6.476   4.829
 8357SOL    HW225971   3.455   6.574   4.797
 8358SOL     OW25972   1.458   4.095   4.915
 8358SOL    HW125973   1.498   4.133   4.999
 8358SOL    HW225974   1.528   4.090   4.844
 8359SOL     OW25975   2.962   0.671   5.026
 8359SOL    HW125976   3.020   0.740   5.070
 8359SOL    HW225977   2.996   0.654   4.934
 8360SOL     OW25978   3.848   6.219   0.893
 8360SOL    HW125979   3.804   6.308   0.879
 8360SOL    HW225980   3.778   6.148   0.901
 8361SOL     OW25981   3.393   0.398   2.717
 8361SOL    HW125982   3.451   0.345   2.778
 8361SOL    HW225983   3.432   0.489   2.705
 8362SOL     OW25984   4.029   2.338   0.998
 8362SOL    HW125985   4.110   2.294   1.037
 8362SOL    HW225986   3.958   2.269   0.982
 8363SOL     OW25987   6.261   3.175   6.361
 8363SOL    HW125988   6.182   3.213   6.408
 8363SOL    HW225989   6.239   3.083   6.327
 8364SOL     OW25990   1.130   2.643   3.556
 8364SOL    HW125991   1.052   2.593   3.593
 8364SOL    HW225992   1.177   2.585   3.489
 8365SOL     OW25993   1.566   3.285   1.937
 8365SOL    HW125994   1.511   3.205   1.963
 8365SOL    HW225995   1.505   3.363   1.922
 8366SOL     OW25996   2.131   5.853   1.722
 8366SOL    HW125997   2.184   5.848   1.637
 8366SOL    HW225998   2.050   5.909   1.707
 8367SOL     OW25999   4.278   5.988   4.095
 8367SOL    HW126000   4.315   6.047   4.024
 8367SOL    HW226001   4.319   5.897   4.088
 8368SOL     OW26002   1.628   5.753   6.288
 8368SOL    HW126003   1.662   5.765   6.195
 8368SOL    HW226004   1.627   5.656   6.311
 8369SOL     OW26005   1.197   6.946   6.375
 8369SOL    HW126006   1.231   6.852   6.384
 8369SOL    HW226007   1.219   6.981   6.284
 8370SOL     OW26008   3.064   1.413   5.971
 8370SOL    HW126009   3.054   1.316   5.949
 8370SOL    HW226010   3.147   1.449   5.928
 8371SOL     OW26011   2.377   4.653   1.052
 8371SOL    HW126012   2.438   4.626   0.978
 8371SOL    HW226013   2.414   4.735   1.097
 8372SOL     OW26014   2.073   5.258   1.823
 8372SOL    HW126015   1.988   5.208   1.839
 8372SOL    HW226016   2.091   5.319   1.900
 8373SOL     OW26017   1.666   7.012   4.666
 8373SOL    HW126018   1.722   0.057   4.631
 8373SOL    HW226019   1.594   6.990   4.600
 8374SOL     OW26020   7.012   0.911   5.385
 8374SOL    HW126021   0.025   0.829   5.424
 8374SOL    HW226022   6.963   0.961   5.456
 8375SOL     OW26023   3.232   6.383   4.956
 8375SOL    HW126024   3.258   6.306   5.015
 8375SOL    HW226025   3.223   6.466   5.011
 8376SOL     OW26026   1.526   1.199   4.296
 8376SOL    HW126027   1.566   1.169   4.383
 8376SOL    HW226028   1.498   1.294   4.303
 8377SOL     OW26029   5.221   6.554   0.848
 8377SOL    HW126030   5.198   6.649   0.824
 8377SOL    HW226031   5.203   6.495   0.770
 8378SOL     OW26032   4.570   5.899   2.760
 8378SOL    HW126033   4.642   5.966   2.744
 8378SOL    HW226034   4.570   5.872   2.856
 8379SOL     OW26035   5.676   2.921   1.170
 8379SOL    HW126036   5.638   2.829   1.177
 8379SOL    HW226037   5.664   2.970   1.257
 8380SOL     OW26038   0.316   0.488   2.669
 8380SOL    HW126039   0.360   0.565   2.623
 8380SOL    HW226040   0.383   0.417   2.689
 8381SOL     OW26041   0.407   2.945   4.966
 8381SOL    HW126042   0.494   2.980   5.000
 8381SOL    HW226043   0.422   2.896   4.880
 8382SOL     OW26044   3.105   0.467   2.913
 8382SOL    HW126045   3.009   0.467   2.942
 8382SOL    HW226046   3.109   0.471   2.813
 8383SOL     OW26047   2.777   0.019   5.963
 8383SOL    HW126048   2.862   0.071   5.973
 8383SOL    HW226049   2.708   0.055   6.025
 8384SOL     OW26050   6.541   0.622   1.417
 8384SOL    HW126051   6.570   0.644   1.325
 8384SOL    HW226052   6.567   0.528   1.439
 8385SOL     OW26053   5.731   2.310   0.862
 8385SOL    HW126054   5.816   2.265   0.833
 8385SOL    HW226055   5.680   2.340   0.782
 8386SOL     OW26056   2.498   5.640   1.940
 8386SOL    HW126057   2.412   5.691   1.928
 8386SOL    HW226058   2.575   5.702   1.927
 8387SOL     OW26059   1.260   1.215   1.649
 8387SOL    HW126060   1.229   1.275   1.722
 8387SOL    HW226061   1.280   1.269   1.567
 8388SOL     OW26062   2.146   6.077   0.511
 8388SOL    HW126063   2.159   5.994   0.458
 8388SOL    HW226064   2.217   6.143   0.488
 8389SOL     OW26065   0.158   3.783   2.749
 8389SOL    HW126066   0.167   3.856   2.818
 8389SOL    HW226067   0.235   3.788   2.685
 8390SOL     OW26068   4.793   1.247   0.088
 8390SOL    HW126069   4.735   1.180   0.042
 8390SOL    HW226070   4.737   1.322   0.122
 8391SOL     OW26071   6.617   5.197   1.143
 8391SOL    HW126072   6.621   5.297   1.136
 8391SOL    HW226073   6.609   5.158   1.052
 8392SOL     OW26074   6.493   4.159   4.842
 8392SOL    HW126075   6.480   4.151   4.743
 8392SOL    HW226076   6.549   4.239   4.862
 8393SOL     OW26077   0.274   6.252   2.873
 8393SOL    HW126078   0.332   6.181   2.913
 8393SOL    HW226079   0.307   6.342   2.902
 8394SOL     OW26080   6.741   2.805   1.837
 8394SOL    HW126081   6.714   2.722   1.886
 8394SOL    HW226082   6.673   2.827   1.767
 8395SOL     OW26083   2.109   6.635   5.132
 8395SOL    HW126084   2.121   6.726   5.093
 8395SOL    HW226085   2.173   6.621   5.207
 8396SOL     OW26086   5.200   5.330   2.147
 8396SOL    HW126087   5.181   5.410   2.091
 8396SOL    HW226088   5.292   5.339   2.187
 8397SOL     OW26089   2.042   0.475   2.754
 8397SOL    HW126090   2.085   0.565   2.763
 8397SOL    HW226091   1.950   0.478   2.794
 8398SOL     OW26092   3.858   1.763   7.021
 8398SOL    HW126093   3.892   1.844   0.038
 8398SOL    HW226094   3.890   1.681   0.039
 8399SOL     OW26095   5.383   6.260   6.835
 8399SOL    HW126096   5.408   6.343   6.885
 8399SOL    HW226097   5.454   6.239   6.768
 8400SOL     OW26098   1.922   1.195   4.401
 8400SOL    HW126099   1.830   1.200   4.440
 8400SOL    HW226100   1.919   1.147   4.313
 8401SOL     OW26101   2.426   1.416   5.728
 8401SOL    HW126102   2.512   1.454   5.693
 8401SOL    HW226103   2.439   1.320   5.752
 8402SOL     OW26104   4.437   1.692   5.896
 8402SOL    HW126105   4.467   1.629   5.824
 8402SOL    HW226106   4.346   1.726   5.876
 8403SOL     OW26107   1.098   2.632   4.684
 8403SOL    HW126108   1.127   2.597   4.595
 8403SOL    HW226109   1.113   2.731   4.686
 8404SOL     OW26110   4.016   6.949   5.818
 8404SOL    HW126111   4.114   6.929   5.827
 8404SOL    HW226112   4.000   6.998   5.733
 8405SOL     OW26113   1.456   0.932   5.582
 8405SOL    HW126114   1.384   0.932   5.512
 8405SOL    HW226115   1.422   0.978   5.664
 8406SOL     OW26116   4.623   0.545   0.481
 8406SOL    HW126117   4.715   0.542   0.520
 8406SOL    HW226118   4.556   0.520   0.550
 8407SOL     OW26119   3.447   6.505   3.378
 8407SOL    HW126120   3.483   6.489   3.470
 8407SOL    HW226121   3.350   6.480   3.375
 8408SOL     OW26122   6.046   4.344   1.610
 8408SOL    HW126123   6.070   4.366   1.515
 8408SOL    HW226124   6.116   4.380   1.672
 8409SOL     OW26125   5.794   2.269   3.451
 8409SOL    HW126126   5.793   2.221   3.538
 8409SOL    HW226127   5.858   2.346   3.457
 8410SOL     OW26128   5.190   0.871   1.887
 8410SOL    HW126129   5.203   0.784   1.934
 8410SOL    HW226130   5.138   0.856   1.803
 8411SOL     OW26131   0.831   4.755   0.281
 8411SOL    HW126132   0.755   4.728   0.340
 8411SOL    HW226133   0.816   4.721   0.188
 8412SOL     OW26134   3.256   1.712   1.371
 8412SOL    HW126135   3.239   1.807   1.399
 8412SOL    HW226136   3.224   1.651   1.443
 8413SOL     OW26137   4.097   5.528   6.675
 8413SOL    HW126138   4.097   5.567   6.583
 8413SOL    HW226139   4.035   5.450   6.678
 8414SOL     OW26140   3.890   5.384   3.237
 8414SOL    HW126141   3.795   5.389   3.205
 8414SOL    HW226142   3.907   5.457   3.303
 8415SOL     OW26143   6.986   6.313   4.023
 8415SOL    HW126144   6.931   6.275   4.098
 8415SOL    HW226145   0.033   6.365   4.060
 8416SOL     OW26146   5.605   3.475   2.255
 8416SOL    HW126147   5.528   3.515   2.304
 8416SOL    HW226148   5.665   3.547   2.221
 8417SOL     OW26149   1.329   4.207   5.497
 8417SOL    HW126150   1.408   4.232   5.441
 8417SOL    HW226151   1.353   4.129   5.555
 8418SOL     OW26152   5.830   5.140   1.005
 8418SOL    HW126153   5.924   5.137   0.973
 8418SOL    HW226154   5.775   5.075   0.951
 8419SOL     OW26155   5.540   0.038   1.982
 8419SOL    HW126156   5.630   7.029   1.962
 8419SOL    HW226157   5.551   0.120   2.038
 8420SOL     OW26158   4.369   0.254   6.541
 8420SOL    HW126159   4.383   0.156   6.551
 8420SOL    HW226160   4.447   0.303   6.578
 8421SOL     OW26161   2.296   5.391   6.798
 8421SOL    HW126162   2.314   5.299   6.763
 8421SOL    HW226163   2.211   5.391   6.850
 8422SOL     OW26164   3.961   1.142   1.547
 8422SOL    HW126165   3.963   1.084   1.629
 8422SOL    HW226166   3.921   1.091   1.471
 8423SOL     OW26167   3.043   4.852   5.492
 8423SOL    HW126168   3.023   4.950   5.493
 8423SOL    HW226169   3.065   4.823   5.399
 8424SOL     OW26170   2.422   2.097   2.415
 8424SOL    HW126171   2.492   2.095   2.343
 8424SOL    HW226172   2.378   2.186   2.416
 8425SOL     OW26173   5.239   4.884   6.030
 8425SOL    HW126174   5.157   4.836   6.061
 8425SOL    HW226175   5.227   4.982   6.044
 8426SOL     OW26176   3.482   3.306   3.258
 8426SOL    HW126177   3.465   3.229   3.197
 8426SOL    HW226178   3.505   3.273   3.349
 8427SOL     OW26179   3.739   4.081   4.965
 8427SOL    HW126180   3.645   4.052   4.983
 8427SOL    HW226181   3.785   4.011   4.909
 8428SOL     OW26182   1.035   5.687   1.594
 8428SOL    HW126183   0.957   5.637   1.557
 8428SOL    HW226184   1.009   5.728   1.682
 8429SOL     OW26185   0.825   5.966   4.152
 8429SOL    HW126186   0.891   5.963   4.227
 8429SOL    HW226187   0.755   5.895   4.166
 8430SOL     OW26188   3.504   5.253   3.099
 8430SOL    HW126189   3.417   5.299   3.081
 8430SOL    HW226190   3.494   5.192   3.178
 8431SOL     OW26191   3.110   4.789   0.521
 8431SOL    HW126192   3.046   4.737   0.577
 8431SOL    HW226193   3.176   4.726   0.478
 8432SOL     OW26194   5.942   6.546   5.952
 8432SOL    HW126195   5.860   6.490   5.936
 8432SOL    HW226196   5.974   6.534   6.046
 8433SOL     OW26197   5.333   2.604   0.452
 8433SOL    HW126198   5.432   2.617   0.442
 8433SOL    HW226199   5.285   2.662   0.386
 8434SOL     OW26200   2.730   6.488   4.988
 8434SOL    HW126201   2.654   6.525   4.935
 8434SOL    HW226202   2.810   6.548   4.978
 8435SOL     OW26203   6.203   0.772   1.638
 8435SOL    HW126204   6.282   0.793   1.580
 8435SOL    HW226205   6.181   0.850   1.695
 8436SOL     OW26206   3.306   6.122   3.136
 8436SOL    HW126207   3.219   6.123   3.185
 8436SOL    HW226208   3.349   6.212   3.144
 8437SOL     OW26209   2.467   1.045   4.419
 8437SOL    HW126210   2.460   1.071   4.515
 8437SOL    HW226211   2.439   1.121   4.361
 8438SOL     OW26212   2.026   5.027   2.540
 8438SOL    HW126213   2.054   4.941   2.582
 8438SOL    HW226214   2.096   5.058   2.476
 8439SOL     OW26215   6.680   4.602   3.052
 8439SOL    HW126216   6.711   4.536   2.984
 8439SOL    HW226217   6.597   4.647   3.020
 8440SOL     OW26218   1.663   2.008   3.682
 8440SOL    HW126219   1.682   2.098   3.643
 8440SOL    HW226220   1.659   2.014   3.781
 8441SOL     OW26221   6.067   6.355   0.249
 8441SOL    HW126222   6.120   6.411   0.314
 8441SOL    HW226223   6.110   6.266   0.240
 8442SOL     OW26224   3.099   2.083   5.181
 8442SOL    HW126225   3.127   2.157   5.120
 8442SOL    HW226226   3.002   2.092   5.203
 8443SOL     OW26227   2.221   4.804   3.453
 8443SOL    HW126228   2.212   4.886   3.396
 8443SOL    HW226229   2.247   4.726   3.396
 8444SOL     OW26230   3.011   5.943   3.926
 8444SOL    HW126231   2.914   5.964   3.915
 8444SOL    HW226232   3.057   5.952   3.837
 8445SOL     OW26233   3.412   6.580   1.165
 8445SOL    HW126234   3.361   6.644   1.106
 8445SOL    HW226235   3.475   6.632   1.222
 8446SOL     OW26236   4.786   4.792   6.932
 8446SOL    HW126237   4.871   4.744   6.958
 8446SOL    HW226238   4.709   4.729   6.942
 8447SOL     OW26239   5.182   1.511   2.489
 8447SOL    HW126240   5.228   1.600   2.484
 8447SOL    HW226241   5.250   1.439   2.503
 8448SOL     OW26242   4.504   5.668   4.417
 8448SOL    HW126243   4.517   5.760   4.453
 8448SOL    HW226244   4.548   5.660   4.328
 8449SOL     OW26245   0.140   2.756   3.589
 8449SOL    HW126246   0.238   2.768   3.607
 8449SOL    HW226247   0.113   2.816   3.514
 8450SOL     OW26248   0.322   6.707   1.060
 8450SOL    HW126249   0.243   6.743   1.109
 8450SOL    HW226250   0.292   6.665   0.974
 8451SOL     OW26251   3.697   1.513   0.396
 8451SOL    HW126252   3.768   1.530   0.327
 8451SOL    HW226253   3.715   1.426   0.441
 8452SOL     OW26254   5.967   1.784   2.773
 8452SOL    HW126255   6.005   1.775   2.865
 8452SOL    HW226256   5.881   1.734   2.768
 8453SOL     OW26257   0.702   4.279   6.856
 8453SOL    HW126258   0.774   4.324   6.910
 8453SOL    HW226259   0.646   4.222   6.916
 8454SOL     OW26260   6.555   6.418   1.547
 8454SOL    HW126261   6.497   6.482   1.497
 8454SOL    HW226262   6.650   6.449   1.542
 8455SOL     OW26263   6.425   2.435   2.006
 8455SOL    HW126264   6.430   2.340   1.974
 8455SOL    HW226265   6.358   2.485   1.950
 8456SOL     OW26266   3.724   5.809   3.146
 8456SOL    HW126267   3.715   5.904   3.115
 8456SOL    HW226268   3.637   5.761   3.130
 8457SOL     OW26269   6.407   6.854   4.505
 8457SOL    HW126270   6.410   6.829   4.408
 8457SOL    HW226271   6.500   6.855   4.542
 8458SOL     OW26272   3.120   0.774   6.772
 8458SOL    HW126273   3.125   0.850   6.707
 8458SOL    HW226274   3.150   0.690   6.728
 8459SOL     OW26275   2.906   6.160   2.154
 8459SOL    HW126276   2.857   6.083   2.193
 8459SOL    HW226277   2.865   6.186   2.067
 8460SOL     OW26278   4.137   4.223   5.281
 8460SOL    HW126279   4.193   4.294   5.238
 8460SOL    HW226280   4.106   4.158   5.212
 8461SOL     OW26281   0.859   4.182   4.735
 8461SOL    HW126282   0.845   4.192   4.636
 8461SOL    HW226283   0.830   4.265   4.782
 8462SOL     OW26284   2.565   2.685   6.936
 8462SOL    HW126285   2.552   2.668   0.003
 8462SOL    HW226286   2.654   2.649   6.906
 8463SOL     OW26287   6.876   6.965   1.197
 8463SOL    HW126288   6.860   6.952   1.100
 8463SOL    HW226289   6.795   6.935   1.248
 8464SOL     OW26290   5.574   3.494   4.037
 8464SOL    HW126291   5.626   3.408   4.040
 8464SOL    HW226292   5.511   3.497   4.115
 8465SOL     OW26293   1.129   3.070   0.586
 8465SOL    HW126294   1.051   3.055   0.646
 8465SOL    HW226295   1.204   3.010   0.613
 8466SOL     OW26296   0.855   6.549   4.015
 8466SOL    HW126297   0.765   6.539   3.971
 8466SOL    HW226298   0.926   6.523   3.950
 8467SOL     OW26299   4.073   0.156   6.440
 8467SOL    HW126300   4.145   0.212   6.401
 8467SOL    HW226301   4.054   0.079   6.379
 8468SOL     OW26302   3.537   2.024   6.934
 8468SOL    HW126303   3.570   2.001   6.843
 8468SOL    HW226304   3.531   1.940   6.990
 8469SOL     OW26305   3.313   1.817   6.964
 8469SOL    HW126306   3.407   1.787   6.979
 8469SOL    HW226307   3.268   1.832   0.023
 8470SOL     OW26308   1.921   4.173   0.126
 8470SOL    HW126309   1.967   4.260   0.142
 8470SOL    HW226310   1.861   4.153   0.204
 8471SOL     OW26311   3.171   1.172   3.698
 8471SOL    HW126312   3.201   1.097   3.757
 8471SOL    HW226313   3.071   1.175   3.697
 8472SOL     OW26314   6.862   1.088   4.766
 8472SOL    HW126315   6.942   1.030   4.780
 8472SOL    HW226316   6.793   1.065   4.836
 8473SOL     OW26317   6.550   6.296   6.723
 8473SOL    HW126318   6.466   6.333   6.683
 8473SOL    HW226319   6.537   6.199   6.743
 8474SOL     OW26320   3.533   3.150   1.907
 8474SOL    HW126321   3.600   3.214   1.944
 8474SOL    HW226322   3.531   3.067   1.964
 8475SOL     OW26323   0.406   2.763   3.618
 8475SOL    HW126324   0.466   2.782   3.696
 8475SOL    HW226325   0.461   2.742   3.538
 8476SOL     OW26326   6.984   2.064   0.762
 8476SOL    HW126327   6.929   1.991   0.722
 8476SOL    HW226328   7.025   2.032   0.848
 8477SOL     OW26329   5.039   6.817   1.536
 8477SOL    HW126330   5.039   6.797   1.634
 8477SOL    HW226331   5.014   6.734   1.485
 8478SOL     OW26332   0.925   6.675   6.324
 8478SOL    HW126333   0.967   6.653   6.236
 8478SOL    HW226334   0.985   6.644   6.398
 8479SOL     OW26335   0.332   3.027   1.075
 8479SOL    HW126336   0.352   3.102   1.013
 8479SOL    HW226337   0.337   2.940   1.025
 8480SOL     OW26338   4.429   1.482   0.124
 8480SOL    HW126339   4.472   1.569   0.101
 8480SOL    HW226340   4.461   1.452   0.214
 8481SOL     OW26341   4.420   2.059   3.755
 8481SOL    HW126342   4.365   2.001   3.694
 8481SOL    HW226343   4.424   2.018   3.846
 8482SOL     OW26344   4.666   5.670   2.165
 8482SOL    HW126345   4.624   5.696   2.078
 8482SOL    HW226346   4.750   5.618   2.147
 8483SOL     OW26347   4.319   6.374   2.216
 8483SOL    HW126348   4.232   6.411   2.184
 8483SOL    HW226349   4.310   6.275   2.231
 8484SOL     OW26350   0.600   5.758   3.250
 8484SOL    HW126351   0.651   5.769   3.336
 8484SOL    HW226352   0.508   5.724   3.271
 8485SOL     OW26353   3.560   3.145   0.627
 8485SOL    HW126354   3.598   3.234   0.653
 8485SOL    HW226355   3.604   3.113   0.543
 8486SOL     OW26356   3.978   0.984   3.186
 8486SOL    HW126357   4.055   0.956   3.243
 8486SOL    HW226358   3.925   0.904   3.159
 8487SOL     OW26359   5.202   2.091   5.980
 8487SOL    HW126360   5.127   2.024   5.978
 8487SOL    HW226361   5.289   2.043   5.969
 8488SOL     OW26362   5.859   5.492   6.526
 8488SOL    HW126363   5.770   5.465   6.489
 8488SOL    HW226364   5.896   5.568   6.471
 8489SOL     OW26365   6.489   1.584   1.333
 8489SOL    HW126366   6.409   1.636   1.303
 8489SOL    HW226367   6.530   1.630   1.412
 8490SOL     OW26368   3.761   6.667   4.052
 8490SOL    HW126369   3.705   6.612   3.989
 8490SOL    HW226370   3.802   6.607   4.121
 8491SOL     OW26371   2.118   6.560   0.606
 8491SOL    HW126372   2.190   6.514   0.658
 8491SOL    HW226373   2.112   6.520   0.515
 8492SOL     OW26374   4.689   4.162   6.278
 8492SOL    HW126375   4.740   4.134   6.196
 8492SOL    HW226376   4.638   4.245   6.259
 8493SOL     OW26377   2.870   2.528   6.225
 8493SOL    HW126378   2.775   2.497   6.216
 8493SOL    HW226379   2.932   2.457   6.194
 8494SOL     OW26380   3.037   4.902   1.481
 8494SOL    HW126381   3.135   4.923   1.489
 8494SOL    HW226382   3.017   4.876   1.386
 8495SOL     OW26383   6.591   4.858   1.740
 8495SOL    HW126384   6.546   4.941   1.773
 8495SOL    HW226385   6.599   4.861   1.640
 8496SOL     OW26386   0.802   2.108   2.357
 8496SOL    HW126387   0.787   2.152   2.268
 8496SOL    HW226388   0.898   2.115   2.382
 8497SOL     OW26389   6.169   1.039   3.600
 8497SOL    HW126390   6.245   0.987   3.562
 8497SOL    HW226391   6.178   1.135   3.576
 8498SOL     OW26392   0.573   5.913   2.758
 8498SOL    HW126393   0.480   5.886   2.732
 8498SOL    HW226394   0.594   5.878   2.849
 8499SOL     OW26395   2.476   4.764   6.520
 8499SOL    HW126396   2.563   4.804   6.492
 8499SOL    HW226397   2.456   4.684   6.462
 8500SOL     OW26398   2.375   6.578   4.916
 8500SOL    HW126399   2.351   6.482   4.898
 8500SOL    HW226400   2.364   6.597   5.014
 8501SOL     OW26401   0.702   1.644   6.715
 8501SOL    HW126402   0.616   1.643   6.663
 8501SOL    HW226403   0.681   1.651   6.812
 8502SOL     OW26404   2.033   5.009   1.472
 8502SOL    HW126405   2.008   4.936   1.409
 8502SOL    HW226406   2.116   4.984   1.522
 8503SOL     OW26407   1.582   0.193   4.022
 8503SOL    HW126408   1.493   0.213   4.063
 8503SOL    HW226409   1.585   0.096   3.997
 8504SOL     OW26410   2.826   5.119   2.870
 8504SOL    HW126411   2.804   5.086   2.778
 8504SOL    HW226412   2.818   5.043   2.935
 8505SOL     OW26413   4.874   3.690   3.600
 8505SOL    HW126414   4.884   3.727   3.508
 8505SOL    HW226415   4.875   3.590   3.596
 8506SOL     OW26416   6.438   1.322   6.835
 8506SOL    HW126417   6.480   1.238   6.799
 8506SOL    HW226418   6.491   1.401   6.805
 8507SOL     OW26419   3.497   0.811   5.548
 8507SOL    HW126420   3.468   0.724   5.507
 8507SOL    HW226421   3.545   0.793   5.634
 8508SOL     OW26422   5.723   1.874   4.735
 8508SOL    HW126423   5.681   1.789   4.702
 8508SOL    HW226424   5.783   1.912   4.665
 8509SOL     OW26425   4.454   1.773   3.340
 8509SOL    HW126426   4.446   1.706   3.267
 8509SOL    HW226427   4.367   1.823   3.348
 8510SOL     OW26428   5.577   4.363   2.849
 8510SOL    HW126429   5.637   4.354   2.769
 8510SOL    HW226430   5.632   4.352   2.932
 8511SOL     OW26431   6.395   3.764   1.756
 8511SOL    HW126432   6.491   3.791   1.768
 8511SOL    HW226433   6.384   3.668   1.782
 8512SOL     OW26434   3.502   1.956   1.360
 8512SOL    HW126435   3.461   2.037   1.401
 8512SOL    HW226436   3.520   1.888   1.431
 8513SOL     OW26437   4.660   4.408   1.739
 8513SOL    HW126438   4.744   4.359   1.717
 8513SOL    HW226439   4.592   4.344   1.774
 8514SOL     OW26440   2.729   2.379   3.929
 8514SOL    HW126441   2.725   2.285   3.963
 8514SOL    HW226442   2.695   2.441   3.999
 8515SOL     OW26443   5.377   1.728   0.714
 8515SOL    HW126444   5.474   1.707   0.706
 8515SOL    HW226445   5.325   1.671   0.651
 8516SOL     OW26446   6.903   1.748   1.424
 8516SOL    HW126447   6.824   1.714   1.372
 8516SOL    HW226448   6.914   1.693   1.506
 8517SOL     OW26449   1.724   3.349   6.579
 8517SOL    HW126450   1.716   3.268   6.637
 8517SOL    HW226451   1.760   3.425   6.632
 8518SOL     OW26452   5.476   4.068   0.345
 8518SOL    HW126453   5.430   4.084   0.257
 8518SOL    HW226454   5.419   4.104   0.419
 8519SOL     OW26455   1.149   4.229   1.211
 8519SOL    HW126456   1.166   4.134   1.238
 8519SOL    HW226457   1.063   4.235   1.161
 8520SOL     OW26458   3.382   3.234   0.276
 8520SOL    HW126459   3.335   3.245   0.188
 8520SOL    HW226460   3.348   3.151   0.320
 8521SOL     OW26461   2.050   5.341   5.484
 8521SOL    HW126462   2.114   5.274   5.522
 8521SOL    HW226463   2.084   5.433   5.503
 8522SOL     OW26464   1.280   6.491   1.678
 8522SOL    HW126465   1.274   6.523   1.772
 8522SOL    HW226466   1.207   6.532   1.623
 8523SOL     OW26467   1.830   6.331   6.688
 8523SOL    HW126468   1.771   6.404   6.722
 8523SOL    HW226469   1.867   6.357   6.598
 8524SOL     OW26470   0.231   2.968   5.194
 8524SOL    HW126471   0.283   2.966   5.108
 8524SOL    HW226472   0.185   3.056   5.203
 8525SOL     OW26473   6.330   4.349   2.810
 8525SOL    HW126474   6.309   4.262   2.764
 8525SOL    HW226475   6.409   4.392   2.766
 8526SOL     OW26476   4.344   6.180   6.270
 8526SOL    HW126477   4.290   6.188   6.187
 8526SOL    HW226478   4.330   6.260   6.328
 8527SOL     OW26479   2.599   0.937   6.168
 8527SOL    HW126480   2.672   0.869   6.166
 8527SOL    HW226481   2.618   1.005   6.239
 8528SOL     OW26482   3.378   1.166   6.596
 8528SOL    HW126483   3.472   1.178   6.627
 8528SOL    HW226484   3.333   1.256   6.591
 8529SOL     OW26485   0.795   0.514   0.960
 8529SOL    HW126486   0.741   0.446   0.911
 8529SOL    HW226487   0.785   0.603   0.917
 8530SOL     OW26488   3.943   4.095   5.464
 8530SOL    HW126489   3.845   4.111   5.463
 8530SOL    HW226490   3.990   4.174   5.423
 8531SOL     OW26491   6.519   5.210   2.804
 8531SOL    HW126492   6.489   5.299   2.768
 8531SOL    HW226493   6.522   5.215   2.904
 8532SOL     OW26494   4.329   4.980   5.057
 8532SOL    HW126495   4.416   4.945   5.093
 8532SOL    HW226496   4.258   4.910   5.068
 8533SOL     OW26497   1.200   0.179   6.870
 8533SOL    HW126498   1.174   0.126   6.789
 8533SOL    HW226499   1.262   0.125   6.926
 8534SOL     OW26500   6.894   3.242   4.053
 8534SOL    HW126501   6.808   3.210   4.093
 8534SOL    HW226502   6.875   3.312   3.984
 8535SOL     OW26503   6.179   1.931   4.426
 8535SOL    HW126504   6.239   2.010   4.439
 8535SOL    HW226505   6.143   1.901   4.515
 8536SOL     OW26506   0.568   2.450   5.104
 8536SOL    HW126507   0.521   2.511   5.041
 8536SOL    HW226508   0.578   2.360   5.062
 8537SOL     OW26509   5.065   1.069   2.048
 8537SOL    HW126510   5.103   0.984   2.010
 8537SOL    HW226511   4.990   1.100   1.990
 8538SOL     OW26512   0.436   0.691   0.203
 8538SOL    HW126513   0.449   0.789   0.220
 8538SOL    HW226514   0.453   0.672   0.106
 8539SOL     OW26515   4.944   0.765   2.854
 8539SOL    HW126516   4.912   0.701   2.924
 8539SOL    HW226517   4.991   0.842   2.897
 8540SOL     OW26518   4.624   0.211   6.349
 8540SOL    HW126519   4.586   0.163   6.270
 8540SOL    HW226520   4.606   0.309   6.340
 8541SOL     OW26521   2.493   1.730   4.071
 8541SOL    HW126522   2.467   1.696   3.980
 8541SOL    HW226523   2.412   1.740   4.128
 8542SOL     OW26524   3.999   4.744   6.949
 8542SOL    HW126525   3.996   4.656   6.901
 8542SOL    HW226526   3.938   4.809   6.902
 8543SOL     OW26527   3.287   0.659   1.222
 8543SOL    HW126528   3.357   0.730   1.215
 8543SOL    HW226529   3.211   0.692   1.277
 8544SOL     OW26530   5.213   3.456   4.904
 8544SOL    HW126531   5.196   3.555   4.899
 8544SOL    HW226532   5.127   3.407   4.909
 8545SOL     OW26533   4.652   6.925   5.052
 8545SOL    HW126534   4.674   7.020   5.031
 8545SOL    HW226535   4.602   6.884   4.976
 8546SOL     OW26536   7.016   1.775   3.635
 8546SOL    HW126537   6.988   1.807   3.544
 8546SOL    HW226538   0.057   1.706   3.625
 8547SOL     OW26539   1.541   0.124   6.098
 8547SOL    HW126540   1.592   0.209   6.112
 8547SOL    HW226541   1.596   0.061   6.044
 8548SOL     OW26542   5.642   2.661   5.342
 8548SOL    HW126543   5.650   2.642   5.244
 8548SOL    HW226544   5.733   2.663   5.383
 8549SOL     OW26545   1.241   2.764   4.257
 8549SOL    HW126546   1.263   2.836   4.322
 8549SOL    HW226547   1.157   2.718   4.286
 8550SOL     OW26548   1.848   4.819   0.313
 8550SOL    HW126549   1.931   4.864   0.345
 8550SOL    HW226550   1.852   4.805   0.214
 8551SOL     OW26551   3.387   3.950   6.594
 8551SOL    HW126552   3.477   3.908   6.588
 8551SOL    HW226553   3.393   4.038   6.641
 8552SOL     OW26554   2.530   0.463   3.947
 8552SOL    HW126555   2.439   0.447   3.910
 8552SOL    HW226556   2.594   0.395   3.912
 8553SOL     OW26557   4.261   4.388   6.998
 8553SOL    HW126558   4.322   4.326   6.948
 8553SOL    HW226559   4.190   4.334   0.013
 8554SOL     OW26560   1.125   4.663   0.665
 8554SOL    HW126561   1.094   4.750   0.702
 8554SOL    HW226562   1.126   4.594   0.737
 8555SOL     OW26563   2.189   1.302   3.367
 8555SOL    HW126564   2.143   1.213   3.375
 8555SOL    HW226565   2.192   1.346   3.456
 8556SOL     OW26566   1.611   5.963   5.137
 8556SOL    HW126567   1.562   5.881   5.108
 8556SOL    HW226568   1.557   6.012   5.205
 8557SOL     OW26569   5.723   6.655   3.312
 8557SOL    HW126570   5.706   6.633   3.216
 8557SOL    HW226571   5.793   6.726   3.318
 8558SOL     OW26572   3.271   4.993   3.320
 8558SOL    HW126573   3.185   4.967   3.363
 8558SOL    HW226574   3.261   4.991   3.220
 8559SOL     OW26575   0.775   0.249   2.513
 8559SOL    HW126576   0.844   0.206   2.455
 8559SOL    HW226577   0.772   0.203   2.602
 8560SOL     OW26578   6.522   6.236   1.766
 8560SOL    HW126579   6.507   6.313   1.703
 8560SOL    HW226580   6.602   6.255   1.823
 8561SOL     OW26581   3.238   0.815   2.548
 8561SOL    HW126582   3.151   0.857   2.522
 8561SOL    HW226583   3.272   0.856   2.633
 8562SOL     OW26584   3.804   5.734   5.525
 8562SOL    HW126585   3.852   5.646   5.528
 8562SOL    HW226586   3.718   5.727   5.574
 8563SOL     OW26587   2.072   4.360   6.773
 8563SOL    HW126588   1.978   4.344   6.742
 8563SOL    HW226589   2.098   4.288   6.838
 8564SOL     OW26590   2.853   1.057   5.109
 8564SOL    HW126591   2.933   1.025   5.059
 8564SOL    HW226592   2.867   1.043   5.207
 8565SOL     OW26593   4.406   5.392   1.004
 8565SOL    HW126594   4.496   5.355   1.028
 8565SOL    HW226595   4.418   5.478   0.954
 8566SOL     OW26596   1.743   0.498   1.338
 8566SOL    HW126597   1.813   0.478   1.269
 8566SOL    HW226598   1.733   0.597   1.348
 8567SOL     OW26599   0.333   2.336   2.415
 8567SOL    HW126600   0.353   2.240   2.398
 8567SOL    HW226601   0.236   2.346   2.439
 8568SOL     OW26602   5.466   1.321   6.110
 8568SOL    HW126603   5.397   1.340   6.181
 8568SOL    HW226604   5.419   1.297   6.025
 8569SOL     OW26605   5.039   1.026   6.122
 8569SOL    HW126606   5.072   1.062   6.209
 8569SOL    HW226607   4.950   1.067   6.100
 8570SOL     OW26608   1.742   2.301   5.196
 8570SOL    HW126609   1.669   2.368   5.185
 8570SOL    HW226610   1.715   2.232   5.263
 8571SOL     OW26611   0.943   5.772   5.498
 8571SOL    HW126612   1.019   5.708   5.502
 8571SOL    HW226613   0.972   5.860   5.534
 8572SOL     OW26614   2.758   4.954   6.800
 8572SOL    HW126615   2.708   4.872   6.774
 8572SOL    HW226616   2.752   5.022   6.727
 8573SOL     OW26617   3.459   6.112   6.024
 8573SOL    HW126618   3.525   6.092   5.952
 8573SOL    HW226619   3.451   6.211   6.035
 8574SOL     OW26620   6.597   5.411   5.846
 8574SOL    HW126621   6.546   5.403   5.931
 8574SOL    HW226622   6.688   5.449   5.865
 8575SOL     OW26623   2.661   2.333   5.063
 8575SOL    HW126624   2.693   2.370   5.150
 8575SOL    HW226625   2.738   2.293   5.014
 8576SOL     OW26626   1.761   5.377   6.596
 8576SOL    HW126627   1.842   5.421   6.556
 8576SOL    HW226628   1.782   5.347   6.689
 8577SOL     OW26629   6.775   6.724   4.218
 8577SOL    HW126630   6.731   6.635   4.208
 8577SOL    HW226631   6.744   6.785   4.145
 8578SOL     OW26632   5.584   1.101   4.146
 8578SOL    HW126633   5.539   1.012   4.142
 8578SOL    HW226634   5.560   1.154   4.065
 8579SOL     OW26635   1.583   0.348   2.460
 8579SOL    HW126636   1.586   0.336   2.361
 8579SOL    HW226637   1.572   0.260   2.504
 8580SOL     OW26638   2.211   6.995   1.981
 8580SOL    HW126639   2.147   6.924   1.952
 8580SOL    HW226640   2.164   0.030   2.039
 8581SOL     OW26641   3.106   3.790   1.854
 8581SOL    HW126642   3.180   3.724   1.841
 8581SOL    HW226643   3.031   3.769   1.792
 8582SOL     OW26644   4.723   4.851   3.317
 8582SOL    HW126645   4.676   4.859   3.229
 8582SOL    HW226646   4.728   4.755   3.345
 8583SOL     OW26647   5.461   0.623   4.465
 8583SOL    HW126648   5.427   0.544   4.517
 8583SOL    HW226649   5.561   0.621   4.461
 8584SOL     OW26650   1.189   4.290   6.046
 8584SOL    HW126651   1.183   4.192   6.023
 8584SOL    HW226652   1.126   4.341   5.988
 8585SOL     OW26653   0.328   6.087   6.239
 8585SOL    HW126654   0.275   6.150   6.184
 8585SOL    HW226655   0.334   5.999   6.192
 8586SOL     OW26656   2.684   0.220   2.696
 8586SOL    HW126657   2.690   0.212   2.596
 8586SOL    HW226658   2.695   0.130   2.738
 8587SOL     OW26659   1.588   6.547   4.301
 8587SOL    HW126660   1.566   6.589   4.388
 8587SOL    HW226661   1.676   6.583   4.268
 8588SOL     OW26662   2.810   0.982   0.451
 8588SOL    HW126663   2.808   0.906   0.385
 8588SOL    HW226664   2.886   0.969   0.515
 8589SOL     OW26665   4.796   2.889   5.137
 8589SOL    HW126666   4.847   2.808   5.106
 8589SOL    HW226667   4.841   2.971   5.103
 8590SOL     OW26668   6.768   6.235   4.218
 8590SOL    HW126669   6.727   6.161   4.165
 8590SOL    HW226670   6.842   6.199   4.275
 8591SOL     OW26671   0.537   4.021   6.987
 8591SOL    HW126672   0.518   3.995   0.052
 8591SOL    HW226673   0.589   3.949   6.942
 8592SOL     OW26674   0.159   2.558   6.247
 8592SOL    HW126675   0.081   2.503   6.216
 8592SOL    HW226676   0.126   2.646   6.281
 8593SOL     OW26677   2.995   0.301   0.710
 8593SOL    HW126678   2.996   0.206   0.680
 8593SOL    HW226679   2.906   0.342   0.689
 8594SOL     OW26680   4.137   2.311   5.524
 8594SOL    HW126681   4.076   2.362   5.585
 8594SOL    HW226682   4.214   2.370   5.498
 8595SOL     OW26683   1.044   2.901   3.214
 8595SOL    HW126684   1.124   2.842   3.224
 8595SOL    HW226685   0.981   2.862   3.147
 8596SOL     OW26686   0.306   5.213   3.268
 8596SOL    HW126687   0.405   5.221   3.260
 8596SOL    HW226688   0.274   5.133   3.217
 8597SOL     OW26689   4.311   1.327   0.651
 8597SOL    HW126690   4.297   1.315   0.750
 8597SOL    HW226691   4.325   1.423   0.630
 8598SOL     OW26692   5.828   6.515   0.788
 8598SOL    HW126693   5.902   6.578   0.768
 8598SOL    HW226694   5.742   6.565   0.792
 8599SOL     OW26695   0.957   2.661   4.348
 8599SOL    HW126696   0.893   2.705   4.412
 8599SOL    HW226697   0.947   2.702   4.258
 8600SOL     OW26698   4.575   5.056   5.729
 8600SOL    HW126699   4.630   5.120   5.675
 8600SOL    HW226700   4.517   5.108   5.792
 8601SOL     OW26701   0.853   1.254   5.129
 8601SOL    HW126702   0.930   1.203   5.091
 8601SOL    HW226703   0.827   1.215   5.217
 8602SOL     OW26704   2.727   5.368   2.510
 8602SOL    HW126705   2.706   5.295   2.446
 8602SOL    HW226706   2.812   5.347   2.559
 8603SOL     OW26707   4.139   5.628   0.115
 8603SOL    HW126708   4.105   5.544   0.074
 8603SOL    HW226709   4.101   5.707   0.066
 8604SOL     OW26710   0.630   2.579   4.262
 8604SOL    HW126711   0.571   2.500   4.277
 8604SOL    HW226712   0.716   2.566   4.311
 8605SOL     OW26713   3.027   5.552   4.676
 8605SOL    HW126714   3.082   5.504   4.607
 8605SOL    HW226715   3.063   5.531   4.767
 8606SOL     OW26716   1.538   3.297   6.359
 8606SOL    HW126717   1.588   3.317   6.274
 8606SOL    HW226718   1.597   3.315   6.438
 8607SOL     OW26719   3.680   6.096   0.577
 8607SOL    HW126720   3.690   6.192   0.553
 8607SOL    HW226721   3.769   6.052   0.576
 8608SOL     OW26722   4.280   5.796   2.825
 8608SOL    HW126723   4.206   5.795   2.758
 8608SOL    HW226724   4.367   5.776   2.779
 8609SOL     OW26725   5.478   1.073   3.180
 8609SOL    HW126726   5.509   1.163   3.152
 8609SOL    HW226727   5.456   1.018   3.099
 8610SOL     OW26728   1.982   2.128   2.797
 8610SOL    HW126729   1.908   2.100   2.735
 8610SOL    HW226730   1.963   2.219   2.834
 8611SOL     OW26731   2.891   1.817   4.565
 8611SOL    HW126732   2.927   1.740   4.617
 8611SOL    HW226733   2.953   1.839   4.490
 8612SOL     OW26734   3.686   3.260   1.285
 8612SOL    HW126735   3.634   3.310   1.354
 8612SOL    HW226736   3.734   3.184   1.327
 8613SOL     OW26737   2.235   1.674   1.027
 8613SOL    HW126738   2.140   1.690   1.003
 8613SOL    HW226739   2.262   1.739   1.099
 8614SOL     OW26740   1.461   3.046   2.038
 8614SOL    HW126741   1.506   2.957   2.035
 8614SOL    HW226742   1.476   3.088   2.127
 8615SOL     OW26743   4.559   1.364   5.022
 8615SOL    HW126744   4.504   1.445   5.041
 8615SOL    HW226745   4.631   1.386   4.956
 8616SOL     OW26746   3.044   4.687   1.708
 8616SOL    HW126747   3.094   4.760   1.754
 8616SOL    HW226748   2.995   4.633   1.776
 8617SOL     OW26749   6.733   1.076   6.526
 8617SOL    HW126750   6.677   0.996   6.502
 8617SOL    HW226751   6.804   1.048   6.591
 8618SOL     OW26752   6.145   5.741   0.590
 8618SOL    HW126753   6.185   5.806   0.654
 8618SOL    HW226754   6.142   5.650   0.632
 8619SOL     OW26755   3.728   4.943   2.108
 8619SOL    HW126756   3.824   4.942   2.080
 8619SOL    HW226757   3.679   4.868   2.064
 8620SOL     OW26758   1.104   0.131   4.228
 8620SOL    HW126759   1.080   0.118   4.324
 8620SOL    HW226760   1.095   0.044   4.179
 8621SOL     OW26761   5.556   1.382   3.098
 8621SOL    HW126762   5.645   1.338   3.093
 8621SOL    HW226763   5.562   1.476   3.065
 8622SOL     OW26764   5.258   3.173   0.178
 8622SOL    HW126765   5.173   3.182   0.126
 8622SOL    HW226766   5.247   3.217   0.267
 8623SOL     OW26767   0.755   3.484   3.922
 8623SOL    HW126768   0.669   3.439   3.947
 8623SOL    HW226769   0.830   3.419   3.931
 8624SOL     OW26770   1.006   3.707   4.759
 8624SOL    HW126771   1.053   3.791   4.785
 8624SOL    HW226772   0.913   3.708   4.796
 8625SOL     OW26773   4.658   6.977   5.944
 8625SOL    HW126774   4.580   6.993   5.884
 8625SOL    HW226775   4.667   6.880   5.963
 8626SOL     OW26776   3.893   3.369   5.482
 8626SOL    HW126777   3.841   3.291   5.449
 8626SOL    HW226778   3.988   3.343   5.496
 8627SOL     OW26779   0.195   1.282   3.223
 8627SOL    HW126780   0.167   1.377   3.210
 8627SOL    HW226781   0.117   1.228   3.253
 8628SOL     OW26782   6.275   5.972   0.689
 8628SOL    HW126783   6.359   5.995   0.639
 8628SOL    HW226784   6.222   6.055   0.704
 8629SOL     OW26785   1.386   4.920   5.165
 8629SOL    HW126786   1.386   5.004   5.110
 8629SOL    HW226787   1.396   4.841   5.104
 8630SOL     OW26788   5.400   4.149   3.299
 8630SOL    HW126789   5.436   4.090   3.372
 8630SOL    HW226790   5.367   4.235   3.339
 8631SOL     OW26791   2.224   5.501   5.854
 8631SOL    HW126792   2.269   5.413   5.839
 8631SOL    HW226793   2.279   5.556   5.917
 8632SOL     OW26794   3.714   6.200   3.624
 8632SOL    HW126795   3.797   6.146   3.638
 8632SOL    HW226796   3.650   6.183   3.698
 8633SOL     OW26797   4.834   1.967   5.301
 8633SOL    HW126798   4.793   1.925   5.220
 8633SOL    HW226799   4.816   1.909   5.380
 8634SOL     OW26800   5.842   3.554   0.337
 8634SOL    HW126801   5.851   3.456   0.316
 8634SOL    HW226802   5.791   3.599   0.263
 8635SOL     OW26803   5.668   4.016   6.341
 8635SOL    HW126804   5.767   4.000   6.347
 8635SOL    HW226805   5.639   4.079   6.413
 8636SOL     OW26806   4.967   6.094   0.731
 8636SOL    HW126807   4.886   6.035   0.727
 8636SOL    HW226808   5.036   6.060   0.667
 8637SOL     OW26809   2.150   1.106   0.165
 8637SOL    HW126810   2.062   1.062   0.179
 8637SOL    HW226811   2.205   1.098   0.248
 8638SOL     OW26812   2.764   3.143   6.824
 8638SOL    HW126813   2.757   3.062   6.881
 8638SOL    HW226814   2.857   3.181   6.830
 8639SOL     OW26815   5.674   2.325   1.921
 8639SOL    HW126816   5.660   2.419   1.889
 8639SOL    HW226817   5.737   2.279   1.859
 8640SOL     OW26818   4.909   3.965   0.365
 8640SOL    HW126819   4.863   3.900   0.426
 8640SOL    HW226820   4.843   4.034   0.335
 8641SOL     OW26821   5.801   5.174   4.648
 8641SOL    HW126822   5.766   5.237   4.578
 8641SOL    HW226823   5.728   5.155   4.715
 8642SOL     OW26824   2.579   6.751   3.069
 8642SOL    HW126825   2.587   6.654   3.044
 8642SOL    HW226826   2.596   6.762   3.167
 8643SOL     OW26827   2.850   0.161   6.452
 8643SOL    HW126828   2.849   0.070   6.412
 8643SOL    HW226829   2.761   0.180   6.495
 8644SOL     OW26830   4.768   2.261   5.272
 8644SOL    HW126831   4.728   2.324   5.339
 8644SOL    HW226832   4.796   2.177   5.317
 8645SOL     OW26833   4.455   4.605   1.451
 8645SOL    HW126834   4.370   4.553   1.442
 8645SOL    HW226835   4.466   4.665   1.371
 8646SOL     OW26836   6.672   1.058   1.620
 8646SOL    HW126837   6.736   0.987   1.650
 8646SOL    HW226838   6.705   1.097   1.533
 8647SOL     OW26839   2.540   5.343   6.045
 8647SOL    HW126840   2.481   5.408   6.092
 8647SOL    HW226841   2.534   5.254   6.088
 8648SOL     OW26842   6.451   0.599   3.442
 8648SOL    HW126843   6.549   0.613   3.453
 8648SOL    HW226844   6.428   0.603   3.345
 8649SOL     OW26845   5.584   4.968   6.062
 8649SOL    HW126846   5.554   4.893   6.003
 8649SOL    HW226847   5.513   5.039   6.063
 8650SOL     OW26848   2.089   5.291   4.964
 8650SOL    HW126849   2.000   5.313   4.923
 8650SOL    HW226850   2.080   5.287   5.063
 8651SOL     OW26851   3.452   0.484   0.526
 8651SOL    HW126852   3.490   0.576   0.516
 8651SOL    HW226853   3.507   0.419   0.474
 8652SOL     OW26854   2.114   4.381   3.991
 8652SOL    HW126855   2.123   4.286   4.023
 8652SOL    HW226856   2.203   4.413   3.959
 8653SOL     OW26857   6.180   0.326   6.217
 8653SOL    HW126858   6.210   0.269   6.141
 8653SOL    HW226859   6.260   0.363   6.264
 8654SOL     OW26860   1.215   5.176   1.269
 8654SOL    HW126861   1.203   5.262   1.219
 8654SOL    HW226862   1.128   5.128   1.273
 8655SOL     OW26863   6.550   1.620   3.524
 8655SOL    HW126864   6.451   1.610   3.511
 8655SOL    HW226865   6.592   1.530   3.536
 8656SOL     OW26866   6.724   0.977   1.046
 8656SOL    HW126867   6.684   0.979   1.137
 8656SOL    HW226868   6.658   1.015   0.980
 8657SOL     OW26869   5.172   4.602   0.446
 8657SOL    HW126870   5.240   4.645   0.385
 8657SOL    HW226871   5.188   4.632   0.540
 8658SOL     OW26872   5.264   6.718   0.208
 8658SOL    HW126873   5.309   6.634   0.239
 8658SOL    HW226874   5.325   6.796   0.221
 8659SOL     OW26875   4.630   1.655   2.986
 8659SOL    HW126876   4.622   1.747   2.946
 8659SOL    HW226877   4.548   1.636   3.040
 8660SOL     OW26878   5.954   4.138   1.204
 8660SOL    HW126879   5.867   4.092   1.219
 8660SOL    HW226880   5.967   4.156   1.107
 8661SOL     OW26881   5.565   4.103   1.310
 8661SOL    HW126882   5.634   4.060   1.253
 8661SOL    HW226883   5.539   4.042   1.385
 8662SOL     OW26884   4.523   6.201   1.109
 8662SOL    HW126885   4.590   6.254   1.160
 8662SOL    HW226886   4.565   6.118   1.074
 8663SOL     OW26887   3.309   5.704   1.684
 8663SOL    HW126888   3.290   5.606   1.688
 8663SOL    HW226889   3.255   5.752   1.753
 8664SOL     OW26890   2.297   6.109   1.114
 8664SOL    HW126891   2.344   6.134   1.029
 8664SOL    HW226892   2.329   6.019   1.143
 8665SOL     OW26893   5.168   6.389   4.738
 8665SOL    HW126894   5.093   6.438   4.692
 8665SOL    HW226895   5.133   6.305   4.779
 8666SOL     OW26896   5.097   1.654   4.098
 8666SOL    HW126897   5.004   1.676   4.070
 8666SOL    HW226898   5.147   1.738   4.118
 8667SOL     OW26899   4.477   2.370   3.029
 8667SOL    HW126900   4.427   2.376   3.115
 8667SOL    HW226901   4.536   2.290   3.030
 8668SOL     OW26902   5.275   3.556   3.437
 8668SOL    HW126903   5.262   3.460   3.412
 8668SOL    HW226904   5.274   3.612   3.355
 8669SOL     OW26905   1.749   6.454   7.013
 8669SOL    HW126906   1.770   6.361   6.983
 8669SOL    HW226907   1.807   6.477   0.061
 8670SOL     OW26908   4.003   4.029   5.098
 8670SOL    HW126909   3.943   3.965   5.146
 8670SOL    HW226910   3.947   4.097   5.049
 8671SOL     OW26911   5.179   1.588   3.814
 8671SOL    HW126912   5.259   1.550   3.860
 8671SOL    HW226913   5.207   1.664   3.755
 8672SOL     OW26914   1.803   4.709   3.819
 8672SOL    HW126915   1.860   4.759   3.753
 8672SOL    HW226916   1.775   4.771   3.892
 8673SOL     OW26917   5.883   2.462   0.587
 8673SOL    HW126918   5.973   2.470   0.545
 8673SOL    HW226919   5.815   2.440   0.516
 8674SOL     OW26920   5.859   6.078   3.636
 8674SOL    HW126921   5.888   5.988   3.603
 8674SOL    HW226922   5.905   6.099   3.722
 8675SOL     OW26923   2.725   2.015   4.312
 8675SOL    HW126924   2.820   2.038   4.331
 8675SOL    HW226925   2.675   2.007   4.399
 8676SOL     OW26926   4.593   0.545   2.614
 8676SOL    HW126927   4.667   0.535   2.548
 8676SOL    HW226928   4.612   0.624   2.673
 8677SOL     OW26929   2.197   6.036   5.215
 8677SOL    HW126930   2.153   6.074   5.296
 8677SOL    HW226931   2.127   6.005   5.150
 8678SOL     OW26932   6.625   0.671   1.156
 8678SOL    HW126933   6.599   0.767   1.145
 8678SOL    HW226934   6.665   0.637   1.070
 8679SOL     OW26935   0.041   2.458   2.954
 8679SOL    HW126936   0.065   2.409   3.038
 8679SOL    HW226937   0.033   2.392   2.879
 8680SOL     OW26938   1.221   3.961   1.254
 8680SOL    HW126939   1.277   4.005   1.325
 8680SOL    HW226940   1.274   3.956   1.169
 8681SOL     OW26941   4.965   5.377   0.206
 8681SOL    HW126942   5.016   5.343   0.285
 8681SOL    HW226943   4.874   5.335   0.203
 8682SOL     OW26944   5.007   0.181   2.220
 8682SOL    HW126945   5.000   0.151   2.125
 8682SOL    HW226946   4.922   0.225   2.247
 8683SOL     OW26947   1.657   2.279   2.791
 8683SOL    HW126948   1.739   2.318   2.832
 8683SOL    HW226949   1.623   2.205   2.850
 8684SOL     OW26950   0.484   2.841   4.727
 8684SOL    HW126951   0.561   2.789   4.766
 8684SOL    HW226952   0.503   2.861   4.631
 8685SOL     OW26953   0.207   1.853   6.176
 8685SOL    HW126954   0.215   1.777   6.111
 8685SOL    HW226955   0.228   1.939   6.129
 8686SOL     OW26956   0.512   1.587   1.749
 8686SOL    HW126957   0.536   1.663   1.810
 8686SOL    HW226958   0.435   1.614   1.691
 8687SOL     OW26959   4.882   5.471   2.114
 8687SOL    HW126960   4.882   5.419   2.199
 8687SOL    HW226961   4.963   5.530   2.112
 8688SOL     OW26962   2.435   6.022   0.313
 8688SOL    HW126963   2.433   6.019   0.213
 8688SOL    HW226964   2.527   5.998   0.346
 8689SOL     OW26965   3.888   4.083   1.716
 8689SOL    HW126966   3.984   4.067   1.741
 8689SOL    HW226967   3.846   3.996   1.689
 8690SOL     OW26968   1.672   3.115   3.234
 8690SOL    HW126969   1.582   3.075   3.253
 8690SOL    HW226970   1.702   3.087   3.143
 8691SOL     OW26971   2.980   2.100   5.994
 8691SOL    HW126972   2.918   2.177   5.979
 8691SOL    HW226973   2.926   2.019   6.017
 8692SOL     OW26974   2.284   1.833   4.260
 8692SOL    HW126975   2.336   1.898   4.315
 8692SOL    HW226976   2.312   1.740   4.282
 8693SOL     OW26977   6.056   0.875   0.286
 8693SOL    HW126978   6.067   0.963   0.330
 8693SOL    HW226979   6.140   0.822   0.295
 8694SOL     OW26980   4.718   1.095   4.921
 8694SOL    HW126981   4.647   1.099   4.991
 8694SOL    HW226982   4.721   1.002   4.882
 8695SOL     OW26983   4.214   2.335   6.171
 8695SOL    HW126984   4.166   2.253   6.201
 8695SOL    HW226985   4.153   2.414   6.177
 8696SOL     OW26986   2.406   5.013   0.019
 8696SOL    HW126987   2.473   4.939   0.008
 8696SOL    HW226988   2.314   4.978   7.029
 8697SOL     OW26989   6.991   2.780   6.704
 8697SOL    HW126990   0.026   2.850   6.673
 8697SOL    HW226991   6.992   2.775   6.804
 8698SOL     OW26992   5.645   6.204   5.049
 8698SOL    HW126993   5.734   6.245   5.030
 8698SOL    HW226994   5.657   6.105   5.061
 8699SOL     OW26995   2.557   2.519   5.704
 8699SOL    HW126996   2.506   2.439   5.738
 8699SOL    HW226997   2.553   2.591   5.773
 8700SOL     OW26998   0.793   0.890   4.997
 8700SOL    HW126999   0.854   0.888   5.077
 8700SOL    HW227000   0.722   0.820   5.008
 8701SOL     OW27001   0.341   1.549   0.596
 8701SOL    HW127002   0.342   1.649   0.591
 8701SOL    HW227003   0.428   1.513   0.564
 8702SOL     OW27004   5.249   5.197   1.520
 8702SOL    HW127005   5.244   5.274   1.456
 8702SOL    HW227006   5.235   5.231   1.613
 8703SOL     OW27007   2.846   4.687   0.071
 8703SOL    HW127008   2.879   4.652   7.013
 8703SOL    HW227009   2.920   4.734   0.118
 8704SOL     OW27010   0.437   3.822   3.311
 8704SOL    HW127011   0.517   3.769   3.340
 8704SOL    HW227012   0.374   3.763   3.260
 8705SOL     OW27013   5.079   1.510   6.205
 8705SOL    HW127014   5.043   1.604   6.204
 8705SOL    HW227015   5.171   1.511   6.244
 8706SOL     OW27016   4.739   2.166   6.667
 8706SOL    HW127017   4.755   2.259   6.700
 8706SOL    HW227018   4.732   2.103   6.745
 8707SOL     OW27019   0.174   2.133   6.485
 8707SOL    HW127020   0.075   2.138   6.472
 8707SOL    HW227021   0.220   2.181   6.411
 8708SOL     OW27022   4.664   2.264   2.714
 8708SOL    HW127023   4.610   2.192   2.759
 8708SOL    HW227024   4.715   2.225   2.638
 8709SOL     OW27025   0.186   6.195   6.956
 8709SOL    HW127026   0.093   6.226   6.979
 8709SOL    HW227027   0.180   6.112   6.901
 8710SOL     OW27028   2.067   3.554   4.191
 8710SOL    HW127029   2.091   3.492   4.116
 8710SOL    HW227030   2.132   3.542   4.266
 8711SOL     OW27031   1.010   6.795   2.963
 8711SOL    HW127032   1.092   6.770   3.015
 8711SOL    HW227033   0.966   6.874   3.006
 8712SOL     OW27034   4.050   2.225   4.889
 8712SOL    HW127035   3.960   2.244   4.930
 8712SOL    HW227036   4.117   2.289   4.927
 8713SOL     OW27037   6.962   2.786   4.464
 8713SOL    HW127038   6.971   2.766   4.562
 8713SOL    HW227039   6.984   2.882   4.448
 8714SOL     OW27040   1.063   1.073   6.568
 8714SOL    HW127041   1.041   1.038   6.477
 8714SOL    HW227042   0.982   1.065   6.626
 8715SOL     OW27043   4.880   0.405   1.062
 8715SOL    HW127044   4.979   0.416   1.050
 8715SOL    HW227045   4.855   0.431   1.156
 8716SOL     OW27046   6.672   6.759   1.545
 8716SOL    HW127047   6.625   6.833   1.497
 8716SOL    HW227048   6.762   6.791   1.576
 8717SOL     OW27049   3.831   3.522   4.101
 8717SOL    HW127050   3.924   3.527   4.137
 8717SOL    HW227051   3.795   3.615   4.090
 8718SOL     OW27052   0.952   3.675   5.375
 8718SOL    HW127053   1.000   3.762   5.364
 8718SOL    HW227054   0.870   3.674   5.318
 8719SOL     OW27055   3.354   0.266   6.325
 8719SOL    HW127056   3.422   0.335   6.352
 8719SOL    HW227057   3.320   0.219   6.407
 8720SOL     OW27058   6.437   4.777   5.984
 8720SOL    HW127059   6.399   4.858   6.028
 8720SOL    HW227060   6.432   4.699   6.047
 8721SOL     OW27061   6.948   3.226   2.426
 8721SOL    HW127062   6.877   3.176   2.376
 8721SOL    HW227063   6.907   3.301   2.477
 8722SOL     OW27064   3.909   1.553   0.227
 8722SOL    HW127065   3.974   1.537   0.153
 8722SOL    HW227066   3.926   1.643   0.267
 8723SOL     OW27067   5.057   5.766   0.843
 8723SOL    HW127068   5.017   5.828   0.912
 8723SOL    HW227069   5.154   5.753   0.862
 8724SOL     OW27070   4.740   0.121   5.415
 8724SOL    HW127071   4.720   0.033   5.458
 8724SOL    HW227072   4.826   0.157   5.452
 8725SOL     OW27073   1.505   6.416   5.896
 8725SOL    HW127074   1.561   6.334   5.907
 8725SOL    HW227075   1.410   6.394   5.916
 8726SOL     OW27076   0.050   0.911   2.452
 8726SOL    HW127077   7.010   0.865   2.397
 8726SOL    HW227078   0.123   0.943   2.391
 8727SOL     OW27079   6.749   6.122   2.536
 8727SOL    HW127080   6.734   6.157   2.444
 8727SOL    HW227081   6.671   6.068   2.565
 8728SOL     OW27082   5.267   0.433   3.017
 8728SOL    HW127083   5.332   0.362   3.044
 8728SOL    HW227084   5.233   0.480   3.099
 8729SOL     OW27085   4.707   5.993   4.660
 8729SOL    HW127086   4.687   5.945   4.746
 8729SOL    HW227087   4.641   5.965   4.590
 8730SOL     OW27088   6.599   3.763   2.204
 8730SOL    HW127089   6.645   3.695   2.261
 8730SOL    HW227090   6.634   3.854   2.225
 8731SOL     OW27091   2.197   2.480   2.777
 8731SOL    HW127092   2.209   2.387   2.743
 8731SOL    HW227093   2.283   2.529   2.770
 8732SOL     OW27094   5.905   5.063   1.629
 8732SOL    HW127095   5.903   4.973   1.585
 8732SOL    HW227096   5.872   5.055   1.722
 8733SOL     OW27097   1.366   5.430   0.805
 8733SOL    HW127098   1.447   5.446   0.860
 8733SOL    HW227099   1.285   5.456   0.858
 8734SOL     OW27100   1.935   4.075   1.931
 8734SOL    HW127101   1.941   3.987   1.978
 8734SOL    HW227102   1.840   4.106   1.930
 8735SOL     OW27103   1.076   2.731   0.596
 8735SOL    HW127104   0.995   2.769   0.642
 8735SOL    HW227105   1.066   2.632   0.588
 8736SOL     OW27106   0.548   5.724   6.740
 8736SOL    HW127107   0.541   5.633   6.781
 8736SOL    HW227108   0.500   5.725   6.652
 8737SOL     OW27109   1.849   6.958   6.243
 8737SOL    HW127110   1.868   6.968   6.146
 8737SOL    HW227111   1.931   6.982   6.295
 8738SOL     OW27112   1.878   5.476   4.431
 8738SOL    HW127113   1.966   5.466   4.478
 8738SOL    HW227114   1.844   5.386   4.404
 8739SOL     OW27115   5.008   5.705   6.566
 8739SOL    HW127116   5.053   5.775   6.510
 8739SOL    HW227117   4.913   5.695   6.538
 8740SOL     OW27118   4.948   0.704   4.388
 8740SOL    HW127119   4.927   0.782   4.446
 8740SOL    HW227120   5.020   0.728   4.323
 8741SOL     OW27121   2.556   1.399   2.098
 8741SOL    HW127122   2.602   1.359   2.177
 8741SOL    HW227123   2.534   1.495   2.116
 8742SOL     OW27124   5.816   6.263   0.918
 8742SOL    HW127125   5.834   6.346   0.866
 8742SOL    HW227126   5.853   6.272   1.010
 8743SOL     OW27127   1.080   6.941   2.404
 8743SOL    HW127128   1.080   6.897   2.494
 8743SOL    HW227129   1.112   0.005   2.413
 8744SOL     OW27130   3.174   2.559   6.409
 8744SOL    HW127131   3.259   2.520   6.376
 8744SOL    HW227132   3.156   2.646   6.363
 8745SOL     OW27133   5.710   2.734   6.276
 8745SOL    HW127134   5.772   2.661   6.248
 8745SOL    HW227135   5.629   2.695   6.320
 8746SOL     OW27136   4.990   4.467   4.378
 8746SOL    HW127137   5.002   4.405   4.300
 8746SOL    HW227138   5.028   4.557   4.355
 8747SOL     OW27139   0.948   2.808   2.928
 8747SOL    HW127140   0.935   2.906   2.912
 8747SOL    HW227141   0.866   2.758   2.900
 8748SOL     OW27142   0.073   1.763   5.163
 8748SOL    HW127143   0.112   1.754   5.254
 8748SOL    HW227144   7.028   1.829   5.166
 8749SOL     OW27145   2.636   0.778   5.811
 8749SOL    HW127146   2.640   0.678   5.815
 8749SOL    HW227147   2.556   0.806   5.758
 8750SOL     OW27148   3.296   3.669   5.793
 8750SOL    HW127149   3.308   3.687   5.891
 8750SOL    HW227150   3.255   3.749   5.749
 8751SOL     OW27151   5.839   1.267   1.770
 8751SOL    HW127152   5.864   1.221   1.685
 8751SOL    HW227153   5.805   1.199   1.835
 8752SOL     OW27154   2.698   3.563   0.432
 8752SOL    HW127155   2.761   3.623   0.381
 8752SOL    HW227156   2.687   3.598   0.525
 8753SOL     OW27157   4.229   1.815   5.770
 8753SOL    HW127158   4.233   1.911   5.741
 8753SOL    HW227159   4.134   1.790   5.790
 8754SOL     OW27160   1.618   3.398   5.544
 8754SOL    HW127161   1.539   3.421   5.487
 8754SOL    HW227162   1.655   3.482   5.584
 8755SOL     OW27163   2.209   0.136   0.913
 8755SOL    HW127164   2.294   0.091   0.941
 8755SOL    HW227165   2.216   0.234   0.930
 8756SOL     OW27166   1.474   2.954   3.317
 8756SOL    HW127167   1.420   3.019   3.370
 8756SOL    HW227168   1.526   2.896   3.379
 8757SOL     OW27169   3.984   5.700   6.041
 8757SOL    HW127170   4.042   5.619   6.043
 8757SOL    HW227171   3.980   5.735   5.947
 8758SOL     OW27172   4.629   6.244   2.898
 8758SOL    HW127173   4.694   6.182   2.854
 8758SOL    HW227174   4.678   6.310   2.955
 8759SOL     OW27175   4.294   2.578   0.109
 8759SOL    HW127176   4.283   2.665   0.158
 8759SOL    HW227177   4.299   2.503   0.175
 8760SOL     OW27178   1.776   1.250   5.276
 8760SOL    HW127179   1.806   1.335   5.319
 8760SOL    HW227180   1.740   1.269   5.185
 8761SOL     OW27181   5.835   2.266   1.683
 8761SOL    HW127182   5.809   2.169   1.679
 8761SOL    HW227183   5.881   2.292   1.599
 8762SOL     OW27184   1.372   3.931   3.219
 8762SOL    HW127185   1.466   3.914   3.187
 8762SOL    HW227186   1.368   3.918   3.318
 8763SOL     OW27187   6.682   6.951   5.673
 8763SOL    HW127188   6.641   0.012   5.661
 8763SOL    HW227189   6.687   6.929   5.770
 8764SOL     OW27190   5.124   0.819   4.694
 8764SOL    HW127191   5.166   0.739   4.737
 8764SOL    HW227192   5.044   0.847   4.747
 8765SOL     OW27193   5.524   6.824   4.017
 8765SOL    HW127194   5.427   6.805   4.001
 8765SOL    HW227195   5.533   6.903   4.078
 8766SOL     OW27196   4.664   4.369   3.438
 8766SOL    HW127197   4.702   4.449   3.392
 8766SOL    HW227198   4.648   4.391   3.535
 8767SOL     OW27199   4.951   6.468   2.722
 8767SOL    HW127200   5.019   6.399   2.748
 8767SOL    HW227201   4.988   6.524   2.648
 8768SOL     OW27202   1.348   2.745   0.397
 8768SOL    HW127203   1.289   2.679   0.444
 8768SOL    HW227204   1.301   2.833   0.392
 8769SOL     OW27205   0.397   0.682   4.209
 8769SOL    HW127206   0.434   0.704   4.119
 8769SOL    HW227207   0.412   0.759   4.271
 8770SOL     OW27208   4.986   4.459   2.611
 8770SOL    HW127209   5.081   4.476   2.585
 8770SOL    HW227210   4.930   4.451   2.529
 8771SOL     OW27211   0.556   0.961   6.765
 8771SOL    HW127212   0.640   0.981   6.714
 8771SOL    HW227213   0.522   1.045   6.806
 8772SOL     OW27214   5.015   0.235   6.502
 8772SOL    HW127215   4.925   0.203   6.532
 8772SOL    HW227216   5.050   0.175   6.430
 8773SOL     OW27217   4.626   2.667   3.523
 8773SOL    HW127218   4.689   2.674   3.601
 8773SOL    HW227219   4.532   2.662   3.557
 8774SOL     OW27220   1.254   1.037   6.841
 8774SOL    HW127221   1.172   1.028   6.898
 8774SOL    HW227222   1.267   0.954   6.788
 8775SOL     OW27223   5.941   0.082   5.172
 8775SOL    HW127224   5.912   0.177   5.161
 8775SOL    HW227225   5.965   0.045   5.083
 8776SOL     OW27226   3.785   3.053   6.475
 8776SOL    HW127227   3.815   3.029   6.383
 8776SOL    HW227228   3.857   3.033   6.540
 8777SOL     OW27229   6.881   3.888   1.601
 8777SOL    HW127230   6.907   3.851   1.512
 8777SOL    HW227231   6.959   3.884   1.663
 8778SOL     OW27232   6.489   2.881   4.751
 8778SOL    HW127233   6.426   2.951   4.719
 8778SOL    HW227234   6.567   2.875   4.689
 8779SOL     OW27235   3.108   5.359   2.187
 8779SOL    HW127236   3.186   5.377   2.246
 8779SOL    HW227237   3.138   5.346   2.093
 8780SOL     OW27238   1.029   5.973   2.340
 8780SOL    HW127239   1.010   5.910   2.415
 8780SOL    HW227240   1.016   5.926   2.253
 8781SOL     OW27241   5.271   1.363   3.170
 8781SOL    HW127242   5.345   1.325   3.115
 8781SOL    HW227243   5.306   1.388   3.260
 8782SOL     OW27244   5.551   6.423   1.501
 8782SOL    HW127245   5.616   6.494   1.476
 8782SOL    HW227246   5.567   6.341   1.446
 8783SOL     OW27247   6.525   4.063   3.063
 8783SOL    HW127248   6.597   4.087   2.998
 8783SOL    HW227249   6.494   4.146   3.110
 8784SOL     OW27250   6.016   4.171   6.564
 8784SOL    HW127251   5.951   4.218   6.625
 8784SOL    HW227252   6.053   4.237   6.498
 8785SOL     OW27253   5.938   3.040   6.949
 8785SOL    HW127254   5.990   2.962   6.985
 8785SOL    HW227255   5.999   3.118   6.940
 8786SOL     OW27256   1.836   0.555   0.091
 8786SOL    HW127257   1.787   0.598   0.015
 8786SOL    HW227258   1.803   0.463   0.105
 8787SOL     OW27259   3.094   2.357   1.410
 8787SOL    HW127260   3.049   2.274   1.443
 8787SOL    HW227261   3.191   2.338   1.394
 8788SOL     OW27262   6.825   1.846   6.098
 8788SOL    HW127263   6.774   1.764   6.124
 8788SOL    HW227264   6.888   1.872   6.171
 8789SOL     OW27265   5.980   6.857   5.367
 8789SOL    HW127266   6.029   6.820   5.288
 8789SOL    HW227267   5.933   6.941   5.341
 8790SOL     OW27268   0.436   0.209   0.059
 8790SOL    HW127269   0.418   0.292   0.007
 8790SOL    HW227270   0.392   0.131   0.014
 8791SOL     OW27271   5.463   0.441   4.683
 8791SOL    HW127272   5.558   0.412   4.696
 8791SOL    HW227273   5.441   0.513   4.750
 8792SOL     OW27274   2.725   6.678   3.348
 8792SOL    HW127275   2.789   6.611   3.311
 8792SOL    HW227276   2.775   6.759   3.378
 8793SOL     OW27277   1.799   4.425   3.071
 8793SOL    HW127278   1.812   4.326   3.063
 8793SOL    HW227279   1.782   4.463   2.980
 8794SOL     OW27280   4.545   6.448   2.099
 8794SOL    HW127281   4.621   6.406   2.149
 8794SOL    HW227282   4.459   6.409   2.131
 8795SOL     OW27283   1.107   5.540   5.521
 8795SOL    HW127284   1.198   5.545   5.481
 8795SOL    HW227285   1.077   5.444   5.525
 8796SOL     OW27286   3.762   2.091   4.598
 8796SOL    HW127287   3.718   2.159   4.657
 8796SOL    HW227288   3.692   2.044   4.543
 8797SOL     OW27289   6.892   6.895   6.783
 8797SOL    HW127290   6.878   6.796   6.774
 8797SOL    HW227291   6.810   6.937   6.822
 8798SOL     OW27292   5.124   5.985   5.795
 8798SOL    HW127293   5.161   6.059   5.737
 8798SOL    HW227294   5.160   5.995   5.888
 8799SOL     OW27295   2.292   5.190   3.900
 8799SOL    HW127296   2.366   5.190   3.833
 8799SOL    HW227297   2.208   5.160   3.856
 8800SOL     OW27298   5.986   3.677   5.373
 8800SOL    HW127299   5.952   3.771   5.381
 8800SOL    HW227300   6.020   3.646   5.462
 8801SOL     OW27301   0.348   2.224   4.835
 8801SOL    HW127302   0.371   2.136   4.792
 8801SOL    HW227303   0.425   2.253   4.893
 8802SOL     OW27304   1.738   6.715   0.307
 8802SOL    HW127305   1.793   6.747   0.230
 8802SOL    HW227306   1.744   6.615   0.313
 8803SOL     OW27307   6.511   5.766   6.757
 8803SOL    HW127308   6.576   5.745   6.830
 8803SOL    HW227309   6.417   5.755   6.791
 8804SOL     OW27310   3.032   0.338   2.385
 8804SOL    HW127311   3.021   0.400   2.307
 8804SOL    HW227312   3.105   0.272   2.364
 8805SOL     OW27313   2.913   0.026   4.325
 8805SOL    HW127314   2.835   0.037   4.263
 8805SOL    HW227315   2.997   0.013   4.271
 8806SOL     OW27316   2.749   5.637   2.481
 8806SOL    HW127317   2.836   5.666   2.440
 8806SOL    HW227318   2.761   5.546   2.522
 8807SOL     OW27319   5.561   0.113   6.928
 8807SOL    HW127320   5.649   0.067   6.944
 8807SOL    HW227321   5.571   0.210   6.947
 8808SOL     OW27322   6.184   2.921   6.959
 8808SOL    HW127323   6.231   2.982   6.897
 8808SOL    HW227324   6.235   2.836   6.968
 8809SOL     OW27325   4.931   5.551   3.558
 8809SOL    HW127326   4.847   5.499   3.572
 8809SOL    HW227327   4.943   5.570   3.461
 8810SOL     OW27328   5.218   0.682   6.048
 8810SOL    HW127329   5.287   0.610   6.064
 8810SOL    HW227330   5.250   0.742   5.975
 8811SOL     OW27331   3.032   0.999   3.260
 8811SOL    HW127332   2.936   1.026   3.246
 8811SOL    HW227333   3.080   1.071   3.310
 8812SOL     OW27334   2.169   6.763   0.797
 8812SOL    HW127335   2.128   6.686   0.748
 8812SOL    HW227336   2.137   6.849   0.756
 8813SOL     OW27337   2.274   4.875   1.597
 8813SOL    HW127338   2.365   4.852   1.561
 8813SOL    HW227339   2.273   4.970   1.628
 8814SOL     OW27340   5.668   0.333   1.461
 8814SOL    HW127341   5.740   0.365   1.400
 8814SOL    HW227342   5.618   0.411   1.498
 8815SOL     OW27343   5.775   0.157   0.696
 8815SOL    HW127344   5.833   0.225   0.742
 8815SOL    HW227345   5.679   0.174   0.720
 8816SOL     OW27346   1.413   0.000   6.764
 8816SOL    HW127347   1.379   7.027   6.858
 8816SOL    HW227348   1.437   6.938   6.734
 8817SOL     OW27349   0.711   4.986   4.682
 8817SOL    HW127350   0.806   5.019   4.682
 8817SOL    HW227351   0.693   4.938   4.767
 8818SOL     OW27352   0.218   4.448   4.948
 8818SOL    HW127353   0.259   4.380   5.008
 8818SOL    HW227354   0.212   4.535   4.996
 8819SOL     OW27355   5.375   5.268   5.162
 8819SOL    HW127356   5.413   5.360   5.156
 8819SOL    HW227357   5.385   5.222   5.074
 8820SOL     OW27358   2.100   1.258   5.351
 8820SOL    HW127359   2.073   1.311   5.271
 8820SOL    HW227360   2.024   1.201   5.381
 8821SOL     OW27361   2.346   6.248   0.430
 8821SOL    HW127362   2.379   6.173   0.372
 8821SOL    HW227363   2.419   6.276   0.493
 8822SOL     OW27364   0.156   0.255   4.759
 8822SOL    HW127365   0.061   0.245   4.730
 8822SOL    HW227366   0.162   0.324   4.832
 8823SOL     OW27367   2.572   0.816   1.404
 8823SOL    HW127368   2.616   0.905   1.388
 8823SOL    HW227369   2.512   0.794   1.327
 8824SOL     OW27370   1.113   2.373   0.644
 8824SOL    HW127371   1.165   2.304   0.694
 8824SOL    HW227372   1.062   2.429   0.708
 8825SOL     OW27373   2.519   0.557   1.894
 8825SOL    HW127374   2.490   0.644   1.854
 8825SOL    HW227375   2.516   0.564   1.994
 8826SOL     OW27376   6.788   3.400   0.870
 8826SOL    HW127377   6.831   3.484   0.904
 8826SOL    HW227378   6.797   3.328   0.938
 8827SOL     OW27379   4.186   1.836   2.300
 8827SOL    HW127380   4.089   1.836   2.323
 8827SOL    HW227381   4.235   1.899   2.361
 8828SOL     OW27382   4.845   5.970   5.928
 8828SOL    HW127383   4.943   5.971   5.911
 8828SOL    HW227384   4.818   6.053   5.977
 8829SOL     OW27385   5.384   2.470   0.870
 8829SOL    HW127386   5.441   2.393   0.843
 8829SOL    HW227387   5.415   2.553   0.825
 8830SOL     OW27388   1.159   1.555   2.420
 8830SOL    HW127389   1.171   1.479   2.356
 8830SOL    HW227390   1.062   1.581   2.423
 8831SOL     OW27391   4.306   2.209   4.265
 8831SOL    HW127392   4.216   2.189   4.303
 8831SOL    HW227393   4.370   2.137   4.290
 8832SOL     OW27394   0.056   5.567   3.284
 8832SOL    HW127395   0.087   5.490   3.340
 8832SOL    HW227396   0.044   5.647   3.342
 8833SOL     OW27397   2.454   5.062   5.137
 8833SOL    HW127398   2.527   4.998   5.117
 8833SOL    HW227399   2.489   5.136   5.195
 8834SOL     OW27400   5.375   3.966   4.857
 8834SOL    HW127401   5.346   3.871   4.843
 8834SOL    HW227402   5.463   3.967   4.906
 8835SOL     OW27403   4.961   0.764   6.049
 8835SOL    HW127404   5.047   0.713   6.059
 8835SOL    HW227405   4.973   0.856   6.086
 8836SOL     OW27406   5.706   3.076   0.035
 8836SOL    HW127407   5.630   3.045   7.007
 8836SOL    HW227408   5.791   3.073   7.013
 8837SOL     OW27409   6.839   6.053   2.820
 8837SOL    HW127410   6.874   6.039   2.727
 8837SOL    HW227411   6.740   6.043   2.819
 8838SOL     OW27412   2.098   5.597   3.252
 8838SOL    HW127413   2.010   5.627   3.215
 8838SOL    HW227414   2.108   5.499   3.239
 8839SOL     OW27415   5.807   5.463   3.475
 8839SOL    HW127416   5.871   5.494   3.404
 8839SOL    HW227417   5.835   5.374   3.509
 8840SOL     OW27418   6.819   2.304   2.471
 8840SOL    HW127419   6.765   2.289   2.388
 8840SOL    HW227420   6.769   2.365   2.533
 8841SOL     OW27421   0.888   1.239   5.445
 8841SOL    HW127422   0.988   1.246   5.444
 8841SOL    HW227423   0.851   1.306   5.510
 8842SOL     OW27424   3.626   2.888   2.456
 8842SOL    HW127425   3.679   2.909   2.539
 8842SOL    HW227426   3.661   2.943   2.380
 8843SOL     OW27427   1.783   3.164   5.637
 8843SOL    HW127428   1.876   3.201   5.638
 8843SOL    HW227429   1.724   3.225   5.584
 8844SOL     OW27430   6.637   2.180   6.475
 8844SOL    HW127431   6.637   2.136   6.385
 8844SOL    HW227432   6.600   2.272   6.466
 8845SOL     OW27433   4.061   3.281   0.436
 8845SOL    HW127434   4.058   3.377   0.409
 8845SOL    HW227435   4.142   3.264   0.493
 8846SOL     OW27436   3.321   5.371   3.946
 8846SOL    HW127437   3.312   5.464   3.982
 8846SOL    HW227438   3.354   5.375   3.852
 8847SOL     OW27439   2.531   0.803   3.277
 8847SOL    HW127440   2.506   0.752   3.194
 8847SOL    HW227441   2.630   0.807   3.286
 8848SOL     OW27442   2.404   1.548   1.698
 8848SOL    HW127443   2.470   1.502   1.640
 8848SOL    HW227444   2.340   1.601   1.641
 8849SOL     OW27445   3.071   6.168   3.260
 8849SOL    HW127446   2.994   6.142   3.202
 8849SOL    HW227447   3.037   6.209   3.345
 8850SOL     OW27448   1.126   2.211   0.337
 8850SOL    HW127449   1.206   2.264   0.363
 8850SOL    HW227450   1.145   2.114   0.350
 8851SOL     OW27451   1.201   4.378   3.423
 8851SOL    HW127452   1.175   4.423   3.337
 8851SOL    HW227453   1.300   4.390   3.437
 8852SOL     OW27454   6.756   2.782   5.171
 8852SOL    HW127455   6.793   2.689   5.169
 8852SOL    HW227456   6.800   2.837   5.100
 8853SOL     OW27457   3.192   1.047   1.384
 8853SOL    HW127458   3.163   0.996   1.464
 8853SOL    HW227459   3.113   1.094   1.343
 8854SOL     OW27460   3.366   2.616   5.957
 8854SOL    HW127461   3.286   2.639   6.012
 8854SOL    HW227462   3.337   2.578   5.869
 8855SOL     OW27463   6.827   5.084   1.452
 8855SOL    HW127464   6.827   5.014   1.381
 8855SOL    HW227465   6.886   5.055   1.527
 8856SOL     OW27466   0.159   6.493   6.267
 8856SOL    HW127467   0.223   6.566   6.244
 8856SOL    HW227468   0.169   6.418   6.202
 8857SOL     OW27469   0.039   1.525   4.505
 8857SOL    HW127470   7.007   1.448   4.488
 8857SOL    HW227471   0.002   1.607   4.461
 8858SOL     OW27472   0.700   3.648   5.218
 8858SOL    HW127473   0.640   3.575   5.185
 8858SOL    HW227474   0.646   3.715   5.270
 8859SOL     OW27475   0.915   0.761   3.429
 8859SOL    HW127476   1.009   0.748   3.397
 8859SOL    HW227477   0.857   0.688   3.393
 8860SOL     OW27478   6.864   2.850   2.317
 8860SOL    HW127479   6.829   2.930   2.268
 8860SOL    HW227480   6.796   2.777   2.316
 8861SOL     OW27481   4.576   1.621   6.319
 8861SOL    HW127482   4.587   1.543   6.381
 8861SOL    HW227483   4.647   1.689   6.338
 8862SOL     OW27484   4.937   0.347   3.447
 8862SOL    HW127485   4.876   0.311   3.518
 8862SOL    HW227486   4.956   0.443   3.466
 8863SOL     OW27487   2.362   4.936   3.792
 8863SOL    HW127488   2.271   4.962   3.760
 8863SOL    HW227489   2.419   4.912   3.713
 8864SOL     OW27490   2.816   5.137   6.595
 8864SOL    HW127491   2.823   5.121   6.496
 8864SOL    HW227492   2.907   5.155   6.632
 8865SOL     OW27493   3.033   0.534   4.810
 8865SOL    HW127494   2.934   0.529   4.791
 8865SOL    HW227495   3.083   0.491   4.735
 8866SOL     OW27496   4.863   0.223   2.634
 8866SOL    HW127497   4.859   0.316   2.672
 8866SOL    HW227498   4.959   0.194   2.630
 8867SOL     OW27499   5.924   4.747   3.172
 8867SOL    HW127500   5.979   4.808   3.114
 8867SOL    HW227501   5.862   4.694   3.115
 8868SOL     OW27502   0.173   3.121   1.476
 8868SOL    HW127503   0.238   3.181   1.523
 8868SOL    HW227504   0.223   3.048   1.428
 8869SOL     OW27505   3.987   5.908   5.102
 8869SOL    HW127506   3.954   5.893   5.196
 8869SOL    HW227507   4.012   5.820   5.062
 8870SOL     OW27508   2.785   0.029   0.868
 8870SOL    HW127509   2.686   0.010   0.866
 8870SOL    HW227510   2.817   0.044   0.774
 8871SOL     OW27511   1.940   0.999   4.195
 8871SOL    HW127512   1.889   1.035   4.117
 8871SOL    HW227513   2.036   1.025   4.186
 8872SOL     OW27514   1.657   4.694   5.229
 8872SOL    HW127515   1.746   4.679   5.273
 8872SOL    HW227516   1.658   4.655   5.137
 8873SOL     OW27517   0.510   6.276   2.274
 8873SOL    HW127518   0.483   6.343   2.205
 8873SOL    HW227519   0.480   6.308   2.364
 8874SOL     OW27520   2.260   6.124   2.787
 8874SOL    HW127521   2.246   6.213   2.831
 8874SOL    HW227522   2.202   6.117   2.706
 8875SOL     OW27523   0.246   3.995   4.682
 8875SOL    HW127524   0.330   4.027   4.638
 8875SOL    HW227525   0.266   3.914   4.737
 8876SOL     OW27526   2.113   6.446   5.697
 8876SOL    HW127527   2.039   6.427   5.761
 8876SOL    HW227528   2.165   6.362   5.681
 8877SOL     OW27529   2.766   1.597   3.926
 8877SOL    HW127530   2.762   1.553   4.016
 8877SOL    HW227531   2.859   1.590   3.890
 8878SOL     OW27532   5.878   4.842   1.149
 8878SOL    HW127533   5.824   4.886   1.221
 8878SOL    HW227534   5.888   4.904   1.071
 8879SOL     OW27535   4.800   4.550   2.385
 8879SOL    HW127536   4.780   4.648   2.386
 8879SOL    HW227537   4.725   4.501   2.430
 8880SOL     OW27538   4.283   6.069   4.591
 8880SOL    HW127539   4.317   6.058   4.684
 8880SOL    HW227540   4.223   5.993   4.567
 8881SOL     OW27541   5.081   6.563   3.666
 8881SOL    HW127542   5.050   6.491   3.605
 8881SOL    HW227543   5.018   6.572   3.743
 8882SOL     OW27544   5.306   0.881   1.569
 8882SOL    HW127545   5.294   0.980   1.567
 8882SOL    HW227546   5.347   0.850   1.483
 8883SOL     OW27547   1.581   6.200   6.158
 8883SOL    HW127548   1.545   6.278   6.210
 8883SOL    HW227549   1.621   6.134   6.221
 8884SOL     OW27550   5.897   3.950   5.051
 8884SOL    HW127551   5.822   3.884   5.045
 8884SOL    HW227552   5.937   3.947   5.143
 8885SOL     OW27553   5.610   4.259   1.523
 8885SOL    HW127554   5.604   4.210   1.436
 8885SOL    HW227555   5.704   4.253   1.558
 8886SOL     OW27556   2.995   5.883   4.938
 8886SOL    HW127557   3.070   5.820   4.918
 8886SOL    HW227558   2.989   5.951   4.866
 8887SOL     OW27559   3.958   0.692   0.737
 8887SOL    HW127560   3.877   0.683   0.795
 8887SOL    HW227561   4.036   0.649   0.782
 8888SOL     OW27562   1.976   1.515   5.621
 8888SOL    HW127563   2.036   1.506   5.700
 8888SOL    HW227564   1.969   1.612   5.595
 8889SOL     OW27565   6.680   0.063   0.367
 8889SOL    HW127566   6.626   0.144   0.347
 8889SOL    HW227567   6.631   0.005   0.432
 8890SOL     OW27568   0.244   6.201   5.208
 8890SOL    HW127569   0.160   6.238   5.170
 8890SOL    HW227570   0.225   6.116   5.257
 8891SOL     OW27571   4.017   3.365   6.917
 8891SOL    HW127572   4.008   3.265   6.919
 8891SOL    HW227573   4.089   3.390   6.852
 8892SOL     OW27574   3.670   5.416   2.299
 8892SOL    HW127575   3.661   5.317   2.295
 8892SOL    HW227576   3.679   5.452   2.206
 8893SOL     OW27577   0.788   5.503   4.046
 8893SOL    HW127578   0.696   5.537   4.027
 8893SOL    HW227579   0.827   5.553   4.124
 8894SOL     OW27580   2.802   2.034   6.829
 8894SOL    HW127581   2.815   2.099   6.754
 8894SOL    HW227582   2.890   1.994   6.854
 8895SOL     OW27583   6.807   3.075   2.181
 8895SOL    HW127584   6.892   3.112   2.141
 8895SOL    HW227585   6.729   3.110   2.129
 8896SOL     OW27586   2.361   2.967   5.413
 8896SOL    HW127587   2.389   2.971   5.317
 8896SOL    HW227588   2.348   2.872   5.440
 8897SOL     OW27589   2.328   2.844   3.693
 8897SOL    HW127590   2.395   2.814   3.624
 8897SOL    HW227591   2.347   2.798   3.780
 8898SOL     OW27592   4.869   3.763   2.331
 8898SOL    HW127593   4.968   3.771   2.318
 8898SOL    HW227594   4.821   3.819   2.263
 8899SOL     OW27595   1.014   4.816   1.311
 8899SOL    HW127596   0.983   4.881   1.242
 8899SOL    HW227597   1.047   4.733   1.267
 8900SOL     OW27598   5.671   3.014   2.846
 8900SOL    HW127599   5.673   2.973   2.938
 8900SOL    HW227600   5.762   3.048   2.822
 8901SOL     OW27601   1.392   1.063   4.620
 8901SOL    HW127602   1.411   1.137   4.685
 8901SOL    HW227603   1.297   1.069   4.590
 8902SOL     OW27604   0.895   5.955   0.814
 8902SOL    HW127605   0.985   5.929   0.781
 8902SOL    HW227606   0.839   5.873   0.829
 8903SOL     OW27607   0.355   1.866   4.256
 8903SOL    HW127608   0.350   1.817   4.343
 8903SOL    HW227609   0.396   1.806   4.187
 8904SOL     OW27610   6.673   1.006   4.960
 8904SOL    HW127611   6.678   0.908   4.982
 8904SOL    HW227612   6.583   1.041   4.983
 8905SOL     OW27613   2.045   3.552   3.368
 8905SOL    HW127614   2.092   3.479   3.418
 8905SOL    HW227615   2.031   3.524   3.273
 8906SOL     OW27616   1.104   6.255   6.954
 8906SOL    HW127617   1.200   6.232   6.967
 8906SOL    HW227618   1.060   6.266   0.013
 8907SOL     OW27619   2.842   2.794   5.541
 8907SOL    HW127620   2.809   2.889   5.542
 8907SOL    HW227621   2.766   2.733   5.517
 8908SOL     OW27622   1.401   5.580   0.140
 8908SOL    HW127623   1.415   5.636   0.058
 8908SOL    HW227624   1.434   5.488   0.123
 8909SOL     OW27625   2.372   1.239   5.459
 8909SOL    HW127626   2.282   1.281   5.443
 8909SOL    HW227627   2.375   1.201   5.551
 8910SOL     OW27628   0.403   2.907   6.027
 8910SOL    HW127629   0.487   2.881   5.980
 8910SOL    HW227630   0.421   2.918   6.125
 8911SOL     OW27631   4.673   2.572   4.362
 8911SOL    HW127632   4.585   2.531   4.339
 8911SOL    HW227633   4.699   2.638   4.291
 8912SOL     OW27634   3.571   3.267   6.983
 8912SOL    HW127635   3.561   3.248   6.885
 8912SOL    HW227636   3.497   3.327   7.013
 8913SOL     OW27637   4.335   5.632   5.794
 8913SOL    HW127638   4.289   5.604   5.710
 8913SOL    HW227639   4.423   5.674   5.772
 8914SOL     OW27640   4.126   6.843   4.716
 8914SOL    HW127641   4.176   6.852   4.802
 8914SOL    HW227642   4.091   6.750   4.707
 8915SOL     OW27643   1.098   2.310   3.644
 8915SOL    HW127644   1.013   2.259   3.662
 8915SOL    HW227645   1.100   2.337   3.548
 8916SOL     OW27646   0.055   3.093   1.089
 8916SOL    HW127647   0.148   3.061   1.070
 8916SOL    HW227648   0.057   3.154   1.168
 8917SOL     OW27649   6.624   2.790   0.862
 8917SOL    HW127650   6.613   2.812   0.765
 8917SOL    HW227651   6.684   2.710   0.871
 8918SOL     OW27652   6.697   4.251   1.371
 8918SOL    HW127653   6.705   4.266   1.469
 8918SOL    HW227654   6.657   4.161   1.354
 8919SOL     OW27655   4.533   4.264   0.105
 8919SOL    HW127656   4.523   4.345   0.162
 8919SOL    HW227657   4.500   4.184   0.154
 8920SOL     OW27658   0.253   1.439   6.715
 8920SOL    HW127659   0.312   1.437   6.796
 8920SOL    HW227660   0.158   1.422   6.742
 8921SOL     OW27661   1.907   2.783   1.744
 8921SOL    HW127662   1.926   2.868   1.794
 8921SOL    HW227663   1.830   2.736   1.785
 8922SOL     OW27664   4.307   4.976   1.756
 8922SOL    HW127665   4.291   4.937   1.666
 8922SOL    HW227666   4.398   5.017   1.759
 8923SOL     OW27667   1.836   1.487   6.537
 8923SOL    HW127668   1.822   1.418   6.608
 8923SOL    HW227669   1.840   1.578   6.580
 8924SOL     OW27670   4.797   6.021   5.139
 8924SOL    HW127671   4.842   5.989   5.222
 8924SOL    HW227672   4.803   6.120   5.133
 8925SOL     OW27673   1.173   0.924   3.037
 8925SOL    HW127674   1.160   0.958   3.130
 8925SOL    HW227675   1.099   0.859   3.015
 8926SOL     OW27676   6.817   2.919   5.819
 8926SOL    HW127677   6.884   2.847   5.799
 8926SOL    HW227678   6.838   2.961   5.907
 8927SOL     OW27679   0.146   0.708   4.824
 8927SOL    HW127680   0.057   0.750   4.835
 8927SOL    HW227681   0.205   0.766   4.768
 8928SOL     OW27682   1.291   0.010   6.119
 8928SOL    HW127683   1.301   6.968   6.050
 8928SOL    HW227684   1.381   0.040   6.150
 8929SOL     OW27685   5.547   1.437   5.131
 8929SOL    HW127686   5.516   1.413   5.223
 8929SOL    HW227687   5.634   1.486   5.137
 8930SOL     OW27688   1.626   2.914   4.864
 8930SOL    HW127689   1.629   2.878   4.770
 8930SOL    HW227690   1.687   2.993   4.871
 8931SOL     OW27691   3.052   3.502   0.770
 8931SOL    HW127692   2.963   3.547   0.766
 8931SOL    HW227693   3.081   3.495   0.865
 8932SOL     OW27694   6.438   2.173   1.600
 8932SOL    HW127695   6.456   2.269   1.621
 8932SOL    HW227696   6.523   2.130   1.569
 8933SOL     OW27697   2.627   2.873   6.386
 8933SOL    HW127698   2.644   2.922   6.472
 8933SOL    HW227699   2.714   2.853   6.341
 8934SOL     OW27700   2.349   5.356   4.688
 8934SOL    HW127701   2.344   5.323   4.782
 8934SOL    HW227702   2.438   5.333   4.649
 8935SOL     OW27703   0.650   4.623   0.428
 8935SOL    HW127704   0.609   4.688   0.492
 8935SOL    HW227705   0.627   4.530   0.456
 8936SOL     OW27706   1.314   3.882   2.522
 8936SOL    HW127707   1.235   3.878   2.584
 8936SOL    HW227708   1.396   3.854   2.571
 8937SOL     OW27709   0.388   0.436   5.869
 8937SOL    HW127710   0.414   0.532   5.881
 8937SOL    HW227711   0.374   0.417   5.772
 8938SOL     OW27712   0.703   6.351   0.456
 8938SOL    HW127713   0.644   6.285   0.502
 8938SOL    HW227714   0.690   6.344   0.357
 8939SOL     OW27715   5.074   4.116   4.327
 8939SOL    HW127716   5.146   4.098   4.394
 8939SOL    HW227717   4.989   4.140   4.375
 8940SOL     OW27718   0.384   1.090   1.841
 8940SOL    HW127719   0.300   1.144   1.839
 8940SOL    HW227720   0.372   1.007   1.787
 8941SOL     OW27721   6.249   2.733   5.236
 8941SOL    HW127722   6.174   2.751   5.172
 8941SOL    HW227723   6.234   2.645   5.281
 8942SOL     OW27724   6.307   5.026   5.547
 8942SOL    HW127725   6.363   5.085   5.488
 8942SOL    HW227726   6.343   5.029   5.640
 8943SOL     OW27727   3.668   5.479   6.076
 8943SOL    HW127728   3.633   5.561   6.032
 8943SOL    HW227729   3.593   5.415   6.092
 8944SOL     OW27730   5.841   5.021   5.744
 8944SOL    HW127731   5.925   4.981   5.710
 8944SOL    HW227732   5.819   4.981   5.834
 8945SOL     OW27733   1.282   0.650   3.169
 8945SOL    HW127734   1.240   0.634   3.079
 8945SOL    HW227735   1.337   0.571   3.195
 8946SOL     OW27736   3.356   1.701   5.212
 8946SOL    HW127737   3.314   1.736   5.129
 8946SOL    HW227738   3.381   1.778   5.272
 8947SOL     OW27739   2.083   3.123   6.658
 8947SOL    HW127740   2.009   3.139   6.593
 8947SOL    HW227741   2.075   3.188   6.733
 8948SOL     OW27742   5.925   6.148   4.948
 8948SOL    HW127743   5.852   6.122   4.884
 8948SOL    HW227744   6.013   6.142   4.902
 8949SOL     OW27745   2.800   6.770   0.782
 8949SOL    HW127746   2.873   6.795   0.719
 8949SOL    HW227747   2.711   6.792   0.741
 8950SOL     OW27748   4.951   4.201   6.345
 8950SOL    HW127749   4.959   4.296   6.315
 8950SOL    HW227750   4.863   4.164   6.314
 8951SOL     OW27751   1.152   1.596   5.321
 8951SOL    HW127752   1.060   1.565   5.299
 8951SOL    HW227753   1.216   1.519   5.316
 8952SOL     OW27754   1.194   6.516   2.966
 8952SOL    HW127755   1.227   6.589   3.025
 8952SOL    HW227756   1.247   6.433   2.982
 8953SOL     OW27757   1.838   4.247   6.665
 8953SOL    HW127758   1.841   4.147   6.662
 8953SOL    HW227759   1.828   4.283   6.572
 8954SOL     OW27760   0.827   0.154   5.045
 8954SOL    HW127761   0.731   0.128   5.049
 8954SOL    HW227762   0.852   0.175   4.950
 8955SOL     OW27763   6.951   5.004   2.288
 8955SOL    HW127764   6.935   5.095   2.249
 8955SOL    HW227765   6.896   4.936   2.240
 8956SOL     OW27766   1.484   1.168   6.784
 8956SOL    HW127767   1.400   1.115   6.798
 8956SOL    HW227768   1.491   1.239   6.854
 8957SOL     OW27769   2.983   4.901   0.950
 8957SOL    HW127770   3.042   4.824   0.927
 8957SOL    HW227771   3.029   4.986   0.925
 8958SOL     OW27772   0.460   1.771   4.902
 8958SOL    HW127773   0.427   1.733   4.816
 8958SOL    HW227774   0.390   1.829   4.943
 8959SOL     OW27775   1.867   4.840   1.906
 8959SOL    HW127776   1.819   4.927   1.899
 8959SOL    HW227777   1.965   4.855   1.896
 8960SOL     OW27778   4.530   4.782   2.675
 8960SOL    HW127779   4.446   4.808   2.722
 8960SOL    HW227780   4.574   4.707   2.724
 8961SOL     OW27781   2.477   0.837   4.244
 8961SOL    HW127782   2.380   0.827   4.267
 8961SOL    HW227783   2.524   0.887   4.317
 8962SOL     OW27784   6.506   5.793   2.353
 8962SOL    HW127785   6.559   5.708   2.346
 8962SOL    HW227786   6.527   5.838   2.440
 8963SOL     OW27787   4.222   6.229   3.917
 8963SOL    HW127788   4.129   6.263   3.905
 8963SOL    HW227789   4.236   6.150   3.857
 8964SOL     OW27790   4.925   3.554   2.902
 8964SOL    HW127791   4.886   3.466   2.928
 8964SOL    HW227792   5.025   3.550   2.909
 8965SOL     OW27793   2.838   4.950   0.381
 8965SOL    HW127794   2.770   4.981   0.314
 8965SOL    HW227795   2.927   4.939   0.336
 8966SOL     OW27796   0.099   4.408   0.240
 8966SOL    HW127797   0.189   4.448   0.224
 8966SOL    HW227798   0.070   4.426   0.334
 8967SOL     OW27799   4.197   0.525   1.491
 8967SOL    HW127800   4.294   0.503   1.485
 8967SOL    HW227801   4.160   0.491   1.577
 8968SOL     OW27802   4.570   5.395   3.064
 8968SOL    HW127803   4.496   5.346   3.018
 8968SOL    HW227804   4.652   5.393   3.007
 8969SOL     OW27805   6.602   1.498   4.736
 8969SOL    HW127806   6.528   1.494   4.804
 8969SOL    HW227807   6.675   1.436   4.764
 8970SOL     OW27808   2.552   2.829   0.272
 8970SOL    HW127809   2.583   2.895   0.204
 8970SOL    HW227810   2.472   2.865   0.320
 8971SOL     OW27811   5.841   5.334   1.284
 8971SOL    HW127812   5.924   5.333   1.339
 8971SOL    HW227813   5.864   5.316   1.188
 8972SOL     OW27814   5.312   4.306   6.909
 8972SOL    HW127815   5.215   4.285   6.920
 8972SOL    HW227816   5.347   4.258   6.829
 8973SOL     OW27817   0.682   3.197   2.622
 8973SOL    HW127818   0.595   3.230   2.658
 8973SOL    HW227819   0.750   3.195   2.694
 8974SOL     OW27820   1.154   4.584   5.250
 8974SOL    HW127821   1.172   4.659   5.186
 8974SOL    HW227822   1.241   4.544   5.278
 8975SOL     OW27823   1.348   6.718   5.696
 8975SOL    HW127824   1.418   6.648   5.682
 8975SOL    HW227825   1.262   6.687   5.656
 8976SOL     OW27826   6.714   4.811   6.064
 8976SOL    HW127827   6.629   4.845   6.023
 8976SOL    HW227828   6.750   4.736   6.008
 8977SOL     OW27829   6.328   2.700   0.203
 8977SOL    HW127830   6.298   2.791   0.230
 8977SOL    HW227831   6.371   2.655   0.281
 8978SOL     OW27832   5.803   0.389   4.260
 8978SOL    HW127833   5.855   0.380   4.175
 8978SOL    HW227834   5.709   0.359   4.244
 8979SOL     OW27835   1.285   4.051   4.567
 8979SOL    HW127836   1.349   4.128   4.561
 8979SOL    HW227837   1.334   3.967   4.544
 8980SOL     OW27838   3.552   2.518   5.424
 8980SOL    HW127839   3.547   2.501   5.523
 8980SOL    HW227840   3.461   2.539   5.389
 8981SOL     OW27841   4.079   1.018   5.800
 8981SOL    HW127842   4.137   1.099   5.801
 8981SOL    HW227843   4.132   0.939   5.832
 8982SOL     OW27844   0.497   2.138   1.654
 8982SOL    HW127845   0.398   2.148   1.661
 8982SOL    HW227846   0.534   2.113   1.744
 8983SOL     OW27847   1.147   5.832   0.080
 8983SOL    HW127848   1.168   5.792   7.021
 8983SOL    HW227849   1.152   5.761   0.151
 8984SOL     OW27850   6.543   0.027   3.916
 8984SOL    HW127851   6.568   0.107   3.971
 8984SOL    HW227852   6.597   6.978   3.945
 8985SOL     OW27853   2.861   1.992   1.082
 8985SOL    HW127854   2.885   1.970   1.177
 8985SOL    HW227855   2.916   2.071   1.052
 8986SOL     OW27856   4.518   5.002   2.206
 8986SOL    HW127857   4.418   4.998   2.205
 8986SOL    HW227858   4.552   4.961   2.290
 8987SOL     OW27859   5.046   0.100   0.870
 8987SOL    HW127860   4.983   0.148   0.808
 8987SOL    HW227861   5.002   0.085   0.958
 8988SOL     OW27862   1.037   3.854   5.917
 8988SOL    HW127863   0.938   3.865   5.922
 8988SOL    HW227864   1.060   3.758   5.899
 8989SOL     OW27865   4.673   4.051   1.381
 8989SOL    HW127866   4.709   3.996   1.306
 8989SOL    HW227867   4.743   4.059   1.453
 8990SOL     OW27868   1.857   5.992   2.872
 8990SOL    HW127869   1.797   5.934   2.926
 8990SOL    HW227870   1.831   6.088   2.884
 8991SOL     OW27871   1.128   1.296   6.739
 8991SOL    HW127872   1.227   1.310   6.738
 8991SOL    HW227873   1.108   1.200   6.760
 8992SOL     OW27874   6.012   1.939   0.016
 8992SOL    HW127875   5.933   1.937   6.985
 8992SOL    HW227876   6.093   1.905   6.997
 8993SOL     OW27877   4.603   2.259   2.414
 8993SOL    HW127878   4.595   2.221   2.322
 8993SOL    HW227879   4.515   2.252   2.461
 8994SOL     OW27880   1.234   5.052   4.514
 8994SOL    HW127881   1.296   5.025   4.588
 8994SOL    HW227882   1.274   5.128   4.463
 8995SOL     OW27883   0.689   2.365   0.275
 8995SOL    HW127884   0.782   2.401   0.262
 8995SOL    HW227885   0.695   2.273   0.315
 8996SOL     OW27886   6.361   5.091   1.150
 8996SOL    HW127887   6.440   5.151   1.148
 8996SOL    HW227888   6.392   4.995   1.154
 8997SOL     OW27889   4.831   1.090   5.975
 8997SOL    HW127890   4.824   1.036   5.892
 8997SOL    HW227891   4.753   1.153   5.980
 8998SOL     OW27892   6.625   3.839   4.831
 8998SOL    HW127893   6.561   3.783   4.779
 8998SOL    HW227894   6.659   3.913   4.773
 8999SOL     OW27895   5.143   6.375   0.322
 8999SOL    HW127896   5.158   6.276   0.324
 8999SOL    HW227897   5.046   6.395   0.336
 9000SOL     OW27898   2.013   4.256   0.913
 9000SOL    HW127899   1.927   4.244   0.962
 9000SOL    HW227900   2.076   4.181   0.935
 9001SOL     OW27901   1.019   5.350   2.525
 9001SOL    HW127902   1.000   5.411   2.448
 9001SOL    HW227903   1.117   5.329   2.528
 9002SOL     OW27904   6.977   4.823   5.454
 9002SOL    HW127905   6.942   4.890   5.388
 9002SOL    HW227906   6.985   4.734   5.410
 9003SOL     OW27907   5.184   2.786   1.664
 9003SOL    HW127908   5.085   2.770   1.661
 9003SOL    HW227909   5.227   2.717   1.723
 9004SOL     OW27910   4.280   6.527   1.362
 9004SOL    HW127911   4.210   6.587   1.398
 9004SOL    HW227912   4.322   6.570   1.281
 9005SOL     OW27913   5.314   2.554   4.299
 9005SOL    HW127914   5.300   2.467   4.253
 9005SOL    HW227915   5.350   2.538   4.391
 9006SOL     OW27916   2.628   6.867   0.591
 9006SOL    HW127917   2.618   6.847   0.493
 9006SOL    HW227918   2.548   6.918   0.623
 9007SOL     OW27919   3.630   1.040   4.313
 9007SOL    HW127920   3.649   1.016   4.408
 9007SOL    HW227921   3.633   0.958   4.256
 9008SOL     OW27922   1.172   5.918   2.976
 9008SOL    HW127923   1.096   5.854   2.970
 9008SOL    HW227924   1.166   5.984   2.901
 9009SOL     OW27925   3.082   0.595   0.665
 9009SOL    HW127926   3.082   0.526   0.737
 9009SOL    HW227927   3.122   0.680   0.699
 9010SOL     OW27928   1.360   6.312   3.895
 9010SOL    HW127929   1.354   6.236   3.960
 9010SOL    HW227930   1.456   6.330   3.874
 9011SOL     OW27931   5.095   2.537   2.165
 9011SOL    HW127932   5.081   2.617   2.107
 9011SOL    HW227933   5.065   2.455   2.117
 9012SOL     OW27934   2.565   4.388   1.336
 9012SOL    HW127935   2.526   4.477   1.360
 9012SOL    HW227936   2.526   4.356   1.249
 9013SOL     OW27937   6.914   6.529   5.212
 9013SOL    HW127938   6.945   6.610   5.263
 9013SOL    HW227939   6.858   6.472   5.271
 9014SOL     OW27940   6.453   2.107   0.283
 9014SOL    HW127941   6.366   2.068   0.254
 9014SOL    HW227942   6.521   2.034   0.291
 9015SOL     OW27943   5.174   1.524   1.250
 9015SOL    HW127944   5.132   1.450   1.198
 9015SOL    HW227945   5.272   1.506   1.261
 9016SOL     OW27946   0.620   0.005   6.429
 9016SOL    HW127947   0.664   6.949   6.453
 9016SOL    HW227948   0.657   0.079   6.486
 9017SOL     OW27949   4.241   2.028   3.164
 9017SOL    HW127950   4.280   1.977   3.087
 9017SOL    HW227951   4.197   2.111   3.130
 9018SOL     OW27952   4.109   2.084   0.334
 9018SOL    HW127953   4.203   2.094   0.302
 9018SOL    HW227954   4.078   2.170   0.374
 9019SOL     OW27955   1.405   6.970   2.212
 9019SOL    HW127956   1.472   6.916   2.162
 9019SOL    HW227957   1.356   0.000   2.149
 9020SOL     OW27958   0.486   4.090   1.618
 9020SOL    HW127959   0.529   4.111   1.531
 9020SOL    HW227960   0.389   4.111   1.613
 9021SOL     OW27961   6.612   0.144   4.162
 9021SOL    HW127962   6.513   0.154   4.173
 9021SOL    HW227963   6.644   0.067   4.217
 9022SOL     OW27964   3.084   2.554   6.887
 9022SOL    HW127965   3.081   2.478   6.952
 9022SOL    HW227966   2.996   2.562   6.841
 9023SOL     OW27967   2.985   3.253   2.446
 9023SOL    HW127968   2.929   3.298   2.516
 9023SOL    HW227969   3.075   3.297   2.441
 9024SOL     OW27970   0.535   4.553   4.955
 9024SOL    HW127971   0.454   4.565   4.898
 9024SOL    HW227972   0.543   4.629   5.019
 9025SOL     OW27973   0.930   5.229   0.331
 9025SOL    HW127974   0.949   5.134   0.309
 9025SOL    HW227975   0.980   5.289   0.268
 9026SOL     OW27976   4.409   3.616   1.256
 9026SOL    HW127977   4.359   3.604   1.342
 9026SOL    HW227978   4.353   3.582   1.181
 9027SOL     OW27979   1.321   2.490   4.185
 9027SOL    HW127980   1.284   2.510   4.094
 9027SOL    HW227981   1.336   2.576   4.234
 9028SOL     OW27982   2.327   3.547   5.383
 9028SOL    HW127983   2.275   3.551   5.468
 9028SOL    HW227984   2.311   3.629   5.328
 9029SOL     OW27985   3.560   6.136   5.022
 9029SOL    HW127986   3.612   6.055   4.993
 9029SOL    HW227987   3.619   6.195   5.078
 9030SOL     OW27988   2.090   1.919   3.356
 9030SOL    HW127989   2.134   1.900   3.444
 9030SOL    HW227990   2.135   1.868   3.283
 9031SOL     OW27991   4.210   5.530   4.364
 9031SOL    HW127992   4.203   5.474   4.281
 9031SOL    HW227993   4.306   5.549   4.383
 9032SOL     OW27994   3.953   3.026   0.560
 9032SOL    HW127995   3.879   3.017   0.494
 9032SOL    HW227996   4.000   3.113   0.545
 9033SOL     OW27997   1.025   4.014   3.136
 9033SOL    HW127998   0.983   4.067   3.062
 9033SOL    HW227999   1.112   3.976   3.104
 9034SOL     OW28000   2.773   0.149   5.628
 9034SOL    HW128001   2.695   0.205   5.600
 9034SOL    HW228002   2.738   0.064   5.669
 9035SOL     OW28003   1.328   4.858   6.192
 9035SOL    HW128004   1.364   4.771   6.158
 9035SOL    HW228005   1.239   4.875   6.152
 9036SOL     OW28006   1.542   1.451   5.671
 9036SOL    HW128007   1.442   1.457   5.680
 9036SOL    HW228008   1.582   1.435   5.761
 9037SOL     OW28009   1.079   4.213   5.417
 9037SOL    HW128010   1.176   4.213   5.440
 9037SOL    HW228011   1.069   4.198   5.318
 9038SOL     OW28012   4.401   6.660   5.800
 9038SOL    HW128013   4.496   6.689   5.813
 9038SOL    HW228014   4.340   6.729   5.839
 9039SOL     OW28015   2.668   5.550   5.091
 9039SOL    HW128016   2.644   5.510   5.002
 9039SOL    HW228017   2.728   5.628   5.076
 9040SOL     OW28018   3.312   1.736   2.333
 9040SOL    HW128019   3.407   1.766   2.338
 9040SOL    HW228020   3.287   1.690   2.418
 9041SOL     OW28021   0.925   2.407   1.394
 9041SOL    HW128022   1.009   2.362   1.425
 9041SOL    HW228023   0.880   2.451   1.471
 9042SOL     OW28024   3.021   0.186   3.971
 9042SOL    HW128025   3.016   0.286   3.976
 9042SOL    HW228026   3.099   0.154   4.024
 9043SOL     OW28027   1.284   1.165   0.096
 9043SOL    HW128028   1.328   1.205   0.015
 9043SOL    HW228029   1.335   1.191   0.178
 9044SOL     OW28030   6.413   0.954   0.600
 9044SOL    HW128031   6.428   1.029   0.535
 9044SOL    HW228032   6.487   0.953   0.667
 9045SOL     OW28033   2.420   1.365   2.521
 9045SOL    HW128034   2.446   1.325   2.608
 9045SOL    HW228035   2.326   1.340   2.498
 9046SOL     OW28036   3.714   3.606   3.328
 9046SOL    HW128037   3.628   3.604   3.277
 9046SOL    HW228038   3.701   3.656   3.413
 9047SOL     OW28039   1.310   3.410   5.881
 9047SOL    HW128040   1.250   3.345   5.835
 9047SOL    HW228041   1.382   3.439   5.818
 9048SOL     OW28042   5.555   2.951   6.074
 9048SOL    HW128043   5.558   2.881   6.146
 9048SOL    HW228044   5.460   2.974   6.053
 9049SOL     OW28045   3.403   0.204   5.922
 9049SOL    HW128046   3.412   0.108   5.895
 9049SOL    HW228047   3.341   0.210   6.000
 9050SOL     OW28048   0.134   3.294   0.467
 9050SOL    HW128049   0.080   3.298   0.383
 9050SOL    HW228050   0.151   3.387   0.500
 9051SOL     OW28051   4.003   6.666   0.742
 9051SOL    HW128052   4.036   6.576   0.714
 9051SOL    HW228053   4.081   6.725   0.764
 9052SOL     OW28054   2.375   2.370   3.754
 9052SOL    HW128055   2.422   2.306   3.694
 9052SOL    HW228056   2.367   2.330   3.845
 9053SOL     OW28057   2.264   1.500   2.907
 9053SOL    HW128058   2.293   1.503   3.003
 9053SOL    HW228059   2.272   1.590   2.866
 9054SOL     OW28060   2.644   6.068   3.063
 9054SOL    HW128061   2.555   6.023   3.074
 9054SOL    HW228062   2.642   6.125   2.981
 9055SOL     OW28063   5.546   2.799   4.137
 9055SOL    HW128064   5.461   2.836   4.175
 9055SOL    HW228065   5.546   2.810   4.038
 9056SOL     OW28066   0.464   1.340   2.376
 9056SOL    HW128067   0.474   1.268   2.307
 9056SOL    HW228068   0.380   1.325   2.428
 9057SOL     OW28069   5.381   4.444   5.823
 9057SOL    HW128070   5.417   4.353   5.806
 9057SOL    HW228071   5.375   4.495   5.737
 9058SOL     OW28072   2.632   2.099   2.611
 9058SOL    HW128073   2.635   2.054   2.700
 9058SOL    HW228074   2.537   2.107   2.580
 9059SOL     OW28075   1.092   2.224   4.155
 9059SOL    HW128076   1.055   2.226   4.248
 9059SOL    HW228077   1.034   2.280   4.095
 9060SOL     OW28078   6.640   3.077   3.571
 9060SOL    HW128079   6.694   3.014   3.628
 9060SOL    HW228080   6.588   3.024   3.504
 9061SOL     OW28081   2.546   5.912   2.330
 9061SOL    HW128082   2.562   5.861   2.414
 9061SOL    HW228083   2.493   5.995   2.350
 9062SOL     OW28084   1.476   6.128   2.196
 9062SOL    HW128085   1.405   6.146   2.264
 9062SOL    HW228086   1.558   6.093   2.243
 9063SOL     OW28087   2.245   0.012   3.084
 9063SOL    HW128088   2.287   0.101   3.099
 9063SOL    HW228089   2.313   6.979   3.045
 9064SOL     OW28090   5.990   1.902   5.091
 9064SOL    HW128091   5.958   1.850   5.012
 9064SOL    HW228092   6.022   1.839   5.161
 9065SOL     OW28093   3.132   6.974   5.721
 9065SOL    HW128094   3.069   6.978   5.644
 9065SOL    HW228095   3.094   7.026   5.797
 9066SOL     OW28096   4.792   6.297   0.821
 9066SOL    HW128097   4.833   6.213   0.784
 9066SOL    HW228098   4.831   6.376   0.775
 9067SOL     OW28099   6.911   0.802   4.766
 9067SOL    HW128100   6.968   0.777   4.688
 9067SOL    HW228101   6.817   0.772   4.750
 9068SOL     OW28102   2.355   6.498   4.546
 9068SOL    HW128103   2.426   6.459   4.604
 9068SOL    HW228104   2.339   6.593   4.571
 9069SOL     OW28105   1.497   3.364   1.575
 9069SOL    HW128106   1.459   3.448   1.537
 9069SOL    HW228107   1.575   3.335   1.520
 9070SOL     OW28108   1.089   3.983   4.731
 9070SOL    HW128109   1.010   4.045   4.723
 9070SOL    HW228110   1.157   4.008   4.662
 9071SOL     OW28111   5.014   0.474   1.727
 9071SOL    HW128112   5.104   0.509   1.753
 9071SOL    HW228113   5.025   0.405   1.655
 9072SOL     OW28114   0.162   1.381   2.113
 9072SOL    HW128115   0.184   1.479   2.108
 9072SOL    HW228116   0.082   1.368   2.172
 9073SOL     OW28117   3.023   6.743   2.842
 9073SOL    HW128118   2.954   6.763   2.912
 9073SOL    HW228119   3.077   6.826   2.825
 9074SOL     OW28120   1.474   1.940   1.981
 9074SOL    HW128121   1.544   1.942   2.052
 9074SOL    HW228122   1.479   2.024   1.927
 9075SOL     OW28123   0.955   1.208   2.325
 9075SOL    HW128124   0.874   1.232   2.271
 9075SOL    HW228125   0.933   1.214   2.422
 9076SOL     OW28126   6.567   1.815   5.864
 9076SOL    HW128127   6.590   1.718   5.858
 9076SOL    HW228128   6.613   1.864   5.790
 9077SOL     OW28129   4.413   0.180   6.841
 9077SOL    HW128130   4.347   0.246   6.878
 9077SOL    HW228131   4.503   0.195   6.884
 9078SOL     OW28132   4.529   3.575   6.276
 9078SOL    HW128133   4.611   3.534   6.234
 9078SOL    HW228134   4.521   3.670   6.247
 9079SOL     OW28135   3.327   0.313   4.244
 9079SOL    HW128136   3.258   0.357   4.187
 9079SOL    HW228137   3.417   0.324   4.202
 9080SOL     OW28138   4.524   2.498   6.691
 9080SOL    HW128139   4.449   2.456   6.640
 9080SOL    HW228140   4.486   2.557   6.762
 9081SOL     OW28141   3.753   6.482   2.459
 9081SOL    HW128142   3.660   6.485   2.496
 9081SOL    HW228143   3.750   6.446   2.365
 9082SOL     OW28144   2.124   0.160   5.644
 9082SOL    HW128145   2.118   0.238   5.582
 9082SOL    HW228146   2.064   0.087   5.612
 9083SOL     OW28147   3.182   6.014   6.219
 9083SOL    HW128148   3.219   5.979   6.133
 9083SOL    HW228149   3.251   6.070   6.265
 9084SOL     OW28150   3.172   4.131   4.639
 9084SOL    HW128151   3.160   4.069   4.562
 9084SOL    HW228152   3.155   4.225   4.611
 9085SOL     OW28153   2.331   6.706   1.825
 9085SOL    HW128154   2.316   6.801   1.796
 9085SOL    HW228155   2.295   6.644   1.756
 9086SOL     OW28156   1.176   4.361   0.535
 9086SOL    HW128157   1.260   4.315   0.564
 9086SOL    HW228158   1.104   4.293   0.522
 9087SOL     OW28159   4.222   2.309   1.536
 9087SOL    HW128160   4.221   2.365   1.619
 9087SOL    HW228161   4.156   2.346   1.471
 9088SOL     OW28162   6.942   6.633   0.791
 9088SOL    HW128163   6.935   6.622   0.692
 9088SOL    HW228164   6.956   6.544   0.834
 9089SOL     OW28165   5.450   5.537   5.894
 9089SOL    HW128166   5.378   5.598   5.928
 9089SOL    HW228167   5.412   5.475   5.826
 9090SOL     OW28168   0.130   1.241   4.268
 9090SOL    HW128169   0.216   1.211   4.308
 9090SOL    HW228170   0.060   1.245   4.339
 9091SOL     OW28171   3.379   4.427   6.731
 9091SOL    HW128172   3.470   4.455   6.760
 9091SOL    HW228173   3.336   4.501   6.679
 9092SOL     OW28174   6.322   0.843   0.037
 9092SOL    HW128175   6.252   0.836   6.996
 9092SOL    HW228176   6.291   0.797   0.120
 9093SOL     OW28177   0.725   5.800   5.720
 9093SOL    HW128178   0.804   5.825   5.775
 9093SOL    HW228179   0.755   5.744   5.642
 9094SOL     OW28180   6.386   4.724   3.080
 9094SOL    HW128181   6.380   4.674   3.166
 9094SOL    HW228182   6.435   4.810   3.095
 9095SOL     OW28183   4.712   4.456   6.019
 9095SOL    HW128184   4.618   4.479   6.044
 9095SOL    HW228185   4.733   4.494   5.930
 9096SOL     OW28186   6.011   4.947   2.755
 9096SOL    HW128187   6.005   5.005   2.836
 9096SOL    HW228188   5.934   4.968   2.694
 9097SOL     OW28189   1.194   1.800   1.018
 9097SOL    HW128190   1.288   1.773   1.035
 9097SOL    HW228191   1.181   1.821   0.921
 9098SOL     OW28192   3.209   2.200   4.520
 9098SOL    HW128193   3.213   2.201   4.620
 9098SOL    HW228194   3.116   2.177   4.490
 9099SOL     OW28195   3.447   3.049   6.048
 9099SOL    HW128196   3.366   3.058   5.990
 9099SOL    HW228197   3.512   3.123   6.027
 9100SOL     OW28198   0.267   3.274   3.409
 9100SOL    HW128199   0.170   3.298   3.405
 9100SOL    HW228200   0.289   3.239   3.500
 9101SOL     OW28201   2.757   2.613   1.727
 9101SOL    HW128202   2.834   2.596   1.789
 9101SOL    HW228203   2.720   2.526   1.695
 9102SOL     OW28204   4.029   6.253   2.007
 9102SOL    HW128205   3.999   6.181   2.070
 9102SOL    HW228206   3.958   6.268   1.938
 9103SOL     OW28207   6.089   2.606   6.611
 9103SOL    HW128208   6.117   2.533   6.674
 9103SOL    HW228209   6.049   2.565   6.529
 9104SOL     OW28210   6.730   6.204   1.373
 9104SOL    HW128211   6.758   6.299   1.387
 9104SOL    HW228212   6.781   6.145   1.435
 9105SOL     OW28213   0.617   1.193   6.484
 9105SOL    HW128214   0.605   1.246   6.568
 9105SOL    HW228215   0.676   1.243   6.421
 9106SOL     OW28216   5.521   3.887   1.469
 9106SOL    HW128217   5.590   3.891   1.541
 9106SOL    HW228218   5.554   3.829   1.394
 9107SOL     OW28219   2.428   0.775   6.755
 9107SOL    HW128220   2.360   0.703   6.745
 9107SOL    HW228221   2.416   0.844   6.683
 9108SOL     OW28222   5.065   4.540   5.046
 9108SOL    HW128223   4.983   4.564   4.994
 9108SOL    HW228224   5.146   4.574   4.999
 9109SOL     OW28225   6.424   3.739   3.111
 9109SOL    HW128226   6.375   3.813   3.156
 9109SOL    HW228227   6.375   3.712   3.027
 9110SOL     OW28228   1.997   4.900   4.269
 9110SOL    HW128229   2.028   4.994   4.280
 9110SOL    HW228230   2.068   4.837   4.301
 9111SOL     OW28231   4.954   2.492   0.006
 9111SOL    HW128232   4.900   2.574   7.023
 9111SOL    HW228233   4.898   2.411   7.017
 9112SOL     OW28234   1.689   6.041   2.651
 9112SOL    HW128235   1.745   5.992   2.718
 9112SOL    HW228236   1.593   6.016   2.664
 9113SOL     OW28237   5.334   2.700   2.498
 9113SOL    HW128238   5.271   2.728   2.426
 9113SOL    HW228239   5.408   2.767   2.506
 9114SOL     OW28240   6.903   5.288   3.174
 9114SOL    HW128241   6.887   5.235   3.090
 9114SOL    HW228242   6.816   5.306   3.219
 9115SOL     OW28243   6.420   5.523   5.197
 9115SOL    HW128244   6.429   5.501   5.100
 9115SOL    HW228245   6.334   5.572   5.213
 9116SOL     OW28246   0.449   6.770   2.919
 9116SOL    HW128247   0.506   6.829   2.863
 9116SOL    HW228248   0.361   6.815   2.937
 9117SOL     OW28249   3.559   2.810   6.029
 9117SOL    HW128250   3.488   2.740   6.021
 9117SOL    HW228251   3.516   2.900   6.040
 9118SOL     OW28252   6.684   3.296   0.089
 9118SOL    HW128253   6.681   3.262   0.183
 9118SOL    HW228254   6.591   3.300   0.052
 9119SOL     OW28255   3.469   1.109   2.251
 9119SOL    HW128256   3.524   1.047   2.195
 9119SOL    HW228257   3.470   1.201   2.211
 9120SOL     OW28258   6.901   1.896   5.827
 9120SOL    HW128259   6.993   1.928   5.850
 9120SOL    HW228260   6.855   1.865   5.909
 9121SOL     OW28261   3.254   5.978   4.575
 9121SOL    HW128262   3.202   6.053   4.615
 9121SOL    HW228263   3.348   5.981   4.606
 9122SOL     OW28264   2.393   4.487   2.095
 9122SOL    HW128265   2.459   4.499   2.168
 9122SOL    HW228266   2.441   4.463   2.010
 9123SOL     OW28267   2.205   0.765   4.296
 9123SOL    HW128268   2.161   0.701   4.234
 9123SOL    HW228269   2.136   0.805   4.357
 9124SOL     OW28270   3.888   5.509   0.300
 9124SOL    HW128271   3.828   5.518   0.220
 9124SOL    HW228272   3.893   5.413   0.326
 9125SOL     OW28273   4.006   4.646   1.234
 9125SOL    HW128274   4.039   4.700   1.156
 9125SOL    HW228275   3.960   4.706   1.299
 9126SOL     OW28276   5.170   3.983   1.729
 9126SOL    HW128277   5.091   3.994   1.669
 9126SOL    HW228278   5.239   3.927   1.682
 9127SOL     OW28279   6.846   1.586   6.220
 9127SOL    HW128280   6.894   1.555   6.138
 9127SOL    HW228281   6.879   1.534   6.299
 9128SOL     OW28282   6.517   2.365   5.107
 9128SOL    HW128283   6.456   2.365   5.028
 9128SOL    HW228284   6.541   2.459   5.131
 9129SOL     OW28285   6.235   1.937   0.228
 9129SOL    HW128286   6.240   1.915   0.130
 9129SOL    HW228287   6.241   1.853   0.281
 9130SOL     OW28288   1.663   4.563   6.569
 9130SOL    HW128289   1.587   4.569   6.634
 9130SOL    HW228290   1.681   4.654   6.532
 9131SOL     OW28291   5.226   3.303   6.070
 9131SOL    HW128292   5.190   3.355   6.147
 9131SOL    HW228293   5.201   3.348   5.985
 9132SOL     OW28294   0.845   5.307   4.310
 9132SOL    HW128295   0.789   5.302   4.393
 9132SOL    HW228296   0.850   5.402   4.279
 9133SOL     OW28297   3.614   0.274   1.039
 9133SOL    HW128298   3.548   0.303   1.107
 9133SOL    HW228299   3.585   0.306   0.948
 9134SOL     OW28300   4.260   5.169   0.970
 9134SOL    HW128301   4.164   5.180   0.944
 9134SOL    HW228302   4.295   5.255   1.006
 9135SOL     OW28303   0.717   6.811   1.565
 9135SOL    HW128304   0.771   6.799   1.649
 9135SOL    HW228305   0.768   6.868   1.501
 9136SOL     OW28306   4.779   6.388   5.466
 9136SOL    HW128307   4.840   6.414   5.392
 9136SOL    HW228308   4.824   6.319   5.523
 9137SOL     OW28309   3.722   0.510   6.768
 9137SOL    HW128310   3.769   0.487   6.683
 9137SOL    HW228311   3.768   0.587   6.812
 9138SOL     OW28312   1.041   4.008   6.742
 9138SOL    HW128313   1.134   3.978   6.721
 9138SOL    HW228314   1.044   4.082   6.809
 9139SOL     OW28315   1.178   1.329   2.232
 9139SOL    HW128316   1.249   1.285   2.288
 9139SOL    HW228317   1.092   1.279   2.243
 9140SOL     OW28318   1.200   4.410   1.881
 9140SOL    HW128319   1.144   4.330   1.901
 9140SOL    HW228320   1.142   4.492   1.882
 9141SOL     OW28321   6.304   6.745   0.661
 9141SOL    HW128322   6.383   6.688   0.641
 9141SOL    HW228323   6.224   6.687   0.677
 9142SOL     OW28324   0.747   3.713   1.253
 9142SOL    HW128325   0.729   3.644   1.322
 9142SOL    HW228326   0.749   3.670   1.162
 9143SOL     OW28327   6.569   3.645   1.105
 9143SOL    HW128328   6.516   3.637   1.021
 9143SOL    HW228329   6.507   3.666   1.181
 9144SOL     OW28330   3.690   5.257   4.688
 9144SOL    HW128331   3.674   5.163   4.716
 9144SOL    HW228332   3.786   5.281   4.701
 9145SOL     OW28333   0.723   5.881   6.415
 9145SOL    HW128334   0.677   5.916   6.334
 9145SOL    HW228335   0.765   5.956   6.465
 9146SOL     OW28336   5.092   3.822   2.767
 9146SOL    HW128337   5.118   3.874   2.848
 9146SOL    HW228338   4.992   3.812   2.764
 9147SOL     OW28339   6.733   0.738   5.044
 9147SOL    HW128340   6.723   0.649   5.086
 9147SOL    HW228341   6.830   0.758   5.030
 9148SOL     OW28342   5.773   6.620   2.149
 9148SOL    HW128343   5.755   6.676   2.229
 9148SOL    HW228344   5.718   6.653   2.072
 9149SOL     OW28345   5.521   3.199   1.854
 9149SOL    HW128346   5.448   3.164   1.795
 9149SOL    HW228347   5.603   3.143   1.843
 9150SOL     OW28348   3.418   4.518   0.513
 9150SOL    HW128349   3.466   4.553   0.593
 9150SOL    HW228350   3.475   4.449   0.468
 9151SOL     OW28351   2.217   4.207   3.169
 9151SOL    HW128352   2.228   4.118   3.125
 9151SOL    HW228353   2.307   4.247   3.188
 9152SOL     OW28354   1.739   4.342   4.560
 9152SOL    HW128355   1.744   4.442   4.568
 9152SOL    HW228356   1.825   4.308   4.521
 9153SOL     OW28357   0.192   2.532   6.744
 9153SOL    HW128358   0.233   2.465   6.806
 9153SOL    HW228359   0.117   2.490   6.693
 9154SOL     OW28360   4.780   4.155   4.229
 9154SOL    HW128361   4.798   4.126   4.323
 9154SOL    HW228362   4.734   4.244   4.230
 9155SOL     OW28363   2.366   4.675   2.805
 9155SOL    HW128364   2.277   4.713   2.778
 9155SOL    HW228365   2.429   4.750   2.824
 9156SOL     OW28366   6.856   1.966   1.916
 9156SOL    HW128367   6.879   1.985   2.012
 9156SOL    HW228368   6.939   1.974   1.860
 9157SOL     OW28369   3.379   4.170   6.766
 9157SOL    HW128370   3.376   4.269   6.764
 9157SOL    HW228371   3.286   4.133   6.769
 9158SOL     OW28372   6.674   3.937   4.235
 9158SOL    HW128373   6.580   3.968   4.219
 9158SOL    HW228374   6.677   3.881   4.317
 9159SOL     OW28375   2.019   6.976   3.924
 9159SOL    HW128376   2.011   6.876   3.931
 9159SOL    HW228377   2.080   6.999   3.848
 9160SOL     OW28378   7.014   6.237   5.937
 9160SOL    HW128379   6.934   6.229   5.996
 9160SOL    HW228380   6.993   6.200   5.846
 9161SOL     OW28381   6.499   4.792   3.370
 9161SOL    HW128382   6.524   4.702   3.407
 9161SOL    HW228383   6.581   4.839   3.337
 9162SOL     OW28384   3.696   0.357   2.811
 9162SOL    HW128385   3.677   0.391   2.903
 9162SOL    HW228386   3.786   0.314   2.809
 9163SOL     OW28387   0.030   3.525   3.141
 9163SOL    HW128388   6.964   3.551   3.157
 9163SOL    HW228389   0.090   3.585   3.194
 9164SOL     OW28390   1.858   1.025   6.657
 9164SOL    HW128391   1.800   0.953   6.693
 9164SOL    HW228392   1.829   1.113   6.695
 9165SOL     OW28393   4.572   1.521   6.074
 9165SOL    HW128394   4.563   1.543   6.171
 9165SOL    HW228395   4.515   1.583   6.020
 9166SOL     OW28396   4.608   5.485   1.417
 9166SOL    HW128397   4.586   5.407   1.475
 9166SOL    HW228398   4.548   5.485   1.337
 9167SOL     OW28399   1.571   2.428   6.205
 9167SOL    HW128400   1.574   2.388   6.113
 9167SOL    HW228401   1.663   2.434   6.242
 9168SOL     OW28402   6.896   6.584   6.989
 9168SOL    HW128403   6.938   6.511   0.013
 9168SOL    HW228404   6.817   6.548   6.939
 9169SOL     OW28405   6.367   6.088   6.289
 9169SOL    HW128406   6.311   6.170   6.284
 9169SOL    HW228407   6.332   6.028   6.361
 9170SOL     OW28408   1.985   0.563   6.404
 9170SOL    HW128409   1.895   0.597   6.429
 9170SOL    HW228410   1.980   0.466   6.383
 9171SOL     OW28411   3.619   5.529   0.840
 9171SOL    HW128412   3.700   5.506   0.785
 9171SOL    HW228413   3.558   5.587   0.786
 9172SOL     OW28414   4.363   2.141   4.623
 9172SOL    HW128415   4.384   2.107   4.715
 9172SOL    HW228416   4.436   2.201   4.593
 9173SOL     OW28417   6.012   3.063   4.560
 9173SOL    HW128418   5.999   3.162   4.548
 9173SOL    HW228419   5.923   3.017   4.553
 9174SOL     OW28420   0.734   6.078   6.791
 9174SOL    HW128421   0.691   6.168   6.801
 9174SOL    HW228422   0.805   6.066   6.860
 9175SOL     OW28423   1.340   0.024   7.018
 9175SOL    HW128424   1.379   0.073   0.067
 9175SOL    HW228425   1.365   6.958   7.023
 9176SOL     OW28426   2.430   6.974   1.292
 9176SOL    HW128427   2.451   6.983   1.195
 9176SOL    HW228428   2.449   0.030   1.339
 9177SOL     OW28429   1.660   2.732   4.016
 9177SOL    HW128430   1.570   2.690   4.004
 9177SOL    HW228431   1.649   2.824   4.053
 9178SOL     OW28432   2.313   5.495   6.133
 9178SOL    HW128433   2.239   5.438   6.167
 9178SOL    HW228434   2.308   5.586   6.175
 9179SOL     OW28435   1.843   6.034   5.257
 9179SOL    HW128436   1.749   6.001   5.252
 9179SOL    HW228437   1.894   5.998   5.179
 9180SOL     OW28438   6.499   2.569   3.431
 9180SOL    HW128439   6.594   2.590   3.452
 9180SOL    HW228440   6.439   2.632   3.481
 9181SOL     OW28441   4.962   2.896   3.847
 9181SOL    HW128442   4.981   2.892   3.945
 9181SOL    HW228443   4.902   2.820   3.821
 9182SOL     OW28444   3.095   0.800   3.453
 9182SOL    HW128445   3.028   0.733   3.422
 9182SOL    HW228446   3.092   0.880   3.394
 9183SOL     OW28447   5.276   3.923   6.219
 9183SOL    HW128448   5.284   3.824   6.221
 9183SOL    HW228449   5.364   3.963   6.192
 9184SOL     OW28450   3.840   2.112   0.916
 9184SOL    HW128451   3.831   2.015   0.892
 9184SOL    HW228452   3.829   2.168   0.833
 9185SOL     OW28453   0.456   6.499   5.748
 9185SOL    HW128454   0.383   6.502   5.681
 9185SOL    HW228455   0.430   6.438   5.823
 9186SOL     OW28456   4.718   0.495   5.178
 9186SOL    HW128457   4.791   0.562   5.165
 9186SOL    HW228458   4.636   0.525   5.129
 9187SOL     OW28459   4.468   2.209   6.855
 9187SOL    HW128460   4.433   2.135   6.798
 9187SOL    HW228461   4.563   2.228   6.831
 9188SOL     OW28462   1.253   0.626   1.631
 9188SOL    HW128463   1.326   0.644   1.698
 9188SOL    HW228464   1.199   0.548   1.662
 9189SOL     OW28465   2.657   0.117   3.369
 9189SOL    HW128466   2.640   0.044   3.436
 9189SOL    HW228467   2.570   0.154   3.338
 9190SOL     OW28468   6.963   3.221   4.958
 9190SOL    HW128469   6.986   3.274   4.876
 9190SOL    HW228470   7.021   3.250   5.034
 9191SOL     OW28471   5.145   6.860   6.531
 9191SOL    HW128472   5.143   6.770   6.489
 9191SOL    HW228473   5.142   6.930   6.460
 9192SOL     OW28474   6.039   3.173   5.784
 9192SOL    HW128475   6.038   3.088   5.730
 9192SOL    HW228476   6.096   3.160   5.865
 9193SOL     OW28477   3.487   3.932   4.088
 9193SOL    HW128478   3.429   4.011   4.065
 9193SOL    HW228479   3.437   3.848   4.070
 9194SOL     OW28480   3.609   5.904   1.942
 9194SOL    HW128481   3.678   5.838   1.971
 9194SOL    HW228482   3.524   5.888   1.992
 9195SOL     OW28483   2.476   2.552   4.418
 9195SOL    HW128484   2.497   2.564   4.515
 9195SOL    HW228485   2.399   2.489   4.408
 9196SOL     OW28486   5.743   0.270   3.639
 9196SOL    HW128487   5.722   0.333   3.564
 9196SOL    HW228488   5.715   0.312   3.726
 9197SOL     OW28489   3.873   5.201   0.316
 9197SOL    HW128490   3.816   5.213   0.398
 9197SOL    HW228491   3.825   5.143   0.250
 9198SOL     OW28492   5.679   4.216   5.813
 9198SOL    HW128493   5.686   4.303   5.764
 9198SOL    HW228494   5.584   4.185   5.813
 9199SOL     OW28495   0.135   2.832   6.330
 9199SOL    HW128496   0.095   2.858   6.242
 9199SOL    HW228497   0.126   2.908   6.395
 9200SOL     OW28498   1.749   5.784   6.540
 9200SOL    HW128499   1.723   5.774   6.444
 9200SOL    HW228500   1.674   5.752   6.599
 9201SOL     OW28501   0.757   3.574   1.010
 9201SOL    HW128502   0.674   3.519   0.998
 9201SOL    HW228503   0.833   3.529   0.963
 9202SOL     OW28504   1.185   5.749   3.950
 9202SOL    HW128505   1.219   5.843   3.959
 9202SOL    HW228506   1.234   5.690   4.014
 9203SOL     OW28507   5.220   2.149   6.294
 9203SOL    HW128508   5.126   2.174   6.321
 9203SOL    HW228509   5.217   2.101   6.206
 9204SOL     OW28510   4.957   3.622   3.191
 9204SOL    HW128511   4.893   3.552   3.223
 9204SOL    HW228512   5.040   3.577   3.158
 9205SOL     OW28513   5.142   4.230   2.382
 9205SOL    HW128514   5.135   4.210   2.480
 9205SOL    HW228515   5.143   4.144   2.330
 9206SOL     OW28516   3.152   0.046   4.184
 9206SOL    HW128517   3.231   7.016   4.170
 9206SOL    HW228518   3.182   0.130   4.229
 9207SOL     OW28519   3.783   6.083   5.812
 9207SOL    HW128520   3.766   6.179   5.793
 9207SOL    HW228521   3.874   6.072   5.851
 9208SOL     OW28522   5.824   4.646   2.235
 9208SOL    HW128523   5.806   4.730   2.287
 9208SOL    HW228524   5.751   4.632   2.168
 9209SOL     OW28525   4.210   0.599   2.022
 9209SOL    HW128526   4.184   0.504   2.039
 9209SOL    HW228527   4.309   0.609   2.031
 9210SOL     OW28528   0.659   0.921   1.729
 9210SOL    HW128529   0.664   1.021   1.736
 9210SOL    HW228530   0.741   0.886   1.683
 9211SOL     OW28531   5.355   2.584   5.678
 9211SOL    HW128532   5.364   2.675   5.719
 9211SOL    HW228533   5.375   2.515   5.747
 9212SOL     OW28534   4.787   4.219   5.024
 9212SOL    HW128535   4.796   4.120   5.038
 9212SOL    HW228536   4.870   4.253   4.979
 9213SOL     OW28537   4.911   5.887   4.202
 9213SOL    HW128538   4.901   5.981   4.234
 9213SOL    HW228539   4.984   5.882   4.134
 9214SOL     OW28540   0.016   2.347   5.424
 9214SOL    HW128541   7.010   2.310   5.339
 9214SOL    HW228542   0.027   2.446   5.415
 9215SOL     OW28543   0.506   4.676   2.690
 9215SOL    HW128544   0.451   4.702   2.611
 9215SOL    HW228545   0.481   4.734   2.768
 9216SOL     OW28546   2.645   6.678   4.680
 9216SOL    HW128547   2.612   6.584   4.687
 9216SOL    HW228548   2.660   6.702   4.584
 9217SOL     OW28549   5.404   1.683   6.786
 9217SOL    HW128550   5.485   1.635   6.753
 9217SOL    HW228551   5.388   1.765   6.730
 9218SOL     OW28552   4.485   1.330   6.903
 9218SOL    HW128553   4.427   1.360   6.827
 9218SOL    HW228554   4.438   1.345   6.989
 9219SOL     OW28555   4.408   3.356   5.678
 9219SOL    HW128556   4.340   3.289   5.709
 9219SOL    HW228557   4.492   3.345   5.731
 9220SOL     OW28558   2.221   5.859   2.749
 9220SOL    HW128559   2.143   5.866   2.686
 9220SOL    HW228560   2.230   5.944   2.801
 9221SOL     OW28561   2.379   0.075   5.517
 9221SOL    HW128562   2.344   0.027   5.598
 9221SOL    HW228563   2.312   0.071   5.444
 9222SOL     OW28564   2.635   4.784   4.861
 9222SOL    HW128565   2.639   4.736   4.773
 9222SOL    HW228566   2.662   4.721   4.934
 9223SOL     OW28567   1.142   2.434   3.908
 9223SOL    HW128568   1.079   2.457   3.981
 9223SOL    HW228569   1.091   2.415   3.824
 9224SOL     OW28570   1.318   3.124   3.781
 9224SOL    HW128571   1.385   3.188   3.743
 9224SOL    HW228572   1.363   3.038   3.805
 9225SOL     OW28573   3.866   6.216   6.147
 9225SOL    HW128574   3.897   6.148   6.080
 9225SOL    HW228575   3.851   6.171   6.235
 9226SOL     OW28576   1.190   0.629   1.362
 9226SOL    HW128577   1.163   0.533   1.365
 9226SOL    HW228578   1.232   0.655   1.449
 9227SOL     OW28579   1.931   6.153   1.576
 9227SOL    HW128580   1.899   6.059   1.567
 9227SOL    HW228581   1.911   6.203   1.492
 9228SOL     OW28582   2.089   2.605   6.836
 9228SOL    HW128583   2.013   2.569   6.890
 9228SOL    HW228584   2.075   2.703   6.821
 9229SOL     OW28585   0.742   4.854   6.220
 9229SOL    HW128586   0.726   4.809   6.132
 9229SOL    HW228587   0.790   4.941   6.204
 9230SOL     OW28588   4.731   2.897   2.836
 9230SOL    HW128589   4.754   2.817   2.892
 9230SOL    HW228590   4.711   2.868   2.743
 9231SOL     OW28591   0.803   4.348   5.093
 9231SOL    HW128592   0.809   4.377   4.998
 9231SOL    HW228593   0.837   4.422   5.152
 9232SOL     OW28594   2.926   5.855   1.204
 9232SOL    HW128595   2.938   5.954   1.213
 9232SOL    HW228596   2.846   5.826   1.256
 9233SOL     OW28597   0.867   6.965   0.309
 9233SOL    HW128598   0.889   0.031   0.291
 9233SOL    HW228599   0.947   6.919   0.347
 9234SOL     OW28600   2.366   5.906   0.657
 9234SOL    HW128601   2.396   5.839   0.589
 9234SOL    HW228602   2.268   5.922   0.647
 9235SOL     OW28603   2.329   2.781   2.915
 9235SOL    HW128604   2.279   2.867   2.910
 9235SOL    HW228605   2.335   2.741   2.824
 9236SOL     OW28606   2.781   3.411   6.661
 9236SOL    HW128607   2.846   3.484   6.682
 9236SOL    HW228608   2.774   3.350   6.740
 9237SOL     OW28609   0.248   5.766   2.386
 9237SOL    HW128610   0.255   5.866   2.386
 9237SOL    HW228611   0.234   5.733   2.479
 9238SOL     OW28612   2.630   2.390   6.187
 9238SOL    HW128613   2.570   2.356   6.260
 9238SOL    HW228614   2.576   2.411   6.106
 9239SOL     OW28615   6.948   4.627   6.838
 9239SOL    HW128616   6.929   4.651   6.743
 9239SOL    HW228617   7.003   4.698   6.880
 9240SOL     OW28618   5.272   2.894   2.316
 9240SOL    HW128619   5.191   2.934   2.273
 9240SOL    HW228620   5.334   2.967   2.345
 9241SOL     OW28621   0.631   5.690   0.737
 9241SOL    HW128622   0.565   5.667   0.808
 9241SOL    HW228623   0.588   5.682   0.647
 9242SOL     OW28624   2.215   3.453   1.671
 9242SOL    HW128625   2.123   3.440   1.707
 9242SOL    HW228626   2.280   3.456   1.748
 9243SOL     OW28627   0.367   0.251   1.898
 9243SOL    HW128628   0.315   0.301   1.967
 9243SOL    HW228629   0.438   0.197   1.943
 9244SOL     OW28630   2.499   6.694   6.435
 9244SOL    HW128631   2.462   6.604   6.410
 9244SOL    HW228632   2.453   6.765   6.381
 9245SOL     OW28633   0.455   4.546   3.697
 9245SOL    HW128634   0.522   4.483   3.657
 9245SOL    HW228635   0.488   4.577   3.786
 9246SOL     OW28636   6.036   0.630   3.898
 9246SOL    HW128637   6.123   0.601   3.938
 9246SOL    HW228638   6.044   0.636   3.799
 9247SOL     OW28639   3.833   5.163   3.406
 9247SOL    HW128640   3.872   5.232   3.346
 9247SOL    HW228641   3.864   5.072   3.378
 9248SOL     OW28642   3.082   1.739   5.151
 9248SOL    HW128643   3.095   1.835   5.126
 9248SOL    HW228644   3.015   1.733   5.225
 9249SOL     OW28645   4.490   5.701   1.587
 9249SOL    HW128646   4.484   5.656   1.498
 9249SOL    HW228647   4.554   5.650   1.645
 9250SOL     OW28648   6.633   2.961   4.183
 9250SOL    HW128649   6.642   3.057   4.208
 9250SOL    HW228650   6.719   2.928   4.145
 9251SOL     OW28651   4.460   1.948   1.752
 9251SOL    HW128652   4.422   1.978   1.840
 9251SOL    HW228653   4.454   1.849   1.745
 9252SOL     OW28654   5.763   0.606   4.766
 9252SOL    HW128655   5.846   0.571   4.722
 9252SOL    HW228656   5.722   0.676   4.707
 9253SOL     OW28657   5.279   5.394   5.689
 9253SOL    HW128658   5.321   5.437   5.609
 9253SOL    HW228659   5.341   5.326   5.728
 9254SOL     OW28660   4.845   5.031   2.557
 9254SOL    HW128661   4.900   5.030   2.640
 9254SOL    HW228662   4.780   5.107   2.560
 9255SOL     OW28663   5.336   3.255   6.433
 9255SOL    HW128664   5.278   3.323   6.390
 9255SOL    HW228665   5.394   3.211   6.364
 9256SOL     OW28666   2.209   0.179   1.747
 9256SOL    HW128667   2.113   0.184   1.720
 9256SOL    HW228668   2.220   0.110   1.818
 9257SOL     OW28669   5.862   5.829   3.325
 9257SOL    HW128670   5.854   5.778   3.240
 9257SOL    HW228671   5.790   5.899   3.329
 9258SOL     OW28672   4.047   3.717   1.441
 9258SOL    HW128673   4.135   3.696   1.485
 9258SOL    HW228674   3.975   3.716   1.509
 9259SOL     OW28675   1.945   0.738   0.455
 9259SOL    HW128676   2.040   0.756   0.428
 9259SOL    HW228677   1.886   0.812   0.424
 9260SOL     OW28678   6.776   3.095   5.590
 9260SOL    HW128679   6.793   3.051   5.679
 9260SOL    HW228680   6.729   3.030   5.530
 9261SOL     OW28681   4.555   0.996   6.600
 9261SOL    HW128682   4.461   1.003   6.565
 9261SOL    HW228683   4.618   1.034   6.533
 9262SOL     OW28684   1.040   6.114   5.209
 9262SOL    HW128685   0.956   6.060   5.208
 9262SOL    HW228686   1.119   6.052   5.208
 9263SOL     OW28687   3.052   5.099   2.290
 9263SOL    HW128688   3.055   5.189   2.247
 9263SOL    HW228689   3.125   5.042   2.254
 9264SOL     OW28690   5.004   3.450   0.262
 9264SOL    HW128691   5.054   3.414   0.341
 9264SOL    HW228692   4.910   3.414   0.263
 9265SOL     OW28693   3.897   2.619   6.803
 9265SOL    HW128694   3.907   2.705   6.752
 9265SOL    HW228695   3.972   2.610   6.868
 9266SOL     OW28696   0.580   6.026   1.081
 9266SOL    HW128697   0.522   6.107   1.084
 9266SOL    HW228698   0.673   6.053   1.057
 9267SOL     OW28699   0.810   1.822   4.206
 9267SOL    HW128700   0.750   1.756   4.161
 9267SOL    HW228701   0.867   1.867   4.138
 9268SOL     OW28702   1.198   6.657   2.292
 9268SOL    HW128703   1.285   6.611   2.274
 9268SOL    HW228704   1.213   6.756   2.298
 9269SOL     OW28705   3.999   0.130   6.141
 9269SOL    HW128706   3.933   0.190   6.185
 9269SOL    HW228707   3.953   0.047   6.109
 9270SOL     OW28708   3.766   0.566   5.308
 9270SOL    HW128709   3.790   0.477   5.269
 9270SOL    HW228710   3.695   0.554   5.377
 9271SOL     OW28711   6.373   0.303   0.429
 9271SOL    HW128712   6.289   0.356   0.435
 9271SOL    HW228713   6.362   0.218   0.481
 9272SOL     OW28714   0.676   6.280   6.582
 9272SOL    HW128715   0.649   6.279   6.679
 9272SOL    HW228716   0.736   6.203   6.563
 9273SOL     OW28717   6.027   6.073   3.303
 9273SOL    HW128718   5.967   6.153   3.298
 9273SOL    HW228719   5.971   5.990   3.308
 9274SOL     OW28720   6.585   2.689   6.826
 9274SOL    HW128721   6.586   2.616   6.757
 9274SOL    HW228722   6.617   2.774   6.785
 9275SOL     OW28723   0.105   6.697   0.197
 9275SOL    HW128724   0.123   6.602   0.169
 9275SOL    HW228725   0.137   6.759   0.125
 9276SOL     OW28726   2.035   5.204   6.516
 9276SOL    HW128727   2.030   5.284   6.575
 9276SOL    HW228728   2.131   5.181   6.499
 9277SOL     OW28729   3.906   4.795   2.373
 9277SOL    HW128730   3.859   4.712   2.346
 9277SOL    HW228731   3.975   4.819   2.304
 9278SOL     OW28732   1.465   0.478   5.704
 9278SOL    HW128733   1.505   0.516   5.621
 9278SOL    HW228734   1.414   0.395   5.681
 9279SOL     OW28735   3.942   6.989   1.870
 9279SOL    HW128736   4.034   6.992   1.911
 9279SOL    HW228737   3.925   6.897   1.834
 9280SOL     OW28738   2.505   1.633   2.485
 9280SOL    HW128739   2.595   1.643   2.527
 9280SOL    HW228740   2.472   1.539   2.498
 9281SOL     OW28741   3.692   3.995   6.440
 9281SOL    HW128742   3.777   3.983   6.389
 9281SOL    HW228743   3.632   4.058   6.392
 9282SOL     OW28744   4.342   0.627   4.321
 9282SOL    HW128745   4.328   0.691   4.397
 9282SOL    HW228746   4.358   0.679   4.237
 9283SOL     OW28747   5.068   0.587   5.353
 9283SOL    HW128748   5.131   0.621   5.423
 9283SOL    HW228749   5.120   0.548   5.277
 9284SOL     OW28750   2.875   3.608   5.407
 9284SOL    HW128751   2.810   3.614   5.482
 9284SOL    HW228752   2.868   3.519   5.363
 9285SOL     OW28753   5.165   3.428   0.689
 9285SOL    HW128754   5.234   3.484   0.737
 9285SOL    HW228755   5.100   3.391   0.756
 9286SOL     OW28756   5.341   5.232   0.408
 9286SOL    HW128757   5.405   5.156   0.418
 9286SOL    HW228758   5.353   5.296   0.484
 9287SOL     OW28759   3.652   4.669   5.917
 9287SOL    HW128760   3.752   4.676   5.912
 9287SOL    HW228761   3.623   4.587   5.868
 9288SOL     OW28762   4.418   1.960   2.635
 9288SOL    HW128763   4.370   1.994   2.554
 9288SOL    HW228764   4.482   1.888   2.607
 9289SOL     OW28765   4.365   0.829   0.298
 9289SOL    HW128766   4.372   0.853   0.201
 9289SOL    HW228767   4.275   0.858   0.333
 9290SOL     OW28768   6.190   1.330   4.022
 9290SOL    HW128769   6.278   1.360   4.058
 9290SOL    HW228770   6.178   1.232   4.041
 9291SOL     OW28771   1.256   5.714   6.196
 9291SOL    HW128772   1.308   5.694   6.114
 9291SOL    HW228773   1.287   5.655   6.271
 9292SOL     OW28774   1.837   1.318   6.738
 9292SOL    HW128775   1.930   1.323   6.775
 9292SOL    HW228776   1.778   1.383   6.785
 9293SOL     OW28777   5.728   3.398   6.342
 9293SOL    HW128778   5.682   3.486   6.332
 9293SOL    HW228779   5.681   3.329   6.287
 9294SOL     OW28780   4.950   0.873   6.577
 9294SOL    HW128781   5.034   0.873   6.631
 9294SOL    HW228782   4.886   0.806   6.615
 9295SOL     OW28783   6.446   1.038   5.108
 9295SOL    HW128784   6.429   0.962   5.170
 9295SOL    HW228785   6.486   1.114   5.159
 9296SOL     OW28786   2.063   5.077   0.504
 9296SOL    HW128787   2.112   5.163   0.518
 9296SOL    HW228788   2.087   5.040   0.414
 9297SOL     OW28789   0.664   6.728   3.087
 9297SOL    HW128790   0.590   6.745   3.022
 9297SOL    HW228791   0.732   6.668   3.044
 9298SOL     OW28792   1.188   6.421   6.468
 9298SOL    HW128793   1.251   6.375   6.531
 9298SOL    HW228794   1.183   6.370   6.382
 9299SOL     OW28795   0.754   1.583   4.071
 9299SOL    HW128796   0.833   1.528   4.098
 9299SOL    HW228797   0.752   1.590   3.971
 9300SOL     OW28798   0.058   5.198   5.098
 9300SOL    HW128799   0.003   5.124   5.138
 9300SOL    HW228800   0.087   5.260   5.170
 9301SOL     OW28801   6.650   4.121   5.113
 9301SOL    HW128802   6.691   4.178   5.042
 9301SOL    HW228803   6.678   4.154   5.203
 9302SOL     OW28804   1.876   3.593   4.970
 9302SOL    HW128805   1.925   3.619   4.887
 9302SOL    HW228806   1.941   3.563   5.040
 9303SOL     OW28807   2.623   4.248   7.021
 9303SOL    HW128808   2.669   4.165   6.987
 9303SOL    HW228809   2.571   4.225   0.073
 9304SOL     OW28810   4.529   5.257   0.452
 9304SOL    HW128811   4.501   5.352   0.460
 9304SOL    HW228812   4.553   5.238   0.357
 9305SOL     OW28813   3.782   0.913   0.677
 9305SOL    HW128814   3.686   0.896   0.696
 9305SOL    HW228815   3.837   0.837   0.713
 9306SOL     OW28816   0.879   4.607   5.582
 9306SOL    HW128817   0.855   4.652   5.669
 9306SOL    HW228818   0.874   4.508   5.593
 9307SOL     OW28819   1.793   4.208   0.566
 9307SOL    HW128820   1.892   4.215   0.579
 9307SOL    HW228821   1.751   4.167   0.647
 9308SOL     OW28822   1.439   4.658   1.804
 9308SOL    HW128823   1.442   4.562   1.834
 9308SOL    HW228824   1.375   4.709   1.861
 9309SOL     OW28825   4.053   6.348   5.587
 9309SOL    HW128826   3.990   6.409   5.541
 9309SOL    HW228827   4.118   6.401   5.642
 9310SOL     OW28828   5.478   6.578   5.466
 9310SOL    HW128829   5.380   6.596   5.457
 9310SOL    HW228830   5.499   6.487   5.428
 9311SOL     OW28831   5.523   4.591   1.471
 9311SOL    HW128832   5.437   4.559   1.430
 9311SOL    HW228833   5.534   4.689   1.454
 9312SOL     OW28834   1.454   2.210   0.779
 9312SOL    HW128835   1.526   2.196   0.846
 9312SOL    HW228836   1.489   2.190   0.687
 9313SOL     OW28837   0.056   6.999   1.479
 9313SOL    HW128838   0.148   6.981   1.513
 9313SOL    HW228839   0.060   7.023   1.382
 9314SOL     OW28840   6.760   3.414   0.596
 9314SOL    HW128841   6.773   3.318   0.573
 9314SOL    HW228842   6.756   3.424   0.696
 9315SOL     OW28843   5.924   0.260   5.919
 9315SOL    HW128844   5.896   0.259   5.823
 9315SOL    HW228845   5.845   0.240   5.977
 9316SOL     OW28846   5.294   6.992   5.306
 9316SOL    HW128847   5.196   6.979   5.319
 9316SOL    HW228848   5.324   0.044   5.354
 9317SOL     OW28849   3.990   5.483   3.006
 9317SOL    HW128850   3.972   5.410   2.940
 9317SOL    HW228851   3.965   5.453   3.098
 9318SOL     OW28852   4.590   6.900   0.202
 9318SOL    HW128853   4.527   6.840   0.251
 9318SOL    HW228854   4.566   6.901   0.105
 9319SOL     OW28855   2.766   3.039   0.755
 9319SOL    HW128856   2.679   3.078   0.725
 9319SOL    HW228857   2.763   3.021   0.853
 9320SOL     OW28858   4.421   0.655   5.374
 9320SOL    HW128859   4.434   0.578   5.437
 9320SOL    HW228860   4.423   0.621   5.280
 9321SOL     OW28861   1.017   1.287   5.930
 9321SOL    HW128862   0.997   1.230   6.010
 9321SOL    HW228863   1.112   1.319   5.934
 9322SOL     OW28864   0.346   4.144   6.272
 9322SOL    HW128865   0.319   4.048   6.275
 9322SOL    HW228866   0.391   4.168   6.358
 9323SOL     OW28867   2.389   1.837   5.175
 9323SOL    HW128868   2.350   1.831   5.266
 9323SOL    HW228869   2.338   1.778   5.113
 9324SOL     OW28870   2.147   3.578   2.481
 9324SOL    HW128871   2.133   3.489   2.525
 9324SOL    HW228872   2.154   3.565   2.382
 9325SOL     OW28873   0.406   6.788   0.651
 9325SOL    HW128874   0.446   6.837   0.729
 9325SOL    HW228875   0.439   6.693   0.652
 9326SOL     OW28876   3.062   4.928   6.559
 9326SOL    HW128877   3.036   4.842   6.516
 9326SOL    HW228878   3.058   4.919   6.658
 9327SOL     OW28879   4.404   6.787   2.894
 9327SOL    HW128880   4.385   6.762   2.799
 9327SOL    HW228881   4.415   6.704   2.949
 9328SOL     OW28882   2.121   0.675   4.878
 9328SOL    HW128883   2.092   0.609   4.947
 9328SOL    HW228884   2.124   0.630   4.789
 9329SOL     OW28885   6.634   5.892   0.668
 9329SOL    HW128886   6.611   5.796   0.653
 9329SOL    HW228887   6.644   5.909   0.767
 9330SOL     OW28888   0.088   0.297   6.094
 9330SOL    HW128889   0.160   0.233   6.069
 9330SOL    HW228890   0.006   0.247   6.122
 9331SOL     OW28891   1.914   1.557   6.013
 9331SOL    HW128892   1.992   1.596   5.964
 9331SOL    HW228893   1.840   1.538   5.949
 9332SOL     OW28894   4.398   5.634   0.883
 9332SOL    HW128895   4.441   5.639   0.793
 9332SOL    HW228896   4.298   5.631   0.872
 9333SOL     OW28897   3.493   5.682   6.534
 9333SOL    HW128898   3.589   5.653   6.529
 9333SOL    HW228899   3.489   5.782   6.543
 9334SOL     OW28900   4.812   6.939   4.295
 9334SOL    HW128901   4.892   6.999   4.298
 9334SOL    HW228902   4.759   6.949   4.379
 9335SOL     OW28903   1.917   1.331   0.444
 9335SOL    HW128904   1.832   1.285   0.422
 9335SOL    HW228905   1.940   1.395   0.371
 9336SOL     OW28906   5.413   0.010   4.288
 9336SOL    HW128907   5.478   0.058   4.346
 9336SOL    HW228908   5.320   0.024   4.323
 9337SOL     OW28909   5.315   0.889   6.346
 9337SOL    HW128910   5.320   0.801   6.394
 9337SOL    HW228911   5.403   0.907   6.301
 9338SOL     OW28912   6.769   6.512   1.017
 9338SOL    HW128913   6.856   6.481   0.978
 9338SOL    HW228914   6.709   6.544   0.943
 9339SOL     OW28915   5.704   5.960   0.633
 9339SOL    HW128916   5.768   6.030   0.601
 9339SOL    HW228917   5.666   5.911   0.555
 9340SOL     OW28918   4.272   4.658   2.626
 9340SOL    HW128919   4.344   4.589   2.613
 9340SOL    HW228920   4.234   4.683   2.538
 9341SOL     OW28921   6.807   4.036   0.849
 9341SOL    HW128922   6.748   4.096   0.796
 9341SOL    HW228923   6.802   4.062   0.946
 9342SOL     OW28924   2.422   0.588   4.761
 9342SOL    HW128925   2.390   0.621   4.672
 9342SOL    HW228926   2.490   0.651   4.797
 9343SOL     OW28927   4.924   3.488   1.934
 9343SOL    HW128928   4.862   3.553   1.890
 9343SOL    HW228929   4.959   3.424   1.866
 9344SOL     OW28930   4.941   5.842   6.824
 9344SOL    HW128931   4.990   5.798   6.750
 9344SOL    HW228932   4.842   5.832   6.810
 9345SOL     OW28933   0.032   4.471   1.345
 9345SOL    HW128934   6.977   4.497   1.391
 9345SOL    HW228935   0.022   4.486   1.247
 9346SOL     OW28936   5.174   6.893   1.949
 9346SOL    HW128937   5.261   6.908   1.997
 9346SOL    HW228938   5.181   6.810   1.894
 9347SOL     OW28939   3.235   5.644   0.663
 9347SOL    HW128940   3.231   5.544   0.657
 9347SOL    HW228941   3.156   5.678   0.714
 9348SOL     OW28942   2.536   5.368   2.866
 9348SOL    HW128943   2.502   5.357   2.772
 9348SOL    HW228944   2.619   5.423   2.865
 9349SOL     OW28945   6.562   6.015   2.180
 9349SOL    HW128946   6.522   5.939   2.232
 9349SOL    HW228947   6.539   6.003   2.083
 9350SOL     OW28948   0.208   2.033   4.107
 9350SOL    HW128949   0.157   1.986   4.035
 9350SOL    HW228950   0.261   1.966   4.159
 9351SOL     OW28951   2.360   0.530   6.160
 9351SOL    HW128952   2.283   0.474   6.128
 9351SOL    HW228953   2.375   0.513   6.257
 9352SOL     OW28954   2.962   3.158   5.845
 9352SOL    HW128955   2.905   3.109   5.780
 9352SOL    HW228956   2.909   3.232   5.887
 9353SOL     OW28957   1.755   3.842   1.689
 9353SOL    HW128958   1.789   3.925   1.734
 9353SOL    HW228959   1.658   3.830   1.712
 9354SOL     OW28960   6.508   1.884   0.506
 9354SOL    HW128961   6.459   1.966   0.536
 9354SOL    HW228962   6.563   1.907   0.425
 9355SOL     OW28963   6.302   1.505   4.304
 9355SOL    HW128964   6.348   1.480   4.390
 9355SOL    HW228965   6.317   1.602   4.285
 9356SOL     OW28966   4.280   5.268   1.438
 9356SOL    HW128967   4.310   5.344   1.380
 9356SOL    HW228968   4.301   5.182   1.393
 9357SOL     OW28969   3.251   3.382   6.383
 9357SOL    HW128970   3.194   3.301   6.375
 9357SOL    HW228971   3.288   3.388   6.477
 9358SOL     OW28972   6.311   3.774   2.277
 9358SOL    HW128973   6.407   3.749   2.292
 9358SOL    HW228974   6.297   3.869   2.302
 9359SOL     OW28975   1.081   3.595   5.898
 9359SOL    HW128976   1.003   3.553   5.852
 9359SOL    HW228977   1.166   3.556   5.862
 9360SOL     OW28978   0.850   6.975   5.958
 9360SOL    HW128979   0.917   6.902   5.967
 9360SOL    HW228980   0.897   0.033   5.949
 9361SOL     OW28981   2.614   6.164   3.699
 9361SOL    HW128982   2.649   6.113   3.620
 9361SOL    HW228983   2.616   6.262   3.679
 9362SOL     OW28984   1.175   1.877   1.933
 9362SOL    HW128985   1.137   1.802   1.987
 9362SOL    HW228986   1.275   1.876   1.939
 9363SOL     OW28987   4.238   5.367   1.715
 9363SOL    HW128988   4.190   5.287   1.751
 9363SOL    HW228989   4.244   5.361   1.616
 9364SOL     OW28990   4.494   3.312   5.955
 9364SOL    HW128991   4.592   3.296   5.968
 9364SOL    HW228992   4.442   3.245   6.008
 9365SOL     OW28993   2.807   2.174   5.330
 9365SOL    HW128994   2.786   2.271   5.320
 9365SOL    HW228995   2.738   2.120   5.281
 9366SOL     OW28996   2.872   0.940   0.030
 9366SOL    HW128997   2.789   0.959   0.083
 9366SOL    HW228998   2.911   0.853   0.060
 9367SOL     OW28999   0.183   5.858   3.265
 9367SOL    HW129000   0.249   5.784   3.250
 9367SOL    HW229001   0.229   5.933   3.312
 9368SOL     OW29002   2.518   1.928   3.438
 9368SOL    HW129003   2.455   1.910   3.362
 9368SOL    HW229004   2.606   1.959   3.402
 9369SOL     OW29005   0.091   0.705   5.506
 9369SOL    HW129006   0.094   0.685   5.604
 9369SOL    HW229007   0.176   0.675   5.463
 9370SOL     OW29008   4.825   0.578   2.481
 9370SOL    HW129009   4.852   0.672   2.501
 9370SOL    HW229010   4.869   0.516   2.546
 9371SOL     OW29011   2.526   5.007   0.816
 9371SOL    HW129012   2.583   4.955   0.879
 9371SOL    HW229013   2.434   5.018   0.856
 9372SOL     OW29014   5.486   6.142   3.252
 9372SOL    HW129015   5.491   6.055   3.204
 9372SOL    HW229016   5.547   6.141   3.331
 9373SOL     OW29017   4.057   2.147   2.534
 9373SOL    HW129018   3.960   2.133   2.511
 9373SOL    HW229019   4.070   2.135   2.632
 9374SOL     OW29020   0.100   3.554   0.585
 9374SOL    HW129021   0.007   3.569   0.620
 9374SOL    HW229022   0.165   3.602   0.643
 9375SOL     OW29023   6.209   1.643   3.085
 9375SOL    HW129024   6.134   1.709   3.090
 9375SOL    HW229025   6.197   1.584   3.005
 9376SOL     OW29026   2.796   4.232   1.253
 9376SOL    HW129027   2.809   4.148   1.306
 9376SOL    HW229028   2.725   4.288   1.295
 9377SOL     OW29029   1.903   5.584   3.869
 9377SOL    HW129030   1.827   5.638   3.907
 9377SOL    HW229031   1.918   5.610   3.774
 9378SOL     OW29032   1.000   0.408   5.471
 9378SOL    HW129033   0.945   0.329   5.442
 9378SOL    HW229034   0.973   0.435   5.563
 9379SOL     OW29035   4.840   5.373   5.350
 9379SOL    HW129036   4.788   5.443   5.301
 9379SOL    HW229037   4.923   5.413   5.388
 9380SOL     OW29038   5.554   4.656   4.924
 9380SOL    HW129039   5.650   4.629   4.923
 9380SOL    HW229040   5.499   4.582   4.964
 9381SOL     OW29041   2.774   2.914   5.984
 9381SOL    HW129042   2.826   2.908   6.069
 9381SOL    HW229043   2.703   2.983   5.993
 9382SOL     OW29044   3.099   1.226   3.439
 9382SOL    HW129045   3.144   1.260   3.357
 9382SOL    HW229046   3.168   1.201   3.507
 9383SOL     OW29047   1.738   5.916   4.718
 9383SOL    HW129048   1.745   5.990   4.784
 9383SOL    HW229049   1.802   5.933   4.642
 9384SOL     OW29050   3.121   6.004   1.671
 9384SOL    HW129051   3.111   5.967   1.763
 9384SOL    HW229052   3.168   5.937   1.613
 9385SOL     OW29053   4.204   0.814   3.291
 9385SOL    HW129054   4.149   0.757   3.352
 9385SOL    HW229055   4.299   0.783   3.293
 9386SOL     OW29056   2.676   6.163   4.424
 9386SOL    HW129057   2.771   6.193   4.416
 9386SOL    HW229058   2.673   6.064   4.438
 9387SOL     OW29059   3.112   1.866   0.170
 9387SOL    HW129060   3.050   1.812   0.113
 9387SOL    HW229061   3.089   1.963   0.162
 9388SOL     OW29062   1.866   5.452   2.927
 9388SOL    HW129063   1.849   5.486   2.834
 9388SOL    HW229064   1.908   5.362   2.922
 9389SOL     OW29065   1.387   6.629   5.307
 9389SOL    HW129066   1.314   6.666   5.364
 9389SOL    HW229067   1.473   6.629   5.358
 9390SOL     OW29068   3.702   5.005   4.829
 9390SOL    HW129069   3.604   5.003   4.846
 9390SOL    HW229070   3.726   4.940   4.757
 9391SOL     OW29071   2.319   0.793   5.050
 9391SOL    HW129072   2.409   0.789   5.006
 9391SOL    HW229073   2.248   0.769   4.984
 9392SOL     OW29074   6.919   0.333   4.984
 9392SOL    HW129075   6.996   0.387   4.950
 9392SOL    HW229076   6.951   0.243   5.012
 9393SOL     OW29077   2.589   6.763   5.130
 9393SOL    HW129078   2.657   6.792   5.063
 9393SOL    HW229079   2.542   6.843   5.167
 9394SOL     OW29080   0.249   1.633   2.136
 9394SOL    HW129081   0.347   1.620   2.152
 9394SOL    HW229082   0.202   1.642   2.224
 9395SOL     OW29083   2.411   1.485   0.196
 9395SOL    HW129084   2.506   1.493   0.224
 9395SOL    HW229085   2.404   1.490   0.097
 9396SOL     OW29086   1.756   5.432   3.602
 9396SOL    HW129087   1.714   5.441   3.512
 9396SOL    HW229088   1.804   5.516   3.626
 9397SOL     OW29089   3.185   0.471   0.050
 9397SOL    HW129090   3.207   0.377   0.076
 9397SOL    HW229091   3.161   0.475   6.983
 9398SOL     OW29092   0.523   0.275   5.593
 9398SOL    HW129093   0.496   0.366   5.563
 9398SOL    HW229094   0.445   0.228   5.632
 9399SOL     OW29095   6.636   2.019   6.689
 9399SOL    HW129096   6.714   2.041   6.747
 9399SOL    HW229097   6.617   2.095   6.628
 9400SOL     OW29098   4.182   1.493   1.835
 9400SOL    HW129099   4.131   1.542   1.906
 9400SOL    HW229100   4.271   1.538   1.821
 9401SOL     OW29101   5.309   6.957   3.516
 9401SOL    HW129102   5.221   6.999   3.539
 9401SOL    HW229103   5.370   7.026   3.477
 9402SOL     OW29104   1.274   4.577   3.661
 9402SOL    HW129105   1.194   4.576   3.721
 9402SOL    HW229106   1.263   4.506   3.591
 9403SOL     OW29107   6.147   1.678   2.575
 9403SOL    HW129108   6.087   1.704   2.499
 9403SOL    HW229109   6.098   1.689   2.661
 9404SOL     OW29110   1.246   3.451   6.267
 9404SOL    HW129111   1.215   3.374   6.323
 9404SOL    HW229112   1.166   3.504   6.237
 9405SOL     OW29113   1.130   5.521   2.165
 9405SOL    HW129114   1.162   5.588   2.099
 9405SOL    HW229115   1.073   5.454   2.118
 9406SOL     OW29116   6.735   2.580   5.921
 9406SOL    HW129117   6.746   2.579   5.822
 9406SOL    HW229118   6.684   2.662   5.948
 9407SOL     OW29119   2.735   5.324   3.428
 9407SOL    HW129120   2.797   5.246   3.436
 9407SOL    HW229121   2.739   5.361   3.335
 9408SOL     OW29122   4.182   2.188   6.564
 9408SOL    HW129123   4.266   2.142   6.593
 9408SOL    HW229124   4.123   2.122   6.518
 9409SOL     OW29125   6.163   4.500   6.715
 9409SOL    HW129126   6.106   4.528   6.792
 9409SOL    HW229127   6.124   4.534   6.630
 9410SOL     OW29128   3.191   6.214   1.867
 9410SOL    HW129129   3.109   6.236   1.814
 9410SOL    HW229130   3.272   6.251   1.821
 9411SOL     OW29131   3.547   3.465   2.156
 9411SOL    HW129132   3.474   3.410   2.115
 9411SOL    HW229133   3.528   3.477   2.253
 9412SOL     OW29134   0.367   2.908   1.687
 9412SOL    HW129135   0.298   2.925   1.758
 9412SOL    HW229136   0.323   2.903   1.598
 9413SOL     OW29137   3.192   5.955   4.100
 9413SOL    HW129138   3.112   5.935   4.043
 9413SOL    HW229139   3.262   6.002   4.044
 9414SOL     OW29140   2.795   0.773   3.350
 9414SOL    HW129141   2.842   0.747   3.265
 9414SOL    HW229142   2.789   0.694   3.410
 9415SOL     OW29143   2.597   0.043   1.641
 9415SOL    HW129144   2.683   0.093   1.655
 9415SOL    HW229145   2.617   6.982   1.604
 9416SOL     OW29146   0.522   1.921   0.812
 9416SOL    HW129147   0.621   1.918   0.798
 9416SOL    HW229148   0.502   1.919   0.910
 9417SOL     OW29149   3.630   6.534   5.741
 9417SOL    HW129150   3.713   6.507   5.692
 9417SOL    HW229151   3.642   6.519   5.839
 9418SOL     OW29152   4.004   6.256   1.339
 9418SOL    HW129153   3.993   6.161   1.370
 9418SOL    HW229154   3.918   6.289   1.301
 9419SOL     OW29155   3.435   5.559   5.720
 9419SOL    HW129156   3.470   5.606   5.802
 9419SOL    HW229157   3.510   5.510   5.676
 9420SOL     OW29158   6.628   3.054   5.033
 9420SOL    HW129159   6.542   3.004   5.021
 9420SOL    HW229160   6.703   2.999   4.997
 9421SOL     OW29161   2.088   6.843   4.673
 9421SOL    HW129162   2.184   6.816   4.667
 9421SOL    HW229163   2.031   6.761   4.679
 9422SOL     OW29164   5.034   6.182   3.076
 9422SOL    HW129165   5.035   6.225   3.166
 9422SOL    HW229166   5.031   6.083   3.085
 9423SOL     OW29167   3.895   0.510   3.830
 9423SOL    HW129168   3.897   0.461   3.917
 9423SOL    HW229169   3.801   0.537   3.808
 9424SOL     OW29170   4.906   0.494   4.840
 9424SOL    HW129171   4.927   0.400   4.815
 9424SOL    HW229172   4.990   0.543   4.860
 9425SOL     OW29173   6.131   3.288   6.919
 9425SOL    HW129174   6.162   3.260   6.828
 9425SOL    HW229175   6.047   3.342   6.910
 9426SOL     OW29176   3.335   2.222   0.223
 9426SOL    HW129177   3.340   2.247   0.126
 9426SOL    HW229178   3.239   2.221   0.252
 9427SOL     OW29179   2.827   5.832   4.296
 9427SOL    HW129180   2.925   5.835   4.273
 9427SOL    HW229181   2.812   5.765   4.369
 9428SOL     OW29182   5.838   0.897   1.152
 9428SOL    HW129183   5.872   0.803   1.157
 9428SOL    HW229184   5.910   0.959   1.183
 9429SOL     OW29185   2.114   3.254   2.069
 9429SOL    HW129186   2.020   3.277   2.043
 9429SOL    HW229187   2.177   3.320   2.029
 9430SOL     OW29188   0.422   4.432   2.487
 9430SOL    HW129189   0.367   4.350   2.474
 9430SOL    HW229190   0.462   4.432   2.579
 9431SOL     OW29191   5.816   4.227   1.698
 9431SOL    HW129192   5.793   4.248   1.794
 9431SOL    HW229193   5.886   4.290   1.666
 9432SOL     OW29194   4.165   0.360   3.731
 9432SOL    HW129195   4.085   0.301   3.744
 9432SOL    HW229196   4.203   0.385   3.820
 9433SOL     OW29197   3.526   5.067   3.305
 9433SOL    HW129198   3.438   5.026   3.330
 9433SOL    HW229199   3.586   4.997   3.267
 9434SOL     OW29200   5.284   5.336   3.746
 9434SOL    HW129201   5.297   5.304   3.652
 9434SOL    HW229202   5.288   5.257   3.808
 9435SOL     OW29203   0.801   2.777   4.548
 9435SOL    HW129204   0.750   2.862   4.541
 9435SOL    HW229205   0.813   2.753   4.645
 9436SOL     OW29206   1.148   2.790   1.869
 9436SOL    HW129207   1.228   2.770   1.926
 9436SOL    HW229208   1.076   2.830   1.927
 9437SOL     OW29209   2.286   6.316   3.335
 9437SOL    HW129210   2.363   6.266   3.376
 9437SOL    HW229211   2.230   6.356   3.407
 9438SOL     OW29212   0.098   0.177   1.850
 9438SOL    HW129213   0.056   0.189   1.760
 9438SOL    HW229214   0.198   0.184   1.842
 9439SOL     OW29215   0.297   3.283   1.671
 9439SOL    HW129216   0.277   3.380   1.669
 9439SOL    HW229217   0.320   3.255   1.764
 9440SOL     OW29218   3.770   4.929   3.636
 9440SOL    HW129219   3.844   4.864   3.620
 9440SOL    HW229220   3.779   5.006   3.573
 9441SOL     OW29221   1.178   3.430   5.193
 9441SOL    HW129222   1.166   3.529   5.191
 9441SOL    HW229223   1.163   3.393   5.101
 9442SOL     OW29224   4.585   3.510   0.168
 9442SOL    HW129225   4.630   3.421   0.170
 9442SOL    HW229226   4.631   3.572   0.231
 9443SOL     OW29227   2.667   5.521   1.122
 9443SOL    HW129228   2.588   5.522   1.184
 9443SOL    HW229229   2.704   5.428   1.117
 9444SOL     OW29230   1.875   3.942   6.755
 9444SOL    HW129231   1.851   3.849   6.726
 9444SOL    HW229232   1.970   3.962   6.731
 9445SOL     OW29233   5.621   3.436   3.136
 9445SOL    HW129234   5.563   3.390   3.203
 9445SOL    HW229235   5.592   3.531   3.125
 9446SOL     OW29236   6.156   6.166   4.259
 9446SOL    HW129237   6.101   6.250   4.261
 9446SOL    HW229238   6.095   6.087   4.264
 9447SOL     OW29239   5.998   3.548   4.563
 9447SOL    HW129240   6.078   3.517   4.513
 9447SOL    HW229241   6.003   3.516   4.658
 9448SOL     OW29242   0.136   6.635   6.879
 9448SOL    HW129243   0.133   6.661   6.783
 9448SOL    HW229244   0.047   6.596   6.905
 9449SOL     OW29245   6.758   5.607   0.138
 9449SOL    HW129246   6.771   5.625   0.235
 9449SOL    HW229247   6.697   5.529   0.126
 9450SOL     OW29248   2.777   5.650   5.341
 9450SOL    HW129249   2.684   5.618   5.359
 9450SOL    HW229250   2.779   5.700   5.254
 9451SOL     OW29251   4.223   6.194   6.022
 9451SOL    HW129252   4.205   6.285   5.985
 9451SOL    HW229253   4.293   6.149   5.967
 9452SOL     OW29254   1.771   3.886   0.478
 9452SOL    HW129255   1.868   3.907   0.491
 9452SOL    HW229256   1.759   3.840   0.390
 9453SOL     OW29257   1.848   4.841   3.068
 9453SOL    HW129258   1.781   4.805   3.133
 9453SOL    HW229259   1.903   4.912   3.113
 9454SOL     OW29260   2.974   3.603   6.666
 9454SOL    HW129261   3.013   3.638   6.580
 9454SOL    HW229262   3.013   3.654   6.743
 9455SOL     OW29263   3.590   1.802   3.089
 9455SOL    HW129264   3.653   1.846   3.025
 9455SOL    HW229265   3.624   1.712   3.114
 9456SOL     OW29266   1.369   3.627   1.222
 9456SOL    HW129267   1.412   3.635   1.312
 9456SOL    HW229268   1.279   3.670   1.224
 9457SOL     OW29269   2.176   3.751   5.068
 9457SOL    HW129270   2.119   3.740   4.986
 9457SOL    HW229271   2.240   3.827   5.054
 9458SOL     OW29272   1.568   3.431   0.144
 9458SOL    HW129273   1.547   3.473   0.056
 9458SOL    HW229274   1.557   3.332   0.137
 9459SOL     OW29275   5.011   4.700   3.344
 9459SOL    HW129276   5.067   4.780   3.323
 9459SOL    HW229277   5.060   4.617   3.314
 9460SOL     OW29278   0.656   2.165   4.142
 9460SOL    HW129279   0.739   2.213   4.169
 9460SOL    HW229280   0.579   2.200   4.195
 9461SOL     OW29281   6.203   1.509   2.354
 9461SOL    HW129282   6.216   1.416   2.387
 9461SOL    HW229283   6.178   1.569   2.431
 9462SOL     OW29284   2.078   3.439   2.833
 9462SOL    HW129285   1.983   3.469   2.822
 9462SOL    HW229286   2.100   3.372   2.762
 9463SOL     OW29287   0.049   0.854   2.055
 9463SOL    HW129288   0.072   0.888   1.964
 9463SOL    HW229289   0.133   0.836   2.106
 9464SOL     OW29290   6.279   0.588   1.348
 9464SOL    HW129291   6.377   0.602   1.359
 9464SOL    HW229292   6.242   0.542   1.428
 9465SOL     OW29293   1.480   5.399   2.968
 9465SOL    HW129294   1.491   5.324   3.033
 9465SOL    HW229295   1.570   5.431   2.939
 9466SOL     OW29296   4.518   4.660   5.895
 9466SOL    HW129297   4.499   4.657   5.797
 9466SOL    HW229298   4.584   4.732   5.914
 9467SOL     OW29299   0.596   2.309   1.462
 9467SOL    HW129300   0.581   2.246   1.538
 9467SOL    HW229301   0.671   2.371   1.483
 9468SOL     OW29302   6.182   2.548   5.620
 9468SOL    HW129303   6.253   2.505   5.677
 9468SOL    HW229304   6.152   2.633   5.664
 9469SOL     OW29305   6.226   6.241   1.505
 9469SOL    HW129306   6.298   6.184   1.465
 9469SOL    HW229307   6.221   6.328   1.456
 9470SOL     OW29308   4.398   3.855   5.303
 9470SOL    HW129309   4.422   3.776   5.360
 9470SOL    HW229310   4.478   3.912   5.289
 9471SOL     OW29311   6.405   1.763   4.317
 9471SOL    HW129312   6.494   1.772   4.362
 9471SOL    HW229313   6.339   1.823   4.362
 9472SOL     OW29314   5.667   3.424   4.625
 9472SOL    HW129315   5.714   3.490   4.566
 9472SOL    HW229316   5.602   3.473   4.683
 9473SOL     OW29317   2.650   5.409   5.522
 9473SOL    HW129318   2.750   5.416   5.530
 9473SOL    HW229319   2.607   5.485   5.572
 9474SOL     OW29320   0.276   3.052   0.391
 9474SOL    HW129321   0.262   3.024   0.486
 9474SOL    HW229322   0.242   3.145   0.378
 9475SOL     OW29323   3.378   3.628   6.632
 9475SOL    HW129324   3.463   3.658   6.587
 9475SOL    HW229325   3.380   3.529   6.642
 9476SOL     OW29326   2.907   3.628   5.022
 9476SOL    HW129327   3.000   3.601   5.048
 9476SOL    HW229328   2.866   3.556   4.965
 9477SOL     OW29329   0.627   3.656   2.057
 9477SOL    HW129330   0.718   3.675   2.021
 9477SOL    HW229331   0.567   3.627   1.983
 9478SOL     OW29332   5.440   3.266   6.870
 9478SOL    HW129333   5.448   3.182   6.923
 9478SOL    HW229334   5.385   3.249   6.789
 9479SOL     OW29335   4.434   6.224   6.644
 9479SOL    HW129336   4.414   6.126   6.645
 9479SOL    HW229337   4.467   6.252   6.734
 9480SOL     OW29338   4.977   3.823   0.963
 9480SOL    HW129339   4.925   3.749   0.920
 9480SOL    HW229340   5.001   3.891   0.894
 9481SOL     OW29341   5.146   3.723   2.272
 9481SOL    HW129342   5.136   3.682   2.182
 9481SOL    HW229343   5.148   3.651   2.341
 9482SOL     OW29344   6.938   0.774   3.346
 9482SOL    HW129345   6.880   0.847   3.381
 9482SOL    HW229346   6.997   0.739   3.419
 9483SOL     OW29347   0.809   1.525   1.894
 9483SOL    HW129348   0.819   1.481   1.805
 9483SOL    HW229349   0.880   1.492   1.956
 9484SOL     OW29350   3.237   0.888   3.755
 9484SOL    HW129351   3.282   0.908   3.842
 9484SOL    HW229352   3.270   0.801   3.720
 9485SOL     OW29353   0.652   0.177   1.636
 9485SOL    HW129354   0.685   0.089   1.601
 9485SOL    HW229355   0.599   0.222   1.564
 9486SOL     OW29356   2.946   6.120   1.260
 9486SOL    HW129357   2.855   6.159   1.251
 9486SOL    HW229358   3.014   6.189   1.233
 9487SOL     OW29359   3.247   3.057   3.307
 9487SOL    HW129360   3.192   3.021   3.232
 9487SOL    HW229361   3.215   3.149   3.331
 9488SOL     OW29362   1.341   6.290   0.830
 9488SOL    HW129363   1.290   6.228   0.890
 9488SOL    HW229364   1.295   6.380   0.828
 9489SOL     OW29365   4.460   4.307   1.298
 9489SOL    HW129366   4.422   4.399   1.305
 9489SOL    HW229367   4.558   4.310   1.317
 9490SOL     OW29368   0.047   5.512   0.921
 9490SOL    HW129369   0.028   5.516   1.019
 9490SOL    HW229370   0.035   5.419   0.887
 9491SOL     OW29371   6.754   4.330   4.059
 9491SOL    HW129372   6.793   4.421   4.075
 9491SOL    HW229373   6.752   4.279   4.145
 9492SOL     OW29374   3.433   2.883   3.078
 9492SOL    HW129375   3.388   2.856   3.163
 9492SOL    HW229376   3.528   2.909   3.097
 9493SOL     OW29377   3.603   5.320   4.088
 9493SOL    HW129378   3.638   5.363   4.005
 9493SOL    HW229379   3.503   5.326   4.090
 9494SOL     OW29380   4.727   4.644   1.864
 9494SOL    HW129381   4.824   4.647   1.839
 9494SOL    HW229382   4.693   4.551   1.850
 9495SOL     OW29383   6.513   1.869   3.391
 9495SOL    HW129384   6.529   1.779   3.432
 9495SOL    HW229385   6.577   1.883   3.316
 9496SOL     OW29386   6.227   5.032   1.385
 9496SOL    HW129387   6.274   5.068   1.305
 9496SOL    HW229388   6.170   4.954   1.359
 9497SOL     OW29389   5.684   6.109   6.964
 9497SOL    HW129390   5.596   6.063   6.963
 9497SOL    HW229391   5.689   6.173   6.887
 9498SOL     OW29392   5.376   6.536   4.835
 9498SOL    HW129393   5.313   6.475   4.787
 9498SOL    HW229394   5.469   6.498   4.831
 9499SOL     OW29395   1.783   5.029   6.402
 9499SOL    HW129396   1.839   5.074   6.472
 9499SOL    HW229397   1.796   5.076   6.315
 9500SOL     OW29398   5.511   0.629   0.754
 9500SOL    HW129399   5.503   0.593   0.847
 9500SOL    HW229400   5.585   0.581   0.707
 9501SOL     OW29401   3.172   1.284   5.031
 9501SOL    HW129402   3.174   1.257   5.128
 9501SOL    HW229403   3.082   1.265   4.993
 9502SOL     OW29404   6.897   2.541   5.196
 9502SOL    HW129405   6.970   2.580   5.251
 9502SOL    HW229406   6.914   2.444   5.181
 9503SOL     OW29407   0.294   1.619   1.593
 9503SOL    HW129408   0.293   1.663   1.503
 9503SOL    HW229409   0.215   1.650   1.645
 9504SOL     OW29410   6.855   2.323   1.115
 9504SOL    HW129411   6.889   2.245   1.168
 9504SOL    HW229412   6.757   2.312   1.098
 9505SOL     OW29413   5.653   4.752   3.292
 9505SOL    HW129414   5.742   4.746   3.338
 9505SOL    HW229415   5.617   4.660   3.278
 9506SOL     OW29416   0.570   2.445   6.265
 9506SOL    HW129417   0.670   2.433   6.261
 9506SOL    HW229418   0.548   2.542   6.263
 9507SOL     OW29419   1.107   1.939   2.906
 9507SOL    HW129420   1.073   2.002   2.836
 9507SOL    HW229421   1.037   1.871   2.926
 9508SOL     OW29422   6.761   3.769   1.247
 9508SOL    HW129423   6.711   3.831   1.308
 9508SOL    HW229424   6.695   3.709   1.200
 9509SOL     OW29425   0.388   0.896   5.135
 9509SOL    HW129426   0.320   0.935   5.073
 9509SOL    HW229427   0.425   0.969   5.194
 9510SOL     OW29428   1.332   3.739   2.303
 9510SOL    HW129429   1.251   3.681   2.297
 9510SOL    HW229430   1.330   3.789   2.390
 9511SOL     OW29431   0.209   1.149   0.292
 9511SOL    HW129432   0.186   1.226   0.351
 9511SOL    HW229433   0.128   1.093   0.277
 9512SOL     OW29434   5.823   1.494   1.401
 9512SOL    HW129435   5.874   1.492   1.487
 9512SOL    HW229436   5.737   1.542   1.414
 9513SOL     OW29437   1.870   3.380   6.332
 9513SOL    HW129438   1.913   3.289   6.331
 9513SOL    HW229439   1.791   3.378   6.394
 9514SOL     OW29440   2.041   4.587   6.386
 9514SOL    HW129441   2.123   4.539   6.417
 9514SOL    HW229442   1.960   4.535   6.412
 9515SOL     OW29443   1.528   6.453   1.601
 9515SOL    HW129444   1.441   6.486   1.638
 9515SOL    HW229445   1.596   6.447   1.674
 9516SOL     OW29446   5.299   4.211   4.761
 9516SOL    HW129447   5.368   4.266   4.713
 9516SOL    HW229448   5.338   4.121   4.782
 9517SOL     OW29449   0.778   4.544   1.171
 9517SOL    HW129450   0.809   4.543   1.267
 9517SOL    HW229451   0.841   4.490   1.115
 9518SOL     OW29452   1.467   1.286   0.263
 9518SOL    HW129453   1.553   1.323   0.228
 9518SOL    HW229454   1.436   1.342   0.340
 9519SOL     OW29455   3.440   4.188   4.350
 9519SOL    HW129456   3.420   4.110   4.409
 9519SOL    HW229457   3.526   4.172   4.302
 9520SOL     OW29458   0.976   1.312   3.283
 9520SOL    HW129459   1.015   1.320   3.191
 9520SOL    HW229460   1.049   1.288   3.347
 9521SOL     OW29461   4.812   5.172   1.431
 9521SOL    HW129462   4.755   5.110   1.377
 9521SOL    HW229463   4.762   5.258   1.445
 9522SOL     OW29464   4.225   4.878   1.512
 9522SOL    HW129465   4.135   4.920   1.500
 9522SOL    HW229466   4.286   4.909   1.439
 9523SOL     OW29467   2.684   4.955   4.604
 9523SOL    HW129468   2.666   4.859   4.585
 9523SOL    HW229469   2.752   4.963   4.677
 9524SOL     OW29470   2.900   3.228   0.605
 9524SOL    HW129471   2.891   3.150   0.667
 9524SOL    HW229472   2.880   3.312   0.656
 9525SOL     OW29473   2.230   2.059   6.096
 9525SOL    HW129474   2.254   2.020   6.007
 9525SOL    HW229475   2.138   2.029   6.122
 9526SOL     OW29476   6.103   4.764   1.313
 9526SOL    HW129477   6.158   4.743   1.233
 9526SOL    HW229478   6.009   4.784   1.285
 9527SOL     OW29479   0.758   1.052   4.371
 9527SOL    HW129480   0.842   1.015   4.331
 9527SOL    HW229481   0.767   1.151   4.382
 9528SOL     OW29482   6.917   1.954   1.032
 9528SOL    HW129483   6.905   2.031   1.095
 9528SOL    HW229484   6.997   1.900   1.060
 9529SOL     OW29485   6.393   3.329   6.213
 9529SOL    HW129486   6.479   3.284   6.188
 9529SOL    HW229487   6.350   3.279   6.288
 9530SOL     OW29488   1.941   2.897   3.304
 9530SOL    HW129489   2.001   2.818   3.296
 9530SOL    HW229490   1.995   2.981   3.300
 9531SOL     OW29491   5.133   4.824   2.546
 9531SOL    HW129492   5.066   4.783   2.608
 9531SOL    HW229493   5.206   4.758   2.529
 9532SOL     OW29494   0.471   6.262   1.144
 9532SOL    HW129495   0.381   6.278   1.186
 9532SOL    HW229496   0.497   6.341   1.089
 9533SOL     OW29497   0.128   5.644   5.389
 9533SOL    HW129498   0.072   5.725   5.374
 9533SOL    HW229499   0.189   5.660   5.467
 9534SOL     OW29500   6.610   3.930   5.492
 9534SOL    HW129501   6.559   3.919   5.407
 9534SOL    HW229502   6.588   3.855   5.554
 9535SOL     OW29503   1.652   0.537   5.893
 9535SOL    HW129504   1.596   0.513   5.814
 9535SOL    HW229505   1.741   0.570   5.861
 9536SOL     OW29506   2.896   4.035   5.604
 9536SOL    HW129507   2.919   3.940   5.580
 9536SOL    HW229508   2.963   4.097   5.562
 9537SOL     OW29509   2.706   0.194   4.631
 9537SOL    HW129510   2.705   0.096   4.612
 9537SOL    HW229511   2.708   0.209   4.729
 9538SOL     OW29512   5.693   0.923   3.369
 9538SOL    HW129513   5.697   1.022   3.383
 9538SOL    HW229514   5.669   0.903   3.274
 9539SOL     OW29515   3.229   3.440   4.430
 9539SOL    HW129516   3.237   3.456   4.332
 9539SOL    HW229517   3.320   3.428   4.469
 9540SOL     OW29518   6.358   4.399   4.407
 9540SOL    HW129519   6.439   4.379   4.353
 9540SOL    HW229520   6.375   4.479   4.465
 9541SOL     OW29521   2.991   0.507   5.842
 9541SOL    HW129522   2.950   0.592   5.873
 9541SOL    HW229523   3.089   0.509   5.859
 9542SOL     OW29524   4.970   4.321   4.882
 9542SOL    HW129525   4.928   4.365   4.803
 9542SOL    HW229526   5.039   4.381   4.921
 9543SOL     OW29527   3.638   0.258   6.037
 9543SOL    HW129528   3.627   0.357   6.035
 9543SOL    HW229529   3.556   0.214   6.002
 9544SOL     OW29530   6.665   2.118   3.220
 9544SOL    HW129531   6.753   2.165   3.230
 9544SOL    HW229532   6.591   2.181   3.242
 9545SOL     OW29533   5.747   6.030   4.731
 9545SOL    HW129534   5.772   5.971   4.654
 9545SOL    HW229535   5.693   6.107   4.697
 9546SOL     OW29536   4.110   1.838   4.968
 9546SOL    HW129537   4.161   1.902   4.910
 9546SOL    HW229538   4.164   1.817   5.049
 9547SOL     OW29539   2.955   5.421   4.024
 9547SOL    HW129540   2.929   5.439   4.118
 9547SOL    HW229541   3.049   5.452   4.008
 9548SOL     OW29542   6.123   4.720   6.094
 9548SOL    HW129543   6.209   4.701   6.143
 9548SOL    HW229544   6.082   4.635   6.064
 9549SOL     OW29545   2.750   3.033   1.027
 9549SOL    HW129546   2.758   3.126   1.064
 9549SOL    HW229547   2.660   2.996   1.052
 9550SOL     OW29548   6.537   1.168   0.244
 9550SOL    HW129549   6.620   1.169   0.300
 9550SOL    HW229550   6.554   1.117   0.160
 9551SOL     OW29551   5.950   1.512   5.624
 9551SOL    HW129552   5.997   1.431   5.658
 9551SOL    HW229553   5.859   1.518   5.665
 9552SOL     OW29554   1.785   6.848   4.159
 9552SOL    HW129555   1.708   6.906   4.186
 9552SOL    HW229556   1.867   6.877   4.209
 9553SOL     OW29557   6.160   2.906   6.346
 9553SOL    HW129558   6.136   2.888   6.442
 9553SOL    HW229559   6.116   2.838   6.288
 9554SOL     OW29560   2.361   0.134   1.506
 9554SOL    HW129561   2.425   0.108   1.578
 9554SOL    HW229562   2.314   0.218   1.532
 9555SOL     OW29563   0.867   0.582   2.946
 9555SOL    HW129564   0.872   0.677   2.977
 9555SOL    HW229565   0.873   0.579   2.846
 9556SOL     OW29566   1.483   3.856   1.815
 9556SOL    HW129567   1.409   3.864   1.749
 9556SOL    HW229568   1.494   3.760   1.842
 9557SOL     OW29569   0.100   6.249   1.952
 9557SOL    HW129570   0.180   6.307   1.968
 9557SOL    HW229571   0.126   6.152   1.961
 9558SOL     OW29572   6.306   6.272   4.873
 9558SOL    HW129573   6.244   6.202   4.838
 9558SOL    HW229574   6.359   6.311   4.798
 9559SOL     OW29575   0.502   4.412   1.331
 9559SOL    HW129576   0.489   4.416   1.430
 9559SOL    HW229577   0.416   4.435   1.285
 9560SOL     OW29578   1.757   1.721   3.202
 9560SOL    HW129579   1.764   1.814   3.236
 9560SOL    HW229580   1.819   1.661   3.253
 9561SOL     OW29581   2.221   0.254   0.558
 9561SOL    HW129582   2.187   0.229   0.649
 9561SOL    HW229583   2.192   0.348   0.537
 9562SOL     OW29584   2.480   0.426   5.313
 9562SOL    HW129585   2.448   0.451   5.404
 9562SOL    HW229586   2.416   0.460   5.244
 9563SOL     OW29587   6.354   6.283   0.368
 9563SOL    HW129588   6.308   6.211   0.316
 9563SOL    HW229589   6.438   6.247   0.408
 9564SOL     OW29590   2.818   0.120   0.593
 9564SOL    HW129591   2.770   0.204   0.616
 9564SOL    HW229592   2.815   0.107   0.494
 9565SOL     OW29593   3.543   0.052   4.605
 9565SOL    HW129594   3.614   7.016   4.579
 9565SOL    HW229595   3.567   0.096   4.691
 9566SOL     OW29596   1.857   4.804   0.018
 9566SOL    HW129597   1.841   4.902   0.006
 9566SOL    HW229598   1.849   4.758   6.960
 9567SOL     OW29599   5.299   4.762   0.971
 9567SOL    HW129600   5.241   4.754   1.053
 9567SOL    HW229601   5.324   4.858   0.957
 9568SOL     OW29602   4.092   2.242   6.802
 9568SOL    HW129603   4.111   2.223   6.705
 9568SOL    HW229604   4.161   2.304   6.837
 9569SOL     OW29605   0.166   1.637   2.394
 9569SOL    HW129606   0.125   1.583   2.468
 9569SOL    HW229607   0.214   1.716   2.433
 9570SOL     OW29608   0.908   3.241   2.136
 9570SOL    HW129609   0.828   3.222   2.192
 9570SOL    HW229610   0.927   3.339   2.137
 9571SOL     OW29611   3.912   4.196   5.921
 9571SOL    HW129612   4.009   4.172   5.916
 9571SOL    HW229613   3.863   4.152   5.846
 9572SOL     OW29614   2.386   5.167   1.417
 9572SOL    HW129615   2.387   5.146   1.515
 9572SOL    HW229616   2.468   5.130   1.374
 9573SOL     OW29617   0.700   2.125   6.570
 9573SOL    HW129618   0.687   2.224   6.580
 9573SOL    HW229619   0.622   2.077   6.610
 9574SOL     OW29620   4.136   3.390   3.443
 9574SOL    HW129621   4.058   3.451   3.456
 9574SOL    HW229622   4.198   3.429   3.375
 9575SOL     OW29623   0.279   1.426   1.343
 9575SOL    HW129624   0.362   1.385   1.381
 9575SOL    HW229625   0.283   1.425   1.243
 9576SOL     OW29626   1.899   0.590   2.078
 9576SOL    HW129627   1.867   0.538   1.999
 9576SOL    HW229628   1.821   0.625   2.129
 9577SOL     OW29629   1.215   0.604   6.033
 9577SOL    HW129630   1.125   0.572   6.064
 9577SOL    HW229631   1.273   0.622   6.113
 9578SOL     OW29632   0.729   4.229   3.776
 9578SOL    HW129633   0.658   4.162   3.756
 9578SOL    HW229634   0.730   4.249   3.874
 9579SOL     OW29635   1.589   5.285   2.594
 9579SOL    HW129636   1.605   5.200   2.644
 9579SOL    HW229637   1.616   5.272   2.498
 9580SOL     OW29638   4.723   3.074   0.710
 9580SOL    HW129639   4.750   3.054   0.804
 9580SOL    HW229640   4.764   3.006   0.649
 9581SOL     OW29641   0.228   5.602   6.175
 9581SOL    HW129642   0.244   5.534   6.247
 9581SOL    HW229643   0.233   5.558   6.086
 9582SOL     OW29644   4.862   5.361   6.312
 9582SOL    HW129645   4.800   5.438   6.323
 9582SOL    HW229646   4.955   5.388   6.339
 9583SOL     OW29647   3.899   4.170   0.960
 9583SOL    HW129648   3.870   4.112   0.885
 9583SOL    HW229649   3.988   4.211   0.939
 9584SOL     OW29650   6.644   5.382   0.079
 9584SOL    HW129651   6.614   5.339   7.024
 9584SOL    HW229652   6.566   5.401   0.138
 9585SOL     OW29653   6.508   0.843   4.639
 9585SOL    HW129654   6.446   0.916   4.666
 9585SOL    HW229655   6.497   0.765   4.700
 9586SOL     OW29656   5.547   4.736   2.619
 9586SOL    HW129657   5.515   4.784   2.537
 9586SOL    HW229658   5.635   4.692   2.601
 9587SOL     OW29659   6.727   1.172   2.027
 9587SOL    HW129660   6.762   1.261   1.997
 9587SOL    HW229661   6.641   1.152   1.979
 9588SOL     OW29662   6.661   1.314   1.739
 9588SOL    HW129663   6.673   1.218   1.715
 9588SOL    HW229664   6.569   1.344   1.714
 9589SOL     OW29665   2.384   4.986   5.779
 9589SOL    HW129666   2.381   5.082   5.806
 9589SOL    HW229667   2.353   4.929   5.855
 9590SOL     OW29668   6.568   3.535   1.790
 9590SOL    HW129669   6.650   3.590   1.809
 9590SOL    HW229670   6.529   3.503   1.876
 9591SOL     OW29671   3.570   6.489   6.274
 9591SOL    HW129672   3.616   6.429   6.340
 9591SOL    HW229673   3.495   6.537   6.319
 9592SOL     OW29674   3.864   3.937   0.785
 9592SOL    HW129675   3.854   3.888   0.699
 9592SOL    HW229676   3.957   3.926   0.820
 9593SOL     OW29677   6.967   1.234   5.181
 9593SOL    HW129678   7.015   1.196   5.102
 9593SOL    HW229679   6.905   1.165   5.218
 9594SOL     OW29680   1.220   6.292   3.186
 9594SOL    HW129681   1.186   6.200   3.164
 9594SOL    HW229682   1.311   6.304   3.145
 9595SOL     OW29683   1.017   4.181   5.144
 9595SOL    HW129684   1.054   4.137   5.063
 9595SOL    HW229685   0.936   4.234   5.119
 9596SOL     OW29686   0.185   5.586   6.852
 9596SOL    HW129687   0.276   5.557   6.881
 9596SOL    HW229688   0.156   5.665   6.906
 9597SOL     OW29689   0.639   4.641   1.479
 9597SOL    HW129690   0.652   4.589   1.564
 9597SOL    HW229691   0.604   4.580   1.408
 9598SOL     OW29692   0.972   3.392   4.262
 9598SOL    HW129693   1.011   3.464   4.204
 9598SOL    HW229694   1.025   3.308   4.252
 9599SOL     OW29695   3.627   6.605   4.825
 9599SOL    HW129696   3.650   6.652   4.740
 9599SOL    HW229697   3.622   6.506   4.808
 9600SOL     OW29698   2.325   0.334   6.704
 9600SOL    HW129699   2.295   0.239   6.711
 9600SOL    HW229700   2.307   0.381   6.790
 9601SOL     OW29701   5.339   3.757   1.663
 9601SOL    HW129702   5.285   3.673   1.665
 9601SOL    HW229703   5.368   3.776   1.569
 9602SOL     OW29704   6.894   4.997   6.545
 9602SOL    HW129705   6.932   4.970   6.633
 9602SOL    HW229706   6.941   4.948   6.472
 9603SOL     OW29707   3.798   1.790   4.314
 9603SOL    HW129708   3.798   1.700   4.271
 9603SOL    HW229709   3.704   1.819   4.332
 9604SOL     OW29710   4.282   0.379   6.966
 9604SOL    HW129711   4.316   0.418   0.022
 9604SOL    HW229712   4.187   0.350   6.979
 9605SOL     OW29713   0.748   5.515   3.548
 9605SOL    HW129714   0.814   5.508   3.624
 9605SOL    HW229715   0.678   5.581   3.571
 9606SOL     OW29716   2.288   6.558   6.259
 9606SOL    HW129717   2.288   6.553   6.159
 9606SOL    HW229718   2.237   6.480   6.296
 9607SOL     OW29719   1.423   1.408   0.676
 9607SOL    HW129720   1.348   1.422   0.741
 9607SOL    HW229721   1.510   1.421   0.723
 9608SOL     OW29722   6.671   6.469   2.240
 9608SOL    HW129723   6.633   6.501   2.327
 9608SOL    HW229724   6.712   6.378   2.254
 9609SOL     OW29725   2.176   4.143   6.469
 9609SOL    HW129726   2.242   4.189   6.528
 9609SOL    HW229727   2.195   4.165   6.374
 9610SOL     OW29728   1.972   5.169   3.983
 9610SOL    HW129729   1.879   5.178   4.017
 9610SOL    HW229730   2.030   5.239   4.026
 9611SOL     OW29731   0.009   6.474   6.497
 9611SOL    HW129732   0.042   6.472   6.402
 9611SOL    HW229733   0.050   6.551   6.545
 9612SOL     OW29734   0.807   3.770   1.845
 9612SOL    HW129735   0.830   3.796   1.751
 9612SOL    HW229736   0.880   3.800   1.906
 9613SOL     OW29737   4.472   6.244   3.486
 9613SOL    HW129738   4.519   6.256   3.398
 9613SOL    HW229739   4.538   6.252   3.561
 9614SOL     OW29740   4.141   2.535   0.392
 9614SOL    HW129741   4.077   2.589   0.338
 9614SOL    HW229742   4.188   2.593   0.458
 9615SOL     OW29743   0.512   6.902   1.106
 9615SOL    HW129744   0.454   6.829   1.070
 9615SOL    HW229745   0.514   6.979   1.042
 9616SOL     OW29746   4.546   3.529   0.873
 9616SOL    HW129747   4.477   3.512   0.944
 9616SOL    HW229748   4.524   3.474   0.792
 9617SOL     OW29749   1.787   3.349   3.947
 9617SOL    HW129750   1.707   3.314   3.995
 9617SOL    HW229751   1.813   3.437   3.987
 9618SOL     OW29752   3.654   0.140   5.446
 9618SOL    HW129753   3.613   0.192   5.522
 9618SOL    HW229754   3.730   0.085   5.481
 9619SOL     OW29755   0.531   6.728   0.310
 9619SOL    HW129756   0.570   6.725   0.402
 9619SOL    HW229757   0.592   6.781   0.251
 9620SOL     OW29758   4.351   2.689   6.862
 9620SOL    HW129759   4.271   2.695   6.801
 9620SOL    HW229760   4.324   2.644   6.947
 9621SOL     OW29761   0.818   0.897   2.540
 9621SOL    HW129762   0.819   0.989   2.577
 9621SOL    HW229763   0.839   0.831   2.612
 9622SOL     OW29764   6.642   0.725   0.198
 9622SOL    HW129765   6.620   0.633   0.229
 9622SOL    HW229766   6.621   0.734   0.100
 9623SOL     OW29767   3.939   4.909   5.379
 9623SOL    HW129768   3.957   4.927   5.283
 9623SOL    HW229769   4.024   4.915   5.431
 9624SOL     OW29770   5.995   4.440   3.540
 9624SOL    HW129771   5.957   4.452   3.632
 9624SOL    HW229772   6.060   4.365   3.540
 9625SOL     OW29773   5.024   5.235   6.893
 9625SOL    HW129774   4.924   5.238   6.895
 9625SOL    HW229775   5.058   5.294   6.819
 9626SOL     OW29776   2.314   6.506   0.185
 9626SOL    HW129777   2.392   6.561   0.213
 9626SOL    HW229778   2.344   6.413   0.164
 9627SOL     OW29779   0.122   4.401   3.366
 9627SOL    HW129780   0.083   4.330   3.424
 9627SOL    HW229781   0.088   4.391   3.272
 9628SOL     OW29782   6.308   4.625   7.026
 9628SOL    HW129783   6.223   4.644   6.978
 9628SOL    HW229784   6.371   4.578   6.965
 9629SOL     OW29785   6.969   6.737   2.796
 9629SOL    HW129786   6.974   6.747   2.896
 9629SOL    HW229787   6.910   6.809   2.759
 9630SOL     OW29788   6.002   6.519   5.133
 9630SOL    HW129789   6.052   6.604   5.122
 9630SOL    HW229790   5.907   6.539   5.160
 9631SOL     OW29791   5.922   0.967   6.887
 9631SOL    HW129792   6.009   1.012   6.872
 9631SOL    HW229793   5.890   0.925   6.802
 9632SOL     OW29794   2.254   5.592   2.395
 9632SOL    HW129795   2.243   5.666   2.328
 9632SOL    HW229796   2.327   5.614   2.459
 9633SOL     OW29797   5.338   4.898   6.841
 9633SOL    HW129798   5.262   4.934   6.895
 9633SOL    HW229799   5.386   4.828   6.894
 9634SOL     OW29800   0.958   6.742   4.791
 9634SOL    HW129801   0.861   6.723   4.809
 9634SOL    HW229802   0.987   6.820   4.847
 9635SOL     OW29803   1.938   4.590   5.772
 9635SOL    HW129804   2.035   4.611   5.762
 9635SOL    HW229805   1.923   4.492   5.762
 9636SOL     OW29806   4.054   1.882   6.085
 9636SOL    HW129807   4.011   1.893   5.996
 9636SOL    HW229808   4.062   1.972   6.129
 9637SOL     OW29809   2.317   1.906   0.359
 9637SOL    HW129810   2.308   2.003   0.336
 9637SOL    HW229811   2.413   1.885   0.375
 9638SOL     OW29812   0.085   3.452   7.024
 9638SOL    HW129813   0.089   3.356   0.020
 9638SOL    HW229814   0.018   3.499   0.052
 9639SOL     OW29815   4.897   1.635   1.891
 9639SOL    HW129816   4.840   1.694   1.948
 9639SOL    HW229817   4.992   1.663   1.897
 9640SOL     OW29818   3.188   1.238   3.170
 9640SOL    HW129819   3.093   1.250   3.142
 9640SOL    HW229820   3.244   1.222   3.088
 9641SOL     OW29821   5.180   6.192   0.931
 9641SOL    HW129822   5.143   6.259   0.996
 9641SOL    HW229823   5.117   6.183   0.854
 9642SOL     OW29824   2.102   6.020   4.643
 9642SOL    HW129825   2.147   5.935   4.616
 9642SOL    HW229826   2.031   6.043   4.577
 9643SOL     OW29827   6.075   4.666   3.957
 9643SOL    HW129828   6.101   4.726   4.033
 9643SOL    HW229829   5.986   4.694   3.922
 9644SOL     OW29830   0.101   5.206   4.586
 9644SOL    HW129831   0.141   5.253   4.507
 9644SOL    HW229832   0.168   5.202   4.660
 9645SOL     OW29833   3.113   4.926   3.543
 9645SOL    HW129834   3.197   4.955   3.589
 9645SOL    HW229835   3.055   4.877   3.607
 9646SOL     OW29836   2.704   4.723   2.240
 9646SOL    HW129837   2.743   4.667   2.167
 9646SOL    HW229838   2.624   4.677   2.279
 9647SOL     OW29839   0.744   5.548   1.584
 9647SOL    HW129840   0.711   5.640   1.564
 9647SOL    HW229841   0.677   5.481   1.554
 9648SOL     OW29842   3.381   2.255   6.947
 9648SOL    HW129843   3.436   2.172   6.938
 9648SOL    HW229844   3.432   2.333   6.912
 9649SOL     OW29845   2.576   4.776   0.002
 9649SOL    HW129846   2.640   4.718   0.051
 9649SOL    HW229847   2.587   4.762   6.933
 9650SOL     OW29848   4.768   4.572   3.252
 9650SOL    HW129849   4.784   4.529   3.163
 9650SOL    HW229850   4.855   4.595   3.294
 9651SOL     OW29851   6.298   0.735   0.331
 9651SOL    HW129852   6.388   0.769   0.358
 9651SOL    HW229853   6.273   0.657   0.388
 9652SOL     OW29854   2.425   4.371   1.117
 9652SOL    HW129855   2.345   4.337   1.068
 9652SOL    HW229856   2.436   4.469   1.098
 9653SOL     OW29857   4.286   5.325   5.309
 9653SOL    HW129858   4.196   5.290   5.335
 9653SOL    HW229859   4.292   5.328   5.209
 9654SOL     OW29860   3.566   3.255   2.488
 9654SOL    HW129861   3.623   3.269   2.569
 9654SOL    HW229862   3.479   3.216   2.516
 9655SOL     OW29863   6.694   1.548   7.005
 9655SOL    HW129864   6.690   1.449   7.002
 9655SOL    HW229865   6.769   1.577   0.035
 9656SOL     OW29866   4.668   1.897   1.097
 9656SOL    HW129867   4.661   1.809   1.143
 9656SOL    HW229868   4.681   1.883   0.999
 9657SOL     OW29869   6.189   2.329   3.946
 9657SOL    HW129870   6.259   2.258   3.938
 9657SOL    HW229871   6.113   2.308   3.884
 9658SOL     OW29872   5.559   1.839   2.645
 9658SOL    HW129873   5.603   1.928   2.631
 9658SOL    HW229874   5.488   1.848   2.715
 9659SOL     OW29875   6.958   2.942   0.437
 9659SOL    HW129876   6.933   2.951   0.341
 9659SOL    HW229877   6.980   2.847   0.458
 9660SOL     OW29878   0.274   6.566   2.214
 9660SOL    HW129879   0.248   6.661   2.228
 9660SOL    HW229880   0.226   6.508   2.280
 9661SOL     OW29881   3.448   6.275   1.764
 9661SOL    HW129882   3.467   6.218   1.685
 9661SOL    HW229883   3.487   6.233   1.846
 9662SOL     OW29884   4.386   2.887   5.349
 9662SOL    HW129885   4.430   2.843   5.271
 9662SOL    HW229886   4.425   2.851   5.434
 9663SOL     OW29887   6.552   6.536   3.667
 9663SOL    HW129888   6.489   6.583   3.606
 9663SOL    HW229889   6.621   6.489   3.613
 9664SOL     OW29890   5.446   6.452   4.344
 9664SOL    HW129891   5.477   6.499   4.261
 9664SOL    HW229892   5.491   6.491   4.424
 9665SOL     OW29893   5.582   6.293   0.306
 9665SOL    HW129894   5.511   6.279   0.237
 9665SOL    HW229895   5.553   6.252   0.393
 9666SOL     OW29896   6.099   4.083   1.709
 9666SOL    HW129897   6.083   4.176   1.677
 9666SOL    HW229898   6.053   4.069   1.796
 9667SOL     OW29899   3.845   3.644   5.456
 9667SOL    HW129900   3.830   3.695   5.541
 9667SOL    HW229901   3.861   3.548   5.476
 9668SOL     OW29902   0.066   0.737   6.427
 9668SOL    HW129903   7.028   0.809   6.413
 9668SOL    HW229904   0.058   0.669   6.354
 9669SOL     OW29905   1.796   0.035   2.561
 9669SOL    HW129906   1.826   0.090   2.640
 9669SOL    HW229907   1.774   0.096   2.485
 9670SOL     OW29908   6.389   4.312   6.765
 9670SOL    HW129909   6.299   4.353   6.756
 9670SOL    HW229910   6.391   4.252   6.845
 9671SOL     OW29911   6.268   4.553   0.278
 9671SOL    HW129912   6.211   4.483   0.321
 9671SOL    HW229913   6.273   4.535   0.179
 9672SOL     OW29914   1.387   6.029   3.727
 9672SOL    HW129915   1.475   5.986   3.706
 9672SOL    HW229916   1.316   5.988   3.670
 9673SOL     OW29917   5.413   3.770   0.722
 9673SOL    HW129918   5.335   3.824   0.691
 9673SOL    HW229919   5.472   3.749   0.644
 9674SOL     OW29920   2.427   6.911   2.912
 9674SOL    HW129921   2.410   6.904   2.814
 9674SOL    HW229922   2.463   6.824   2.945
 9675SOL     OW29923   5.593   2.409   0.651
 9675SOL    HW129924   5.641   2.396   0.565
 9675SOL    HW229925   5.553   2.500   0.654
 9676SOL     OW29926   1.227   3.602   5.650
 9676SOL    HW129927   1.214   3.701   5.648
 9676SOL    HW229928   1.172   3.560   5.578
 9677SOL     OW29929   0.561   5.276   5.115
 9677SOL    HW129930   0.482   5.282   5.176
 9677SOL    HW229931   0.539   5.215   5.038
 9678SOL     OW29932   3.086   4.020   3.120
 9678SOL    HW129933   3.027   3.944   3.091
 9678SOL    HW229934   3.129   4.061   3.039
 9679SOL     OW29935   2.669   1.394   2.715
 9679SOL    HW129936   2.750   1.335   2.719
 9679SOL    HW229937   2.686   1.476   2.770
 9680SOL     OW29938   4.805   1.042   2.796
 9680SOL    HW129939   4.753   1.126   2.783
 9680SOL    HW229940   4.901   1.059   2.776
 9681SOL     OW29941   3.110   1.513   0.454
 9681SOL    HW129942   3.068   1.432   0.414
 9681SOL    HW229943   3.142   1.574   0.381
 9682SOL     OW29944   5.242   4.843   3.657
 9682SOL    HW129945   5.326   4.791   3.646
 9682SOL    HW229946   5.262   4.926   3.710
 9683SOL     OW29947   2.975   5.420   0.138
 9683SOL    HW129948   3.069   5.400   0.111
 9683SOL    HW229949   2.966   5.413   0.238
 9684SOL     OW29950   0.416   3.168   5.335
 9684SOL    HW129951   0.386   3.257   5.369
 9684SOL    HW229952   0.337   3.106   5.331
 9685SOL     OW29953   2.938   4.853   1.226
 9685SOL    HW129954   2.960   4.930   1.166
 9685SOL    HW229955   2.993   4.774   1.200
 9686SOL     OW29956   6.558   1.553   6.767
 9686SOL    HW129957   6.616   1.596   6.836
 9686SOL    HW229958   6.491   1.618   6.734
 9687SOL     OW29959   1.635   0.759   3.802
 9687SOL    HW129960   1.700   0.750   3.877
 9687SOL    HW229961   1.542   0.759   3.839
 9688SOL     OW29962   0.433   3.310   2.770
 9688SOL    HW129963   0.489   3.292   2.851
 9688SOL    HW229964   0.346   3.260   2.778
 9689SOL     OW29965   1.166   4.944   6.531
 9689SOL    HW129966   1.130   4.910   6.444
 9689SOL    HW229967   1.219   4.871   6.575
 9690SOL     OW29968   5.757   5.382   0.164
 9690SOL    HW129969   5.784   5.379   0.068
 9690SOL    HW229970   5.662   5.352   0.173
 9691SOL     OW29971   3.033   5.239   1.131
 9691SOL    HW129972   3.087   5.247   1.048
 9691SOL    HW229973   3.092   5.217   1.208
 9692SOL     OW29974   3.898   5.278   2.805
 9692SOL    HW129975   3.939   5.241   2.722
 9692SOL    HW229976   3.818   5.223   2.831
 9693SOL     OW29977   6.102   5.247   1.744
 9693SOL    HW129978   6.103   5.152   1.713
 9693SOL    HW229979   6.125   5.250   1.842
 9694SOL     OW29980   2.309   1.037   0.472
 9694SOL    HW129981   2.280   1.077   0.559
 9694SOL    HW229982   2.399   1.071   0.448
 9695SOL     OW29983   6.947   3.394   2.938
 9695SOL    HW129984   6.926   3.468   2.874
 9695SOL    HW229985   6.976   3.434   3.026
 9696SOL     OW29986   5.232   3.512   1.105
 9696SOL    HW129987   5.298   3.524   1.179
 9696SOL    HW229988   5.275   3.538   1.018
 9697SOL     OW29989   0.558   5.402   6.754
 9697SOL    HW129990   0.648   5.415   6.713
 9697SOL    HW229991   0.555   5.313   6.799
 9698SOL     OW29992   4.647   1.303   5.950
 9698SOL    HW129993   4.628   1.388   6.000
 9698SOL    HW229994   4.632   1.319   5.852
 9699SOL     OW29995   7.023   4.961   6.794
 9699SOL    HW129996   0.001   5.058   6.773
 9699SOL    HW229997   7.013   4.949   6.893
 9700SOL     OW29998   4.666   5.322   4.813
 9700SOL    HW129999   4.681   5.236   4.862
 9700SOL    HW230000   4.752   5.351   4.769
 9701SOL     OW30001   4.151   5.110   5.673
 9701SOL    HW130002   4.052   5.103   5.691
 9701SOL    HW230003   4.177   5.045   5.602
 9702SOL     OW30004   4.574   0.389   6.661
 9702SOL    HW130005   4.636   0.394   6.582
 9702SOL    HW230006   4.627   0.372   6.744
 9703SOL     OW30007   4.440   4.527   3.349
 9703SOL    HW130008   4.471   4.543   3.255
 9703SOL    HW230009   4.483   4.444   3.384
 9704SOL     OW30010   3.612   0.920   2.911
 9704SOL    HW130011   3.643   0.980   2.985
 9704SOL    HW230012   3.569   0.839   2.949
 9705SOL     OW30013   6.095   4.353   6.395
 9705SOL    HW130014   6.094   4.358   6.295
 9705SOL    HW230015   6.080   4.444   6.433
 9706SOL     OW30016   0.812   3.534   0.679
 9706SOL    HW130017   0.803   3.440   0.714
 9706SOL    HW230018   0.743   3.550   0.609
 9707SOL     OW30019   6.848   4.782   2.150
 9707SOL    HW130020   6.837   4.764   2.053
 9707SOL    HW230021   6.889   4.702   2.194
 9708SOL     OW30022   1.611   2.193   2.410
 9708SOL    HW130023   1.616   2.290   2.385
 9708SOL    HW230024   1.517   2.171   2.437
 9709SOL     OW30025   6.161   6.548   3.312
 9709SOL    HW130026   6.083   6.543   3.374
 9709SOL    HW230027   6.159   6.635   3.263
 9710SOL     OW30028   7.022   0.568   1.996
 9710SOL    HW130029   6.931   0.532   2.018
 9710SOL    HW230030   7.025   0.665   2.017
 9711SOL     OW30031   2.238   5.148   5.558
 9711SOL    HW130032   2.320   5.200   5.584
 9711SOL    HW230033   2.266   5.057   5.526
 9712SOL     OW30034   5.881   3.426   6.904
 9712SOL    HW130035   5.809   3.447   6.971
 9712SOL    HW230036   5.850   3.451   6.812
 9713SOL     OW30037   0.958   4.888   3.477
 9713SOL    HW130038   0.938   4.887   3.575
 9713SOL    HW230039   0.967   4.793   3.445
 9714SOL     OW30040   3.266   0.208   0.136
 9714SOL    HW130041   3.195   0.204   0.207
 9714SOL    HW230042   3.239   0.149   0.059
 9715SOL     OW30043   5.232   3.586   6.538
 9715SOL    HW130044   5.289   3.585   6.620
 9715SOL    HW230045   5.153   3.646   6.553
 9716SOL     OW30046   4.064   3.463   0.245
 9716SOL    HW130047   4.007   3.486   0.166
 9716SOL    HW230048   4.159   3.487   0.227
 9717SOL     OW30049   5.405   6.372   6.391
 9717SOL    HW130050   5.388   6.436   6.316
 9717SOL    HW230051   5.354   6.401   6.471
 9718SOL     OW30052   4.865   2.696   0.343
 9718SOL    HW130053   4.874   2.605   0.384
 9718SOL    HW230054   4.780   2.701   0.292
 9719SOL     OW30055   6.567   1.696   5.550
 9719SOL    HW130056   6.644   1.755   5.575
 9719SOL    HW230057   6.588   1.601   5.573
 9720SOL     OW30058   6.657   5.292   2.136
 9720SOL    HW130059   6.751   5.269   2.163
 9720SOL    HW230060   6.649   5.391   2.126
 9721SOL     OW30061   0.158   1.756   1.372
 9721SOL    HW130062   0.223   1.828   1.396
 9721SOL    HW230063   0.065   1.785   1.396
 9722SOL     OW30064   6.322   0.769   4.470
 9722SOL    HW130065   6.240   0.804   4.516
 9722SOL    HW230066   6.402   0.786   4.528
 9723SOL     OW30067   2.109   6.894   2.551
 9723SOL    HW130068   2.014   6.867   2.534
 9723SOL    HW230069   2.143   6.945   2.472
 9724SOL     OW30070   1.817   4.639   0.520
 9724SOL    HW130071   1.822   4.701   0.441
 9724SOL    HW230072   1.870   4.678   0.596
 9725SOL     OW30073   3.835   4.779   6.348
 9725SOL    HW130074   3.810   4.794   6.443
 9725SOL    HW230075   3.921   4.729   6.344
 9726SOL     OW30076   5.176   0.788   4.241
 9726SOL    HW130077   5.111   0.824   4.174
 9726SOL    HW230078   5.268   0.823   4.219
 9727SOL     OW30079   1.219   4.019   6.025
 9727SOL    HW130080   1.304   3.979   5.990
 9727SOL    HW230081   1.141   3.966   5.992
 9728SOL     OW30082   0.118   0.646   5.749
 9728SOL    HW130083   0.060   0.573   5.785
 9728SOL    HW230084   0.135   0.713   5.822
 9729SOL     OW30085   1.138   3.993   3.586
 9729SOL    HW130086   1.183   4.080   3.606
 9729SOL    HW230087   1.058   4.009   3.528
 9730SOL     OW30088   1.087   3.522   3.729
 9730SOL    HW130089   1.034   3.601   3.697
 9730SOL    HW230090   1.063   3.501   3.824
 9731SOL     OW30091   4.984   4.542   0.987
 9731SOL    HW130092   5.080   4.522   1.008
 9731SOL    HW230093   4.931   4.540   1.071
 9732SOL     OW30094   6.178   5.802   3.602
 9732SOL    HW130095   6.176   5.711   3.642
 9732SOL    HW230096   6.271   5.823   3.571
 9733SOL     OW30097   5.949   5.117   0.726
 9733SOL    HW130098   5.873   5.051   0.729
 9733SOL    HW230099   6.029   5.074   0.684
 9734SOL     OW30100   6.399   1.647   2.185
 9734SOL    HW130101   6.351   1.578   2.239
 9734SOL    HW230102   6.342   1.729   2.177
 9735SOL     OW30103   2.509   4.573   3.732
 9735SOL    HW130104   2.553   4.614   3.653
 9735SOL    HW230105   2.469   4.644   3.789
 9736SOL     OW30106   6.362   1.699   6.658
 9736SOL    HW130107   6.294   1.651   6.603
 9736SOL    HW230108   6.413   1.763   6.600
 9737SOL     OW30109   5.740   2.665   3.537
 9737SOL    HW130110   5.723   2.716   3.621
 9737SOL    HW230111   5.653   2.643   3.493
 9738SOL     OW30112   1.411   0.042   1.481
 9738SOL    HW130113   1.341   7.010   1.447
 9738SOL    HW230114   1.495   0.032   1.427
 9739SOL     OW30115   6.094   4.644   2.123
 9739SOL    HW130116   6.097   4.728   2.069
 9739SOL    HW230117   6.010   4.642   2.177
 9740SOL     OW30118   6.466   1.709   3.096
 9740SOL    HW130119   6.505   1.617   3.102
 9740SOL    HW230120   6.367   1.704   3.092
 9741SOL     OW30121   4.022   1.244   3.016
 9741SOL    HW130122   4.081   1.222   2.938
 9741SOL    HW230123   3.991   1.159   3.059
 9742SOL     OW30124   4.355   0.247   0.555
 9742SOL    HW130125   4.262   0.211   0.547
 9742SOL    HW230126   4.397   0.212   0.639
 9743SOL     OW30127   0.422   1.885   5.236
 9743SOL    HW130128   0.503   1.828   5.221
 9743SOL    HW230129   0.352   1.831   5.284
 9744SOL     OW30130   0.184   6.926   2.710
 9744SOL    HW130131   0.165   6.828   2.710
 9744SOL    HW230132   0.196   6.958   2.616
 9745SOL     OW30133   5.952   2.319   5.375
 9745SOL    HW130134   5.887   2.250   5.407
 9745SOL    HW230135   5.988   2.292   5.285
 9746SOL     OW30136   6.357   0.706   5.679
 9746SOL    HW130137   6.438   0.727   5.735
 9746SOL    HW230138   6.274   0.727   5.731
 9747SOL     OW30139   2.367   1.011   1.492
 9747SOL    HW130140   2.315   0.933   1.458
 9747SOL    HW230141   2.367   1.084   1.423
 9748SOL     OW30142   0.479   1.372   3.222
 9748SOL    HW130143   0.556   1.340   3.277
 9748SOL    HW230144   0.395   1.328   3.253
 9749SOL     OW30145   2.295   1.476   5.165
 9749SOL    HW130146   2.354   1.396   5.150
 9749SOL    HW230147   2.205   1.458   5.126
 9750SOL     OW30148   5.713   4.656   3.604
 9750SOL    HW130149   5.702   4.558   3.588
 9750SOL    HW230150   5.789   4.690   3.550
 9751SOL     OW30151   0.535   1.285   0.891
 9751SOL    HW130152   0.555   1.322   0.800
 9751SOL    HW230153   0.496   1.193   0.881
 9752SOL     OW30154   4.620   1.992   5.690
 9752SOL    HW130155   4.673   1.925   5.638
 9752SOL    HW230156   4.583   1.948   5.772
 9753SOL     OW30157   5.736   5.906   5.810
 9753SOL    HW130158   5.760   5.993   5.765
 9753SOL    HW230159   5.755   5.830   5.747
 9754SOL     OW30160   1.007   1.182   6.236
 9754SOL    HW130161   1.054   1.270   6.243
 9754SOL    HW230162   0.913   1.192   6.267
 9755SOL     OW30163   4.181   3.397   4.737
 9755SOL    HW130164   4.258   3.360   4.685
 9755SOL    HW230165   4.190   3.371   4.833
 9756SOL     OW30166   6.469   3.440   0.657
 9756SOL    HW130167   6.452   3.537   0.672
 9756SOL    HW230168   6.561   3.427   0.621
 9757SOL     OW30169   5.926   3.650   3.574
 9757SOL    HW130170   5.911   3.685   3.666
 9757SOL    HW230171   6.013   3.684   3.539
 9758SOL     OW30172   2.621   7.015   6.501
 9758SOL    HW130173   2.657   6.925   6.527
 9758SOL    HW230174   2.526   7.005   6.470
 9759SOL     OW30175   1.773   6.890   6.860
 9759SOL    HW130176   1.846   6.931   6.805
 9759SOL    HW230177   1.804   6.883   6.955
 9760SOL     OW30178   4.551   2.770   5.153
 9760SOL    HW130179   4.578   2.674   5.161
 9760SOL    HW230180   4.633   2.826   5.139
 9761SOL     OW30181   5.782   0.748   2.325
 9761SOL    HW130182   5.834   0.747   2.410
 9761SOL    HW230183   5.719   0.671   2.323
 9762SOL     OW30184   3.527   1.500   4.141
 9762SOL    HW130185   3.471   1.569   4.187
 9762SOL    HW230186   3.524   1.415   4.193
 9763SOL     OW30187   5.067   2.337   1.962
 9763SOL    HW130188   5.007   2.287   1.899
 9763SOL    HW230189   5.153   2.358   1.916
 9764SOL     OW30190   0.484   2.669   2.767
 9764SOL    HW130191   0.464   2.754   2.719
 9764SOL    HW230192   0.405   2.643   2.823
 9765SOL     OW30193   6.587   1.426   3.251
 9765SOL    HW130194   6.661   1.434   3.317
 9765SOL    HW230195   6.623   1.438   3.159
 9766SOL     OW30196   2.487   0.206   3.055
 9766SOL    HW130197   2.552   0.175   2.986
 9766SOL    HW230198   2.522   0.287   3.102
 9767SOL     OW30199   4.788   1.508   5.403
 9767SOL    HW130200   4.779   1.423   5.455
 9767SOL    HW230201   4.700   1.555   5.399
 9768SOL     OW30202   5.831   2.063   3.122
 9768SOL    HW130203   5.750   2.051   3.180
 9768SOL    HW230204   5.871   2.153   3.139
 9769SOL     OW30205   3.049   0.828   2.897
 9769SOL    HW130206   3.144   0.850   2.875
 9769SOL    HW230207   3.007   0.781   2.820
 9770SOL     OW30208   5.748   6.810   6.830
 9770SOL    HW130209   5.824   6.761   6.871
 9770SOL    HW230210   5.721   6.766   6.745
 9771SOL     OW30211   2.777   5.293   1.083
 9771SOL    HW130212   2.785   5.265   0.987
 9771SOL    HW230213   2.868   5.300   1.123
 9772SOL     OW30214   1.164   6.031   2.724
 9772SOL    HW130215   1.117   5.944   2.710
 9772SOL    HW230216   1.100   6.106   2.710
 9773SOL     OW30217   5.586   5.604   4.468
 9773SOL    HW130218   5.659   5.539   4.448
 9773SOL    HW230219   5.550   5.641   4.383
 9774SOL     OW30220   0.066   4.905   1.969
 9774SOL    HW130221   0.153   4.867   2.003
 9774SOL    HW230222   0.014   4.941   2.047
 9775SOL     OW30223   2.201   0.673   3.661
 9775SOL    HW130224   2.291   0.717   3.656
 9775SOL    HW230225   2.134   0.738   3.694
 9776SOL     OW30226   1.070   4.720   4.186
 9776SOL    HW130227   0.974   4.722   4.214
 9776SOL    HW230228   1.112   4.636   4.219
 9777SOL     OW30229   5.897   4.606   5.983
 9777SOL    HW130230   5.929   4.598   5.889
 9777SOL    HW230231   5.825   4.675   5.987
 9778SOL     OW30232   0.356   0.845   3.542
 9778SOL    HW130233   0.415   0.885   3.472
 9778SOL    HW230234   0.379   0.749   3.555
 9779SOL     OW30235   1.625   1.092   4.929
 9779SOL    HW130236   1.692   1.134   4.868
 9779SOL    HW230237   1.536   1.134   4.914
 9780SOL     OW30238   2.978   1.524   1.154
 9780SOL    HW130239   3.030   1.609   1.162
 9780SOL    HW230240   2.937   1.502   1.243
 9781SOL     OW30241   1.624   3.711   4.334
 9781SOL    HW130242   1.541   3.665   4.302
 9781SOL    HW230243   1.618   3.808   4.313
 9782SOL     OW30244   6.803   0.829   1.485
 9782SOL    HW130245   6.788   0.840   1.387
 9782SOL    HW230246   6.827   0.734   1.505
 9783SOL     OW30247   4.902   2.028   3.181
 9783SOL    HW130248   4.918   1.971   3.262
 9783SOL    HW230249   4.804   2.035   3.164
 9784SOL     OW30250   4.070   1.316   4.598
 9784SOL    HW130251   3.979   1.293   4.635
 9784SOL    HW230252   4.129   1.236   4.604
 9785SOL     OW30253   0.752   3.497   5.985
 9785SOL    HW130254   0.757   3.589   6.023
 9785SOL    HW230255   0.813   3.489   5.907
 9786SOL     OW30256   2.428   4.518   0.179
 9786SOL    HW130257   2.494   4.541   0.107
 9786SOL    HW230258   2.463   4.546   0.268
 9787SOL     OW30259   4.777   3.671   1.788
 9787SOL    HW130260   4.797   3.762   1.823
 9787SOL    HW230261   4.813   3.663   1.694
 9788SOL     OW30262   0.676   0.562   3.545
 9788SOL    HW130263   0.732   0.515   3.614
 9788SOL    HW230264   0.691   0.520   3.456
 9789SOL     OW30265   1.214   5.263   0.626
 9789SOL    HW130266   1.287   5.255   0.693
 9789SOL    HW230267   1.204   5.359   0.599
 9790SOL     OW30268   5.957   4.179   5.766
 9790SOL    HW130269   6.007   4.258   5.800
 9790SOL    HW230270   5.859   4.194   5.776
 9791SOL     OW30271   0.377   0.861   3.099
 9791SOL    HW130272   0.311   0.795   3.134
 9791SOL    HW230273   0.371   0.865   3.000
 9792SOL     OW30274   5.360   5.707   1.904
 9792SOL    HW130275   5.460   5.713   1.903
 9792SOL    HW230276   5.325   5.725   1.812
 9793SOL     OW30277   5.252   5.874   3.542
 9793SOL    HW130278   5.259   5.786   3.495
 9793SOL    HW230279   5.211   5.942   3.481
 9794SOL     OW30280   6.687   3.815   0.560
 9794SOL    HW130281   6.712   3.791   0.654
 9794SOL    HW230282   6.769   3.818   0.503
 9795SOL     OW30283   2.086   2.066   4.152
 9795SOL    HW130284   2.177   2.045   4.115
 9795SOL    HW230285   2.042   1.982   4.183
 9796SOL     OW30286   4.452   2.257   1.402
 9796SOL    HW130287   4.363   2.275   1.443
 9796SOL    HW230288   4.448   2.172   1.351
 9797SOL     OW30289   2.545   5.140   6.868
 9797SOL    HW130290   2.623   5.078   6.853
 9797SOL    HW230291   2.487   5.104   6.941
 9798SOL     OW30292   2.728   0.474   1.318
 9798SOL    HW130293   2.757   0.378   1.324
 9798SOL    HW230294   2.784   0.529   1.380
 9799SOL     OW30295   3.398   4.103   3.499
 9799SOL    HW130296   3.384   4.152   3.413
 9799SOL    HW230297   3.413   4.006   3.480
 9800SOL     OW30298   3.528   6.121   4.576
 9800SOL    HW130299   3.525   6.158   4.483
 9800SOL    HW230300   3.549   6.194   4.641
 9801SOL     OW30301   4.601   3.747   0.364
 9801SOL    HW130302   4.673   3.799   0.410
 9801SOL    HW230303   4.551   3.808   0.302
 9802SOL     OW30304   1.088   3.158   1.599
 9802SOL    HW130305   1.147   3.078   1.613
 9802SOL    HW230306   1.066   3.166   1.502
 9803SOL     OW30307   7.023   2.241   6.739
 9803SOL    HW130308   7.020   2.335   6.704
 9803SOL    HW230309   0.058   2.236   6.815
 9804SOL     OW30310   0.860   6.545   2.929
 9804SOL    HW130311   0.924   6.613   2.965
 9804SOL    HW230312   0.890   6.454   2.955
 9805SOL     OW30313   0.889   6.950   5.660
 9805SOL    HW130314   0.977   6.960   5.707
 9805SOL    HW230315   0.816   6.942   5.729
 9806SOL     OW30316   1.365   1.096   1.174
 9806SOL    HW130317   1.367   1.115   1.076
 9806SOL    HW230318   1.301   1.021   1.192
 9807SOL     OW30319   2.645   3.089   0.200
 9807SOL    HW130320   2.736   3.050   0.185
 9807SOL    HW230321   2.648   3.150   0.279
 9808SOL     OW30322   4.645   0.814   5.258
 9808SOL    HW130323   4.734   0.777   5.232
 9808SOL    HW230324   4.603   0.755   5.326
 9809SOL     OW30325   0.921   2.079   6.750
 9809SOL    HW130326   0.852   2.072   6.678
 9809SOL    HW230327   0.919   1.997   6.807
 9810SOL     OW30328   2.298   2.616   3.867
 9810SOL    HW130329   2.325   2.533   3.817
 9810SOL    HW230330   2.318   2.604   3.964
 9811SOL     OW30331   5.841   5.308   3.833
 9811SOL    HW130332   5.772   5.379   3.824
 9811SOL    HW230333   5.876   5.308   3.927
 9812SOL     OW30334   3.206   2.569   5.716
 9812SOL    HW130335   3.145   2.497   5.685
 9812SOL    HW230336   3.153   2.646   5.751
 9813SOL     OW30337   5.941   0.816   6.556
 9813SOL    HW130338   5.971   0.735   6.606
 9813SOL    HW230339   5.925   0.792   6.460
 9814SOL     OW30340   0.375   0.743   0.601
 9814SOL    HW130341   0.315   0.739   0.681
 9814SOL    HW230342   0.327   0.707   0.521
 9815SOL     OW30343   5.762   4.105   2.938
 9815SOL    HW130344   5.743   4.103   2.839
 9815SOL    HW230345   5.739   4.017   2.978
 9816SOL     OW30346   0.148   1.686   6.411
 9816SOL    HW130347   0.059   1.683   6.457
 9816SOL    HW230348   0.148   1.760   6.343
 9817SOL     OW30349   2.700   5.939   2.694
 9817SOL    HW130350   2.727   5.908   2.603
 9817SOL    HW230351   2.622   5.885   2.725
 9818SOL     OW30352   1.856   0.783   4.328
 9818SOL    HW130353   1.864   0.791   4.427
 9818SOL    HW230354   1.885   0.869   4.285
 9819SOL     OW30355   4.786   2.922   4.359
 9819SOL    HW130356   4.837   2.941   4.443
 9819SOL    HW230357   4.738   3.005   4.330
 9820SOL     OW30358   3.783   3.460   6.382
 9820SOL    HW130359   3.846   3.465   6.304
 9820SOL    HW230360   3.743   3.369   6.388
 9821SOL     OW30361   5.132   0.843   0.821
 9821SOL    HW130362   5.135   0.940   0.797
 9821SOL    HW230363   5.038   0.816   0.839
 9822SOL     OW30364   2.557   5.555   3.489
 9822SOL    HW130365   2.604   5.469   3.511
 9822SOL    HW230366   2.576   5.580   3.394
 9823SOL     OW30367   2.360   0.462   1.546
 9823SOL    HW130368   2.264   0.470   1.519
 9823SOL    HW230369   2.374   0.514   1.630
 9824SOL     OW30370   1.584   5.602   4.495
 9824SOL    HW130371   1.548   5.668   4.429
 9824SOL    HW230372   1.681   5.587   4.476
 9825SOL     OW30373   5.191   6.425   4.019
 9825SOL    HW130374   5.288   6.431   4.039
 9825SOL    HW230375   5.176   6.373   3.935
 9826SOL     OW30376   3.968   6.202   5.166
 9826SOL    HW130377   3.949   6.104   5.158
 9826SOL    HW230378   3.999   6.222   5.258
 9827SOL     OW30379   1.642   3.837   3.186
 9827SOL    HW130380   1.682   3.784   3.260
 9827SOL    HW230381   1.696   3.920   3.170
 9828SOL     OW30382   3.313   2.580   5.332
 9828SOL    HW130383   3.268   2.515   5.272
 9828SOL    HW230384   3.309   2.671   5.293
 9829SOL     OW30385   4.756   5.837   6.492
 9829SOL    HW130386   4.747   5.791   6.404
 9829SOL    HW230387   4.712   5.927   6.487
 9830SOL     OW30388   5.544   1.612   1.929
 9830SOL    HW130389   5.581   1.547   1.862
 9830SOL    HW230390   5.445   1.616   1.920
 9831SOL     OW30391   0.887   4.961   2.696
 9831SOL    HW130392   0.955   5.024   2.731
 9831SOL    HW230393   0.863   4.984   2.602
 9832SOL     OW30394   5.143   5.562   1.987
 9832SOL    HW130395   5.232   5.599   1.960
 9832SOL    HW230396   5.071   5.604   1.930
 9833SOL     OW30397   3.441   3.574   3.298
 9833SOL    HW130398   3.471   3.487   3.259
 9833SOL    HW230399   3.378   3.557   3.374
 9834SOL     OW30400   2.145   4.390   5.167
 9834SOL    HW130401   2.066   4.437   5.126
 9834SOL    HW230402   2.222   4.454   5.173
 9835SOL     OW30403   3.622   3.178   4.490
 9835SOL    HW130404   3.712   3.147   4.460
 9835SOL    HW230405   3.568   3.099   4.519
 9836SOL     OW30406   0.519   4.132   4.218
 9836SOL    HW130407   0.429   4.130   4.175
 9836SOL    HW230408   0.567   4.046   4.199
 9837SOL     OW30409   4.636   0.803   2.732
 9837SOL    HW130410   4.711   0.861   2.766
 9837SOL    HW230411   4.550   0.830   2.776
 9838SOL     OW30412   1.526   6.908   0.247
 9838SOL    HW130413   1.482   6.888   0.160
 9838SOL    HW230414   1.604   6.848   0.260
 9839SOL     OW30415   4.517   6.766   3.420
 9839SOL    HW130416   4.551   6.860   3.412
 9839SOL    HW230417   4.574   6.705   3.365
 9840SOL     OW30418   5.558   2.045   0.701
 9840SOL    HW130419   5.522   2.138   0.702
 9840SOL    HW230420   5.517   1.993   0.776
 9841SOL     OW30421   1.211   4.501   4.284
 9841SOL    HW130422   1.298   4.523   4.328
 9841SOL    HW230423   1.167   4.425   4.332
 9842SOL     OW30424   3.626   3.395   1.499
 9842SOL    HW130425   3.671   3.435   1.578
 9842SOL    HW230426   3.541   3.350   1.528
 9843SOL     OW30427   6.416   7.024   1.770
 9843SOL    HW130428   6.508   0.035   1.774
 9843SOL    HW230429   6.361   0.042   1.702
 9844SOL     OW30430   6.252   1.494   3.809
 9844SOL    HW130431   6.240   1.432   3.886
 9844SOL    HW230432   6.345   1.485   3.773
 9845SOL     OW30433   1.711   1.732   3.547
 9845SOL    HW130434   1.678   1.706   3.456
 9845SOL    HW230435   1.648   1.698   3.617
 9846SOL     OW30436   4.738   2.186   0.828
 9846SOL    HW130437   4.755   2.088   0.821
 9846SOL    HW230438   4.646   2.207   0.794
 9847SOL     OW30439   3.927   3.645   2.382
 9847SOL    HW130440   3.845   3.685   2.423
 9847SOL    HW230441   3.944   3.555   2.424
 9848SOL     OW30442   4.431   4.577   6.159
 9848SOL    HW130443   4.485   4.592   6.076
 9848SOL    HW230444   4.392   4.663   6.190
 9849SOL     OW30445   1.005   0.247   6.519
 9849SOL    HW130446   1.079   0.219   6.580
 9849SOL    HW230447   1.024   0.213   6.427
 9850SOL     OW30448   0.097   0.728   4.049
 9850SOL    HW130449   0.167   0.670   4.090
 9850SOL    HW230450   0.111   0.823   4.078
 9851SOL     OW30451   2.048   0.377   4.445
 9851SOL    HW130452   2.143   0.365   4.475
 9851SOL    HW230453   2.019   0.295   4.396
 9852SOL     OW30454   1.551   1.518   4.803
 9852SOL    HW130455   1.518   1.546   4.713
 9852SOL    HW230456   1.612   1.588   4.840
 9853SOL     OW30457   6.705   3.273   4.907
 9853SOL    HW130458   6.799   3.253   4.934
 9853SOL    HW230459   6.648   3.191   4.921
 9854SOL     OW30460   0.395   5.966   4.118
 9854SOL    HW130461   0.406   5.871   4.088
 9854SOL    HW230462   0.351   6.020   4.045
 9855SOL     OW30463   2.401   3.662   0.434
 9855SOL    HW130464   2.406   3.663   0.534
 9855SOL    HW230465   2.332   3.728   0.403
 9856SOL     OW30466   5.173   4.515   3.635
 9856SOL    HW130467   5.204   4.477   3.722
 9856SOL    HW230468   5.248   4.513   3.569
 9857SOL     OW30469   5.218   2.448   2.921
 9857SOL    HW130470   5.207   2.545   2.898
 9857SOL    HW230471   5.178   2.391   2.850
 9858SOL     OW30472   0.127   6.743   1.363
 9858SOL    HW130473   0.168   6.824   1.321
 9858SOL    HW230474   0.075   6.693   1.294
 9859SOL     OW30475   6.747   5.339   3.864
 9859SOL    HW130476   6.813   5.303   3.799
 9859SOL    HW230477   6.661   5.358   3.817
 9860SOL     OW30478   1.837   2.356   4.742
 9860SOL    HW130479   1.811   2.451   4.760
 9860SOL    HW230480   1.925   2.337   4.785
 9861SOL     OW30481   2.793   0.222   3.071
 9861SOL    HW130482   2.868   0.180   3.020
 9861SOL    HW230483   2.762   0.159   3.143
 9862SOL     OW30484   2.418   4.103   0.348
 9862SOL    HW130485   2.513   4.100   0.381
 9862SOL    HW230486   2.373   4.016   0.369
 9863SOL     OW30487   3.263   5.803   1.422
 9863SOL    HW130488   3.340   5.858   1.392
 9863SOL    HW230489   3.283   5.762   1.512
 9864SOL     OW30490   3.290   0.524   4.936
 9864SOL    HW130491   3.191   0.532   4.929
 9864SOL    HW230492   3.331   0.616   4.940
 9865SOL     OW30493   1.331   6.507   4.122
 9865SOL    HW130494   1.340   6.447   4.042
 9865SOL    HW230495   1.418   6.511   4.170
 9866SOL     OW30496   6.095   4.400   5.826
 9866SOL    HW130497   6.194   4.385   5.827
 9866SOL    HW230498   6.071   4.458   5.749
 9867SOL     OW30499   6.390   1.592   2.641
 9867SOL    HW130500   6.315   1.645   2.603
 9867SOL    HW230501   6.450   1.561   2.566
 9868SOL     OW30502   0.903   3.261   4.579
 9868SOL    HW130503   0.885   3.356   4.604
 9868SOL    HW230504   0.890   3.203   4.659
 9869SOL     OW30505   0.473   2.426   1.195
 9869SOL    HW130506   0.436   2.333   1.194
 9869SOL    HW230507   0.429   2.478   1.268
 9870SOL     OW30508   4.279   6.285   2.720
 9870SOL    HW130509   4.184   6.259   2.704
 9870SOL    HW230510   4.319   6.227   2.791
 9871SOL     OW30511   6.486   3.749   5.705
 9871SOL    HW130512   6.461   3.761   5.800
 9871SOL    HW230513   6.499   3.652   5.685
 9872SOL     OW30514   2.840   5.355   4.666
 9872SOL    HW130515   2.903   5.285   4.699
 9872SOL    HW230516   2.889   5.441   4.653
 9873SOL     OW30517   2.338   2.164   0.288
 9873SOL    HW130518   2.262   2.226   0.267
 9873SOL    HW230519   2.418   2.217   0.314
 9874SOL     OW30520   0.423   3.135   5.817
 9874SOL    HW130521   0.469   3.217   5.852
 9874SOL    HW230522   0.354   3.105   5.883
 9875SOL     OW30523   6.279   5.883   2.822
 9875SOL    HW130524   6.232   5.942   2.888
 9875SOL    HW230525   6.211   5.840   2.762
 9876SOL     OW30526   5.508   1.025   3.833
 9876SOL    HW130527   5.458   0.987   3.754
 9876SOL    HW230528   5.595   0.977   3.843
 9877SOL     OW30529   0.164   4.890   4.421
 9877SOL    HW130530   0.169   4.791   4.429
 9877SOL    HW230531   0.235   4.923   4.359
 9878SOL     OW30532   2.534   3.835   5.684
 9878SOL    HW130533   2.569   3.914   5.633
 9878SOL    HW230534   2.558   3.751   5.635
 9879SOL     OW30535   6.457   4.471   5.571
 9879SOL    HW130536   6.384   4.404   5.558
 9879SOL    HW230537   6.453   4.507   5.664
 9880SOL     OW30538   2.225   0.927   0.800
 9880SOL    HW130539   2.286   1.003   0.778
 9880SOL    HW230540   2.231   0.906   0.898
 9881SOL     OW30541   6.918   1.751   4.459
 9881SOL    HW130542   6.982   1.821   4.489
 9881SOL    HW230543   6.831   1.762   4.508
 9882SOL     OW30544   3.166   3.927   5.760
 9882SOL    HW130545   3.165   4.009   5.816
 9882SOL    HW230546   3.073   3.890   5.755
 9883SOL     OW30547   1.019   6.879   1.420
 9883SOL    HW130548   1.049   6.939   1.494
 9883SOL    HW230549   0.929   6.909   1.387
 9884SOL     OW30550   4.188   1.930   0.981
 9884SOL    HW130551   4.162   1.867   1.053
 9884SOL    HW230552   4.221   2.015   1.021
 9885SOL     OW30553   0.774   3.089   4.780
 9885SOL    HW130554   0.693   3.142   4.805
 9885SOL    HW230555   0.817   3.054   4.863
 9886SOL     OW30556   6.929   6.246   2.125
 9886SOL    HW130557   6.966   6.252   2.032
 9886SOL    HW230558   6.994   6.198   2.184
 9887SOL     OW30559   3.541   0.178   0.169
 9887SOL    HW130560   3.448   0.216   0.159
 9887SOL    HW230561   3.608   0.250   0.151
 9888SOL     OW30562   5.652   5.769   3.577
 9888SOL    HW130563   5.608   5.818   3.652
 9888SOL    HW230564   5.751   5.776   3.586
 9889SOL     OW30565   0.563   5.070   2.191
 9889SOL    HW130566   0.588   5.152   2.242
 9889SOL    HW230567   0.638   5.003   2.196
 9890SOL     OW30568   0.389   3.194   0.812
 9890SOL    HW130569   0.426   3.287   0.814
 9890SOL    HW230570   0.454   3.133   0.767
 9891SOL     OW30571   6.126   4.732   1.601
 9891SOL    HW130572   6.055   4.729   1.672
 9891SOL    HW230573   6.083   4.724   1.511
 9892SOL     OW30574   1.869   5.616   3.127
 9892SOL    HW130575   1.878   5.561   3.043
 9892SOL    HW230576   1.806   5.692   3.110
 9893SOL     OW30577   6.442   6.968   2.148
 9893SOL    HW130578   6.432   6.898   2.078
 9893SOL    HW230579   6.497   6.931   2.223
 9894SOL     OW30580   2.918   1.607   6.112
 9894SOL    HW130581   2.831   1.562   6.132
 9894SOL    HW230582   2.972   1.549   6.051
 9895SOL     OW30583   6.483   2.383   5.416
 9895SOL    HW130584   6.415   2.424   5.356
 9895SOL    HW230585   6.487   2.284   5.400
 9896SOL     OW30586   5.152   1.859   0.484
 9896SOL    HW130587   5.153   1.762   0.510
 9896SOL    HW230588   5.235   1.903   0.516
 9897SOL     OW30589   4.948   0.807   2.575
 9897SOL    HW130590   4.947   0.802   2.675
 9897SOL    HW230591   4.967   0.901   2.546
 9898SOL     OW30592   0.254   4.969   4.868
 9898SOL    HW130593   0.282   4.977   4.772
 9898SOL    HW230594   0.163   4.929   4.873
 9899SOL     OW30595   6.589   4.972   2.384
 9899SOL    HW130596   6.594   4.993   2.482
 9899SOL    HW230597   6.676   4.930   2.355
 9900SOL     OW30598   1.954   2.381   2.896
 9900SOL    HW130599   2.030   2.432   2.855
 9900SOL    HW230600   1.934   2.419   2.986
 9901SOL     OW30601   1.922   1.267   0.042
 9901SOL    HW130602   1.957   1.299   6.984
 9901SOL    HW230603   1.987   1.203   0.083
 9902SOL     OW30604   4.090   3.856   1.209
 9902SOL    HW130605   4.073   3.793   1.285
 9902SOL    HW230606   4.187   3.854   1.185
 9903SOL     OW30607   4.935   6.636   2.292
 9903SOL    HW130608   4.950   6.654   2.195
 9903SOL    HW230609   4.840   6.611   2.307
 9904SOL     OW30610   0.016   3.910   0.030
 9904SOL    HW130611   0.017   3.966   0.113
 9904SOL    HW230612   6.990   3.956   6.990
 9905SOL     OW30613   1.358   6.203   7.006
 9905SOL    HW130614   1.389   6.172   6.917
 9905SOL    HW230615   1.367   6.129   0.043
 9906SOL     OW30616   2.024   3.661   6.859
 9906SOL    HW130617   2.035   3.642   6.957
 9906SOL    HW230618   2.110   3.642   6.812
 9907SOL     OW30619   1.969   6.966   3.579
 9907SOL    HW130620   1.994   7.007   3.492
 9907SOL    HW230621   2.052   6.934   3.626
 9908SOL     OW30622   0.596   3.980   5.589
 9908SOL    HW130623   0.598   3.904   5.524
 9908SOL    HW230624   0.505   3.987   5.630
 9909SOL     OW30625   3.290   0.324   3.504
 9909SOL    HW130626   3.231   0.261   3.554
 9909SOL    HW230627   3.234   0.389   3.453
 9910SOL     OW30628   1.124   5.360   1.598
 9910SOL    HW130629   1.094   5.326   1.509
 9910SOL    HW230630   1.219   5.332   1.615
 9911SOL     OW30631   4.650   5.541   2.637
 9911SOL    HW130632   4.578   5.475   2.613
 9911SOL    HW230633   4.662   5.605   2.561
 9912SOL     OW30634   4.346   0.894   1.518
 9912SOL    HW130635   4.278   0.849   1.575
 9912SOL    HW230636   4.396   0.826   1.465
 9913SOL     OW30637   6.421   3.304   2.424
 9913SOL    HW130638   6.371   3.386   2.450
 9913SOL    HW230639   6.362   3.246   2.368
 9914SOL     OW30640   0.879   0.490   5.706
 9914SOL    HW130641   0.810   0.418   5.712
 9914SOL    HW230642   0.837   0.578   5.730
 9915SOL     OW30643   4.712   2.735   4.148
 9915SOL    HW130644   4.787   2.676   4.118
 9915SOL    HW230645   4.741   2.831   4.143
 9916SOL     OW30646   2.095   2.396   3.519
 9916SOL    HW130647   2.152   2.315   3.522
 9916SOL    HW230648   2.020   2.387   3.584
 9917SOL     OW30649   2.979   3.714   4.553
 9917SOL    HW130650   3.073   3.724   4.589
 9917SOL    HW230651   2.983   3.690   4.456
 9918SOL     OW30652   0.693   2.473   1.032
 9918SOL    HW130653   0.620   2.443   1.093
 9918SOL    HW230654   0.782   2.461   1.077
 9919SOL     OW30655   2.372   6.077   1.415
 9919SOL    HW130656   2.462   6.101   1.452
 9919SOL    HW230657   2.366   6.106   1.320
 9920SOL     OW30658   3.549   0.728   3.183
 9920SOL    HW130659   3.470   0.787   3.167
 9920SOL    HW230660   3.534   0.674   3.266
 9921SOL     OW30661   5.233   6.276   4.338
 9921SOL    HW130662   5.270   6.186   4.358
 9921SOL    HW230663   5.305   6.345   4.346
 9922SOL     OW30664   4.923   4.474   0.679
 9922SOL    HW130665   4.854   4.412   0.641
 9922SOL    HW230666   4.986   4.422   0.736
 9923SOL     OW30667   6.965   3.334   0.244
 9923SOL    HW130668   6.962   3.424   0.288
 9923SOL    HW230669   6.878   3.318   0.197
 9924SOL     OW30670   5.268   2.392   3.340
 9924SOL    HW130671   5.228   2.320   3.284
 9924SOL    HW230672   5.365   2.401   3.319
 9925SOL     OW30673   1.844   4.590   4.642
 9925SOL    HW130674   1.787   4.663   4.679
 9925SOL    HW230675   1.905   4.555   4.713
 9926SOL     OW30676   3.318   2.260   1.261
 9926SOL    HW130677   3.351   2.238   1.169
 9926SOL    HW230678   3.375   2.212   1.328
 9927SOL     OW30679   0.817   2.154   0.978
 9927SOL    HW130680   0.767   2.146   1.064
 9927SOL    HW230681   0.868   2.240   0.976
 9928SOL     OW30682   5.622   3.888   2.611
 9928SOL    HW130683   5.615   3.823   2.688
 9928SOL    HW230684   5.538   3.884   2.558
 9929SOL     OW30685   3.409   4.489   5.312
 9929SOL    HW130686   3.412   4.589   5.318
 9929SOL    HW230687   3.314   4.458   5.319
 9930SOL     OW30688   0.529   0.329   6.066
 9930SOL    HW130689   0.448   0.334   6.008
 9930SOL    HW230690   0.551   0.233   6.083
 9931SOL     OW30691   6.903   5.484   4.998
 9931SOL    HW130692   6.964   5.483   4.918
 9931SOL    HW230693   6.904   5.394   5.041
 9932SOL     OW30694   1.481   1.612   6.687
 9932SOL    HW130695   1.511   1.624   6.592
 9932SOL    HW230696   1.385   1.637   6.696
 9933SOL     OW30697   1.622   0.777   4.152
 9933SOL    HW130698   1.578   0.692   4.123
 9933SOL    HW230699   1.703   0.756   4.206
 9934SOL     OW30700   6.397   1.992   6.812
 9934SOL    HW130701   6.362   2.083   6.789
 9934SOL    HW230702   6.485   1.977   6.766
 9935SOL     OW30703   2.205   0.793   0.390
 9935SOL    HW130704   2.241   0.878   0.429
 9935SOL    HW230705   2.265   0.763   0.315
 9936SOL     OW30706   6.663   5.071   6.651
 9936SOL    HW130707   6.638   4.982   6.691
 9936SOL    HW230708   6.756   5.065   6.613
 9937SOL     OW30709   1.486   0.844   3.213
 9937SOL    HW130710   1.403   0.790   3.199
 9937SOL    HW230711   1.502   0.902   3.133
 9938SOL     OW30712   5.544   0.342   4.152
 9938SOL    HW130713   5.483   0.402   4.203
 9938SOL    HW230714   5.543   0.369   4.055
 9939SOL     OW30715   2.414   3.068   1.028
 9939SOL    HW130716   2.374   2.998   1.087
 9939SOL    HW230717   2.347   3.097   0.960
 9940SOL     OW30718   0.890   0.785   3.923
 9940SOL    HW130719   0.903   0.783   3.824
 9940SOL    HW230720   0.958   0.727   3.967
 9941SOL     OW30721   3.098   5.652   5.657
 9941SOL    HW130722   3.048   5.684   5.738
 9941SOL    HW230723   3.113   5.553   5.665
 9942SOL     OW30724   4.699   5.190   2.104
 9942SOL    HW130725   4.658   5.272   2.063
 9942SOL    HW230726   4.626   5.126   2.128
 9943SOL     OW30727   1.294   4.055   6.566
 9943SOL    HW130728   1.393   4.065   6.566
 9943SOL    HW230729   1.262   4.038   6.473
 9944SOL     OW30730   6.674   5.439   6.340
 9944SOL    HW130731   6.668   5.537   6.323
 9944SOL    HW230732   6.637   5.418   6.430
 9945SOL     OW30733   5.564   3.907   6.623
 9945SOL    HW130734   5.493   3.853   6.670
 9945SOL    HW230735   5.624   3.845   6.573
 9946SOL     OW30736   6.168   0.126   3.257
 9946SOL    HW130737   6.226   0.079   3.323
 9946SOL    HW230738   6.214   0.210   3.226
 9947SOL     OW30739   2.041   1.540   3.729
 9947SOL    HW130740   2.093   1.550   3.814
 9947SOL    HW230741   2.020   1.630   3.691
 9948SOL     OW30742   6.667   5.542   5.605
 9948SOL    HW130743   6.655   5.478   5.681
 9948SOL    HW230744   6.762   5.538   5.573
 9949SOL     OW30745   0.042   5.203   4.222
 9949SOL    HW130746   0.122   5.220   4.279
 9949SOL    HW230747   0.040   5.107   4.194
 9950SOL     OW30748   6.861   5.498   5.863
 9950SOL    HW130749   6.902   5.465   5.948
 9950SOL    HW230750   6.919   5.570   5.824
 9951SOL     OW30751   1.811   2.069   2.613
 9951SOL    HW130752   1.754   2.144   2.580
 9951SOL    HW230753   1.821   2.000   2.541
 9952SOL     OW30754   1.628   4.392   1.193
 9952SOL    HW130755   1.548   4.356   1.146
 9952SOL    HW230756   1.606   4.410   1.289
 9953SOL     OW30757   5.444   2.714   3.839
 9953SOL    HW130758   5.450   2.630   3.785
 9953SOL    HW230759   5.381   2.699   3.916
 9954SOL     OW30760   1.408   0.407   4.930
 9954SOL    HW130761   1.466   0.326   4.921
 9954SOL    HW230762   1.322   0.393   4.881
 9955SOL     OW30763   4.356   3.835   6.593
 9955SOL    HW130764   4.314   3.789   6.516
 9955SOL    HW230765   4.295   3.906   6.628
 9956SOL     OW30766   0.582   3.585   2.477
 9956SOL    HW130767   0.514   3.575   2.550
 9956SOL    HW230768   0.673   3.562   2.512
 9957SOL     OW30769   5.438   6.840   2.085
 9957SOL    HW130770   5.481   6.770   2.027
 9957SOL    HW230771   5.461   6.931   2.050
 9958SOL     OW30772   3.335   6.124   5.568
 9958SOL    HW130773   3.320   6.039   5.619
 9958SOL    HW230774   3.369   6.103   5.477
 9959SOL     OW30775   4.034   3.477   2.554
 9959SOL    HW130776   4.045   3.412   2.629
 9959SOL    HW230777   4.065   3.568   2.584
 9960SOL     OW30778   0.530   6.524   1.046
 9960SOL    HW130779   0.450   6.585   1.047
 9960SOL    HW230780   0.600   6.562   0.985
 9961SOL     OW30781   2.419   4.480   2.641
 9961SOL    HW130782   2.436   4.395   2.691
 9961SOL    HW230783   2.391   4.551   2.706
 9962SOL     OW30784   3.714   0.780   2.155
 9962SOL    HW130785   3.753   0.712   2.093
 9962SOL    HW230786   3.682   0.859   2.103
 9963SOL     OW30787   2.563   3.602   6.177
 9963SOL    HW130788   2.608   3.596   6.087
 9963SOL    HW230789   2.466   3.625   6.164
 9964SOL     OW30790   3.907   4.708   5.872
 9964SOL    HW130791   3.956   4.621   5.873
 9964SOL    HW230792   3.973   4.783   5.867
 9965SOL     OW30793   3.295   5.238   4.837
 9965SOL    HW130794   3.333   5.325   4.866
 9965SOL    HW230795   3.321   5.220   4.742
 9966SOL     OW30796   2.494   5.428   1.768
 9966SOL    HW130797   2.571   5.386   1.721
 9966SOL    HW230798   2.527   5.501   1.828
 9967SOL     OW30799   6.335   4.931   2.722
 9967SOL    HW130800   6.399   5.002   2.693
 9967SOL    HW230801   6.246   4.972   2.743
 9968SOL     OW30802   4.034   5.707   6.324
 9968SOL    HW130803   4.078   5.794   6.347
 9968SOL    HW230804   4.007   5.707   6.228
 9969SOL     OW30805   1.605   2.787   4.581
 9969SOL    HW130806   1.627   2.690   4.571
 9969SOL    HW230807   1.686   2.843   4.562
 9970SOL     OW30808   6.751   4.551   1.615
 9970SOL    HW130809   6.655   4.550   1.643
 9970SOL    HW230810   6.805   4.498   1.680
 9971SOL     OW30811   2.565   3.741   0.993
 9971SOL    HW130812   2.495   3.805   1.024
 9971SOL    HW230813   2.529   3.648   0.994
 9972SOL     OW30814   2.928   4.646   0.690
 9972SOL    HW130815   2.864   4.708   0.644
 9972SOL    HW230816   2.884   4.557   0.702
 9973SOL     OW30817   4.035   1.988   4.674
 9973SOL    HW130818   4.109   2.054   4.689
 9973SOL    HW230819   3.948   2.037   4.664
 9974SOL     OW30820   6.807   3.154   2.931
 9974SOL    HW130821   6.717   3.169   2.972
 9974SOL    HW230822   6.853   3.241   2.917
 9975SOL     OW30823   0.278   4.880   6.708
 9975SOL    HW130824   0.256   4.975   6.688
 9975SOL    HW230825   0.337   4.875   6.788
 9976SOL     OW30826   0.347   5.034   5.368
 9976SOL    HW130827   0.258   5.023   5.413
 9976SOL    HW230828   0.418   4.996   5.426
 9977SOL     OW30829   5.915   5.219   6.046
 9977SOL    HW130830   5.858   5.293   6.009
 9977SOL    HW230831   5.899   5.135   5.994
 9978SOL     OW30832   6.266   1.498   5.268
 9978SOL    HW130833   6.285   1.522   5.363
 9978SOL    HW230834   6.341   1.531   5.211
 9979SOL     OW30835   6.932   4.044   6.379
 9979SOL    HW130836   6.840   4.052   6.341
 9979SOL    HW230837   6.970   3.954   6.358
 9980SOL     OW30838   1.772   0.386   0.727
 9980SOL    HW130839   1.741   0.362   0.819
 9980SOL    HW230840   1.766   0.305   0.668
 9981SOL     OW30841   3.085   1.880   0.654
 9981SOL    HW130842   3.130   1.969   0.664
 9981SOL    HW230843   3.139   1.810   0.699
 9982SOL     OW30844   1.178   1.265   4.144
 9982SOL    HW130845   1.248   1.283   4.074
 9982SOL    HW230846   1.184   1.169   4.172
 9983SOL     OW30847   0.651   1.002   2.195
 9983SOL    HW130848   0.662   0.960   2.105
 9983SOL    HW230849   0.645   1.101   2.184
 9984SOL     OW30850   0.343   6.889   0.430
 9984SOL    HW130851   0.366   6.855   0.521
 9984SOL    HW230852   0.366   6.819   0.362
 9985SOL     OW30853   3.161   6.488   1.280
 9985SOL    HW130854   3.250   6.533   1.283
 9985SOL    HW230855   3.092   6.552   1.245
 9986SOL     OW30856   5.996   5.021   0.287
 9986SOL    HW130857   6.023   5.104   0.335
 9986SOL    HW230858   5.913   4.984   0.329
 9987SOL     OW30859   6.633   2.026   2.973
 9987SOL    HW130860   6.632   2.044   3.071
 9987SOL    HW230861   6.546   1.986   2.945
 9988SOL     OW30862   6.807   5.493   4.564
 9988SOL    HW130863   6.728   5.454   4.517
 9988SOL    HW230864   6.817   5.589   4.539
 9989SOL     OW30865   5.968   3.883   2.664
 9989SOL    HW130866   5.927   3.975   2.662
 9989SOL    HW230867   5.905   3.820   2.708
 9990SOL     OW30868   2.345   6.673   3.769
 9990SOL    HW130869   2.326   6.646   3.675
 9990SOL    HW230870   2.351   6.592   3.827
 9991SOL     OW30871   1.903   3.269   4.259
 9991SOL    HW130872   1.961   3.343   4.295
 9991SOL    HW230873   1.960   3.190   4.237
 9992SOL     OW30874   4.199   3.678   0.521
 9992SOL    HW130875   4.130   3.605   0.521
 9992SOL    HW230876   4.290   3.638   0.529
 9993SOL     OW30877   3.745   6.375   3.188
 9993SOL    HW130878   3.714   6.313   3.260
 9993SOL    HW230879   3.793   6.453   3.229
 9994SOL     OW30880   6.923   3.955   2.886
 9994SOL    HW130881   6.987   3.921   2.955
 9994SOL    HW230882   6.917   3.889   2.811
 9995SOL     OW30883   3.267   6.978   3.786
 9995SOL    HW130884   3.254   6.883   3.758
 9995SOL    HW230885   3.342   6.984   3.851
 9996SOL     OW30886   2.828   3.348   1.437
 9996SOL    HW130887   2.809   3.436   1.480
 9996SOL    HW230888   2.829   3.276   1.507
 9997SOL     OW30889   5.034   1.111   1.536
 9997SOL    HW130890   4.985   1.071   1.613
 9997SOL    HW230891   5.124   1.141   1.565
 9998SOL     OW30892   5.556   3.969   2.295
 9998SOL    HW130893   5.646   3.926   2.297
 9998SOL    HW230894   5.541   4.016   2.382
 9999SOL     OW30895   0.174   5.926   5.024
 9999SOL    HW130896   0.271   5.944   5.041
 9999SOL    HW230897   0.153   5.947   4.929
10000SOL     OW30898   5.882   2.007   6.551
10000SOL    HW130899   5.869   1.984   6.454
10000SOL    HW230900   5.955   1.950   6.589
10001SOL     OW30901   4.121   0.782   1.622
10001SOL    HW130902   4.024   0.796   1.602
10001SOL    HW230903   4.147   0.688   1.598
10002SOL     OW30904   1.263   0.960   1.564
10002SOL    HW130905   1.264   1.059   1.579
10002SOL    HW230906   1.191   0.919   1.620
10003SOL     OW30907   2.895   2.221   2.297
10003SOL    HW130908   2.965   2.274   2.248
10003SOL    HW230909   2.832   2.180   2.231
10004SOL     OW30910   5.495   3.069   5.049
10004SOL    HW130911   5.537   3.002   4.988
10004SOL    HW230912   5.495   3.159   5.006
10005SOL     OW30913   3.443   5.709   2.440
10005SOL    HW130914   3.368   5.643   2.428
10005SOL    HW230915   3.516   5.689   2.376
10006SOL     OW30916   5.902   0.594   5.617
10006SOL    HW130917   5.963   0.648   5.559
10006SOL    HW230918   5.919   0.497   5.601
10007SOL     OW30919   0.858   2.971   4.203
10007SOL    HW130920   0.929   2.945   4.137
10007SOL    HW230921   0.770   2.933   4.174
10008SOL     OW30922   4.242   1.202   3.200
10008SOL    HW130923   4.207   1.164   3.286
10008SOL    HW230924   4.165   1.216   3.137
10009SOL     OW30925   1.889   4.567   1.607
10009SOL    HW130926   1.857   4.561   1.702
10009SOL    HW230927   1.975   4.619   1.604
10010SOL     OW30928   2.036   6.160   0.058
10010SOL    HW130929   2.120   6.109   0.079
10010SOL    HW230930   2.047   6.208   7.001
10011SOL     OW30931   0.688   3.381   6.664
10011SOL    HW130932   0.769   3.435   6.641
10011SOL    HW230933   0.697   3.347   6.758
10012SOL     OW30934   5.472   6.535   2.256
10012SOL    HW130935   5.555   6.496   2.296
10012SOL    HW230936   5.445   6.482   2.176
10013SOL     OW30937   1.786   1.648   4.026
10013SOL    HW130938   1.779   1.709   3.947
10013SOL    HW230939   1.754   1.696   4.108
10014SOL     OW30940   0.624   1.605   1.330
10014SOL    HW130941   0.544   1.621   1.272
10014SOL    HW230942   0.656   1.692   1.367
10015SOL     OW30943   4.338   5.103   6.826
10015SOL    HW130944   4.345   5.203   6.825
10015SOL    HW230945   4.357   5.069   6.917
10016SOL     OW30946   1.379   0.498   4.376
10016SOL    HW130947   1.461   0.526   4.427
10016SOL    HW230948   1.353   0.571   4.313
10017SOL     OW30949   1.731   1.914   2.829
10017SOL    HW130950   1.729   1.971   2.746
10017SOL    HW230951   1.681   1.961   2.901
10018SOL     OW30952   6.827   4.429   6.493
10018SOL    HW130953   6.897   4.376   6.445
10018SOL    HW230954   6.752   4.370   6.519
10019SOL     OW30955   0.655   2.333   3.520
10019SOL    HW130956   0.717   2.411   3.515
10019SOL    HW230957   0.688   2.260   3.460
10020SOL     OW30958   0.210   1.008   1.492
10020SOL    HW130959   0.124   0.963   1.517
10020SOL    HW230960   0.285   0.967   1.544
10021SOL     OW30961   0.982   2.025   2.666
10021SOL    HW130962   0.964   1.927   2.656
10021SOL    HW230963   1.019   2.061   2.580
10022SOL     OW30964   3.840   6.758   0.937
10022SOL    HW130965   3.756   6.798   0.900
10022SOL    HW230966   3.893   6.717   0.864
10023SOL     OW30967   2.174   4.713   5.042
10023SOL    HW130968   2.091   4.658   5.031
10023SOL    HW230969   2.227   4.711   4.957
10024SOL     OW30970   1.849   6.300   2.000
10024SOL    HW130971   1.804   6.211   2.009
10024SOL    HW230972   1.944   6.287   1.972
10025SOL     OW30973   2.235   2.435   1.960
10025SOL    HW130974   2.169   2.495   1.915
10025SOL    HW230975   2.214   2.427   2.057
10026SOL     OW30976   4.819   6.975   3.109
10026SOL    HW130977   4.841   6.887   3.066
10026SOL    HW230978   4.786   0.009   3.040
10027SOL     OW30979   0.745   3.415   4.801
10027SOL    HW130980   0.699   3.488   4.751
10027SOL    HW230981   0.677   3.349   4.833
10028SOL     OW30982   1.285   1.682   2.163
10028SOL    HW130983   1.326   1.658   2.074
10028SOL    HW230984   1.355   1.677   2.234
10029SOL     OW30985   2.196   1.787   3.975
10029SOL    HW130986   2.209   1.688   3.971
10029SOL    HW230987   2.211   1.819   4.068
10030SOL     OW30988   3.148   0.302   4.635
10030SOL    HW130989   3.066   0.325   4.582
10030SOL    HW230990   3.222   0.276   4.572
10031SOL     OW30991   5.668   4.767   4.189
10031SOL    HW130992   5.629   4.683   4.153
10031SOL    HW230993   5.607   4.804   4.260
10032SOL     OW30994   3.693   0.796   5.132
10032SOL    HW130995   3.747   0.718   5.166
10032SOL    HW230996   3.675   0.860   5.206
10033SOL     OW30997   4.483   2.394   4.062
10033SOL    HW130998   4.568   2.341   4.064
10033SOL    HW230999   4.458   2.421   4.155
10034SOL     OW31000   3.569   0.295   4.148
10034SOL    HW131001   3.584   0.247   4.061
10034SOL    HW231002   3.613   0.243   4.222
10035SOL     OW31003   6.840   4.782   1.862
10035SOL    HW131004   6.905   4.851   1.829
10035SOL    HW231005   6.754   4.789   1.811
10036SOL     OW31006   6.264   0.940   1.190
10036SOL    HW131007   6.336   0.885   1.149
10036SOL    HW231008   6.190   0.954   1.124
10037SOL     OW31009   6.130   1.507   0.166
10037SOL    HW131010   6.059   1.567   0.130
10037SOL    HW231011   6.183   1.468   0.091
10038SOL     OW31012   4.302   0.980   6.507
10038SOL    HW131013   4.277   0.909   6.441
10038SOL    HW231014   4.222   1.038   6.525
10039SOL     OW31015   3.984   6.930   5.334
10039SOL    HW131016   3.888   6.925   5.306
10039SOL    HW231017   4.021   7.019   5.308
10040SOL     OW31018   4.279   5.931   6.340
10040SOL    HW131019   4.304   6.023   6.311
10040SOL    HW231020   4.301   5.866   6.268
10041SOL     OW31021   4.161   5.769   6.829
10041SOL    HW131022   4.125   5.691   6.777
10041SOL    HW231023   4.093   5.800   6.895
10042SOL     OW31024   1.443   1.803   5.119
10042SOL    HW131025   1.514   1.744   5.158
10042SOL    HW231026   1.485   1.883   5.078
10043SOL     OW31027   0.415   2.395   4.303
10043SOL    HW131028   0.421   2.298   4.329
10043SOL    HW231029   0.329   2.432   4.336
10044SOL     OW31030   3.174   1.581   4.948
10044SOL    HW131031   3.202   1.490   4.979
10044SOL    HW231032   3.133   1.631   5.025
10045SOL     OW31033   5.073   0.046   3.615
10045SOL    HW131034   4.987   7.026   3.624
10045SOL    HW231035   5.068   0.107   3.536
10046SOL     OW31036   1.810   3.514   1.183
10046SOL    HW131037   1.742   3.588   1.180
10046SOL    HW231038   1.840   3.501   1.277
10047SOL     OW31039   6.003   3.478   4.871
10047SOL    HW131040   6.062   3.427   4.933
10047SOL    HW231041   5.973   3.562   4.915
10048SOL     OW31042   6.354   1.219   2.570
10048SOL    HW131043   6.406   1.304   2.565
10048SOL    HW231044   6.393   1.160   2.640
10049SOL     OW31045   0.095   0.032   6.781
10049SOL    HW131046   0.160   6.994   6.815
10049SOL    HW231047   0.006   7.018   6.767
10050SOL     OW31048   5.829   2.597   4.153
10050SOL    HW131049   5.819   2.564   4.247
10050SOL    HW231050   5.743   2.580   4.103
10051SOL     OW31051   6.006   2.335   4.986
10051SOL    HW131052   5.994   2.254   4.930
10051SOL    HW231053   5.918   2.382   4.998
10052SOL     OW31054   2.516   2.086   2.893
10052SOL    HW131055   2.459   2.161   2.859
10052SOL    HW231056   2.465   2.032   2.960
10053SOL     OW31057   3.350   6.211   2.210
10053SOL    HW131058   3.338   6.163   2.123
10053SOL    HW231059   3.266   6.203   2.264
10054SOL     OW31060   5.013   5.024   6.283
10054SOL    HW131061   4.997   5.096   6.215
10054SOL    HW231062   5.005   5.062   6.375
10055SOL     OW31063   6.143   1.938   4.764
10055SOL    HW131064   6.043   1.937   4.767
10055SOL    HW231065   6.176   2.032   4.768
10056SOL     OW31066   5.493   4.135   3.061
10056SOL    HW131067   5.465   4.139   3.157
10056SOL    HW231068   5.591   4.118   3.056
10057SOL     OW31069   4.035   1.571   4.684
10057SOL    HW131070   4.021   1.637   4.610
10057SOL    HW231071   4.076   1.488   4.647
10058SOL     OW31072   0.519   4.156   4.740
10058SOL    HW131073   0.553   4.195   4.654
10058SOL    HW231074   0.596   4.114   4.789
10059SOL     OW31075   5.234   0.561   1.357
10059SOL    HW131076   5.140   0.569   1.324
10059SOL    HW231077   5.234   0.557   1.457
10060SOL     OW31078   1.493   1.429   1.303
10060SOL    HW131079   1.528   1.336   1.317
10060SOL    HW231080   1.544   1.493   1.360
10061SOL     OW31081   4.535   1.657   3.929
10061SOL    HW131082   4.580   1.727   3.873
10061SOL    HW231083   4.473   1.701   3.994
10062SOL     OW31084   6.284   0.522   4.314
10062SOL    HW131085   6.287   0.425   4.337
10062SOL    HW231086   6.314   0.576   4.392
10063SOL     OW31087   2.284   0.420   3.804
10063SOL    HW131088   2.263   0.505   3.756
10063SOL    HW231089   2.203   0.360   3.801
10064SOL     OW31090   5.114   6.796   7.023
10064SOL    HW131091   5.108   6.891   0.024
10064SOL    HW231092   5.186   6.749   0.043
10065SOL     OW31093   2.083   0.472   1.711
10065SOL    HW131094   2.017   0.398   1.703
10065SOL    HW231095   2.115   0.478   1.806
10066SOL     OW31096   0.686   2.464   3.765
10066SOL    HW131097   0.702   2.378   3.717
10066SOL    HW231098   0.612   2.453   3.831
10067SOL     OW31099   6.526   3.891   5.239
10067SOL    HW131100   6.593   3.818   5.231
10067SOL    HW231101   6.551   3.967   5.178
10068SOL     OW31102   0.637   3.633   3.395
10068SOL    HW131103   0.590   3.549   3.424
10068SOL    HW231104   0.683   3.617   3.308
10069SOL     OW31105   2.276   5.166   2.606
10069SOL    HW131106   2.224   5.226   2.667
10069SOL    HW231107   2.353   5.217   2.568
10070SOL     OW31108   6.496   6.668   5.056
10070SOL    HW131109   6.517   6.609   4.978
10070SOL    HW231110   6.426   6.624   5.113
10071SOL     OW31111   6.148   5.666   4.465
10071SOL    HW131112   6.156   5.611   4.381
10071SOL    HW231113   6.082   5.623   4.526
10072SOL     OW31114   6.877   6.782   3.889
10072SOL    HW131115   6.936   6.701   3.890
10072SOL    HW231116   6.817   6.779   3.809
10073SOL     OW31117   6.072   4.392   5.462
10073SOL    HW131118   6.153   4.337   5.444
10073SOL    HW231119   5.990   4.335   5.454
10074SOL     OW31120   1.563   0.618   5.478
10074SOL    HW131121   1.632   0.683   5.508
10074SOL    HW231122   1.534   0.640   5.385
10075SOL     OW31123   1.800   2.884   3.075
10075SOL    HW131124   1.836   2.819   3.008
10075SOL    HW231125   1.859   2.885   3.156
10076SOL     OW31126   0.212   0.341   4.505
10076SOL    HW131127   0.239   0.276   4.434
10076SOL    HW231128   0.205   0.295   4.593
10077SOL     OW31129   3.933   2.973   6.233
10077SOL    HW131130   3.898   3.053   6.184
10077SOL    HW231131   4.023   2.995   6.272
10078SOL     OW31132   0.584   6.093   3.659
10078SOL    HW131133   0.619   6.117   3.750
10078SOL    HW231134   0.485   6.079   3.664
10079SOL     OW31135   6.524   3.907   3.497
10079SOL    HW131136   6.431   3.869   3.496
10079SOL    HW231137   6.535   3.965   3.577
10080SOL     OW31138   4.409   1.165   6.000
10080SOL    HW131139   4.368   1.176   5.909
10080SOL    HW231140   4.498   1.212   6.002
10081SOL     OW31141   0.098   0.259   0.924
10081SOL    HW131142   0.043   0.288   1.003
10081SOL    HW231143   0.127   0.164   0.937
10082SOL     OW31144   0.391   5.408   1.414
10082SOL    HW131145   0.427   5.501   1.409
10082SOL    HW231146   0.300   5.405   1.372
10083SOL     OW31147   4.157   1.107   3.455
10083SOL    HW131148   4.219   1.036   3.489
10083SOL    HW231149   4.063   1.084   3.480
10084SOL     OW31150   1.862   1.144   5.496
10084SOL    HW131151   1.808   1.197   5.430
10084SOL    HW231152   1.881   1.201   5.576
10085SOL     OW31153   2.641   5.801   1.309
10085SOL    HW131154   2.678   5.746   1.384
10085SOL    HW231155   2.543   5.783   1.300
10086SOL     OW31156   4.256   6.117   2.199
10086SOL    HW131157   4.237   6.043   2.264
10086SOL    HW231158   4.270   6.079   2.108
10087SOL     OW31159   6.809   0.162   3.885
10087SOL    HW131160   6.873   0.203   3.949
10087SOL    HW231161   6.728   0.220   3.875
10088SOL     OW31162   6.620   0.017   1.479
10088SOL    HW131163   6.583   0.069   1.556
10088SOL    HW231164   6.586   0.054   1.393
10089SOL     OW31165   3.033   1.894   2.822
10089SOL    HW131166   2.941   1.933   2.826
10089SOL    HW231167   3.035   1.820   2.754
10090SOL     OW31168   1.087   5.039   1.900
10090SOL    HW131169   1.013   5.101   1.927
10090SOL    HW231170   1.050   4.964   1.846
10091SOL     OW31171   0.574   3.938   6.631
10091SOL    HW131172   0.653   3.999   6.628
10091SOL    HW231173   0.494   3.989   6.663
10092SOL     OW31174   2.278   2.262   5.641
10092SOL    HW131175   2.331   2.276   5.558
10092SOL    HW231176   2.181   2.264   5.620
10093SOL     OW31177   6.296   3.102   4.809
10093SOL    HW131178   6.347   3.085   4.893
10093SOL    HW231179   6.199   3.119   4.831
10094SOL     OW31180   3.535   5.851   1.679
10094SOL    HW131181   3.571   5.868   1.771
10094SOL    HW231182   3.448   5.802   1.686
10095SOL     OW31183   5.647   1.944   5.125
10095SOL    HW131184   5.651   1.856   5.172
10095SOL    HW231185   5.739   1.969   5.094
10096SOL     OW31186   4.441   5.642   3.164
10096SOL    HW131187   4.350   5.633   3.124
10096SOL    HW231188   4.502   5.574   3.124
10097SOL     OW31189   0.962   1.137   0.361
10097SOL    HW131190   1.012   1.169   0.280
10097SOL    HW231191   1.001   1.179   0.443
10098SOL     OW31192   2.475   6.973   5.257
10098SOL    HW131193   2.440   0.026   5.213
10098SOL    HW231194   2.451   6.973   5.354
10099SOL     OW31195   0.339   4.936   0.834
10099SOL    HW131196   0.354   4.860   0.897
10099SOL    HW231197   0.425   4.987   0.823
10100SOL     OW31198   4.533   6.826   4.836
10100SOL    HW131199   4.595   6.750   4.852
10100SOL    HW231200   4.482   6.810   4.751
10101SOL     OW31201   6.357   4.047   2.305
10101SOL    HW131202   6.360   4.078   2.210
10101SOL    HW231203   6.295   4.105   2.358
10102SOL     OW31204   0.606   1.355   2.612
10102SOL    HW131205   0.559   1.345   2.524
10102SOL    HW231206   0.541   1.380   2.683
10103SOL     OW31207   2.674   0.483   5.777
10103SOL    HW131208   2.614   0.410   5.746
10103SOL    HW231209   2.719   0.526   5.698
10104SOL     OW31210   1.961   1.825   4.242
10104SOL    HW131211   1.870   1.822   4.284
10104SOL    HW231212   1.969   1.753   4.174
10105SOL     OW31213   1.333   0.888   0.196
10105SOL    HW131214   1.292   0.972   0.161
10105SOL    HW231215   1.433   0.895   0.191
10106SOL     OW31216   3.621   6.470   0.131
10106SOL    HW131217   3.619   6.537   0.204
10106SOL    HW231218   3.535   6.418   0.130
10107SOL     OW31219   6.077   1.263   5.712
10107SOL    HW131220   6.083   1.258   5.811
10107SOL    HW231221   6.097   1.173   5.672
10108SOL     OW31222   6.455   0.386   0.017
10108SOL    HW131223   6.455   0.345   6.955
10108SOL    HW231224   6.383   0.456   0.021
10109SOL     OW31225   5.699   0.895   0.529
10109SOL    HW131226   5.764   0.898   0.605
10109SOL    HW231227   5.725   0.963   0.461
10110SOL     OW31228   4.023   4.999   4.786
10110SOL    HW131229   4.024   4.943   4.868
10110SOL    HW231230   3.937   4.984   4.736
10111SOL     OW31231   5.672   3.507   3.498
10111SOL    HW131232   5.667   3.426   3.439
10111SOL    HW231233   5.768   3.533   3.511
10112SOL     OW31234   5.646   3.790   3.496
10112SOL    HW131235   5.744   3.802   3.511
10112SOL    HW231236   5.619   3.698   3.524
10113SOL     OW31237   4.076   0.153   6.881
10113SOL    HW131238   3.988   0.116   6.851
10113SOL    HW231239   4.113   0.213   6.810
10114SOL     OW31240   4.640   1.734   1.317
10114SOL    HW131241   4.571   1.789   1.365
10114SOL    HW231242   4.730   1.773   1.333
10115SOL     OW31243   3.367   0.648   5.290
10115SOL    HW131244   3.417   0.632   5.205
10115SOL    HW231245   3.323   0.738   5.286
10116SOL     OW31246   0.563   6.557   0.101
10116SOL    HW131247   0.547   6.625   0.172
10116SOL    HW231248   0.571   6.602   0.013
10117SOL     OW31249   6.810   6.305   6.562
10117SOL    HW131250   6.720   6.290   6.521
10117SOL    HW231251   6.843   6.396   6.540
10118SOL     OW31252   2.103   4.614   2.468
10118SOL    HW131253   2.157   4.538   2.432
10118SOL    HW231254   2.026   4.632   2.407
10119SOL     OW31255   0.134   5.883   4.531
10119SOL    HW131256   0.150   5.952   4.602
10119SOL    HW231257   0.207   5.814   4.536
10120SOL     OW31258   2.132   3.373   4.400
10120SOL    HW131259   2.124   3.413   4.491
10120SOL    HW231260   2.126   3.273   4.407
10121SOL     OW31261   5.895   3.284   0.277
10121SOL    HW131262   5.930   3.289   0.184
10121SOL    HW231263   5.963   3.238   0.335
10122SOL     OW31264   6.006   3.036   2.553
10122SOL    HW131265   5.935   3.031   2.483
10122SOL    HW231266   6.070   2.960   2.542
10123SOL     OW31267   5.314   5.726   0.079
10123SOL    HW131268   5.288   5.667   0.156
10123SOL    HW231269   5.413   5.722   0.065
10124SOL     OW31270   1.421   4.576   0.547
10124SOL    HW131271   1.452   4.481   0.558
10124SOL    HW231272   1.441   4.627   0.630
10125SOL     OW31273   1.562   1.255   2.050
10125SOL    HW131274   1.569   1.216   2.142
10125SOL    HW231275   1.536   1.183   1.986
10126SOL     OW31276   6.707   0.032   6.916
10126SOL    HW131277   6.739   0.015   7.009
10126SOL    HW231278   6.710   0.130   6.897
10127SOL     OW31279   2.785   4.620   6.036
10127SOL    HW131280   2.881   4.592   6.043
10127SOL    HW231281   2.743   4.577   5.955
10128SOL     OW31282   2.787   1.247   6.939
10128SOL    HW131283   2.864   1.200   6.896
10128SOL    HW231284   2.771   1.208   0.000
10129SOL     OW31285   6.176   1.495   2.847
10129SOL    HW131286   6.248   1.513   2.780
10129SOL    HW231287   6.106   1.436   2.805
10130SOL     OW31288   1.362   2.502   1.104
10130SOL    HW131289   1.390   2.436   1.174
10130SOL    HW231290   1.363   2.594   1.143
10131SOL     OW31291   1.365   6.663   5.042
10131SOL    HW131292   1.400   6.622   5.126
10131SOL    HW231293   1.367   6.595   4.969
10132SOL     OW31294   3.489   0.591   4.086
10132SOL    HW131295   3.413   0.606   4.150
10132SOL    HW231296   3.537   0.506   4.110
10133SOL     OW31297   3.832   6.387   0.274
10133SOL    HW131298   3.873   6.473   0.307
10133SOL    HW231299   3.764   6.408   0.204
10134SOL     OW31300   6.580   6.897   2.386
10134SOL    HW131301   6.517   6.838   2.435
10134SOL    HW231302   6.674   6.864   2.399
10135SOL     OW31303   4.859   3.355   3.190
10135SOL    HW131304   4.837   3.279   3.252
10135SOL    HW231305   4.852   3.323   3.095
10136SOL     OW31306   5.426   1.335   2.416
10136SOL    HW131307   5.521   1.366   2.411
10136SOL    HW231308   5.373   1.377   2.343
10137SOL     OW31309   6.924   3.203   4.372
10137SOL    HW131310   6.846   3.214   4.310
10137SOL    HW231311   7.003   3.253   4.335
10138SOL     OW31312   5.753   3.622   0.601
10138SOL    HW131313   5.799   3.579   0.524
10138SOL    HW231314   5.701   3.701   0.570
10139SOL     OW31315   2.964   3.502   3.603
10139SOL    HW131316   2.999   3.492   3.696
10139SOL    HW231317   2.962   3.599   3.578
10140SOL     OW31318   6.735   5.721   6.915
10140SOL    HW131319   6.753   5.684   7.006
10140SOL    HW231320   6.724   5.820   6.920
10141SOL     OW31321   3.806   0.981   5.881
10141SOL    HW131322   3.770   0.971   5.973
10141SOL    HW231323   3.904   1.003   5.885
10142SOL     OW31324   6.535   0.233   5.745
10142SOL    HW131325   6.470   0.222   5.821
10142SOL    HW231326   6.484   0.250   5.660
10143SOL     OW31327   5.400   1.391   0.405
10143SOL    HW131328   5.328   1.459   0.419
10143SOL    HW231329   5.449   1.411   0.320
10144SOL     OW31330   3.547   0.813   6.128
10144SOL    HW131331   3.642   0.841   6.116
10144SOL    HW231332   3.501   0.878   6.188
10145SOL     OW31333   3.359   5.433   3.660
10145SOL    HW131334   3.278   5.441   3.602
10145SOL    HW231335   3.427   5.377   3.614
10146SOL     OW31336   4.626   4.409   4.899
10146SOL    HW131337   4.537   4.430   4.939
10146SOL    HW231338   4.648   4.313   4.913
10147SOL     OW31339   5.247   4.160   6.036
10147SOL    HW131340   5.254   4.069   6.075
10147SOL    HW231341   5.198   4.156   5.949
10148SOL     OW31342   5.209   4.447   6.413
10148SOL    HW131343   5.109   4.446   6.403
10148SOL    HW231344   5.244   4.353   6.406
10149SOL     OW31345   5.756   3.615   1.844
10149SOL    HW131346   5.754   3.677   1.765
10149SOL    HW231347   5.775   3.667   1.927
10150SOL     OW31348   3.628   3.186   1.014
10150SOL    HW131349   3.635   3.193   1.113
10150SOL    HW231350   3.545   3.233   0.983
10151SOL     OW31351   0.716   5.626   0.039
10151SOL    HW131352   0.803   5.581   0.056
10151SOL    HW231353   0.709   5.709   0.096
10152SOL     OW31354   6.608   6.476   4.263
10152SOL    HW131355   6.674   6.411   4.225
10152SOL    HW231356   6.532   6.425   4.304
10153SOL     OW31357   4.611   5.813   3.013
10153SOL    HW131358   4.692   5.755   3.023
10153SOL    HW231359   4.532   5.767   3.053
10154SOL     OW31360   4.008   5.969   4.678
10154SOL    HW131361   3.917   5.971   4.637
10154SOL    HW231362   4.055   5.885   4.652
10155SOL     OW31363   3.690   2.321   6.419
10155SOL    HW131364   3.712   2.364   6.506
10155SOL    HW231365   3.708   2.222   6.425
10156SOL     OW31366   5.684   0.915   2.144
10156SOL    HW131367   5.619   0.972   2.194
10156SOL    HW231368   5.722   0.847   2.207
10157SOL     OW31369   0.404   2.044   0.246
10157SOL    HW131370   0.396   1.997   0.158
10157SOL    HW231371   0.313   2.058   0.285
10158SOL     OW31372   6.276   5.861   0.942
10158SOL    HW131373   6.228   5.774   0.950
10158SOL    HW231374   6.267   5.896   0.849
10159SOL     OW31375   2.475   3.219   0.619
10159SOL    HW131376   2.546   3.258   0.561
10159SOL    HW231377   2.389   3.214   0.568
10160SOL     OW31378   1.492   2.766   2.021
10160SOL    HW131379   1.453   2.688   2.069
10160SOL    HW231380   1.590   2.771   2.040
10161SOL     OW31381   4.310   3.865   0.744
10161SOL    HW131382   4.280   3.820   0.660
10161SOL    HW231383   4.268   3.820   0.822
10162SOL     OW31384   3.825   4.774   0.612
10162SOL    HW131385   3.891   4.701   0.596
10162SOL    HW231386   3.872   4.863   0.611
10163SOL     OW31387   6.427   3.736   0.131
10163SOL    HW131388   6.479   3.821   0.126
10163SOL    HW231389   6.398   3.720   0.226
10164SOL     OW31390   5.839   3.450   3.849
10164SOL    HW131391   5.878   3.510   3.779
10164SOL    HW231392   5.784   3.504   3.913
10165SOL     OW31393   6.444   1.225   3.654
10165SOL    HW131394   6.463   1.268   3.741
10165SOL    HW231395   6.515   1.249   3.588
10166SOL     OW31396   3.631   1.766   2.022
10166SOL    HW131397   3.641   1.849   1.968
10166SOL    HW231398   3.656   1.687   1.967
10167SOL     OW31399   1.348   4.609   0.065
10167SOL    HW131400   1.407   4.679   0.023
10167SOL    HW231401   1.361   4.610   0.164
10168SOL     OW31402   6.071   2.542   5.955
10168SOL    HW131403   6.092   2.627   5.906
10168SOL    HW231404   6.147   2.478   5.944
10169SOL     OW31405   0.272   4.017   3.775
10169SOL    HW131406   0.367   4.023   3.744
10169SOL    HW231407   0.227   3.939   3.731
10170SOL     OW31408   6.322   5.535   5.786
10170SOL    HW131409   6.236   5.483   5.787
10170SOL    HW231410   6.398   5.474   5.808
10171SOL     OW31411   0.284   2.321   5.215
10171SOL    HW131412   0.358   2.385   5.199
10171SOL    HW231413   0.206   2.345   5.157
10172SOL     OW31414   0.971   5.837   5.193
10172SOL    HW131415   0.953   5.867   5.100
10172SOL    HW231416   0.941   5.742   5.205
10173SOL     OW31417   2.443   2.361   0.636
10173SOL    HW131418   2.355   2.391   0.599
10173SOL    HW231419   2.432   2.269   0.675
10174SOL     OW31420   5.001   4.964   3.546
10174SOL    HW131421   4.907   4.974   3.512
10174SOL    HW231422   5.016   5.028   3.621
10175SOL     OW31423   5.151   2.163   3.243
10175SOL    HW131424   5.236   2.138   3.196
10175SOL    HW231425   5.076   2.106   3.209
10176SOL     OW31426   0.570   3.211   4.914
10176SOL    HW131427   0.481   3.257   4.910
10176SOL    HW231428   0.574   3.152   4.995
10177SOL     OW31429   2.039   0.958   1.578
10177SOL    HW131430   1.958   0.934   1.524
10177SOL    HW231431   2.054   1.057   1.574
10178SOL     OW31432   6.873   0.804   6.938
10178SOL    HW131433   6.778   0.779   6.957
10178SOL    HW231434   6.919   0.728   6.892
10179SOL     OW31435   0.535   2.480   6.913
10179SOL    HW131436   0.442   2.513   6.929
10179SOL    HW231437   0.574   2.527   6.834
10180SOL     OW31438   4.135   0.824   6.345
10180SOL    HW131439   4.152   0.726   6.354
10180SOL    HW231440   4.057   0.850   6.403
10181SOL     OW31441   6.429   3.443   1.999
10181SOL    HW131442   6.492   3.438   2.077
10181SOL    HW231443   6.349   3.496   2.023
10182SOL     OW31444   4.534   0.905   1.757
10182SOL    HW131445   4.463   0.897   1.687
10182SOL    HW231446   4.511   0.979   1.819
10183SOL     OW31447   6.544   2.775   5.986
10183SOL    HW131448   6.547   2.831   5.904
10183SOL    HW231449   6.454   2.784   6.029
10184SOL     OW31450   4.256   1.557   6.357
10184SOL    HW131451   4.354   1.576   6.368
10184SOL    HW231452   4.244   1.483   6.291
10185SOL     OW31453   6.168   6.017   3.039
10185SOL    HW131454   6.170   6.052   3.133
10185SOL    HW231455   6.120   6.082   2.980
10186SOL     OW31456   4.954   3.880   4.204
10186SOL    HW131457   4.913   3.916   4.121
10186SOL    HW231458   4.978   3.956   4.265
10187SOL     OW31459   1.311   3.642   6.753
10187SOL    HW131460   1.233   3.601   6.801
10187SOL    HW231461   1.341   3.581   6.680
10188SOL     OW31462   4.196   4.653   0.393
10188SOL    HW131463   4.107   4.683   0.360
10188SOL    HW231464   4.248   4.613   0.318
10189SOL     OW31465   0.324   0.851   6.952
10189SOL    HW131466   0.238   0.843   7.002
10189SOL    HW231467   0.306   0.884   6.859
10190SOL     OW31468   4.160   2.981   1.201
10190SOL    HW131469   4.173   2.890   1.242
10190SOL    HW231470   4.088   3.029   1.250
10191SOL     OW31471   4.409   5.620   6.743
10191SOL    HW131472   4.361   5.533   6.729
10191SOL    HW231473   4.358   5.676   6.807
10192SOL     OW31474   4.098   1.656   5.529
10192SOL    HW131475   4.113   1.755   5.538
10192SOL    HW231476   4.020   1.640   5.469
10193SOL     OW31477   3.805   3.016   2.050
10193SOL    HW131478   3.758   3.056   2.129
10193SOL    HW231479   3.903   3.036   2.055
10194SOL     OW31480   4.733   6.914   5.611
10194SOL    HW131481   4.765   6.840   5.553
10194SOL    HW231482   4.809   6.948   5.667
10195SOL     OW31483   6.580   6.190   0.494
10195SOL    HW131484   6.573   6.235   0.583
10195SOL    HW231485   6.628   6.103   0.505
10196SOL     OW31486   3.904   2.059   3.780
10196SOL    HW131487   3.885   1.994   3.706
10196SOL    HW231488   3.833   2.052   3.850
10197SOL     OW31489   5.245   1.963   4.642
10197SOL    HW131490   5.157   1.916   4.637
10197SOL    HW231491   5.295   1.934   4.723
10198SOL     OW31492   2.846   6.630   2.649
10198SOL    HW131493   2.793   6.706   2.611
10198SOL    HW231494   2.913   6.666   2.715
10199SOL     OW31495   1.271   2.739   0.782
10199SOL    HW131496   1.217   2.752   0.700
10199SOL    HW231497   1.331   2.660   0.772
10200SOL     OW31498   4.644   3.309   5.449
10200SOL    HW131499   4.662   3.286   5.545
10200SOL    HW231500   4.570   3.252   5.414
10201SOL     OW31501   1.579   5.390   7.015
10201SOL    HW131502   1.631   5.317   0.030
10201SOL    HW231503   1.527   5.352   6.939
10202SOL     OW31504   3.184   4.982   6.999
10202SOL    HW131505   3.136   4.990   6.912
10202SOL    HW231506   3.206   4.886   7.016
10203SOL     OW31507   0.145   3.124   2.339
10203SOL    HW131508   0.057   3.152   2.377
10203SOL    HW231509   0.152   3.024   2.340
10204SOL     OW31510   4.216   5.256   6.395
10204SOL    HW131511   4.202   5.230   6.299
10204SOL    HW231512   4.225   5.173   6.451
10205SOL     OW31513   2.574   1.246   2.326
10205SOL    HW131514   2.543   1.154   2.306
10205SOL    HW231515   2.509   1.291   2.388
10206SOL     OW31516   6.749   0.303   6.837
10206SOL    HW131517   6.762   0.330   6.742
10206SOL    HW231518   6.838   0.304   6.884
10207SOL     OW31519   0.759   2.032   0.040
10207SOL    HW131520   0.737   1.936   0.055
10207SOL    HW231521   0.678   2.081   0.008
10208SOL     OW31522   6.417   5.376   4.040
10208SOL    HW131523   6.373   5.336   4.120
10208SOL    HW231524   6.487   5.442   4.069
10209SOL     OW31525   0.146   6.685   6.611
10209SOL    HW131526   0.101   6.758   6.558
10209SOL    HW231527   0.243   6.684   6.589
10210SOL     OW31528   4.505   6.305   0.846
10210SOL    HW131529   4.596   6.306   0.804
10210SOL    HW231530   4.511   6.275   0.941
10211SOL     OW31531   4.847   6.254   4.653
10211SOL    HW131532   4.759   6.209   4.668
10211SOL    HW231533   4.914   6.216   4.717
10212SOL     OW31534   0.033   0.057   5.474
10212SOL    HW131535   6.988   0.093   5.418
10212SOL    HW231536   0.005   0.057   5.570
10213SOL     OW31537   5.277   3.082   1.937
10213SOL    HW131538   5.190   3.074   1.986
10213SOL    HW231539   5.352   3.087   2.003
10214SOL     OW31540   0.175   1.268   1.810
10214SOL    HW131541   0.163   1.310   1.720
10214SOL    HW231542   0.141   1.330   1.880
10215SOL     OW31543   3.671   3.381   3.685
10215SOL    HW131544   3.657   3.303   3.745
10215SOL    HW231545   3.679   3.464   3.739
10216SOL     OW31546   0.179   1.380   0.819
10216SOL    HW131547   0.234   1.437   0.760
10216SOL    HW231548   0.229   1.361   0.904
10217SOL     OW31549   1.925   2.368   3.866
10217SOL    HW131550   1.943   2.464   3.843
10217SOL    HW231551   1.865   2.364   3.946
10218SOL     OW31552   0.877   0.821   1.586
10218SOL    HW131553   0.951   0.824   1.653
10218SOL    HW231554   0.896   0.885   1.512
10219SOL     OW31555   0.072   2.363   2.410
10219SOL    HW131556   0.109   2.407   2.492
10219SOL    HW231557   7.002   2.369   2.411
10220SOL     OW31558   4.547   1.310   1.417
10220SOL    HW131559   4.483   1.241   1.451
10220SOL    HW231560   4.511   1.353   1.334
10221SOL     OW31561   1.851   3.893   4.710
10221SOL    HW131562   1.926   3.912   4.773
10221SOL    HW231563   1.885   3.838   4.633
10222SOL     OW31564   3.209   4.211   5.480
10222SOL    HW131565   3.269   4.248   5.551
10222SOL    HW231566   3.155   4.284   5.440
10223SOL     OW31567   3.009   5.438   0.823
10223SOL    HW131568   3.097   5.391   0.828
10223SOL    HW231569   2.936   5.370   0.821
10224SOL     OW31570   6.776   2.245   5.607
10224SOL    HW131571   6.754   2.322   5.548
10224SOL    HW231572   6.743   2.160   5.566
10225SOL     OW31573   1.678   6.186   5.913
10225SOL    HW131574   1.665   6.194   6.011
10225SOL    HW231575   1.769   6.150   5.894
10226SOL     OW31576   2.069   0.118   6.316
10226SOL    HW131577   2.085   0.112   6.414
10226SOL    HW231578   1.994   0.183   6.298
10227SOL     OW31579   5.030   4.310   6.931
10227SOL    HW131580   4.978   4.298   6.847
10227SOL    HW231581   5.030   4.407   6.957
10228SOL     OW31582   1.303   5.865   2.251
10228SOL    HW131583   1.318   5.940   2.315
10228SOL    HW231584   1.277   5.903   2.162
10229SOL     OW31585   1.980   2.489   4.515
10229SOL    HW131586   2.045   2.506   4.589
10229SOL    HW231587   2.011   2.412   4.460
10230SOL     OW31588   6.496   6.614   3.224
10230SOL    HW131589   6.448   6.702   3.229
10230SOL    HW231590   6.583   6.626   3.176
10231SOL     OW31591   6.530   4.556   5.185
10231SOL    HW131592   6.587   4.604   5.251
10231SOL    HW231593   6.559   4.461   5.179
10232SOL     OW31594   3.325   1.517   3.922
10232SOL    HW131595   3.328   1.536   4.020
10232SOL    HW231596   3.354   1.598   3.872
10233SOL     OW31597   4.186   3.898   5.500
10233SOL    HW131598   4.263   3.893   5.437
10233SOL    HW231599   4.113   3.953   5.460
10234SOL     OW31600   5.838   1.216   0.612
10234SOL    HW131601   5.882   1.191   0.525
10234SOL    HW231602   5.783   1.298   0.600
10235SOL     OW31603   3.186   1.964   1.160
10235SOL    HW131604   3.240   1.880   1.157
10235SOL    HW231605   3.151   1.984   1.068
10236SOL     OW31606   1.752   1.340   1.505
10236SOL    HW131607   1.677   1.286   1.467
10236SOL    HW231608   1.718   1.402   1.575
10237SOL     OW31609   0.165   3.830   6.656
10237SOL    HW131610   0.111   3.764   6.708
10237SOL    HW231611   0.114   3.916   6.649
10238SOL     OW31612   3.820   3.945   2.296
10238SOL    HW131613   3.816   4.022   2.361
10238SOL    HW231614   3.754   3.961   2.223
10239SOL     OW31615   1.993   3.497   5.759
10239SOL    HW131616   2.065   3.528   5.822
10239SOL    HW231617   1.993   3.555   5.678
10240SOL     OW31618   2.228   4.011   2.760
10240SOL    HW131619   2.296   4.083   2.769
10240SOL    HW231620   2.238   3.966   2.671
10241SOL     OW31621   6.967   5.899   3.143
10241SOL    HW131622   0.014   5.843   3.174
10241SOL    HW231623   6.999   5.961   3.071
10242SOL     OW31624   0.526   1.378   1.506
10242SOL    HW131625   0.561   1.437   1.432
10242SOL    HW231626   0.483   1.434   1.576
10243SOL     OW31627   2.297   4.822   2.481
10243SOL    HW131628   2.227   4.751   2.489
10243SOL    HW231629   2.282   4.892   2.550
10244SOL     OW31630   1.922   4.608   1.002
10244SOL    HW131631   1.890   4.702   1.014
10244SOL    HW231632   1.935   4.566   1.092
10245SOL     OW31633   3.621   4.898   0.813
10245SOL    HW131634   3.633   4.845   0.897
10245SOL    HW231635   3.675   4.856   0.740
10246SOL     OW31636   3.059   3.489   3.883
10246SOL    HW131637   2.992   3.510   3.954
10246SOL    HW231638   3.149   3.475   3.925
10247SOL     OW31639   0.273   3.895   6.336
10247SOL    HW131640   0.266   3.931   6.429
10247SOL    HW231641   0.184   3.860   6.306
10248SOL     OW31642   1.991   0.034   2.970
10248SOL    HW131643   2.007   6.983   2.914
10248SOL    HW231644   2.073   0.056   3.023
10249SOL     OW31645   2.317   6.656   6.761
10249SOL    HW131646   2.300   6.561   6.737
10249SOL    HW231647   2.317   6.712   6.679
10250SOL     OW31648   6.167   2.812   1.993
10250SOL    HW131649   6.259   2.822   1.956
10250SOL    HW231650   6.100   2.826   1.921
10251SOL     OW31651   2.423   1.561   4.343
10251SOL    HW131652   2.465   1.591   4.428
10251SOL    HW231653   2.493   1.521   4.284
10252SOL     OW31654   3.874   5.265   6.138
10252SOL    HW131655   3.842   5.174   6.165
10252SOL    HW231656   3.796   5.321   6.110
10253SOL     OW31657   3.123   6.970   0.287
10253SOL    HW131658   3.041   6.941   0.336
10253SOL    HW231659   3.145   0.034   0.314
10254SOL     OW31660   4.698   1.008   5.443
10254SOL    HW131661   4.609   0.985   5.483
10254SOL    HW231662   4.700   0.979   5.348
10255SOL     OW31663   2.305   6.132   0.821
10255SOL    HW131664   2.333   6.062   0.754
10255SOL    HW231665   2.218   6.172   0.792
10256SOL     OW31666   5.478   1.336   1.477
10256SOL    HW131667   5.521   1.289   1.399
10256SOL    HW231668   5.492   1.435   1.468
10257SOL     OW31669   1.944   4.997   4.627
10257SOL    HW131670   2.012   5.012   4.699
10257SOL    HW231671   1.980   5.031   4.540
10258SOL     OW31672   3.238   1.145   4.044
10258SOL    HW131673   3.298   1.185   3.975
10258SOL    HW231674   3.143   1.164   4.021
10259SOL     OW31675   0.591   5.304   3.457
10259SOL    HW131676   0.638   5.391   3.470
10259SOL    HW231677   0.546   5.278   3.542
10260SOL     OW31678   1.362   0.905   3.922
10260SOL    HW131679   1.382   0.907   4.020
10260SOL    HW231680   1.351   0.811   3.892
10261SOL     OW31681   6.883   4.892   2.879
10261SOL    HW131682   6.786   4.889   2.903
10261SOL    HW231683   6.896   4.851   2.788
10262SOL     OW31684   2.159   0.033   5.348
10262SOL    HW131685   2.164   6.994   5.276
10262SOL    HW231686   2.065   0.038   5.383
10263SOL     OW31687   5.439   0.453   6.813
10263SOL    HW131688   5.502   0.429   6.887
10263SOL    HW231689   5.401   0.370   6.772
10264SOL     OW31690   5.822   0.055   6.694
10264SOL    HW131691   5.829   0.147   6.734
10264SOL    HW231692   5.767   7.027   6.754
10265SOL     OW31693   2.258   2.978   1.272
10265SOL    HW131694   2.330   2.976   1.341
10265SOL    HW231695   2.176   3.020   1.311
10266SOL     OW31696   4.107   3.588   3.922
10266SOL    HW131697   4.187   3.638   3.890
10266SOL    HW231698   4.122   3.557   4.016
10267SOL     OW31699   5.520   2.579   6.380
10267SOL    HW131700   5.570   2.505   6.425
10267SOL    HW231701   5.424   2.578   6.410
10268SOL     OW31702   6.221   6.076   2.219
10268SOL    HW131703   6.148   6.106   2.280
10268SOL    HW231704   6.245   5.981   2.240
10269SOL     OW31705   0.228   3.049   0.033
10269SOL    HW131706   0.298   3.025   0.100
10269SOL    HW231707   0.220   2.976   6.995
10270SOL     OW31708   4.028   4.926   2.569
10270SOL    HW131709   3.992   4.891   2.655
10270SOL    HW231710   3.982   4.880   2.493
10271SOL     OW31711   3.310   2.868   5.793
10271SOL    HW131712   3.328   2.886   5.696
10271SOL    HW231713   3.357   2.784   5.821
10272SOL     OW31714   1.424   1.263   4.840
10272SOL    HW131715   1.341   1.291   4.888
10272SOL    HW231716   1.480   1.344   4.821
10273SOL     OW31717   3.171   5.894   2.560
10273SOL    HW131718   3.095   5.930   2.505
10273SOL    HW231719   3.255   5.899   2.507
10274SOL     OW31720   0.753   5.351   4.889
10274SOL    HW131721   0.830   5.333   4.827
10274SOL    HW231722   0.775   5.316   4.980
10275SOL     OW31723   0.309   6.284   1.593
10275SOL    HW131724   0.297   6.348   1.518
10275SOL    HW231725   0.262   6.319   1.674
10276SOL     OW31726   5.206   4.910   5.398
10276SOL    HW131727   5.115   4.911   5.357
10276SOL    HW231728   5.255   4.828   5.369
10277SOL     OW31729   1.404   5.343   3.500
10277SOL    HW131730   1.394   5.253   3.457
10277SOL    HW231731   1.467   5.399   3.446
10278SOL     OW31732   0.128   1.863   4.575
10278SOL    HW131733   0.098   1.854   4.670
10278SOL    HW231734   0.176   1.780   4.547
10279SOL     OW31735   2.320   5.189   4.205
10279SOL    HW131736   2.329   5.192   4.106
10279SOL    HW231737   2.407   5.159   4.245
10280SOL     OW31738   0.404   3.524   0.747
10280SOL    HW131739   0.325   3.540   0.806
10280SOL    HW231740   0.466   3.603   0.752
10281SOL     OW31741   5.939   1.697   2.342
10281SOL    HW131742   5.844   1.713   2.369
10281SOL    HW231743   5.941   1.656   2.251
10282SOL     OW31744   5.130   3.343   4.375
10282SOL    HW131745   5.047   3.386   4.412
10282SOL    HW231746   5.162   3.396   4.296
10283SOL     OW31747   1.482   3.385   0.544
10283SOL    HW131748   1.530   3.298   0.551
10283SOL    HW231749   1.415   3.393   0.618
10284SOL     OW31750   5.247   2.784   4.830
10284SOL    HW131751   5.268   2.688   4.845
10284SOL    HW231752   5.148   2.796   4.824
10285SOL     OW31753   5.850   0.013   2.348
10285SOL    HW131754   5.848   6.999   2.258
10285SOL    HW231755   5.944   0.032   2.374
10286SOL     OW31756   3.110   1.764   3.407
10286SOL    HW131757   3.161   1.840   3.448
10286SOL    HW231758   3.086   1.788   3.312
10287SOL     OW31759   1.651   6.987   1.301
10287SOL    HW131760   1.682   6.893   1.309
10287SOL    HW231761   1.717   0.018   1.345
10288SOL     OW31762   4.654   6.549   3.256
10288SOL    HW131763   4.598   6.467   3.248
10288SOL    HW231764   4.726   6.533   3.324
10289SOL     OW31765   2.090   6.501   0.342
10289SOL    HW131766   2.027   6.423   0.331
10289SOL    HW231767   2.175   6.482   0.294
10290SOL     OW31768   3.135   3.948   2.689
10290SOL    HW131769   3.163   4.025   2.631
10290SOL    HW231770   3.080   3.884   2.636
10291SOL     OW31771   4.473   1.329   3.071
10291SOL    HW131772   4.554   1.348   3.127
10291SOL    HW231773   4.400   1.294   3.129
10292SOL     OW31774   1.575   0.959   5.156
10292SOL    HW131775   1.600   1.010   5.074
10292SOL    HW231776   1.652   0.960   5.220
10293SOL     OW31777   2.361   4.263   2.823
10293SOL    HW131778   2.403   4.237   2.910
10293SOL    HW231779   2.279   4.317   2.841
10294SOL     OW31780   5.796   3.212   3.056
10294SOL    HW131781   5.718   3.265   3.089
10294SOL    HW231782   5.817   3.240   2.962
10295SOL     OW31783   6.345   4.275   5.982
10295SOL    HW131784   6.356   4.252   5.886
10295SOL    HW231785   6.416   4.229   6.036
10296SOL     OW31786   5.047   1.425   0.366
10296SOL    HW131787   4.979   1.353   0.381
10296SOL    HW231788   5.096   1.407   0.280
10297SOL     OW31789   1.977   6.903   6.644
10297SOL    HW131790   1.965   6.806   6.622
10297SOL    HW231791   1.904   6.956   6.600
10298SOL     OW31792   2.773   4.711   1.572
10298SOL    HW131793   2.769   4.669   1.482
10298SOL    HW231794   2.863   4.752   1.586
10299SOL     OW31795   5.180   4.878   3.186
10299SOL    HW131796   5.254   4.821   3.223
10299SOL    HW231797   5.207   4.912   3.095
10300SOL     OW31798   1.341   3.558   3.709
10300SOL    HW131799   1.243   3.540   3.713
10300SOL    HW231800   1.357   3.657   3.709
10301SOL     OW31801   5.092   2.533   4.557
10301SOL    HW131802   5.007   2.568   4.598
10301SOL    HW231803   5.155   2.610   4.541
10302SOL     OW31804   2.058   6.551   4.166
10302SOL    HW131805   2.031   6.551   4.262
10302SOL    HW231806   2.145   6.502   4.156
10303SOL     OW31807   1.900   6.517   3.014
10303SOL    HW131808   1.800   6.516   3.019
10303SOL    HW231809   1.935   6.427   3.038
10304SOL     OW31810   5.227   0.228   1.815
10304SOL    HW131811   5.227   0.271   1.906
10304SOL    HW231812   5.134   0.198   1.792
10305SOL     OW31813   1.028   4.551   6.789
10305SOL    HW131814   1.025   4.465   6.739
10305SOL    HW231815   0.960   4.614   6.751
10306SOL     OW31816   4.680   6.630   6.190
10306SOL    HW131817   4.633   6.541   6.192
10306SOL    HW231818   4.656   6.681   6.272
10307SOL     OW31819   2.602   2.029   5.563
10307SOL    HW131820   2.561   2.107   5.515
10307SOL    HW231821   2.609   2.051   5.660
10308SOL     OW31822   2.571   4.717   3.496
10308SOL    HW131823   2.663   4.727   3.458
10308SOL    HW231824   2.530   4.808   3.508
10309SOL     OW31825   6.877   1.892   5.244
10309SOL    HW131826   6.819   1.955   5.192
10309SOL    HW231827   6.900   1.933   5.332
10310SOL     OW31828   3.297   3.703   1.071
10310SOL    HW131829   3.228   3.753   1.124
10310SOL    HW231830   3.263   3.611   1.051
10311SOL     OW31831   6.996   6.143   0.137
10311SOL    HW131832   6.949   6.063   0.100
10311SOL    HW231833   0.052   6.114   0.179
10312SOL     OW31834   3.713   6.327   2.240
10312SOL    HW131835   3.766   6.321   2.155
10312SOL    HW231836   3.624   6.367   2.220
10313SOL     OW31837   5.033   6.597   1.321
10313SOL    HW131838   5.125   6.608   1.358
10313SOL    HW231839   5.033   6.617   1.223
10314SOL     OW31840   6.686   0.341   1.549
10314SOL    HW131841   6.655   0.358   1.643
10314SOL    HW231842   6.613   0.365   1.485
10315SOL     OW31843   4.955   6.138   4.862
10315SOL    HW131844   4.941   6.187   4.948
10315SOL    HW231845   4.951   6.040   4.878
10316SOL     OW31846   6.576   1.782   4.073
10316SOL    HW131847   6.517   1.816   4.000
10316SOL    HW231848   6.522   1.768   4.156
10317SOL     OW31849   4.177   5.403   4.976
10317SOL    HW131850   4.220   5.462   4.907
10317SOL    HW231851   4.231   5.320   4.988
10318SOL     OW31852   4.793   5.735   6.064
10318SOL    HW131853   4.846   5.719   5.981
10318SOL    HW231854   4.796   5.832   6.087
10319SOL     OW31855   1.457   2.256   5.620
10319SOL    HW131856   1.488   2.183   5.559
10319SOL    HW231857   1.382   2.222   5.677
10320SOL     OW31858   0.446   0.547   3.087
10320SOL    HW131859   0.416   0.601   3.166
10320SOL    HW231860   0.475   0.608   3.014
10321SOL     OW31861   4.002   1.344   2.265
10321SOL    HW131862   4.056   1.388   2.337
10321SOL    HW231863   3.936   1.281   2.306
10322SOL     OW31864   6.331   5.762   5.939
10322SOL    HW131865   6.335   5.833   5.869
10322SOL    HW231866   6.348   5.673   5.897
10323SOL     OW31867   6.014   2.966   5.637
10323SOL    HW131868   5.933   2.967   5.578
10323SOL    HW231869   6.096   2.957   5.580
10324SOL     OW31870   3.230   3.351   2.499
10324SOL    HW131871   3.268   3.283   2.561
10324SOL    HW231872   3.295   3.427   2.490
10325SOL     OW31873   0.341   3.878   2.522
10325SOL    HW131874   0.386   3.855   2.436
10325SOL    HW231875   0.394   3.949   2.570
10326SOL     OW31876   4.316   3.562   0.155
10326SOL    HW131877   4.296   3.575   0.058
10326SOL    HW231878   4.408   3.525   0.165
10327SOL     OW31879   2.645   2.228   1.381
10327SOL    HW131880   2.689   2.181   1.458
10327SOL    HW231881   2.588   2.302   1.416
10328SOL     OW31882   6.168   2.807   1.066
10328SOL    HW131883   6.072   2.833   1.061
10328SOL    HW231884   6.189   2.741   0.994
10329SOL     OW31885   3.596   0.114   3.925
10329SOL    HW131886   3.566   0.186   3.862
10329SOL    HW231887   3.521   0.050   3.940
10330SOL     OW31888   4.005   0.270   2.253
10330SOL    HW131889   4.024   0.368   2.248
10330SOL    HW231890   3.906   0.255   2.251
10331SOL     OW31891   0.196   1.604   4.989
10331SOL    HW131892   0.277   1.564   5.031
10331SOL    HW231893   0.141   1.650   5.060
10332SOL     OW31894   6.442   0.855   1.015
10332SOL    HW131895   6.471   0.781   0.955
10332SOL    HW231896   6.461   0.943   0.972
10333SOL     OW31897   6.159   4.224   4.643
10333SOL    HW131898   6.219   4.225   4.563
10333SOL    HW231899   6.174   4.140   4.695
10334SOL     OW31900   4.163   6.120   3.563
10334SOL    HW131901   4.119   6.148   3.478
10334SOL    HW231902   4.246   6.069   3.542
10335SOL     OW31903   2.907   4.447   6.530
10335SOL    HW131904   2.917   4.435   6.629
10335SOL    HW231905   2.832   4.390   6.497
10336SOL     OW31906   6.408   6.723   2.496
10336SOL    HW131907   6.472   6.728   2.572
10336SOL    HW231908   6.418   6.634   2.451
10337SOL     OW31909   0.032   6.924   5.908
10337SOL    HW131910   7.013   6.919   5.996
10337SOL    HW231911   0.039   6.832   5.869
10338SOL     OW31912   2.356   6.571   2.238
10338SOL    HW131913   2.272   6.578   2.183
10338SOL    HW231914   2.343   6.500   2.307
10339SOL     OW31915   3.367   5.789   0.455
10339SOL    HW131916   3.320   5.708   0.491
10339SOL    HW231917   3.387   5.851   0.531
10340SOL     OW31918   2.182   5.573   1.165
10340SOL    HW131919   2.173   5.542   1.260
10340SOL    HW231920   2.103   5.628   1.140
10341SOL     OW31921   1.950   3.649   1.674
10341SOL    HW131922   1.903   3.737   1.678
10341SOL    HW231923   2.038   3.660   1.628
10342SOL     OW31924   0.584   0.049   5.395
10342SOL    HW131925   0.639   7.003   5.431
10342SOL    HW231926   0.570   0.118   5.466
10343SOL     OW31927   3.391   5.660   0.183
10343SOL    HW131928   3.403   5.693   0.277
10343SOL    HW231929   3.305   5.696   0.146
10344SOL     OW31930   4.395   4.524   1.886
10344SOL    HW131931   4.408   4.434   1.844
10344SOL    HW231932   4.414   4.519   1.984
10345SOL     OW31933   1.486   1.352   6.991
10345SOL    HW131934   1.492   1.371   0.059
10345SOL    HW231935   1.550   1.410   6.941
10346SOL     OW31936   6.282   6.963   1.225
10346SOL    HW131937   6.269   6.933   1.131
10346SOL    HW231938   6.192   6.975   1.268
10347SOL     OW31939   4.859   2.171   2.110
10347SOL    HW131940   4.921   2.244   2.082
10347SOL    HW231941   4.863   2.160   2.209
10348SOL     OW31942   6.639   1.478   0.268
10348SOL    HW131943   6.712   1.543   0.251
10348SOL    HW231944   6.570   1.486   0.196
10349SOL     OW31945   6.744   1.530   1.609
10349SOL    HW131946   6.702   1.444   1.639
10349SOL    HW231947   6.675   1.602   1.608
10350SOL     OW31948   2.047   6.536   5.460
10350SOL    HW131949   2.029   6.444   5.426
10350SOL    HW231950   2.059   6.533   5.560
10351SOL     OW31951   4.733   4.913   6.192
10351SOL    HW131952   4.766   4.994   6.240
10351SOL    HW231953   4.797   4.888   6.120
10352SOL     OW31954   4.701   2.498   6.482
10352SOL    HW131955   4.759   2.427   6.522
10352SOL    HW231956   4.627   2.521   6.545
10353SOL     OW31957   0.012   2.710   5.843
10353SOL    HW131958   0.110   2.722   5.830
10353SOL    HW231959   7.001   2.679   5.757
10354SOL     OW31960   5.842   2.204   2.441
10354SOL    HW131961   5.938   2.178   2.455
10354SOL    HW231962   5.833   2.255   2.356
10355SOL     OW31963   2.360   0.573   2.120
10355SOL    HW131964   2.271   0.611   2.094
10355SOL    HW231965   2.347   0.501   2.188
10356SOL     OW31966   0.346   3.977   5.702
10356SOL    HW131967   0.277   4.048   5.691
10356SOL    HW231968   0.302   3.887   5.707
10357SOL     OW31969   3.159   2.996   6.740
10357SOL    HW131970   3.087   2.931   6.713
10357SOL    HW231971   3.122   3.089   6.734
10358SOL     OW31972   6.066   3.058   3.604
10358SOL    HW131973   6.030   3.151   3.599
10358SOL    HW231974   6.120   3.047   3.687
10359SOL     OW31975   6.999   1.611   1.656
10359SOL    HW131976   0.051   1.556   1.636
10359SOL    HW231977   6.918   1.555   1.643
10360SOL     OW31978   4.585   5.501   1.794
10360SOL    HW131979   4.537   5.417   1.767
10360SOL    HW231980   4.683   5.485   1.792
10361SOL     OW31981   2.586   0.747   2.842
10361SOL    HW131982   2.612   0.653   2.821
10361SOL    HW231983   2.617   0.808   2.769
10362SOL     OW31984   0.578   5.372   3.816
10362SOL    HW131985   0.552   5.465   3.788
10362SOL    HW231986   0.562   5.309   3.740
10363SOL     OW31987   4.532   2.643   1.020
10363SOL    HW131988   4.535   2.585   1.102
10363SOL    HW231989   4.572   2.594   0.943
10364SOL     OW31990   3.697   3.764   2.476
10364SOL    HW131991   3.739   3.829   2.413
10364SOL    HW231992   3.606   3.796   2.502
10365SOL     OW31993   5.444   4.486   5.435
10365SOL    HW131994   5.420   4.574   5.476
10365SOL    HW231995   5.370   4.457   5.373
10366SOL     OW31996   4.279   0.079   4.458
10366SOL    HW131997   4.247   0.023   4.381
10366SOL    HW231998   4.369   0.116   4.437
10367SOL     OW31999   6.858   1.437   1.953
10367SOL    HW132000   6.776   1.408   1.902
10367SOL    HW232001   6.907   1.506   1.900
10368SOL     OW32002   2.447   1.011   2.229
10368SOL    HW132003   2.370   0.961   2.270
10368SOL    HW232004   2.506   0.946   2.180
10369SOL     OW32005   3.721   1.331   5.453
10369SOL    HW132006   3.814   1.335   5.491
10369SOL    HW232007   3.698   1.235   5.433
10370SOL     OW32008   5.334   1.510   5.501
10370SOL    HW132009   5.371   1.443   5.437
10370SOL    HW232010   5.317   1.467   5.589
10371SOL     OW32011   2.206   5.752   4.279
10371SOL    HW132012   2.111   5.779   4.259
10371SOL    HW232013   2.206   5.672   4.339
10372SOL     OW32014   1.626   0.836   0.784
10372SOL    HW132015   1.674   0.922   0.766
10372SOL    HW232016   1.636   0.775   0.705
10373SOL     OW32017   1.761   6.555   5.068
10373SOL    HW132018   1.721   6.583   5.155
10373SOL    HW232019   1.823   6.478   5.083
10374SOL     OW32020   3.435   1.147   3.389
10374SOL    HW132021   3.424   1.210   3.465
10374SOL    HW232022   3.510   1.084   3.408
10375SOL     OW32023   2.933   1.682   6.606
10375SOL    HW132024   2.972   1.681   6.697
10375SOL    HW232025   3.002   1.713   6.540
10376SOL     OW32026   1.136   5.576   3.751
10376SOL    HW132027   1.135   5.635   3.832
10376SOL    HW232028   1.050   5.524   3.747
10377SOL     OW32029   6.881   0.867   3.677
10377SOL    HW132030   6.861   0.769   3.668
10377SOL    HW232031   6.858   0.913   3.592
10378SOL     OW32032   6.072   0.211   5.399
10378SOL    HW132033   6.060   0.149   5.322
10378SOL    HW232034   6.164   0.199   5.437
10379SOL     OW32035   3.205   6.700   3.997
10379SOL    HW132036   3.254   6.636   3.937
10379SOL    HW232037   3.184   6.655   4.083
10380SOL     OW32038   0.561   2.293   4.651
10380SOL    HW132039   0.491   2.222   4.658
10380SOL    HW232040   0.643   2.256   4.609
10381SOL     OW32041   4.545   4.507   0.800
10381SOL    HW132042   4.576   4.413   0.815
10381SOL    HW232043   4.503   4.513   0.709
10382SOL     OW32044   2.184   5.275   1.046
10382SOL    HW132045   2.282   5.293   1.042
10382SOL    HW232046   2.151   5.291   1.139
10383SOL     OW32047   0.285   3.850   0.667
10383SOL    HW132048   0.333   3.843   0.580
10383SOL    HW232049   0.187   3.832   0.653
10384SOL     OW32050   6.954   0.501   1.166
10384SOL    HW132051   6.937   0.589   1.212
10384SOL    HW232052   0.003   0.457   1.208
10385SOL     OW32053   3.588   6.890   5.981
10385SOL    HW132054   3.517   6.940   6.030
10385SOL    HW232055   3.554   6.867   5.890
10386SOL     OW32056   6.457   1.722   5.289
10386SOL    HW132057   6.512   1.702   5.369
10386SOL    HW232058   6.428   1.818   5.292
10387SOL     OW32059   4.579   1.763   2.497
10387SOL    HW132060   4.587   1.826   2.419
10387SOL    HW232061   4.658   1.775   2.557
10388SOL     OW32062   2.268   5.831   2.224
10388SOL    HW132063   2.348   5.859   2.278
10388SOL    HW232064   2.196   5.900   2.233
10389SOL     OW32065   0.007   6.628   1.153
10389SOL    HW132066   6.967   6.685   1.110
10389SOL    HW232067   0.007   6.537   1.110
10390SOL     OW32068   2.282   2.249   1.454
10390SOL    HW132069   2.242   2.241   1.545
10390SOL    HW232070   2.292   2.345   1.430
10391SOL     OW32071   0.523   5.686   4.024
10391SOL    HW132072   0.480   5.711   3.937
10391SOL    HW232073   0.460   5.629   4.077
10392SOL     OW32074   6.906   3.906   6.697
10392SOL    HW132075   6.922   3.816   6.738
10392SOL    HW232076   6.898   3.975   6.769
10393SOL     OW32077   2.448   2.535   2.193
10393SOL    HW132078   2.466   2.591   2.112
10393SOL    HW232079   2.511   2.458   2.195
10394SOL     OW32080   2.535   6.376   4.705
10394SOL    HW132081   2.506   6.280   4.704
10394SOL    HW232082   2.635   6.381   4.702
10395SOL     OW32083   0.056   1.073   3.271
10395SOL    HW132084   0.088   1.077   3.366
10395SOL    HW232085   0.062   0.979   3.237
10396SOL     OW32086   2.715   0.260   3.932
10396SOL    HW132087   2.771   0.212   3.863
10396SOL    HW232088   2.735   0.222   4.022
10397SOL     OW32089   3.019   1.943   4.051
10397SOL    HW132090   2.920   1.956   4.043
10397SOL    HW232091   3.061   1.953   3.961
10398SOL     OW32092   5.367   2.258   0.676
10398SOL    HW132093   5.303   2.268   0.599
10398SOL    HW232094   5.450   2.309   0.657
10399SOL     OW32095   4.309   1.846   4.679
10399SOL    HW132096   4.353   1.897   4.752
10399SOL    HW232097   4.211   1.869   4.676
10400SOL     OW32098   4.004   5.806   0.946
10400SOL    HW132099   4.020   5.899   0.978
10400SOL    HW232100   3.948   5.757   1.012
10401SOL     OW32101   0.196   0.446   2.354
10401SOL    HW132102   0.140   0.399   2.422
10401SOL    HW232103   0.277   0.485   2.398
10402SOL     OW32104   0.127   2.457   5.897
10402SOL    HW132105   0.081   2.411   5.821
10402SOL    HW232106   0.078   2.540   5.920
10403SOL     OW32107   4.425   0.911   2.890
10403SOL    HW132108   4.475   0.997   2.886
10403SOL    HW232109   4.426   0.876   2.983
10404SOL     OW32110   6.974   0.122   4.406
10404SOL    HW132111   0.037   0.099   4.379
10404SOL    HW232112   6.939   0.195   4.346
10405SOL     OW32113   1.222   5.625   5.116
10405SOL    HW132114   1.143   5.686   5.111
10405SOL    HW232115   1.206   5.545   5.058
10406SOL     OW32116   2.177   3.173   5.406
10406SOL    HW132117   2.233   3.093   5.427
10406SOL    HW232118   2.148   3.217   5.491
10407SOL     OW32119   2.251   0.612   6.620
10407SOL    HW132120   2.209   0.681   6.561
10407SOL    HW232121   2.325   0.567   6.571
10408SOL     OW32122   3.884   6.711   2.119
10408SOL    HW132123   3.919   6.796   2.156
10408SOL    HW232124   3.955   6.641   2.122
10409SOL     OW32125   0.900   3.850   0.637
10409SOL    HW132126   0.859   3.760   0.647
10409SOL    HW232127   0.833   3.912   0.594
10410SOL     OW32128   5.619   2.199   1.440
10410SOL    HW132129   5.662   2.121   1.395
10410SOL    HW232130   5.678   2.279   1.430
10411SOL     OW32131   4.109   5.834   4.260
10411SOL    HW132132   4.019   5.876   4.272
10411SOL    HW232133   4.169   5.895   4.209
10412SOL     OW32134   6.728   1.221   0.443
10412SOL    HW132135   6.736   1.321   0.440
10412SOL    HW232136   6.681   1.194   0.527
10413SOL     OW32137   0.072   1.903   1.757
10413SOL    HW132138   0.124   1.872   1.837
10413SOL    HW232139   0.036   1.824   1.708
10414SOL     OW32140   4.001   6.076   5.965
10414SOL    HW132141   4.018   5.982   5.935
10414SOL    HW232142   4.088   6.122   5.984
10415SOL     OW32143   2.328   4.176   3.626
10415SOL    HW132144   2.297   4.267   3.599
10415SOL    HW232145   2.422   4.181   3.660
10416SOL     OW32146   6.351   0.347   4.927
10416SOL    HW132147   6.446   0.320   4.911
10416SOL    HW232148   6.342   0.385   5.019
10417SOL     OW32149   4.766   5.286   4.158
10417SOL    HW132150   4.698   5.341   4.110
10417SOL    HW232151   4.760   5.191   4.128
10418SOL     OW32152   5.935   3.847   5.960
10418SOL    HW132153   5.926   3.766   6.018
10418SOL    HW232154   5.943   3.928   6.018
10419SOL     OW32155   2.795   7.024   5.272
10419SOL    HW132156   2.698   7.013   5.295
10419SOL    HW232157   2.810   0.082   5.228
10420SOL     OW32158   6.953   3.609   3.990
10420SOL    HW132159   6.873   3.565   3.950
10420SOL    HW232160   6.929   3.703   4.016
10421SOL     OW32161   1.487   3.373   4.990
10421SOL    HW132162   1.479   3.366   4.891
10421SOL    HW232163   1.433   3.451   5.023
10422SOL     OW32164   6.890   3.574   5.193
10422SOL    HW132165   6.796   3.540   5.195
10422SOL    HW232166   6.909   3.613   5.103
10423SOL     OW32167   4.728   4.730   5.262
10423SOL    HW132168   4.757   4.682   5.179
10423SOL    HW232169   4.769   4.821   5.264
10424SOL     OW32170   4.153   2.852   0.329
10424SOL    HW132171   4.091   2.913   0.377
10424SOL    HW232172   4.169   2.886   0.236
10425SOL     OW32173   0.976   5.776   2.566
10425SOL    HW132174   1.039   5.738   2.634
10425SOL    HW232175   0.882   5.749   2.590
10426SOL     OW32176   5.385   3.879   5.745
10426SOL    HW132177   5.305   3.885   5.686
10426SOL    HW232178   5.414   3.784   5.754
10427SOL     OW32179   5.059   0.045   0.133
10427SOL    HW132180   5.136   0.041   0.069
10427SOL    HW232181   5.076   0.118   0.200
10428SOL     OW32182   2.705   1.772   4.232
10428SOL    HW132183   2.626   1.760   4.172
10428SOL    HW232184   2.714   1.868   4.257
10429SOL     OW32185   0.855   3.734   2.733
10429SOL    HW132186   0.788   3.757   2.662
10429SOL    HW232187   0.816   3.754   2.823
10430SOL     OW32188   3.678   6.751   4.602
10430SOL    HW132189   3.726   6.837   4.582
10430SOL    HW232190   3.581   6.770   4.617
10431SOL     OW32191   2.924   0.319   4.514
10431SOL    HW132192   2.888   0.354   4.427
10431SOL    HW232193   2.849   0.278   4.566
10432SOL     OW32194   6.936   2.018   5.465
10432SOL    HW132195   7.016   1.978   5.510
10432SOL    HW232196   6.964   2.101   5.416
10433SOL     OW32197   7.022   6.535   2.593
10433SOL    HW132198   6.951   6.467   2.614
10433SOL    HW232199   7.011   6.614   2.653
10434SOL     OW32200   3.999   6.244   4.536
10434SOL    HW132201   4.033   6.157   4.571
10434SOL    HW232202   3.953   6.294   4.609
10435SOL     OW32203   2.013   1.962   6.218
10435SOL    HW132204   1.944   2.018   6.264
10435SOL    HW232205   2.074   1.923   6.287
10436SOL     OW32206   6.393   4.006   4.286
10436SOL    HW132207   6.347   3.930   4.242
10436SOL    HW232208   6.384   4.088   4.229
10437SOL     OW32209   6.421   4.928   5.142
10437SOL    HW132210   6.360   5.004   5.164
10437SOL    HW232211   6.367   4.845   5.129
10438SOL     OW32212   0.395   5.816   6.186
10438SOL    HW132213   0.351   5.742   6.236
10438SOL    HW232214   0.456   5.778   6.116
10439SOL     OW32215   5.398   1.152   4.395
10439SOL    HW132216   5.467   1.175   4.326
10439SOL    HW232217   5.410   1.057   4.424
10440SOL     OW32218   0.199   6.872   7.010
10440SOL    HW132219   0.286   6.911   6.979
10440SOL    HW232220   0.184   6.784   6.964
10441SOL     OW32221   2.869   1.604   1.398
10441SOL    HW132222   2.797   1.536   1.399
10441SOL    HW232223   2.903   1.619   1.491
10442SOL     OW32224   4.064   0.036   5.030
10442SOL    HW132225   4.129   6.991   5.012
10442SOL    HW232226   3.982   0.022   4.975
10443SOL     OW32227   5.899   2.584   2.988
10443SOL    HW132228   5.989   2.628   2.993
10443SOL    HW232229   5.866   2.586   2.894
10444SOL     OW32230   4.272   5.476   1.981
10444SOL    HW132231   4.238   5.440   1.894
10444SOL    HW232232   4.200   5.531   2.025
10445SOL     OW32233   0.607   3.606   3.105
10445SOL    HW132234   0.626   3.663   3.025
10445SOL    HW232235   0.681   3.541   3.118
10446SOL     OW32236   1.927   3.708   6.388
10446SOL    HW132237   1.855   3.639   6.385
10446SOL    HW232238   1.888   3.798   6.370
10447SOL     OW32239   6.902   0.920   2.908
10447SOL    HW132240   6.981   0.892   2.854
10447SOL    HW232241   6.924   1.005   2.957
10448SOL     OW32242   3.563   0.565   2.272
10448SOL    HW132243   3.610   0.642   2.228
10448SOL    HW232244   3.471   0.594   2.299
10449SOL     OW32245   2.557   5.633   6.708
10449SOL    HW132246   2.586   5.539   6.730
10449SOL    HW232247   2.460   5.643   6.729
10450SOL     OW32248   0.193   1.758   6.905
10450SOL    HW132249   0.188   1.813   6.821
10450SOL    HW232250   0.163   1.665   6.885
10451SOL     OW32251   2.867   6.545   3.167
10451SOL    HW132252   2.874   6.473   3.098
10451SOL    HW232253   2.957   6.566   3.204
10452SOL     OW32254   6.365   2.936   3.157
10452SOL    HW132255   6.268   2.926   3.181
10452SOL    HW232256   6.373   2.991   3.074
10453SOL     OW32257   5.117   6.458   1.656
10453SOL    HW132258   5.144   6.363   1.670
10453SOL    HW232259   5.054   6.464   1.579
10454SOL     OW32260   5.429   1.924   0.505
10454SOL    HW132261   5.461   1.951   0.596
10454SOL    HW232262   5.508   1.907   0.446
10455SOL     OW32263   6.945   6.254   3.750
10455SOL    HW132264   7.003   6.293   3.678
10455SOL    HW232265   6.971   6.293   3.839
10456SOL     OW32266   0.852   5.248   1.010
10456SOL    HW132267   0.874   5.321   0.946
10456SOL    HW232268   0.888   5.161   0.976
10457SOL     OW32269   4.618   3.146   0.419
10457SOL    HW132270   4.540   3.085   0.405
10457SOL    HW232271   4.665   3.120   0.503
10458SOL     OW32272   6.330   0.441   6.657
10458SOL    HW132273   6.426   0.436   6.684
10458SOL    HW232274   6.274   0.391   6.723
10459SOL     OW32275   4.393   5.458   1.263
10459SOL    HW132276   4.374   5.438   1.166
10459SOL    HW232277   4.323   5.521   1.298
10460SOL     OW32278   1.662   4.150   1.793
10460SOL    HW132279   1.660   4.248   1.814
10460SOL    HW232280   1.573   4.110   1.812
10461SOL     OW32281   6.233   4.547   5.265
10461SOL    HW132282   6.181   4.504   5.340
10461SOL    HW232283   6.329   4.521   5.272
10462SOL     OW32284   5.773   2.570   3.224
10462SOL    HW132285   5.831   2.591   3.145
10462SOL    HW232286   5.771   2.649   3.286
10463SOL     OW32287   4.050   2.130   6.228
10463SOL    HW132288   4.020   2.069   6.301
10463SOL    HW232289   3.972   2.156   6.171
10464SOL     OW32290   5.955   6.380   2.160
10464SOL    HW132291   6.023   6.365   2.231
10464SOL    HW232292   5.890   6.451   2.189
10465SOL     OW32293   5.440   5.601   1.092
10465SOL    HW132294   5.412   5.652   1.011
10465SOL    HW232295   5.380   5.624   1.169
10466SOL     OW32296   4.766   4.617   5.494
10466SOL    HW132297   4.832   4.545   5.477
10466SOL    HW232298   4.751   4.669   5.410
10467SOL     OW32299   1.890   2.058   0.761
10467SOL    HW132300   1.857   2.004   0.683
10467SOL    HW232301   1.919   2.148   0.729
10468SOL     OW32302   3.681   4.868   3.219
10468SOL    HW132303   3.778   4.890   3.222
10468SOL    HW232304   3.666   4.778   3.258
10469SOL     OW32305   4.327   4.450   5.781
10469SOL    HW132306   4.392   4.511   5.827
10469SOL    HW232307   4.362   4.356   5.784
10470SOL     OW32308   1.898   2.132   3.442
10470SOL    HW132309   1.949   2.050   3.418
10470SOL    HW232310   1.935   2.170   3.527
10471SOL     OW32311   2.436   0.089   0.506
10471SOL    HW132312   2.499   0.136   0.443
10471SOL    HW232313   2.352   0.143   0.515
10472SOL     OW32314   3.154   6.069   0.695
10472SOL    HW132315   3.195   5.997   0.750
10472SOL    HW232316   3.117   6.030   0.611
10473SOL     OW32317   6.347   6.750   6.344
10473SOL    HW132318   6.344   6.849   6.329
10473SOL    HW232319   6.383   6.731   6.435
10474SOL     OW32320   4.152   0.896   4.282
10474SOL    HW132321   4.228   0.961   4.281
10474SOL    HW232322   4.082   0.927   4.347
10475SOL     OW32323   3.911   6.762   1.738
10475SOL    HW132324   3.906   6.813   1.652
10475SOL    HW232325   3.818   6.738   1.768
10476SOL     OW32326   5.585   6.558   5.947
10476SOL    HW132327   5.580   6.550   6.047
10476SOL    HW232328   5.605   6.653   5.923
10477SOL     OW32329   6.831   1.365   4.819
10477SOL    HW132330   6.920   1.396   4.783
10477SOL    HW232331   6.833   1.266   4.831
10478SOL     OW32332   6.443   6.936   0.203
10478SOL    HW132333   6.519   6.895   0.254
10478SOL    HW232334   6.433   0.002   0.228
10479SOL     OW32335   6.857   1.664   2.412
10479SOL    HW132336   6.804   1.731   2.463
10479SOL    HW232337   6.953   1.671   2.437
10480SOL     OW32338   0.562   0.894   2.418
10480SOL    HW132339   0.649   0.859   2.453
10480SOL    HW232340   0.577   0.938   2.330
10481SOL     OW32341   2.015   6.317   3.746
10481SOL    HW132342   2.078   6.326   3.669
10481SOL    HW232343   1.946   6.390   3.741
10482SOL     OW32344   6.375   5.101   4.422
10482SOL    HW132345   6.324   5.062   4.498
10482SOL    HW232346   6.470   5.072   4.426
10483SOL     OW32347   6.027   5.355   0.754
10483SOL    HW132348   6.033   5.346   0.853
10483SOL    HW232349   6.005   5.266   0.714
10484SOL     OW32350   5.750   1.796   1.916
10484SOL    HW132351   5.681   1.724   1.925
10484SOL    HW232352   5.840   1.755   1.907
10485SOL     OW32353   3.603   4.326   0.429
10485SOL    HW132354   3.640   4.363   0.514
10485SOL    HW232355   3.570   4.232   0.446
10486SOL     OW32356   0.084   0.557   0.558
10486SOL    HW132357   0.127   0.573   0.469
10486SOL    HW232358   7.016   0.578   0.551
10487SOL     OW32359   4.777   0.481   1.314
10487SOL    HW132360   4.844   0.548   1.345
10487SOL    HW232361   4.686   0.520   1.319
10488SOL     OW32362   3.303   1.527   5.868
10488SOL    HW132363   3.295   1.448   5.807
10488SOL    HW232364   3.400   1.544   5.887
10489SOL     OW32365   0.721   6.852   5.454
10489SOL    HW132366   0.781   6.893   5.522
10489SOL    HW232367   0.750   6.758   5.436
10490SOL     OW32368   6.101   1.761   0.762
10490SOL    HW132369   6.015   1.712   0.775
10490SOL    HW232370   6.157   1.751   0.844
10491SOL     OW32371   2.325   2.741   0.645
10491SOL    HW132372   2.232   2.728   0.609
10491SOL    HW232373   2.375   2.655   0.637
10492SOL     OW32374   5.794   4.467   5.708
10492SOL    HW132375   5.882   4.475   5.662
10492SOL    HW232376   5.743   4.553   5.696
10493SOL     OW32377   3.282   0.893   2.176
10493SOL    HW132378   3.331   0.975   2.204
10493SOL    HW232379   3.306   0.818   2.238
10494SOL     OW32380   5.424   4.144   5.836
10494SOL    HW132381   5.363   4.166   5.912
10494SOL    HW232382   5.394   4.060   5.792
10495SOL     OW32383   1.868   6.834   0.083
10495SOL    HW132384   1.897   6.926   0.108
10495SOL    HW232385   1.944   6.785   0.041
10496SOL     OW32386   0.362   3.678   6.758
10496SOL    HW132387   0.301   3.739   6.706
10496SOL    HW232388   0.449   3.670   6.710
10497SOL     OW32389   1.952   0.110   2.136
10497SOL    HW132390   1.876   0.121   2.073
10497SOL    HW232391   1.986   0.200   2.164
10498SOL     OW32392   3.315   5.543   1.291
10498SOL    HW132393   3.270   5.616   1.343
10498SOL    HW232394   3.282   5.543   1.197
10499SOL     OW32395   3.500   6.532   2.546
10499SOL    HW132396   3.433   6.463   2.519
10499SOL    HW232397   3.476   6.568   2.636
10500SOL     OW32398   6.572   1.821   6.517
10500SOL    HW132399   6.655   1.773   6.490
10500SOL    HW232400   6.594   1.889   6.587
10501SOL     OW32401   1.943   5.817   2.667
10501SOL    HW132402   1.853   5.784   2.696
10501SOL    HW232403   1.936   5.854   2.574
10502SOL     OW32404   2.456   0.464   1.258
10502SOL    HW132405   2.555   0.464   1.249
10502SOL    HW232406   2.431   0.489   1.352
10503SOL     OW32407   4.470   2.810   0.255
10503SOL    HW132408   4.431   2.866   0.328
10503SOL    HW232409   4.533   2.744   0.294
10504SOL     OW32410   1.620   1.796   6.226
10504SOL    HW132411   1.564   1.770   6.305
10504SOL    HW232412   1.715   1.773   6.244
10505SOL     OW32413   5.437   5.567   0.367
10505SOL    HW132414   5.387   5.488   0.330
10505SOL    HW232415   5.499   5.603   0.297
10506SOL     OW32416   0.229   4.952   0.276
10506SOL    HW132417   0.320   4.945   0.237
10506SOL    HW232418   0.201   5.048   0.281
10507SOL     OW32419   2.105   0.618   0.001
10507SOL    HW132420   2.015   0.587   0.030
10507SOL    HW232421   2.096   0.705   6.982
10508SOL     OW32422   6.044   6.711   4.847
10508SOL    HW132423   5.990   6.632   4.817
10508SOL    HW232424   6.123   6.722   4.787
10509SOL     OW32425   0.655   5.731   4.244
10509SOL    HW132426   0.653   5.653   4.306
10509SOL    HW232427   0.599   5.710   4.163
10510SOL     OW32428   4.355   5.886   6.076
10510SOL    HW132429   4.262   5.914   6.054
10510SOL    HW232430   4.418   5.919   6.006
10511SOL     OW32431   4.084   1.194   2.030
10511SOL    HW132432   4.030   1.232   1.955
10511SOL    HW232433   4.035   1.210   2.116
10512SOL     OW32434   4.249   0.392   5.832
10512SOL    HW132435   4.250   0.473   5.891
10512SOL    HW232436   4.210   0.416   5.743
10513SOL     OW32437   6.306   2.727   4.229
10513SOL    HW132438   6.321   2.686   4.318
10513SOL    HW232439   6.358   2.677   4.160
10514SOL     OW32440   7.018   3.908   0.687
10514SOL    HW132441   6.981   3.888   0.596
10514SOL    HW232442   6.961   3.977   0.731
10515SOL     OW32443   0.891   3.067   2.947
10515SOL    HW132444   0.877   3.114   3.034
10515SOL    HW232445   0.803   3.056   2.901
10516SOL     OW32446   3.967   1.101   0.673
10516SOL    HW132447   3.886   1.042   0.681
10516SOL    HW232448   4.026   1.067   0.599
10517SOL     OW32449   1.009   2.403   2.645
10517SOL    HW132450   1.063   2.396   2.561
10517SOL    HW232451   1.044   2.479   2.701
10518SOL     OW32452   0.822   5.461   6.653
10518SOL    HW132453   0.898   5.402   6.626
10518SOL    HW232454   0.786   5.508   6.573
10519SOL     OW32455   2.449   3.288   6.823
10519SOL    HW132456   2.533   3.341   6.823
10519SOL    HW232457   2.437   3.243   6.734
10520SOL     OW32458   0.907   2.576   6.891
10520SOL    HW132459   0.823   2.543   6.935
10520SOL    HW232460   0.885   2.652   6.829
10521SOL     OW32461   6.396   6.530   2.175
10521SOL    HW132462   6.432   6.608   2.124
10521SOL    HW232463   6.383   6.453   2.113
10522SOL     OW32464   0.042   0.137   5.786
10522SOL    HW132465   6.989   0.193   5.782
10522SOL    HW232466   0.022   0.052   5.835
10523SOL     OW32467   0.125   4.876   3.687
10523SOL    HW132468   0.124   4.810   3.761
10523SOL    HW232469   0.032   4.906   3.667
10524SOL     OW32470   1.575   0.612   4.534
10524SOL    HW132471   1.515   0.646   4.606
10524SOL    HW232472   1.661   0.664   4.537
10525SOL     OW32473   3.685   6.354   6.527
10525SOL    HW132474   3.732   6.281   6.478
10525SOL    HW232475   3.753   6.419   6.561
10526SOL     OW32476   1.330   6.709   3.908
10526SOL    HW132477   1.328   6.641   3.981
10526SOL    HW232478   1.244   6.761   3.909
10527SOL     OW32479   0.065   1.819   4.826
10527SOL    HW132480   7.006   1.788   4.860
10527SOL    HW232481   0.137   1.791   4.890
10528SOL     OW32482   1.655   3.371   6.099
10528SOL    HW132483   1.729   3.424   6.141
10528SOL    HW232484   1.670   3.365   6.001
10529SOL     OW32485   2.559   5.823   3.907
10529SOL    HW132486   2.486   5.848   3.971
10529SOL    HW232487   2.520   5.803   3.817
10530SOL     OW32488   2.363   0.179   6.322
10530SOL    HW132489   2.279   0.171   6.269
10530SOL    HW232490   2.371   0.101   6.384
10531SOL     OW32491   1.342   3.107   4.079
10531SOL    HW132492   1.415   3.046   4.109
10531SOL    HW232493   1.360   3.136   3.985
10532SOL     OW32494   1.014   5.289   5.578
10532SOL    HW132495   0.964   5.258   5.497
10532SOL    HW232496   1.070   5.214   5.614
10533SOL     OW32497   2.488   1.340   4.829
10533SOL    HW132498   2.511   1.297   4.916
10533SOL    HW232499   2.534   1.429   4.823
10534SOL     OW32500   6.322   5.984   1.360
10534SOL    HW132501   6.282   5.894   1.378
10534SOL    HW232502   6.386   6.007   1.434
10535SOL     OW32503   0.729   2.100   1.271
10535SOL    HW132504   0.809   2.069   1.323
10535SOL    HW232505   0.698   2.188   1.306
10536SOL     OW32506   3.925   0.520   3.210
10536SOL    HW132507   3.904   0.442   3.270
10536SOL    HW232508   3.947   0.486   3.119
10537SOL     OW32509   4.130   5.386   4.127
10537SOL    HW132510   4.116   5.431   4.039
10537SOL    HW232511   4.043   5.351   4.161
10538SOL     OW32512   5.153   1.595   0.572
10538SOL    HW132513   5.096   1.586   0.654
10538SOL    HW232514   5.126   1.525   0.505
10539SOL     OW32515   0.709   3.990   0.508
10539SOL    HW132516   0.695   4.062   0.440
10539SOL    HW232517   0.621   3.950   0.532
10540SOL     OW32518   1.809   2.616   4.912
10540SOL    HW132519   1.853   2.553   4.976
10540SOL    HW232520   1.742   2.672   4.962
10541SOL     OW32521   3.558   4.119   2.243
10541SOL    HW132522   3.586   4.119   2.340
10541SOL    HW232523   3.459   4.105   2.237
10542SOL     OW32524   6.979   0.508   5.351
10542SOL    HW132525   6.962   0.604   5.329
10542SOL    HW232526   0.025   0.502   5.416
10543SOL     OW32527   0.702   1.061   5.372
10543SOL    HW132528   0.751   0.980   5.341
10543SOL    HW232529   0.768   1.131   5.399
10544SOL     OW32530   1.954   6.745   2.082
10544SOL    HW132531   1.886   6.684   2.041
10544SOL    HW232532   1.919   6.780   2.169
10545SOL     OW32533   6.208   1.015   2.442
10545SOL    HW132534   6.181   0.949   2.512
10545SOL    HW232535   6.243   1.098   2.486
10546SOL     OW32536   1.835   0.869   0.007
10546SOL    HW132537   1.776   0.929   6.984
10546SOL    HW232538   1.914   0.843   6.982
10547SOL     OW32539   5.946   2.608   2.530
10547SOL    HW132540   5.886   2.640   2.456
10547SOL    HW232541   5.902   2.623   2.618
10548SOL     OW32542   5.852   4.766   4.473
10548SOL    HW132543   5.824   4.817   4.391
10548SOL    HW232544   5.902   4.828   4.534
10549SOL     OW32545   6.839   6.608   1.874
10549SOL    HW132546   6.936   6.591   1.891
10549SOL    HW232547   6.829   6.660   1.789
10550SOL     OW32548   4.166   5.776   3.503
10550SOL    HW132549   4.167   5.828   3.417
10550SOL    HW232550   4.259   5.771   3.540
10551SOL     OW32551   1.282   2.427   5.946
10551SOL    HW132552   1.305   2.481   6.027
10551SOL    HW232553   1.226   2.482   5.884
10552SOL     OW32554   3.273   1.442   6.701
10552SOL    HW132555   3.230   1.417   6.614
10552SOL    HW232556   3.285   1.541   6.705
10553SOL     OW32557   0.807   4.854   1.540
10553SOL    HW132558   0.881   4.858   1.474
10553SOL    HW232559   0.744   4.781   1.515
10554SOL     OW32560   5.592   4.916   0.119
10554SOL    HW132561   5.548   4.851   0.057
10554SOL    HW232562   5.659   4.971   0.068
10555SOL     OW32563   1.843   3.439   0.208
10555SOL    HW132564   1.862   3.343   0.229
10555SOL    HW232565   1.750   3.449   0.173
10556SOL     OW32566   2.285   1.817   5.414
10556SOL    HW132567   2.292   1.878   5.493
10556SOL    HW232568   2.323   1.728   5.437
10557SOL     OW32569   2.194   2.434   3.112
10557SOL    HW132570   2.273   2.431   3.051
10557SOL    HW232571   2.149   2.345   3.112
10558SOL     OW32572   3.687   1.591   3.840
10558SOL    HW132573   3.644   1.534   3.770
10558SOL    HW232574   3.766   1.544   3.879
10559SOL     OW32575   5.138   0.450   1.017
10559SOL    HW132576   5.201   0.383   0.976
10559SOL    HW232577   5.189   0.532   1.042
10560SOL     OW32578   3.698   6.066   3.088
10560SOL    HW132579   3.631   6.098   3.021
10560SOL    HW232580   3.695   6.125   3.169
10561SOL     OW32581   3.000   4.376   0.331
10561SOL    HW132582   3.056   4.317   0.388
10561SOL    HW232583   2.999   4.340   0.237
10562SOL     OW32584   4.746   5.657   0.313
10562SOL    HW132585   4.675   5.725   0.330
10562SOL    HW232586   4.787   5.673   0.223
10563SOL     OW32587   0.730   1.353   3.353
10563SOL    HW132588   0.691   1.279   3.407
10563SOL    HW232589   0.817   1.324   3.314
10564SOL     OW32590   5.665   6.608   1.294
10564SOL    HW132591   5.731   6.668   1.338
10564SOL    HW232592   5.709   6.557   1.220
10565SOL     OW32593   0.101   0.501   6.296
10565SOL    HW132594   0.201   0.502   6.295
10565SOL    HW232595   0.067   0.439   6.226
10566SOL     OW32596   3.713   2.167   0.074
10566SOL    HW132597   3.649   2.121   0.012
10566SOL    HW232598   3.756   2.243   0.026
10567SOL     OW32599   3.311   2.058   4.296
10567SOL    HW132600   3.336   2.119   4.220
10567SOL    HW232601   3.272   2.113   4.370
10568SOL     OW32602   6.450   2.453   1.617
10568SOL    HW132603   6.449   2.501   1.529
10568SOL    HW232604   6.544   2.451   1.652
10569SOL     OW32605   5.731   2.059   2.033
10569SOL    HW132606   5.681   2.124   1.976
10569SOL    HW232607   5.755   1.979   1.977
10570SOL     OW32608   1.692   5.253   3.108
10570SOL    HW132609   1.632   5.175   3.094
10570SOL    HW232610   1.779   5.237   3.061
10571SOL     OW32611   0.126   4.697   5.975
10571SOL    HW132612   0.102   4.736   5.886
10571SOL    HW232613   0.047   4.649   6.013
10572SOL     OW32614   6.857   3.871   3.788
10572SOL    HW132615   6.846   3.855   3.886
10572SOL    HW232616   6.832   3.965   3.767
10573SOL     OW32617   4.302   6.955   4.906
10573SOL    HW132618   4.392   6.915   4.888
10573SOL    HW232619   4.299   0.018   4.869
10574SOL     OW32620   1.111   1.279   3.766
10574SOL    HW132621   1.170   1.338   3.821
10574SOL    HW232622   1.110   1.186   3.804
10575SOL     OW32623   6.183   1.317   3.079
10575SOL    HW132624   6.233   1.387   3.131
10575SOL    HW232625   6.175   1.346   2.984
10576SOL     OW32626   6.876   6.126   5.176
10576SOL    HW132627   6.917   6.035   5.174
10576SOL    HW232628   6.798   6.127   5.239
10577SOL     OW32629   1.982   3.009   0.479
10577SOL    HW132630   1.984   2.986   0.577
10577SOL    HW232631   2.023   2.935   0.427
10578SOL     OW32632   5.693   0.829   3.096
10578SOL    HW132633   5.732   0.918   3.071
10578SOL    HW232634   5.647   0.789   3.017
10579SOL     OW32635   4.057   1.978   1.272
10579SOL    HW132636   4.131   2.017   1.327
10579SOL    HW232637   4.086   1.888   1.238
10580SOL     OW32638   6.577   0.498   6.762
10580SOL    HW132639   6.645   0.430   6.791
10580SOL    HW232640   6.623   0.574   6.717
10581SOL     OW32641   6.883   7.029   3.656
10581SOL    HW132642   6.866   0.078   3.716
10581SOL    HW232643   6.825   6.953   3.685
10582SOL     OW32644   5.700   4.648   6.754
10582SOL    HW132645   5.601   4.632   6.748
10582SOL    HW232646   5.726   4.721   6.691
10583SOL     OW32647   3.981   1.336   5.027
10583SOL    HW132648   3.959   1.239   5.034
10583SOL    HW232649   3.900   1.386   4.997
10584SOL     OW32650   6.532   6.669   1.252
10584SOL    HW132651   6.629   6.657   1.277
10584SOL    HW232652   6.475   6.658   1.334
10585SOL     OW32653   2.389   2.798   6.540
10585SOL    HW132654   2.470   2.829   6.491
10585SOL    HW232655   2.358   2.871   6.601
10586SOL     OW32656   6.569   4.907   4.918
10586SOL    HW132657   6.515   4.903   5.002
10586SOL    HW232658   6.562   4.999   4.879
10587SOL     OW32659   6.051   3.887   0.356
10587SOL    HW132660   6.016   3.980   0.367
10587SOL    HW232661   6.014   3.828   0.428
10588SOL     OW32662   0.330   3.111   3.645
10588SOL    HW132663   0.402   3.120   3.714
10588SOL    HW232664   0.254   3.057   3.682
10589SOL     OW32665   6.009   1.323   4.316
10589SOL    HW132666   5.939   1.306   4.246
10589SOL    HW232667   6.085   1.374   4.276
10590SOL     OW32668   0.934   0.106   1.940
10590SOL    HW132669   0.912   0.054   2.023
10590SOL    HW232670   0.932   0.204   1.960
10591SOL     OW32671   0.909   2.060   6.378
10591SOL    HW132672   0.976   2.134   6.385
10591SOL    HW232673   0.834   2.076   6.442
10592SOL     OW32674   5.735   3.904   1.632
10592SOL    HW132675   5.803   3.846   1.588
10592SOL    HW232676   5.776   3.992   1.656
10593SOL     OW32677   2.532   5.258   0.406
10593SOL    HW132678   2.550   5.174   0.354
10593SOL    HW232679   2.580   5.335   0.362
10594SOL     OW32680   4.558   0.256   2.379
10594SOL    HW132681   4.556   0.197   2.460
10594SOL    HW232682   4.482   0.322   2.385
10595SOL     OW32683   3.536   6.788   5.692
10595SOL    HW132684   3.566   6.698   5.723
10595SOL    HW232685   3.452   6.778   5.638
10596SOL     OW32686   4.337   7.018   6.650
10596SOL    HW132687   4.295   6.929   6.669
10596SOL    HW232688   4.361   0.032   6.737
10597SOL     OW32689   3.487   1.194   5.321
10597SOL    HW132690   3.391   1.208   5.345
10597SOL    HW232691   3.510   1.253   5.243
10598SOL     OW32692   2.996   2.440   0.632
10598SOL    HW132693   2.992   2.536   0.606
10598SOL    HW232694   3.091   2.409   0.632
10599SOL     OW32695   5.288   2.695   5.989
10599SOL    HW132696   5.325   2.621   6.046
10599SOL    HW232697   5.327   2.689   5.898
10600SOL     OW32698   2.196   2.157   0.595
10600SOL    HW132699   2.289   2.133   0.622
10600SOL    HW232700   2.190   2.256   0.582
10601SOL     OW32701   1.497   4.576   5.873
10601SOL    HW132702   1.582   4.629   5.881
10601SOL    HW232703   1.461   4.585   5.780
10602SOL     OW32704   3.498   1.506   2.645
10602SOL    HW132705   3.568   1.452   2.597
10602SOL    HW232706   3.499   1.483   2.742
10603SOL     OW32707   3.329   5.689   3.363
10603SOL    HW132708   3.296   5.663   3.273
10603SOL    HW232709   3.252   5.696   3.427
10604SOL     OW32710   6.049   4.609   5.649
10604SOL    HW132711   6.103   4.690   5.625
10604SOL    HW232712   6.065   4.537   5.581
10605SOL     OW32713   1.902   6.011   0.578
10605SOL    HW132714   1.917   5.942   0.649
10605SOL    HW232715   1.991   6.039   0.540
10606SOL     OW32716   6.767   0.936   2.684
10606SOL    HW132717   6.822   0.915   2.603
10606SOL    HW232718   6.824   0.933   2.766
10607SOL     OW32719   4.097   4.889   5.875
10607SOL    HW132720   4.073   4.977   5.834
10607SOL    HW232721   4.149   4.905   5.959
10608SOL     OW32722   5.080   2.073   5.656
10608SOL    HW132723   5.064   2.084   5.558
10608SOL    HW232724   4.994   2.055   5.703
10609SOL     OW32725   3.254   6.839   0.761
10609SOL    HW132726   3.340   6.852   0.713
10609SOL    HW232727   3.186   6.903   0.725
10610SOL     OW32728   1.547   2.517   5.672
10610SOL    HW132729   1.492   2.508   5.755
10610SOL    HW232730   1.525   2.442   5.610
10611SOL     OW32731   4.286   3.594   5.827
10611SOL    HW132732   4.202   3.585   5.774
10611SOL    HW232733   4.302   3.511   5.880
10612SOL     OW32734   2.749   0.979   5.516
10612SOL    HW132735   2.821   1.041   5.486
10612SOL    HW232736   2.717   1.006   5.607
10613SOL     OW32737   5.983   6.978   4.887
10613SOL    HW132738   6.053   0.017   4.865
10613SOL    HW232739   6.018   6.887   4.864
10614SOL     OW32740   6.356   2.109   3.958
10614SOL    HW132741   6.456   2.113   3.959
10614SOL    HW232742   6.326   2.014   3.955
10615SOL     OW32743   3.174   6.352   6.265
10615SOL    HW132744   3.218   6.269   6.302
10615SOL    HW232745   3.147   6.411   6.341
10616SOL     OW32746   2.725   6.246   1.201
10616SOL    HW132747   2.720   6.338   1.162
10616SOL    HW232748   2.650   6.190   1.164
10617SOL     OW32749   2.609   2.384   1.031
10617SOL    HW132750   2.669   2.331   0.971
10617SOL    HW232751   2.658   2.408   1.114
10618SOL     OW32752   0.001   3.542   6.430
10618SOL    HW132753   6.980   3.501   6.506
10618SOL    HW232754   0.096   3.556   6.457
10619SOL     OW32755   0.333   4.168   1.954
10619SOL    HW132756   0.363   4.075   1.931
10619SOL    HW232757   0.233   4.170   1.959
10620SOL     OW32758   1.372   5.537   5.442
10620SOL    HW132759   1.459   5.586   5.438
10620SOL    HW232760   1.374   5.461   5.376
10621SOL     OW32761   1.088   6.317   2.130
10621SOL    HW132762   1.046   6.237   2.086
10621SOL    HW232763   1.042   6.336   2.216
10622SOL     OW32764   5.040   1.292   1.169
10622SOL    HW132765   5.079   1.208   1.129
10622SOL    HW232766   4.976   1.267   1.241
10623SOL     OW32767   6.862   4.497   5.037
10623SOL    HW132768   6.928   4.503   5.112
10623SOL    HW232769   6.850   4.588   4.997
10624SOL     OW32770   0.452   2.545   4.649
10624SOL    HW132771   0.503   2.472   4.604
10624SOL    HW232772   0.456   2.628   4.592
10625SOL     OW32773   0.506   4.433   6.980
10625SOL    HW132774   0.491   4.364   0.021
10625SOL    HW232775   0.590   4.412   6.930
10626SOL     OW32776   2.539   3.266   0.879
10626SOL    HW132777   2.497   3.270   0.788
10626SOL    HW232778   2.500   3.191   0.930
10627SOL     OW32779   5.569   6.982   0.232
10627SOL    HW132780   5.519   7.029   0.305
10627SOL    HW232781   5.633   0.015   0.188
10628SOL     OW32782   4.567   5.868   0.263
10628SOL    HW132783   4.470   5.841   0.256
10628SOL    HW232784   4.584   5.906   0.354
10629SOL     OW32785   2.779   4.822   5.188
10629SOL    HW132786   2.797   4.736   5.141
10629SOL    HW232787   2.708   4.808   5.257
10630SOL     OW32788   6.797   1.565   3.752
10630SOL    HW132789   6.870   1.629   3.729
10630SOL    HW232790   6.813   1.526   3.842
10631SOL     OW32791   3.003   4.881   4.689
10631SOL    HW132792   3.023   4.884   4.591
10631SOL    HW232793   3.003   4.974   4.726
10632SOL     OW32794   6.308   1.828   3.977
10632SOL    HW132795   6.235   1.804   4.042
10632SOL    HW232796   6.338   1.745   3.929
10633SOL     OW32797   2.825   3.589   1.578
10633SOL    HW132798   2.900   3.655   1.577
10633SOL    HW232799   2.777   3.595   1.666
10634SOL     OW32800   3.014   5.779   0.959
10634SOL    HW132801   2.935   5.747   0.907
10634SOL    HW232802   2.983   5.835   1.036
10635SOL     OW32803   3.631   1.532   1.079
10635SOL    HW132804   3.632   1.550   1.177
10635SOL    HW232805   3.592   1.610   1.031
10636SOL     OW32806   0.879   1.388   1.644
10636SOL    HW132807   0.938   1.349   1.574
10636SOL    HW232808   0.785   1.360   1.629
10637SOL     OW32809   2.208   4.595   5.762
10637SOL    HW132810   2.290   4.600   5.705
10637SOL    HW232811   2.229   4.544   5.846
10638SOL     OW32812   0.097   5.439   2.748
10638SOL    HW132813   0.083   5.425   2.846
10638SOL    HW232814   0.080   5.352   2.700
10639SOL     OW32815   1.296   3.544   2.691
10639SOL    HW132816   1.364   3.617   2.688
10639SOL    HW232817   1.259   3.530   2.599
10640SOL     OW32818   3.522   0.286   5.676
10640SOL    HW132819   3.507   0.219   5.749
10640SOL    HW232820   3.438   0.298   5.624
10641SOL     OW32821   3.803   1.952   0.464
10641SOL    HW132822   3.851   1.904   0.390
10641SOL    HW232823   3.775   2.042   0.431
10642SOL     OW32824   6.947   3.170   1.822
10642SOL    HW132825   6.875   3.233   1.792
10642SOL    HW232826   6.967   3.186   1.919
10643SOL     OW32827   2.134   5.289   5.240
10643SOL    HW132828   2.186   5.204   5.236
10643SOL    HW232829   2.090   5.298   5.329
10644SOL     OW32830   4.953   2.747   3.359
10644SOL    HW132831   5.007   2.801   3.294
10644SOL    HW232832   4.857   2.773   3.352
10645SOL     OW32833   0.895   1.682   5.031
10645SOL    HW132834   0.991   1.708   5.020
10645SOL    HW232835   0.884   1.631   5.116
10646SOL     OW32836   6.897   0.870   6.663
10646SOL    HW132837   6.949   0.933   6.720
10646SOL    HW232838   6.951   0.787   6.647
10647SOL     OW32839   3.073   5.148   6.106
10647SOL    HW132840   3.143   5.155   6.035
10647SOL    HW232841   3.039   5.054   6.110
10648SOL     OW32842   5.429   4.355   6.107
10648SOL    HW132843   5.451   4.363   6.009
10648SOL    HW232844   5.379   4.270   6.123
10649SOL     OW32845   0.524   4.055   3.623
10649SOL    HW132846   0.471   4.118   3.567
10649SOL    HW232847   0.606   4.027   3.573
10650SOL     OW32848   1.111   5.980   3.544
10650SOL    HW132849   1.057   6.034   3.480
10650SOL    HW232850   1.120   6.030   3.630
10651SOL     OW32851   4.321   6.827   6.263
10651SOL    HW132852   4.374   6.750   6.226
10651SOL    HW232853   4.384   6.896   6.299
10652SOL     OW32854   3.676   6.642   6.063
10652SOL    HW132855   3.621   6.605   6.137
10652SOL    HW232856   3.655   6.740   6.051
10653SOL     OW32857   5.253   3.778   4.070
10653SOL    HW132858   5.188   3.840   4.026
10653SOL    HW232859   5.342   3.787   4.027
10654SOL     OW32860   4.667   1.425   0.598
10654SOL    HW132861   4.726   1.387   0.527
10654SOL    HW232862   4.681   1.524   0.602
10655SOL     OW32863   2.745   5.723   0.935
10655SOL    HW132864   2.732   5.633   0.977
10655SOL    HW232865   2.656   5.765   0.917
10656SOL     OW32866   0.144   2.351   1.606
10656SOL    HW132867   0.062   2.406   1.589
10656SOL    HW232868   0.222   2.412   1.622
10657SOL     OW32869   6.179   0.146   6.013
10657SOL    HW132870   6.094   0.182   5.975
10657SOL    HW232871   6.204   0.062   5.963
10658SOL     OW32872   6.392   4.263   5.117
10658SOL    HW132873   6.378   4.333   5.047
10658SOL    HW232874   6.467   4.203   5.090
10659SOL     OW32875   6.841   6.233   0.686
10659SOL    HW132876   6.742   6.245   0.691
10659SOL    HW232877   6.862   6.148   0.638
10660SOL     OW32878   5.477   3.862   0.108
10660SOL    HW132879   5.468   3.949   0.059
10660SOL    HW232880   5.408   3.797   0.075
10661SOL     OW32881   6.819   6.379   2.660
10661SOL    HW132882   6.790   6.289   2.627
10661SOL    HW232883   6.836   6.375   2.758
10662SOL     OW32884   5.396   0.612   2.777
10662SOL    HW132885   5.350   0.670   2.710
10662SOL    HW232886   5.339   0.533   2.798
10663SOL     OW32887   0.562   0.581   1.642
10663SOL    HW132888   0.611   0.618   1.563
10663SOL    HW232889   0.468   0.614   1.641
10664SOL     OW32890   0.989   5.051   4.585
10664SOL    HW132891   1.087   5.036   4.572
10664SOL    HW232892   0.940   5.018   4.504
10665SOL     OW32893   0.484   1.021   0.847
10665SOL    HW132894   0.419   1.019   0.770
10665SOL    HW232895   0.479   0.935   0.897
10666SOL     OW32896   3.009   4.298   0.061
10666SOL    HW132897   2.955   4.217   0.081
10666SOL    HW232898   3.043   4.294   6.997
10667SOL     OW32899   4.219   3.295   5.263
10667SOL    HW132900   4.217   3.365   5.334
10667SOL    HW232901   4.147   3.228   5.280
10668SOL     OW32902   1.649   1.675   5.237
10668SOL    HW132903   1.661   1.576   5.244
10668SOL    HW232904   1.635   1.713   5.329
10669SOL     OW32905   6.021   6.730   0.796
10669SOL    HW132906   6.044   6.741   0.893
10669SOL    HW232907   5.945   6.791   0.773
10670SOL     OW32908   5.024   4.048   4.887
10670SOL    HW132909   5.019   4.148   4.888
10670SOL    HW232910   4.992   4.014   4.798
10671SOL     OW32911   2.365   1.834   2.719
10671SOL    HW132912   2.274   1.855   2.756
10671SOL    HW232913   2.364   1.848   2.620
10672SOL     OW32914   6.644   2.535   0.668
10672SOL    HW132915   6.727   2.496   0.627
10672SOL    HW232916   6.640   2.511   0.765
10673SOL     OW32917   0.884   1.379   6.972
10673SOL    HW132918   0.907   1.457   6.914
10673SOL    HW232919   0.947   1.376   0.020
10674SOL     OW32920   3.087   4.644   1.163
10674SOL    HW132921   3.064   4.551   1.133
10674SOL    HW232922   3.116   4.698   1.084
10675SOL     OW32923   1.985   0.103   5.992
10675SOL    HW132924   1.903   0.054   5.963
10675SOL    HW232925   1.987   0.193   5.949
10676SOL     OW32926   6.324   6.637   5.895
10676SOL    HW132927   6.257   6.645   5.822
10676SOL    HW232928   6.409   6.601   5.859
10677SOL     OW32929   0.755   0.555   2.187
10677SOL    HW132930   0.761   0.461   2.152
10677SOL    HW232931   0.706   0.612   2.121
10678SOL     OW32932   3.657   5.697   2.282
10678SOL    HW132933   3.687   5.693   2.186
10678SOL    HW232934   3.723   5.649   2.340
10679SOL     OW32935   5.601   4.677   6.204
10679SOL    HW132936   5.527   4.695   6.269
10679SOL    HW232937   5.562   4.663   6.113
10680SOL     OW32938   2.563   1.725   3.752
10680SOL    HW132939   2.608   1.733   3.663
10680SOL    HW232940   2.627   1.683   3.818
10681SOL     OW32941   0.281   3.817   6.986
10681SOL    HW132942   0.330   3.788   6.904
10681SOL    HW232943   0.183   3.827   6.965
10682SOL     OW32944   1.719   1.950   3.395
10682SOL    HW132945   1.713   1.892   3.476
10682SOL    HW232946   1.769   2.033   3.416
10683SOL     OW32947   3.530   2.148   3.713
10683SOL    HW132948   3.579   2.208   3.649
10683SOL    HW232949   3.586   2.069   3.735
10684SOL     OW32950   4.823   3.590   0.914
10684SOL    HW132951   4.724   3.592   0.894
10684SOL    HW232952   4.863   3.510   0.869
10685SOL     OW32953   6.789   4.470   2.716
10685SOL    HW132954   6.692   4.476   2.692
10685SOL    HW232955   6.827   4.563   2.722
10686SOL     OW32956   2.756   4.837   6.391
10686SOL    HW132957   2.830   4.782   6.430
10686SOL    HW232958   2.790   4.929   6.370
10687SOL     OW32959   6.855   5.278   1.809
10687SOL    HW132960   6.765   5.267   1.766
10687SOL    HW232961   6.843   5.303   1.905
10688SOL     OW32962   0.166   4.606   2.773
10688SOL    HW132963   0.233   4.582   2.843
10688SOL    HW232964   0.206   4.589   2.682
10689SOL     OW32965   0.237   0.179   4.282
10689SOL    HW132966   0.214   0.150   4.189
10689SOL    HW232967   0.267   0.099   4.335
10690SOL     OW32968   6.748   5.259   3.461
10690SOL    HW132969   6.697   5.302   3.386
10690SOL    HW232970   6.705   5.283   3.548
10691SOL     OW32971   0.505   1.009   2.689
10691SOL    HW132972   0.521   0.995   2.591
10691SOL    HW232973   0.451   1.092   2.703
10692SOL     OW32974   3.560   4.964   2.729
10692SOL    HW132975   3.623   4.953   2.806
10692SOL    HW232976   3.601   4.927   2.646
10693SOL     OW32977   1.826   0.164   1.345
10693SOL    HW132978   1.885   0.227   1.295
10693SOL    HW232979   1.767   0.216   1.407
10694SOL     OW32980   4.411   6.392   1.585
10694SOL    HW132981   4.340   6.353   1.527
10694SOL    HW232982   4.370   6.428   1.669
10695SOL     OW32983   5.676   2.082   2.652
10695SOL    HW132984   5.737   2.126   2.586
10695SOL    HW232985   5.641   2.151   2.715
10696SOL     OW32986   6.709   4.121   2.853
10696SOL    HW132987   6.678   4.104   2.759
10696SOL    HW232988   6.792   4.067   2.870
10697SOL     OW32989   0.004   6.249   4.775
10697SOL    HW132990   6.941   6.252   4.740
10697SOL    HW232991   0.012   6.308   4.856
10698SOL     OW32992   3.938   6.069   3.714
10698SOL    HW132993   3.956   5.978   3.751
10698SOL    HW232994   4.012   6.094   3.651
10699SOL     OW32995   4.285   2.053   2.424
10699SOL    HW132996   4.219   2.121   2.454
10699SOL    HW232997   4.327   2.082   2.338
10700SOL     OW32998   1.155   0.189   0.317
10700SOL    HW132999   1.065   0.231   0.308
10700SOL    HW233000   1.199   0.183   0.227
10701SOL     OW33001   3.522   6.032   0.094
10701SOL    HW133002   3.487   6.025   0.187
10701SOL    HW233003   3.526   5.942   0.052
10702SOL     OW33004   6.797   2.661   2.686
10702SOL    HW133005   6.737   2.581   2.674
10702SOL    HW233006   6.867   2.661   2.615
10703SOL     OW33007   3.892   3.255   4.170
10703SOL    HW133008   3.840   3.339   4.154
10703SOL    HW233009   3.971   3.252   4.108
10704SOL     OW33010   5.593   5.772   1.348
10704SOL    HW133011   5.584   5.806   1.254
10704SOL    HW233012   5.567   5.844   1.412
10705SOL     OW33013   6.805   4.007   1.968
10705SOL    HW133014   6.827   4.025   2.064
10705SOL    HW233015   6.873   3.944   1.929
10706SOL     OW33016   4.914   6.686   1.757
10706SOL    HW133017   4.893   6.597   1.717
10706SOL    HW233018   4.847   6.753   1.726
10707SOL     OW33019   0.609   6.986   4.851
10707SOL    HW133020   0.622   6.999   4.949
10707SOL    HW233021   0.614   6.888   4.830
10708SOL     OW33022   4.639   0.912   2.491
10708SOL    HW133023   4.682   1.001   2.474
10708SOL    HW233024   4.665   0.879   2.582
10709SOL     OW33025   6.809   1.473   5.087
10709SOL    HW133026   6.848   1.479   4.995
10709SOL    HW233027   6.862   1.408   5.142
10710SOL     OW33028   0.673   6.424   4.645
10710SOL    HW133029   0.771   6.407   4.640
10710SOL    HW233030   0.625   6.365   4.580
10711SOL     OW33031   1.856   6.551   3.801
10711SOL    HW133032   1.910   6.616   3.855
10711SOL    HW233033   1.858   6.579   3.705
10712SOL     OW33034   3.715   0.344   2.367
10712SOL    HW133035   3.665   0.426   2.337
10712SOL    HW233036   3.778   0.369   2.441
10713SOL     OW33037   1.493   4.270   2.278
10713SOL    HW133038   1.420   4.233   2.335
10713SOL    HW233039   1.510   4.366   2.302
10714SOL     OW33040   6.318   2.737   4.910
10714SOL    HW133041   6.383   2.707   4.980
10714SOL    HW233042   6.366   2.787   4.839
10715SOL     OW33043   3.846   0.761   3.100
10715SOL    HW133044   3.906   0.682   3.110
10715SOL    HW233045   3.752   0.735   3.124
10716SOL     OW33046   0.161   2.892   3.368
10716SOL    HW133047   0.261   2.891   3.369
10716SOL    HW233048   0.129   2.920   3.277
10717SOL     OW33049   0.928   2.170   0.540
10717SOL    HW133050   0.884   2.259   0.556
10717SOL    HW233051   0.979   2.174   0.454
10718SOL     OW33052   6.547   4.323   0.129
10718SOL    HW133053   6.624   4.366   0.081
10718SOL    HW233054   6.576   4.296   0.221
10719SOL     OW33055   4.620   5.813   1.242
10719SOL    HW133056   4.523   5.801   1.221
10719SOL    HW233057   4.630   5.852   1.334
10720SOL     OW33058   0.609   3.821   6.385
10720SOL    HW133059   0.610   3.865   6.475
10720SOL    HW233060   0.685   3.856   6.330
10721SOL     OW33061   6.247   2.454   4.614
10721SOL    HW133062   6.189   2.516   4.668
10721SOL    HW233063   6.301   2.507   4.549
10722SOL     OW33064   6.863   3.176   0.511
10722SOL    HW133065   6.898   3.086   0.485
10722SOL    HW233066   6.936   3.229   0.555
10723SOL     OW33067   5.948   3.908   0.076
10723SOL    HW133068   6.010   3.871   0.146
10723SOL    HW233069   5.998   3.917   7.019
10724SOL     OW33070   3.287   0.098   6.527
10724SOL    HW133071   3.248   0.009   6.502
10724SOL    HW233072   3.371   0.085   6.579
10725SOL     OW33073   6.977   5.039   3.936
10725SOL    HW133074   7.029   5.103   3.879
10725SOL    HW233075   6.943   5.087   4.017
10726SOL     OW33076   5.705   6.646   5.169
10726SOL    HW133077   5.654   6.563   5.143
10726SOL    HW233078   5.641   6.712   5.209
10727SOL     OW33079   1.776   4.879   4.815
10727SOL    HW133080   1.680   4.868   4.790
10727SOL    HW233081   1.824   4.926   4.741
10728SOL     OW33082   6.011   6.751   2.131
10728SOL    HW133083   6.086   6.720   2.189
10728SOL    HW233084   5.944   6.677   2.120
10729SOL     OW33085   6.541   1.506   2.417
10729SOL    HW133086   6.624   1.557   2.396
10729SOL    HW233087   6.520   1.444   2.342
10730SOL     OW33088   2.891   6.622   1.302
10730SOL    HW133089   2.876   6.714   1.339
10730SOL    HW233090   2.863   6.554   1.369
10731SOL     OW33091   2.099   5.777   0.110
10731SOL    HW133092   2.029   5.748   0.045
10731SOL    HW233093   2.163   5.839   0.064
10732SOL     OW33094   6.016   0.102   2.751
10732SOL    HW133095   5.984   0.011   2.727
10732SOL    HW233096   5.962   0.170   2.702
10733SOL     OW33097   5.936   2.565   0.117
10733SOL    HW133098   5.980   2.654   0.128
10733SOL    HW233099   5.844   2.568   0.156
10734SOL     OW33100   1.407   0.770   6.895
10734SOL    HW133101   1.371   0.741   6.806
10734SOL    HW233102   1.332   0.775   6.961
10735SOL     OW33103   1.584   4.697   2.081
10735SOL    HW133104   1.497   4.665   2.117
10735SOL    HW233105   1.568   4.755   2.002
10736SOL     OW33106   0.652   1.163   3.537
10736SOL    HW133107   0.576   1.106   3.566
10736SOL    HW233108   0.737   1.130   3.579
10737SOL     OW33109   0.839   2.785   0.699
10737SOL    HW133110   0.796   2.846   0.766
10737SOL    HW233111   0.778   2.774   0.621
10738SOL     OW33112   2.245   0.384   1.955
10738SOL    HW133113   2.251   0.295   1.909
10738SOL    HW233114   2.333   0.431   1.948
10739SOL     OW33115   6.957   1.445   3.016
10739SOL    HW133116   7.016   1.511   3.062
10739SOL    HW233117   6.863   1.456   3.048
10740SOL     OW33118   1.075   5.640   5.831
10740SOL    HW133119   1.119   5.561   5.874
10740SOL    HW233120   1.101   5.644   5.734
10741SOL     OW33121   1.191   1.303   3.500
10741SOL    HW133122   1.248   1.383   3.519
10741SOL    HW233123   1.142   1.277   3.583
10742SOL     OW33124   5.839   6.948   2.094
10742SOL    HW133125   5.752   6.920   2.052
10742SOL    HW233126   5.905   6.873   2.086
10743SOL     OW33127   2.441   2.658   3.494
10743SOL    HW133128   2.464   2.632   3.400
10743SOL    HW233129   2.503   2.612   3.557
10744SOL     OW33130   3.307   1.533   2.904
10744SOL    HW133131   3.218   1.503   2.870
10744SOL    HW233132   3.294   1.610   2.967
10745SOL     OW33133   1.668   4.796   6.410
10745SOL    HW133134   1.699   4.891   6.407
10745SOL    HW233135   1.573   4.793   6.441
10746SOL     OW33136   1.934   5.670   1.417
10746SOL    HW133137   1.859   5.633   1.362
10746SOL    HW233138   1.998   5.597   1.439
10747SOL     OW33139   5.119   1.461   3.573
10747SOL    HW133140   5.113   1.529   3.646
10747SOL    HW233141   5.035   1.464   3.518
10748SOL     OW33142   5.949   5.932   1.131
10748SOL    HW133143   5.970   5.974   1.042
10748SOL    HW233144   6.002   5.848   1.141
10749SOL     OW33145   0.159   5.050   2.908
10749SOL    HW133146   0.186   4.993   2.830
10749SOL    HW233147   0.093   5.000   2.965
10750SOL     OW33148   4.621   4.591   4.708
10750SOL    HW133149   4.540   4.590   4.649
10750SOL    HW233150   4.614   4.519   4.777
10751SOL     OW33151   0.828   3.259   5.285
10751SOL    HW133152   0.847   3.292   5.193
10751SOL    HW233153   0.854   3.163   5.293
10752SOL     OW33154   5.901   3.537   6.553
10752SOL    HW133155   5.866   3.444   6.566
10752SOL    HW233156   5.933   3.546   6.458
10753SOL     OW33157   6.272   6.956   3.848
10753SOL    HW133158   6.369   6.981   3.851
10753SOL    HW233159   6.216   0.007   3.869
10754SOL     OW33160   2.223   2.311   2.424
10754SOL    HW133161   2.205   2.400   2.464
10754SOL    HW233162   2.176   2.303   2.336
10755SOL     OW33163   0.083   1.731   0.539
10755SOL    HW133164   0.181   1.752   0.531
10755SOL    HW233165   0.069   1.670   0.617
10756SOL     OW33166   6.378   3.407   0.920
10756SOL    HW133167   6.280   3.392   0.933
10756SOL    HW233168   6.401   3.397   0.823
10757SOL     OW33169   0.011   3.209   7.002
10757SOL    HW133170   0.100   3.163   7.000
10757SOL    HW233171   6.990   3.180   0.053
10758SOL     OW33172   0.661   5.932   5.438
10758SOL    HW133173   0.735   5.865   5.436
10758SOL    HW233174   0.675   5.995   5.515
10759SOL     OW33175   2.124   2.874   0.275
10759SOL    HW133176   2.123   2.932   0.194
10759SOL    HW233177   2.090   2.783   0.252
10760SOL     OW33178   0.042   6.962   0.867
10760SOL    HW133179   0.125   6.968   0.922
10760SOL    HW233180   6.994   6.937   0.925
10761SOL     OW33181   0.836   2.392   6.267
10761SOL    HW133182   0.926   2.435   6.262
10761SOL    HW233183   0.846   2.293   6.258
10762SOL     OW33184   4.734   0.833   4.789
10762SOL    HW133185   4.812   0.808   4.845
10762SOL    HW233186   4.663   0.763   4.797
10763SOL     OW33187   4.181   6.811   1.147
10763SOL    HW133188   4.219   6.886   1.202
10763SOL    HW233189   4.146   6.848   1.061
10764SOL     OW33190   5.213   1.837   6.197
10764SOL    HW133191   5.209   1.818   6.295
10764SOL    HW233192   5.291   1.895   6.177
10765SOL     OW33193   5.687   1.832   1.461
10765SOL    HW133194   5.653   1.882   1.382
10765SOL    HW233195   5.778   1.867   1.486
10766SOL     OW33196   2.919   3.641   0.255
10766SOL    HW133197   2.926   3.741   0.250
10766SOL    HW233198   2.955   3.610   0.342
10767SOL     OW33199   1.453   0.199   0.757
10767SOL    HW133200   1.506   0.115   0.748
10767SOL    HW233201   1.452   0.229   0.852
10768SOL     OW33202   5.457   5.694   0.601
10768SOL    HW133203   5.428   5.630   0.530
10768SOL    HW233204   5.502   5.773   0.559
10769SOL     OW33205   2.783   5.094   5.246
10769SOL    HW133206   2.790   4.996   5.231
10769SOL    HW233207   2.829   5.143   5.172
10770SOL     OW33208   5.435   0.657   4.866
10770SOL    HW133209   5.417   0.749   4.831
10770SOL    HW233210   5.515   0.660   4.926
10771SOL     OW33211   4.229   0.335   5.352
10771SOL    HW133212   4.321   0.296   5.360
10771SOL    HW233213   4.221   0.385   5.266
10772SOL     OW33214   6.563   0.425   4.127
10772SOL    HW133215   6.492   0.487   4.157
10772SOL    HW233216   6.559   0.340   4.180
10773SOL     OW33217   6.926   4.809   0.043
10773SOL    HW133218   7.015   4.776   0.075
10773SOL    HW233219   6.911   4.902   0.075
10774SOL     OW33220   1.310   2.420   0.425
10774SOL    HW133221   1.237   2.401   0.490
10774SOL    HW233222   1.384   2.468   0.471
10775SOL     OW33223   2.357   4.585   0.743
10775SOL    HW133224   2.285   4.566   0.810
10775SOL    HW233225   2.445   4.595   0.790
10776SOL     OW33226   0.820   6.636   1.145
10776SOL    HW133227   0.773   6.620   1.232
10776SOL    HW233228   0.775   6.584   1.072
10777SOL     OW33229   4.333   0.400   3.319
10777SOL    HW133230   4.295   0.458   3.247
10777SOL    HW233231   4.382   0.458   3.385
10778SOL     OW33232   6.316   6.714   4.267
10778SOL    HW133233   6.236   6.760   4.228
10778SOL    HW233234   6.367   6.669   4.194
10779SOL     OW33235   0.352   4.552   2.983
10779SOL    HW133236   0.339   4.559   3.082
10779SOL    HW233237   0.363   4.456   2.957
10780SOL     OW33238   0.630   6.358   2.905
10780SOL    HW133239   0.676   6.439   2.868
10780SOL    HW233240   0.698   6.288   2.928
10781SOL     OW33241   4.291   1.720   4.077
10781SOL    HW133242   4.291   1.685   4.171
10781SOL    HW233243   4.213   1.780   4.063
10782SOL     OW33244   6.460   2.953   3.408
10782SOL    HW133245   6.540   2.894   3.397
10782SOL    HW233246   6.416   2.967   3.319
10783SOL     OW33247   1.895   3.071   2.340
10783SOL    HW133248   1.992   3.094   2.351
10783SOL    HW233249   1.840   3.133   2.395
10784SOL     OW33250   2.167   0.163   1.249
10784SOL    HW133251   2.202   0.129   1.162
10784SOL    HW233252   2.209   0.112   1.324
10785SOL     OW33253   1.936   5.238   1.578
10785SOL    HW133254   1.963   5.149   1.542
10785SOL    HW233255   1.991   5.260   1.659
10786SOL     OW33256   5.190   3.071   1.674
10786SOL    HW133257   5.191   2.973   1.653
10786SOL    HW233258   5.209   3.084   1.771
10787SOL     OW33259   3.467   1.537   4.807
10787SOL    HW133260   3.495   1.574   4.895
10787SOL    HW233261   3.427   1.446   4.820
10788SOL     OW33262   2.349   4.251   0.146
10788SOL    HW133263   2.388   4.196   0.220
10788SOL    HW233264   2.372   4.347   0.159
10789SOL     OW33265   5.412   1.390   0.692
10789SOL    HW133266   5.409   1.381   0.593
10789SOL    HW233267   5.419   1.299   0.734
10790SOL     OW33268   0.409   0.760   5.696
10790SOL    HW133269   0.317   0.737   5.725
10790SOL    HW233270   0.408   0.845   5.643
10791SOL     OW33271   1.268   1.715   1.658
10791SOL    HW133272   1.286   1.658   1.738
10791SOL    HW233273   1.198   1.783   1.680
10792SOL     OW33274   3.233   3.157   1.730
10792SOL    HW133275   3.260   3.146   1.826
10792SOL    HW233276   3.147   3.109   1.715
10793SOL     OW33277   5.605   2.273   3.984
10793SOL    HW133278   5.624   2.353   4.041
10793SOL    HW233279   5.595   2.192   4.041
10794SOL     OW33280   3.450   3.716   2.216
10794SOL    HW133281   3.494   3.631   2.187
10794SOL    HW233282   3.404   3.758   2.137
10795SOL     OW33283   6.280   4.227   3.316
10795SOL    HW133284   6.274   4.305   3.253
10795SOL    HW233285   6.291   4.143   3.263
10796SOL     OW33286   3.500   0.048   6.692
10796SOL    HW133287   3.589   0.011   6.720
10796SOL    HW233288   3.462   0.102   6.767
10797SOL     OW33289   4.154   2.974   0.920
10797SOL    HW133290   4.152   3.005   1.015
10797SOL    HW233291   4.090   3.028   0.866
10798SOL     OW33292   2.021   7.018   0.768
10798SOL    HW133293   1.969   6.958   0.829
10798SOL    HW233294   2.078   0.049   0.822
10799SOL     OW33295   3.935   1.876   1.692
10799SOL    HW133296   3.887   1.819   1.625
10799SOL    HW233297   3.869   1.912   1.758
10800SOL     OW33298   1.751   6.114   0.030
10800SOL    HW133299   1.850   6.112   0.021
10800SOL    HW233300   1.727   6.120   0.127
10801SOL     OW33301   1.165   0.457   4.518
10801SOL    HW133302   1.210   0.403   4.589
10801SOL    HW233303   1.234   0.496   4.457
10802SOL     OW33304   2.220   3.130   4.837
10802SOL    HW133305   2.302   3.110   4.891
10802SOL    HW233306   2.167   3.202   4.883
10803SOL     OW33307   4.922   4.690   4.793
10803SOL    HW133308   4.980   4.638   4.730
10803SOL    HW233309   4.895   4.776   4.751
10804SOL     OW33310   6.989   4.229   1.125
10804SOL    HW133311   7.027   4.231   1.033
10804SOL    HW233312   6.975   4.323   1.157
10805SOL     OW33313   3.607   0.286   6.564
10805SOL    HW133314   3.537   0.352   6.536
10805SOL    HW233315   3.563   0.198   6.585
10806SOL     OW33316   5.713   4.201   0.385
10806SOL    HW133317   5.636   4.139   0.369
10806SOL    HW233318   5.781   4.156   0.443
10807SOL     OW33319   3.414   6.947   3.440
10807SOL    HW133320   3.512   6.966   3.448
10807SOL    HW233321   3.399   6.880   3.367
10808SOL     OW33322   6.925   3.870   0.419
10808SOL    HW133323   6.922   3.945   0.353
10808SOL    HW233324   6.980   3.795   0.382
10809SOL     OW33325   2.809   0.346   4.233
10809SOL    HW133326   2.788   0.250   4.220
10809SOL    HW233327   2.852   0.382   4.150
10810SOL     OW33328   1.281   1.383   5.992
10810SOL    HW133329   1.324   1.439   6.063
10810SOL    HW233330   1.320   1.290   5.994
10811SOL     OW33331   3.907   4.943   5.036
10811SOL    HW133332   3.807   4.940   5.029
10811SOL    HW233333   3.938   5.038   5.023
10812SOL     OW33334   0.301   3.255   1.964
10812SOL    HW133335   0.383   3.290   2.010
10812SOL    HW233336   0.227   3.321   1.976
10813SOL     OW33337   2.898   6.238   6.902
10813SOL    HW133338   2.897   6.338   6.896
10813SOL    HW233339   2.868   6.211   6.994
10814SOL     OW33340   1.239   0.559   5.393
10814SOL    HW133341   1.151   0.522   5.423
10814SOL    HW233342   1.288   0.489   5.341
10815SOL     OW33343   4.858   5.211   3.793
10815SOL    HW133344   4.901   5.284   3.845
10815SOL    HW233345   4.828   5.247   3.705
10816SOL     OW33346   1.765   1.379   2.330
10816SOL    HW133347   1.693   1.316   2.300
10816SOL    HW233348   1.851   1.354   2.285
10817SOL     OW33349   5.741   6.560   3.048
10817SOL    HW133350   5.690   6.488   3.002
10817SOL    HW233351   5.779   6.622   2.980
10818SOL     OW33352   5.440   2.830   5.467
10818SOL    HW133353   5.500   2.835   5.387
10818SOL    HW233354   5.440   2.736   5.503
10819SOL     OW33355   0.905   4.399   6.999
10819SOL    HW133356   0.898   4.349   0.056
10819SOL    HW233357   1.000   4.398   6.968
10820SOL     OW33358   0.014   0.158   4.056
10820SOL    HW133359   0.031   0.060   4.071
10820SOL    HW233360   6.971   0.189   4.117
10821SOL     OW33361   5.699   6.480   2.721
10821SOL    HW133362   5.745   6.448   2.639
10821SOL    HW233363   5.719   6.577   2.735
10822SOL     OW33364   1.266   2.187   2.836
10822SOL    HW133365   1.267   2.266   2.897
10822SOL    HW233366   1.260   2.103   2.890
10823SOL     OW33367   1.677   5.523   1.322
10823SOL    HW133368   1.652   5.511   1.418
10823SOL    HW233369   1.704   5.435   1.283
10824SOL     OW33370   4.888   0.068   3.910
10824SOL    HW133371   4.898   6.998   3.912
10824SOL    HW233372   4.891   0.104   4.003
10825SOL     OW33373   2.581   0.607   0.895
10825SOL    HW133374   2.529   0.525   0.871
10825SOL    HW233375   2.569   0.676   0.823
10826SOL     OW33376   0.044   3.649   3.466
10826SOL    HW133377   0.031   3.551   3.478
10826SOL    HW233378   6.992   3.698   3.496
10827SOL     OW33379   6.161   3.998   4.018
10827SOL    HW133380   6.100   4.061   4.066
10827SOL    HW233381   6.198   3.931   4.083
10828SOL     OW33382   1.178   5.658   2.704
10828SOL    HW133383   1.195   5.572   2.751
10828SOL    HW233384   1.257   5.682   2.648
10829SOL     OW33385   3.213   3.361   0.587
10829SOL    HW133386   3.261   3.290   0.639
10829SOL    HW233387   3.144   3.404   0.645
10830SOL     OW33388   4.895   1.855   3.429
10830SOL    HW133389   4.934   1.849   3.522
10830SOL    HW233390   4.796   1.850   3.434
10831SOL     OW33391   5.245   6.676   1.817
10831SOL    HW133392   5.343   6.686   1.798
10831SOL    HW233393   5.208   6.601   1.763
10832SOL     OW33394   0.199   2.763   0.930
10832SOL    HW133395   0.278   2.710   0.897
10832SOL    HW233396   0.143   2.790   0.852
10833SOL     OW33397   1.376   0.618   3.890
10833SOL    HW133398   1.437   0.563   3.948
10833SOL    HW233399   1.284   0.617   3.928
10834SOL     OW33400   0.977   2.012   5.930
10834SOL    HW133401   1.027   1.926   5.935
10834SOL    HW233402   0.898   2.008   5.991
10835SOL     OW33403   5.302   1.794   1.011
10835SOL    HW133404   5.307   1.767   0.914
10835SOL    HW233405   5.330   1.717   1.068
10836SOL     OW33406   0.111   1.190   5.554
10836SOL    HW133407   0.025   1.140   5.565
10836SOL    HW233408   0.103   1.255   5.478
10837SOL     OW33409   0.664   5.207   0.342
10837SOL    HW133410   0.758   5.239   0.337
10837SOL    HW233411   0.643   5.181   0.437
10838SOL     OW33412   5.753   6.923   4.373
10838SOL    HW133413   5.682   6.919   4.445
10838SOL    HW233414   5.775   7.018   4.353
10839SOL     OW33415   3.084   3.183   0.945
10839SOL    HW133416   3.054   3.103   0.996
10839SOL    HW233417   3.137   3.154   0.865
10840SOL     OW33418   3.955   5.960   1.820
10840SOL    HW133419   3.880   5.979   1.756
10840SOL    HW233420   3.938   6.007   1.906
10841SOL     OW33421   3.691   5.901   6.403
10841SOL    HW133422   3.733   5.811   6.416
10841SOL    HW233423   3.604   5.905   6.452
10842SOL     OW33424   6.742   3.774   0.826
10842SOL    HW133425   6.795   3.699   0.865
10842SOL    HW233426   6.787   3.861   0.845
10843SOL     OW33427   0.535   1.725   2.114
10843SOL    HW133428   0.555   1.810   2.163
10843SOL    HW233429   0.509   1.745   2.020
10844SOL     OW33430   0.594   6.773   4.250
10844SOL    HW133431   0.553   6.862   4.271
10844SOL    HW233432   0.523   6.703   4.244
10845SOL     OW33433   1.894   0.853   0.996
10845SOL    HW133434   1.804   0.867   1.037
10845SOL    HW233435   1.886   0.851   0.897
10846SOL     OW33436   4.570   2.602   0.657
10846SOL    HW133437   4.534   2.516   0.695
10846SOL    HW233438   4.494   2.659   0.625
10847SOL     OW33439   2.496   1.925   6.754
10847SOL    HW133440   2.559   1.925   6.676
10847SOL    HW233441   2.516   2.004   6.812
10848SOL     OW33442   3.017   2.278   6.398
10848SOL    HW133443   3.078   2.356   6.412
10848SOL    HW233444   3.031   2.241   6.306
10849SOL     OW33445   3.714   4.939   3.892
10849SOL    HW133446   3.620   4.975   3.891
10849SOL    HW233447   3.743   4.917   3.799
10850SOL     OW33448   4.316   6.375   6.457
10850SOL    HW133449   4.302   6.457   6.513
10850SOL    HW233450   4.349   6.300   6.514
10851SOL     OW33451   2.906   2.598   6.496
10851SOL    HW133452   3.004   2.587   6.484
10851SOL    HW233453   2.859   2.571   6.412
10852SOL     OW33454   0.527   0.063   6.164
10852SOL    HW133455   0.546   7.014   6.106
10852SOL    HW233456   0.574   0.052   6.252
10853SOL     OW33457   3.574   1.825   4.822
10853SOL    HW133458   3.547   1.742   4.773
10853SOL    HW233459   3.669   1.816   4.853
10854SOL     OW33460   6.481   0.067   6.080
10854SOL    HW133461   6.394   0.018   6.083
10854SOL    HW233462   6.463   0.164   6.061
10855SOL     OW33463   2.774   6.202   2.438
10855SOL    HW133464   2.737   6.253   2.361
10855SOL    HW233465   2.796   6.265   2.513
10856SOL     OW33466   6.193   1.129   1.386
10856SOL    HW133467   6.266   1.128   1.454
10856SOL    HW233468   6.215   1.065   1.312
10857SOL     OW33469   5.235   3.290   3.486
10857SOL    HW133470   5.225   3.305   3.584
10857SOL    HW233471   5.201   3.199   3.462
10858SOL     OW33472   1.463   2.673   6.796
10858SOL    HW133473   1.392   2.630   6.740
10858SOL    HW233474   1.514   2.738   6.740
10859SOL     OW33475   2.218   4.415   3.534
10859SOL    HW133476   2.235   4.475   3.456
10859SOL    HW233477   2.215   4.470   3.618
10860SOL     OW33478   0.052   1.174   6.219
10860SOL    HW133479   0.102   1.259   6.239
10860SOL    HW233480   6.983   1.192   6.222
10861SOL     OW33481   3.640   2.792   1.952
10861SOL    HW133482   3.665   2.728   1.879
10861SOL    HW233483   3.713   2.859   1.965
10862SOL     OW33484   3.041   1.669   6.841
10862SOL    HW133485   2.985   1.710   6.913
10862SOL    HW233486   3.096   1.595   6.879
10863SOL     OW33487   3.509   1.081   2.711
10863SOL    HW133488   3.495   1.007   2.777
10863SOL    HW233489   3.592   1.132   2.734
10864SOL     OW33490   2.695   4.736   1.223
10864SOL    HW133491   2.728   4.649   1.262
10864SOL    HW233492   2.769   4.803   1.223
10865SOL     OW33493   6.005   2.319   3.737
10865SOL    HW133494   6.019   2.382   3.660
10865SOL    HW233495   6.058   2.235   3.722
10866SOL     OW33496   6.114   3.568   1.160
10866SOL    HW133497   6.131   3.639   1.090
10866SOL    HW233498   6.098   3.481   1.115
10867SOL     OW33499   3.078   3.605   6.997
10867SOL    HW133500   3.046   3.602   0.062
10867SOL    HW233501   3.082   3.512   6.960
10868SOL     OW33502   1.373   1.906   2.944
10868SOL    HW133503   1.273   1.907   2.943
10868SOL    HW233504   1.405   1.852   3.021
10869NA      NA33505   0.497   2.372   5.907
10870NA      NA33506   4.479   4.521   5.213
10871NA      NA33507   2.158   4.442   2.100
10872NA      NA33508   5.030   4.724   3.609
10873NA      NA33509   4.103   2.277   5.250
10874NA      NA33510   3.497   4.334   1.465
10875NA      NA33511   1.208   4.569   0.451
10876NA      NA33512   4.249   4.225   1.447
10877NA      NA33513   4.967   4.682   0.792
10878NA      NA33514   3.106   0.277   5.372
10879NA      NA33515   5.732   5.538   1.290
10880NA      NA33516   1.293   0.594   5.811
10881NA      NA33517   4.922   4.887   2.125
10882NA      NA33518   3.745   3.025   0.901
   7.02986   7.02986   7.02986
