Generated by trjconv : CNT in water t= 504.00000
33518
    1C        C    1   2.845   2.768   4.746
    1C        C    2   2.900   2.719   4.866
    1C        C    3   2.841   2.771   4.982
    1C        C    4   2.850   2.772   4.259
    1C        C    5   2.901   2.722   4.381
    1C        C    6   2.847   2.770   4.502
    1C        C    7   3.015   2.642   4.625
    1C        C    8   2.895   2.717   4.624
    1C        C    9   3.074   2.599   4.745
    1C        C   10   3.012   2.633   4.867
    1C        C   11   3.181   2.492   4.979
    1C        C   12   3.061   2.563   4.979
    1C        C   13   2.849   2.769   3.770
    1C        C   14   2.903   2.723   3.892
    1C        C   15   2.852   2.772   4.014
    1C        C   16   3.016   2.639   4.136
    1C        C   17   2.903   2.724   4.137
    1C        C   18   3.079   2.606   4.258
    1C        C   19   3.016   2.639   4.380
    1C        C   20   3.206   2.550   4.505
    1C        C   21   3.076   2.604   4.503
    1C        C   22   3.276   2.530   4.626
    1C        C   23   3.205   2.544   4.748
    1C        C   24   3.411   2.479   4.864
    1C        C   25   3.269   2.501   4.867
    1C        C   26   3.487   2.477   4.982
    1C        C   27   2.852   2.768   3.279
    1C        C   28   2.903   2.720   3.401
    1C        C   29   2.853   2.770   3.524
    1C        C   30   3.016   2.639   3.645
    1C        C   31   2.903   2.725   3.648
    1C        C   32   3.072   2.601   3.769
    1C        C   33   3.014   2.636   3.893
    1C        C   34   3.208   2.551   4.014
    1C        C   35   3.075   2.599   4.015
    1C        C   36   3.275   2.530   4.137
    1C        C   37   3.210   2.553   4.260
    1C        C   38   3.413   2.501   4.381
    1C        C   39   3.275   2.531   4.383
    1C        C   40   3.485   2.491   4.503
    1C        C   41   3.414   2.498   4.624
    1C        C   42   3.629   2.482   4.747
    1C        C   43   3.487   2.482   4.744
    1C        C   44   3.704   2.487   4.866
    1C        C   45   3.626   2.470   4.982
    1C        C   46   2.840   2.756   2.791
    1C        C   47   2.897   2.714   2.913
    1C        C   48   2.845   2.761   3.036
    1C        C   49   3.017   2.635   3.157
    1C        C   50   2.901   2.716   3.157
    1C        C   51   3.080   2.603   3.280
    1C        C   52   3.015   2.634   3.401
    1C        C   53   3.205   2.541   3.526
    1C        C   54   3.076   2.599   3.524
    1C        C   55   3.272   2.522   3.649
    1C        C   56   3.202   2.546   3.769
    1C        C   57   3.412   2.508   3.894
    1C        C   58   3.273   2.529   3.890
    1C        C   59   3.484   2.501   4.015
    1C        C   60   3.414   2.501   4.138
    1C        C   61   3.626   2.500   4.258
    1C        C   62   3.485   2.496   4.260
    1C        C   63   3.696   2.508   4.380
    1C        C   64   3.626   2.498   4.503
    1C        C   65   3.832   2.541   4.622
    1C        C   66   3.697   2.498   4.624
    1C        C   67   3.904   2.560   4.743
    1C        C   68   3.839   2.526   4.864
    1C        C   69   4.053   2.585   4.981
    1C        C   70   3.922   2.534   4.976
    1C        C   71   2.825   2.735   2.303
    1C        C   72   2.886   2.696   2.425
    1C        C   73   2.837   2.749   2.546
    1C        C   74   3.004   2.621   2.670
    1C        C   75   2.890   2.705   2.669
    1C        C   76   3.068   2.584   2.790
    1C        C   77   3.009   2.628   2.911
    1C        C   78   3.200   2.538   3.035
    1C        C   79   3.070   2.594   3.033
    1C        C   80   3.272   2.520   3.156
    1C        C   81   3.208   2.543   3.280
    1C        C   82   3.411   2.494   3.402
    1C        C   83   3.271   2.518   3.403
    1C        C   84   3.481   2.493   3.525
    1C        C   85   3.411   2.497   3.647
    1C        C   86   3.622   2.498   3.770
    1C        C   87   3.481   2.495   3.771
    1C        C   88   3.693   2.510   3.891
    1C        C   89   3.625   2.506   4.014
    1C        C   90   3.832   2.554   4.136
    1C        C   91   3.696   2.515   4.136
    1C        C   92   3.899   2.575   4.258
    1C        C   93   3.831   2.550   4.379
    1C        C   94   4.026   2.632   4.500
    1C        C   95   3.899   2.572   4.502
    1C        C   96   4.090   2.669   4.621
    1C        C   97   4.029   2.626   4.741
    1C        C   98   4.187   2.765   4.864
    1C        C   99   4.097   2.653   4.863
    1C        C  100   4.216   2.839   4.979
    1C        C  101   2.820   2.731   2.066
    1C        C  102   2.992   2.594   2.187
    1C        C  103   2.878   2.680   2.183
    1C        C  104   3.064   2.573   2.308
    1C        C  105   3.001   2.614   2.428
    1C        C  106   3.199   2.534   2.549
    1C        C  107   3.069   2.590   2.549
    1C        C  108   3.268   2.513   2.670
    1C        C  109   3.200   2.533   2.792
    1C        C  110   3.409   2.493   2.912
    1C        C  111   3.269   2.514   2.914
    1C        C  112   3.479   2.487   3.034
    1C        C  113   3.411   2.498   3.157
    1C        C  114   3.622   2.496   3.278
    1C        C  115   3.481   2.490   3.280
    1C        C  116   3.690   2.512   3.401
    1C        C  117   3.622   2.502   3.525
    1C        C  118   3.827   2.548   3.647
    1C        C  119   3.692   2.504   3.647
    1C        C  120   3.896   2.571   3.768
    1C        C  121   3.829   2.549   3.891
    1C        C  122   4.022   2.642   4.012
    1C        C  123   3.896   2.579   4.012
    1C        C  124   4.083   2.679   4.134
    1C        C  125   4.024   2.641   4.257
    1C        C  126   4.195   2.766   4.380
    1C        C  127   4.084   2.678   4.380
    1C        C  128   4.244   2.820   4.501
    1C        C  129   4.193   2.765   4.621
    1C        C  130   4.325   2.931   4.740
    1C        C  131   4.242   2.815   4.743
    1C        C  132   4.355   3.001   4.860
    1C        C  133   4.287   2.959   4.975
    1C        C  134   3.174   2.465   2.076
    1C        C  135   3.041   2.511   2.081
    1C        C  136   3.258   2.477   2.187
    1C        C  137   3.195   2.518   2.306
    1C        C  138   3.405   2.479   2.426
    1C        C  139   3.266   2.506   2.428
    1C        C  140   3.478   2.477   2.547
    1C        C  141   3.408   2.491   2.669
    1C        C  142   3.621   2.494   2.792
    1C        C  143   3.480   2.489   2.790
    1C        C  144   3.691   2.501   2.914
    1C        C  145   3.621   2.495   3.036
    1C        C  146   3.830   2.537   3.153
    1C        C  147   3.693   2.503   3.157
    1C        C  148   3.895   2.563   3.276
    1C        C  149   3.826   2.550   3.399
    1C        C  150   4.019   2.630   3.523
    1C        C  151   3.889   2.574   3.523
    1C        C  152   4.083   2.667   3.644
    1C        C  153   4.023   2.631   3.767
    1C        C  154   4.190   2.764   3.888
    1C        C  155   4.080   2.676   3.888
    1C        C  156   4.240   2.817   4.009
    1C        C  157   4.192   2.769   4.133
    1C        C  158   4.338   2.919   4.254
    1C        C  159   4.247   2.811   4.256
    1C        C  160   4.376   2.983   4.374
    1C        C  161   4.331   2.931   4.498
    1C        C  162   4.437   3.114   4.617
    1C        C  163   4.370   2.990   4.620
    1C        C  164   4.468   3.183   4.736
    1C        C  165   4.432   3.119   4.857
    1C        C  166   4.509   3.321   4.969
    1C        C  167   4.476   3.186   4.971
    1C        C  168   3.478   2.437   2.071
    1C        C  169   3.398   2.456   2.185
    1C        C  170   3.615   2.466   2.305
    1C        C  171   3.473   2.468   2.303
    1C        C  172   3.688   2.488   2.424
    1C        C  173   3.619   2.490   2.547
    1C        C  174   3.824   2.546   2.666
    1C        C  175   3.689   2.506   2.668
    1C        C  176   3.894   2.561   2.788
    1C        C  177   3.828   2.536   2.911
    1C        C  178   4.023   2.625   3.033
    1C        C  179   3.898   2.559   3.031
    1C        C  180   4.082   2.663   3.155
    1C        C  181   4.022   2.625   3.277
    1C        C  182   4.190   2.752   3.399
    1C        C  183   4.080   2.663   3.400
    1C        C  184   4.241   2.805   3.519
    1C        C  185   4.191   2.758   3.643
    1C        C  186   4.337   2.913   3.765
    1C        C  187   4.244   2.806   3.764
    1C        C  188   4.377   2.974   3.886
    1C        C  189   4.337   2.919   4.011
    1C        C  190   4.444   3.102   4.129
    1C        C  191   4.380   2.977   4.133
    1C        C  192   4.466   3.171   4.251
    1C        C  193   4.441   3.108   4.375
    1C        C  194   4.504   3.315   4.490
    1C        C  195   4.468   3.178   4.495
    1C        C  196   4.522   3.388   4.610
    1C        C  197   4.510   3.319   4.733
    1C        C  198   4.554   3.535   4.848
    1C        C  199   4.536   3.393   4.851
    1C        C  200   4.585   3.619   4.959
    1C        C  201   3.616   2.413   2.071
    1C        C  202   3.824   2.510   2.183
    1C        C  203   3.689   2.461   2.184
    1C        C  204   3.894   2.544   2.302
    1C        C  205   3.825   2.522   2.424
    1C        C  206   4.020   2.618   2.543
    1C        C  207   3.892   2.557   2.543
    1C        C  208   4.080   2.658   2.664
    1C        C  209   4.019   2.626   2.787
    1C        C  210   4.194   2.747   2.908
    1C        C  211   4.078   2.667   2.909
    1C        C  212   4.245   2.797   3.029
    1C        C  213   4.194   2.749   3.152
    1C        C  214   4.337   2.903   3.271
    1C        C  215   4.243   2.797   3.276
    1C        C  216   4.374   2.965   3.393
    1C        C  217   4.332   2.913   3.518
    1C        C  218   4.439   3.094   3.638
    1C        C  219   4.375   2.968   3.641
    1C        C  220   4.466   3.161   3.760
    1C        C  221   4.443   3.098   3.884
    1C        C  222   4.498   3.304   4.002
    1C        C  223   4.467   3.166   4.006
    1C        C  224   4.514   3.375   4.123
    1C        C  225   4.500   3.308   4.246
    1C        C  226   4.512   3.523   4.365
    1C        C  227   4.509   3.382   4.366
    1C        C  228   4.517   3.596   4.485
    1C        C  229   4.525   3.529   4.609
    1C        C  230   4.503   3.746   4.726
    1C        C  231   4.530   3.606   4.727
    1C        C  232   4.499   3.823   4.844
    1C        C  233   4.548   3.754   4.956
    1C        C  234   4.017   2.608   2.061
    1C        C  235   3.895   2.542   2.066
    1C        C  236   4.083   2.645   2.179
    1C        C  237   4.020   2.609   2.300
    1C        C  238   4.198   2.733   2.422
    1C        C  239   4.083   2.649   2.420
    1C        C  240   4.257   2.778   2.542
    1C        C  241   4.197   2.737   2.663
    1C        C  242   4.337   2.899   2.785
    1C        C  243   4.251   2.787   2.784
    1C        C  244   4.381   2.959   2.905
    1C        C  245   4.338   2.904   3.027
    1C        C  246   4.443   3.087   3.152
    1C        C  247   4.377   2.962   3.149
    1C        C  248   4.465   3.156   3.274
    1C        C  249   4.436   3.092   3.396
    1C        C  250   4.490   3.300   3.514
    1C        C  251   4.460   3.162   3.516
    1C        C  252   4.503   3.367   3.637
    1C        C  253   4.498   3.299   3.760
    1C        C  254   4.521   3.514   3.876
    1C        C  255   4.515   3.373   3.880
    1C        C  256   4.514   3.588   3.997
    1C        C  257   4.514   3.517   4.119
    1C        C  258   4.485   3.729   4.241
    1C        C  259   4.509   3.590   4.240
    1C        C  260   4.469   3.801   4.361
    1C        C  261   4.487   3.734   4.484
    1C        C  262   4.423   3.940   4.601
    1C        C  263   4.478   3.810   4.603
    1C        C  264   4.397   4.008   4.722
    1C        C  265   4.437   3.950   4.844
    1C        C  266   4.325   4.137   4.957
    1C        C  267   4.388   4.013   4.959
    1C        C  268   4.262   2.773   2.062
    1C        C  269   4.195   2.732   2.178
    1C        C  270   4.345   2.885   2.299
    1C        C  271   4.250   2.779   2.299
    1C        C  272   4.385   2.947   2.419
    1C        C  273   4.346   2.888   2.541
    1C        C  274   4.446   3.077   2.662
    1C        C  275   4.385   2.949   2.662
    1C        C  276   4.469   3.147   2.782
    1C        C  277   4.446   3.085   2.906
    1C        C  278   4.501   3.288   3.025
    1C        C  279   4.471   3.150   3.029
    1C        C  280   4.508   3.361   3.146
    1C        C  281   4.495   3.294   3.269
    1C        C  282   4.511   3.508   3.390
    1C        C  283   4.505   3.367   3.390
    1C        C  284   4.504   3.579   3.512
    1C        C  285   4.508   3.509   3.634
    1C        C  286   4.486   3.723   3.751
    1C        C  287   4.506   3.583   3.754
    1C        C  288   4.472   3.792   3.873
    1C        C  289   4.493   3.727   3.996
    1C        C  290   4.424   3.930   4.115
    1C        C  291   4.472   3.797   4.117
    1C        C  292   4.394   3.998   4.234
    1C        C  293   4.421   3.934   4.357
    1C        C  294   4.323   4.125   4.477
    1C        C  295   4.392   4.002   4.478
    1C        C  296   4.283   4.186   4.598
    1C        C  297   4.328   4.132   4.720
    1C        C  298   4.203   4.315   4.837
    1C        C  299   4.290   4.202   4.838
    1C        C  300   4.169   4.400   4.946
    1C        C  301   4.345   2.884   2.059
    1C        C  302   4.467   3.064   2.179
    1C        C  303   4.392   2.942   2.178
    1C        C  304   4.488   3.137   2.299
    1C        C  305   4.451   3.072   2.419
    1C        C  306   4.504   3.281   2.537
    1C        C  307   4.474   3.143   2.540
    1C        C  308   4.513   3.353   2.658
    1C        C  309   4.505   3.284   2.781
    1C        C  310   4.522   3.497   2.902
    1C        C  311   4.517   3.356   2.902
    1C        C  312   4.512   3.571   3.021
    1C        C  313   4.509   3.502   3.144
    1C        C  314   4.478   3.713   3.262
    1C        C  315   4.506   3.574   3.266
    1C        C  316   4.459   3.782   3.383
    1C        C  317   4.478   3.718   3.508
    1C        C  318   4.418   3.923   3.626
    1C        C  319   4.466   3.790   3.629
    1C        C  320   4.388   3.986   3.749
    1C        C  321   4.416   3.922   3.871
    1C        C  322   4.317   4.112   3.989
    1C        C  323   4.389   3.991   3.992
    1C        C  324   4.279   4.173   4.111
    1C        C  325   4.324   4.121   4.234
    1C        C  326   4.188   4.289   4.350
    1C        C  327   4.278   4.180   4.354
    1C        C  328   4.137   4.340   4.471
    1C        C  329   4.188   4.291   4.594
    1C        C  330   4.028   4.435   4.711
    1C        C  331   4.142   4.350   4.713
    1C        C  332   3.971   4.488   4.829
    1C        C  333   4.049   4.472   4.944
    1C        C  334   4.547   3.264   2.062
    1C        C  335   4.534   3.124   2.067
    1C        C  336   4.538   3.346   2.176
    1C        C  337   4.518   3.276   2.297
    1C        C  338   4.525   3.492   2.411
    1C        C  339   4.525   3.351   2.416
    1C        C  340   4.525   3.564   2.533
    1C        C  341   4.523   3.494   2.656
    1C        C  342   4.492   3.704   2.773
    1C        C  343   4.519   3.565   2.778
    1C        C  344   4.472   3.777   2.893
    1C        C  345   4.490   3.711   3.016
    1C        C  346   4.421   3.912   3.135
    1C        C  347   4.469   3.780   3.138
    1C        C  348   4.389   3.980   3.255
    1C        C  349   4.416   3.917   3.378
    1C        C  350   4.313   4.101   3.500
    1C        C  351   4.389   3.982   3.501
    1C        C  352   4.271   4.162   3.620
    1C        C  353   4.313   4.106   3.743
    1C        C  354   4.185   4.274   3.865
    1C        C  355   4.278   4.168   3.865
    1C        C  356   4.127   4.320   3.986
    1C        C  357   4.179   4.272   4.108
    1C        C  358   4.014   4.408   4.230
    1C        C  359   4.132   4.332   4.228
    1C        C  360   3.955   4.451   4.351
    1C        C  361   4.021   4.420   4.472
    1C        C  362   3.828   4.517   4.591
    1C        C  363   3.958   4.461   4.591
    1C        C  364   3.763   4.544   4.714
    1C        C  365   3.839   4.540   4.832
    1C        C  366   3.630   4.586   4.950
    1C        C  367   3.768   4.569   4.949
    1C        C  368   4.510   3.561   2.053
    1C        C  369   4.527   3.486   2.170
    1C        C  370   4.507   3.703   2.287
    1C        C  371   4.522   3.563   2.289
    1C        C  372   4.484   3.773   2.408
    1C        C  373   4.500   3.702   2.529
    1C        C  374   4.426   3.903   2.648
    1C        C  375   4.477   3.772   2.650
    1C        C  376   4.396   3.970   2.769
    1C        C  377   4.421   3.908   2.893
    1C        C  378   4.316   4.097   3.009
    1C        C  379   4.391   3.977   3.013
    1C        C  380   4.270   4.153   3.131
    1C        C  381   4.308   4.096   3.254
    1C        C  382   4.177   4.261   3.375
    1C        C  383   4.271   4.155   3.376
    1C        C  384   4.127   4.312   3.497
    1C        C  385   4.179   4.269   3.620
    1C        C  386   4.011   4.394   3.741
    1C        C  387   4.131   4.320   3.743
    1C        C  388   3.948   4.432   3.862
    1C        C  389   4.009   4.398   3.984
    1C        C  390   3.821   4.492   4.109
    1C        C  391   3.951   4.438   4.107
    1C        C  392   3.752   4.517   4.229
    1C        C  393   3.824   4.504   4.350
    1C        C  394   3.616   4.550   4.475
    1C        C  395   3.756   4.534   4.471
    1C        C  396   3.546   4.564   4.597
    1C        C  397   3.622   4.560   4.715
    1C        C  398   3.410   4.549   4.837
    1C        C  399   3.550   4.568   4.836
    1C        C  400   3.341   4.514   4.954
    1C        C  401   4.503   3.700   2.051
    1C        C  402   4.458   3.913   2.165
    1C        C  403   4.496   3.777   2.167
    1C        C  404   4.414   3.975   2.284
    1C        C  405   4.434   3.905   2.405
    1C        C  406   4.326   4.090   2.525
    1C        C  407   4.397   3.968   2.526
    1C        C  408   4.280   4.148   2.646
    1C        C  409   4.321   4.090   2.768
    1C        C  410   4.176   4.254   2.888
    1C        C  411   4.273   4.151   2.886
    1C        C  412   4.124   4.305   3.009
    1C        C  413   4.175   4.258   3.133
    1C        C  414   4.004   4.386   3.251
    1C        C  415   4.121   4.307   3.253
    1C        C  416   3.946   4.417   3.376
    1C        C  417   4.010   4.392   3.499
    1C        C  418   3.816   4.483   3.618
    1C        C  419   3.947   4.429   3.620
    1C        C  420   3.749   4.505   3.740
    1C        C  421   3.815   4.481   3.862
    1C        C  422   3.614   4.535   3.985
    1C        C  423   3.752   4.503   3.986
    1C        C  424   3.543   4.534   4.108
    1C        C  425   3.613   4.540   4.231
    1C        C  426   3.403   4.549   4.357
    1C        C  427   3.544   4.551   4.354
    1C        C  428   3.331   4.542   4.478
    1C        C  429   3.404   4.560   4.598
    1C        C  430   3.194   4.514   4.720
    1C        C  431   3.333   4.543   4.719
    1C        C  432   3.125   4.492   4.843
    1C        C  433   3.205   4.487   4.957
    1C        C  434   4.382   4.118   2.050
    1C        C  435   4.445   3.992   2.050
    1C        C  436   4.303   4.159   2.161
    1C        C  437   4.330   4.090   2.283
    1C        C  438   4.180   4.244   2.402
    1C        C  439   4.279   4.144   2.403
    1C        C  440   4.129   4.296   2.523
    1C        C  441   4.183   4.250   2.645
    1C        C  442   4.006   4.376   2.765
    1C        C  443   4.123   4.296   2.765
    1C        C  444   3.943   4.415   2.885
    1C        C  445   4.006   4.382   3.007
    1C        C  446   3.813   4.474   3.128
    1C        C  447   3.944   4.421   3.128
    1C        C  448   3.748   4.495   3.252
    1C        C  449   3.814   4.469   3.374
    1C        C  450   3.610   4.530   3.496
    1C        C  451   3.748   4.498   3.495
    1C        C  452   3.541   4.537   3.619
    1C        C  453   3.610   4.529   3.742
    1C        C  454   3.400   4.539   3.864
    1C        C  455   3.541   4.542   3.865
    1C        C  456   3.334   4.534   3.989
    1C        C  457   3.402   4.535   4.112
    1C        C  458   3.195   4.500   4.236
    1C        C  459   3.332   4.534   4.235
    1C        C  460   3.126   4.480   4.357
    1C        C  461   3.194   4.510   4.478
    1C        C  462   2.997   4.429   4.601
    1C        C  463   3.125   4.489   4.599
    1C        C  464   2.929   4.402   4.722
    1C        C  465   2.989   4.445   4.843
    1C        C  466   2.803   4.339   4.956
    1C        C  467   2.906   4.434   4.959
    1C        C  468   4.121   4.280   2.041
    1C        C  469   4.189   4.246   2.159
    1C        C  470   4.010   4.370   2.280
    1C        C  471   4.129   4.292   2.279
    1C        C  472   3.945   4.404   2.400
    1C        C  473   4.010   4.372   2.522
    1C        C  474   3.813   4.459   2.642
    1C        C  475   3.943   4.405   2.642
    1C        C  476   3.746   4.492   2.763
    1C        C  477   3.815   4.475   2.885
    1C        C  478   3.607   4.522   3.008
    1C        C  479   3.745   4.495   3.006
    1C        C  480   3.537   4.529   3.131
    1C        C  481   3.609   4.520   3.253
    1C        C  482   3.396   4.531   3.377
    1C        C  483   3.538   4.532   3.374
    1C        C  484   3.327   4.530   3.501
    1C        C  485   3.400   4.544   3.621
    1C        C  486   3.193   4.494   3.744
    1C        C  487   3.328   4.534   3.742
    1C        C  488   3.131   4.470   3.868
    1C        C  489   3.198   4.495   3.990
    1C        C  490   3.005   4.411   4.113
    1C        C  491   3.132   4.473   4.113
    1C        C  492   2.945   4.373   4.236
    1C        C  493   2.999   4.418   4.358
    1C        C  494   2.827   4.299   4.482
    1C        C  495   2.935   4.389   4.481
    1C        C  496   2.770   4.255   4.604
    1C        C  497   2.820   4.310   4.724
    1C        C  498   2.665   4.163   4.844
    1C        C  499   2.752   4.274   4.843
    1C        C  500   2.594   4.119   4.956
    1C        C  501   3.999   4.346   2.043
    1C        C  502   3.815   4.461   2.156
    1C        C  503   3.941   4.398   2.160
    1C        C  504   3.744   4.478   2.277
    1C        C  505   3.813   4.455   2.398
    1C        C  506   3.607   4.507   2.520
    1C        C  507   3.746   4.480   2.520
    1C        C  508   3.537   4.519   2.643
    1C        C  509   3.608   4.522   2.765
    1C        C  510   3.395   4.522   2.885
    1C        C  511   3.536   4.525   2.886
    1C        C  512   3.325   4.519   3.008
    1C        C  513   3.396   4.528   3.130
    1C        C  514   3.191   4.489   3.255
    1C        C  515   3.328   4.525   3.254
    1C        C  516   3.125   4.467   3.378
    1C        C  517   3.191   4.492   3.500
    1C        C  518   3.000   4.402   3.625
    1C        C  519   3.126   4.467   3.622
    1C        C  520   2.945   4.362   3.749
    1C        C  521   3.005   4.405   3.870
    1C        C  522   2.837   4.279   3.994
    1C        C  523   2.944   4.370   3.992
    1C        C  524   2.793   4.225   4.117
    1C        C  525   2.837   4.282   4.239
    1C        C  526   2.694   4.129   4.365
    1C        C  527   2.781   4.240   4.362
    1C        C  528   2.649   4.074   4.487
    1C        C  529   2.682   4.145   4.605
    1C        C  530   2.576   3.962   4.730
    1C        C  531   2.634   4.092   4.726
    1C        C  532   2.537   3.900   4.852
    1C        C  533   2.529   3.994   4.958
    1C        C  534   3.621   4.554   2.038
    1C        C  535   3.756   4.518   2.042
    1C        C  536   3.538   4.534   2.153
    1C        C  537   3.605   4.507   2.275
    1C        C  538   3.395   4.515   2.399
    1C        C  539   3.536   4.512   2.398
    1C        C  540   3.324   4.509   2.521
    1C        C  541   3.396   4.519   2.642
    1C        C  542   3.187   4.478   2.765
    1C        C  543   3.324   4.513   2.763
    1C        C  544   3.120   4.464   2.889
    1C        C  545   3.188   4.484   3.011
    1C        C  546   2.998   4.395   3.136
    1C        C  547   3.122   4.464   3.134
    1C        C  548   2.942   4.356   3.259
    1C        C  549   3.002   4.397   3.380
    1C        C  550   2.827   4.281   3.506
    1C        C  551   2.941   4.364   3.502
    1C        C  552   2.777   4.230   3.628
    1C        C  553   2.834   4.276   3.749
    1C        C  554   2.698   4.117   3.874
    1C        C  555   2.784   4.229   3.873
    1C        C  556   2.655   4.063   3.997
    1C        C  557   2.700   4.120   4.119
    1C        C  558   2.594   3.941   4.247
    1C        C  559   2.660   4.066   4.243
    1C        C  560   2.563   3.877   4.369
    1C        C  561   2.586   3.947   4.489
    1C        C  562   2.529   3.747   4.614
    1C        C  563   2.557   3.885   4.613
    1C        C  564   2.520   3.680   4.738
    1C        C  565   2.519   3.758   4.857
    1C        C  566   2.540   3.544   4.977
    1C        C  567   2.528   3.682   4.975
    1C        C  568   3.329   4.473   2.041
    1C        C  569   3.398   4.511   2.157
    1C        C  570   3.184   4.471   2.278
    1C        C  571   3.322   4.505   2.278
    1C        C  572   3.116   4.453   2.400
    1C        C  573   3.187   4.474   2.520
    1C        C  574   2.991   4.398   2.647
    1C        C  575   3.119   4.456   2.643
    1C        C  576   2.933   4.358   2.770
    1C        C  577   2.997   4.395   2.891
    1C        C  578   2.828   4.269   3.015
    1C        C  579   2.937   4.359   3.013
    1C        C  580   2.778   4.223   3.138
    1C        C  581   2.828   4.271   3.261
    1C        C  582   2.693   4.113   3.385
    1C        C  583   2.777   4.226   3.385
    1C        C  584   2.650   4.058   3.508
    1C        C  585   2.691   4.118   3.629
    1C        C  586   2.585   3.936   3.756
    1C        C  587   2.656   4.059   3.752
    1C        C  588   2.562   3.873   3.880
    1C        C  589   2.590   3.938   4.002
    1C        C  590   2.529   3.738   4.127
    1C        C  591   2.564   3.875   4.126
    1C        C  592   2.516   3.669   4.249
    1C        C  593   2.524   3.741   4.371
    1C        C  594   2.510   3.532   4.494
    1C        C  595   2.516   3.673   4.495
    1C        C  596   2.520   3.466   4.618
    1C        C  597   2.525   3.538   4.740
    1C        C  598   2.537   3.325   4.862
    1C        C  599   2.537   3.466   4.861
    1C        C  600   2.532   3.246   4.977
    1C        C  601   3.196   4.435   2.041
    1C        C  602   2.982   4.391   2.157
    1C        C  603   3.117   4.438   2.157
    1C        C  604   2.929   4.351   2.283
    1C        C  605   2.992   4.386   2.404
    1C        C  606   2.818   4.268   2.527
    1C        C  607   2.931   4.353   2.527
    1C        C  608   2.770   4.218   2.650
    1C        C  609   2.825   4.267   2.771
    1C        C  610   2.685   4.109   2.896
    1C        C  611   2.778   4.215   2.894
    1C        C  612   2.647   4.053   3.019
    1C        C  613   2.693   4.110   3.140
    1C        C  614   2.585   3.929   3.265
    1C        C  615   2.653   4.053   3.263
    1C        C  616   2.562   3.865   3.389
    1C        C  617   2.588   3.931   3.511
    1C        C  618   2.528   3.731   3.636
    1C        C  619   2.561   3.868   3.635
    1C        C  620   2.513   3.664   3.760
    1C        C  621   2.528   3.736   3.881
    1C        C  622   2.512   3.527   4.006
    1C        C  623   2.519   3.668   4.005
    1C        C  624   2.514   3.457   4.128
    1C        C  625   2.508   3.528   4.250
    1C        C  626   2.535   3.320   4.377
    1C        C  627   2.507   3.459   4.373
    1C        C  628   2.558   3.255   4.500
    1C        C  629   2.544   3.327   4.621
    1C        C  630   2.605   3.121   4.743
    1C        C  631   2.554   3.254   4.741
    1C        C  632   2.620   3.050   4.866
    1C        C  633   2.556   3.108   4.981
    1C        C  634   2.786   4.300   2.053
    1C        C  635   2.887   4.396   2.050
    1C        C  636   2.746   4.231   2.168
    1C        C  637   2.810   4.274   2.286
    1C        C  638   2.678   4.105   2.408
    1C        C  639   2.762   4.219   2.407
    1C        C  640   2.635   4.050   2.530
    1C        C  641   2.679   4.110   2.650
    1C        C  642   2.582   3.924   2.777
    1C        C  643   2.646   4.050   2.773
    1C        C  644   2.553   3.861   2.900
    1C        C  645   2.580   3.928   3.022
    1C        C  646   2.518   3.726   3.147
    1C        C  647   2.553   3.863   3.144
    1C        C  648   2.510   3.657   3.270
    1C        C  649   2.521   3.730   3.391
    1C        C  650   2.505   3.520   3.517
    1C        C  651   2.516   3.661   3.514
    1C        C  652   2.512   3.451   3.640
    1C        C  653   2.508   3.523   3.761
    1C        C  654   2.536   3.316   3.888
    1C        C  655   2.509   3.455   3.885
    1C        C  656   2.555   3.249   4.011
    1C        C  657   2.537   3.317   4.133
    1C        C  658   2.616   3.122   4.256
    1C        C  659   2.558   3.251   4.256
    1C        C  660   2.641   3.058   4.379
    1C        C  661   2.607   3.122   4.500
    1C        C  662   2.719   2.941   4.623
    1C        C  663   2.636   3.056   4.622
    1C        C  664   2.756   2.879   4.744
    1C        C  665   2.698   2.931   4.863
    1C        C  666   2.740   2.866   4.980
    1C        C  667   2.675   4.024   2.052
    1C        C  668   2.682   4.104   2.167
    1C        C  669   2.582   3.914   2.291
    1C        C  670   2.639   4.044   2.287
    1C        C  671   2.549   3.852   2.413
    1C        C  672   2.571   3.924   2.533
    1C        C  673   2.511   3.723   2.659
    1C        C  674   2.546   3.860   2.657
    1C        C  675   2.503   3.652   2.781
    1C        C  676   2.518   3.724   2.902
    1C        C  677   2.503   3.515   3.028
    1C        C  678   2.509   3.656   3.025
    1C        C  679   2.505   3.445   3.151
    1C        C  680   2.501   3.516   3.273
    1C        C  681   2.534   3.308   3.398
    1C        C  682   2.505   3.447   3.396
    1C        C  683   2.555   3.243   3.522
    1C        C  684   2.538   3.312   3.644
    1C        C  685   2.604   3.113   3.769
    1C        C  686   2.553   3.244   3.767
    1C        C  687   2.640   3.053   3.892
    1C        C  688   2.607   3.118   4.013
    1C        C  689   2.725   2.939   4.136
    1C        C  690   2.648   3.058   4.134
    1C        C  691   2.759   2.880   4.260
    1C        C  692   2.717   2.939   4.381
    1C        C  693   2.757   2.879   4.502
    1C        C  694   2.620   3.895   2.054
    1C        C  695   2.521   3.706   2.179
    1C        C  696   2.575   3.836   2.173
    1C        C  697   2.495   3.640   2.301
    1C        C  698   2.510   3.716   2.418
    1C        C  699   2.491   3.506   2.543
    1C        C  700   2.499   3.647   2.541
    1C        C  701   2.497   3.436   2.665
    1C        C  702   2.495   3.511   2.785
    1C        C  703   2.526   3.302   2.909
    1C        C  704   2.500   3.441   2.907
    1C        C  705   2.550   3.237   3.032
    1C        C  706   2.535   3.307   3.153
    1C        C  707   2.606   3.109   3.277
    1C        C  708   2.554   3.240   3.276
    1C        C  709   2.637   3.049   3.401
    1C        C  710   2.609   3.113   3.523
    1C        C  711   2.714   2.931   3.645
    1C        C  712   2.637   3.050   3.647
    1C        C  713   2.760   2.879   3.768
    1C        C  714   2.718   2.935   3.890
    1C        C  715   2.761   2.880   4.013
    1C        C  716   2.454   3.500   2.060
    1C        C  717   2.488   3.636   2.062
    1C        C  718   2.457   3.425   2.182
    1C        C  719   2.478   3.498   2.302
    1C        C  720   2.509   3.291   2.424
    1C        C  721   2.483   3.429   2.425
    1C        C  722   2.535   3.224   2.545
    1C        C  723   2.524   3.297   2.666
    1C        C  724   2.593   3.098   2.788
    1C        C  725   2.544   3.231   2.788
    1C        C  726   2.626   3.036   2.911
    1C        C  727   2.602   3.105   3.032
    1C        C  728   2.712   2.925   3.156
    1C        C  729   2.635   3.044   3.155
    1C        C  730   2.759   2.875   3.279
    1C        C  731   2.715   2.931   3.401
    1C        C  732   2.759   2.876   3.524
    1C        C  733   2.495   3.200   2.071
    1C        C  734   2.486   3.284   2.183
    1C        C  735   2.580   3.089   2.304
    1C        C  736   2.520   3.218   2.303
    1C        C  737   2.615   3.023   2.424
    1C        C  738   2.591   3.094   2.543
    1C        C  739   2.699   2.914   2.666
    1C        C  740   2.624   3.033   2.667
    1C        C  741   2.744   2.860   2.789
    1C        C  742   2.702   2.917   2.911
    1C        C  743   2.751   2.867   3.033
    1C        C  744   2.545   3.070   2.073
    1C        C  745   2.690   2.901   2.182
    1C        C  746   2.607   3.016   2.186
    1C        C  747   2.734   2.844   2.304
    1C        C  748   2.689   2.903   2.424
    1C        C  749   2.743   2.855   2.546
    1C        C  750   2.732   2.839   2.064
    1C        C  751   3.649   2.293   1.992
    1C        O  752   3.691   2.179   2.026
    1C        O  753   3.684   2.301   1.857
    1C        C  754   4.643   3.053   1.998
    1C        O  755   4.645   3.046   1.872
    1C        O  756   4.756   2.997   2.059
    1C        C  757   4.462   4.225   1.986
    1C        O  758   4.510   4.323   2.048
    1C        O  759   4.480   4.225   1.847
    1C        C  760   3.584   4.634   1.919
    1C        O  761   3.629   4.751   1.913
    1C        O  762   3.588   4.576   1.791
    1C        C  763   2.845   4.525   1.992
    1C        O  764   2.847   4.548   1.868
    1C        O  765   2.761   4.612   2.063
    1C        C  766   2.354   3.460   1.958
    1C        O  767   2.396   3.444   1.841
    1C        O  768   2.219   3.456   1.996
    1C        C  769   4.709   3.596   5.038
    1C        O  770   4.692   3.611   5.162
    1C        O  771   4.823   3.660   4.990
    1C        C  772   4.252   4.429   5.066
    1C        O  773   4.223   4.379   5.178
    1C        O  774   4.340   4.537   5.080
    1C        C  775   4.145   2.516   5.074
    1C        O  776   4.171   2.399   5.036
    1C        O  777   4.143   2.528   5.214
    1C        C  778   2.886   4.539   5.061
    1C        O  779   2.865   4.659   5.026
    1C        O  780   2.849   4.511   5.192
    1C        C  781   2.459   3.039   5.068
    1C        O  782   2.372   2.956   5.028
    1C        O  783   2.492   3.029   5.203
    1C        C  784   2.409   3.997   5.044
    1C        O  785   2.298   4.042   5.005
    1C        O  786   2.421   3.933   5.168
    1C        C  787   2.956   2.427   1.994
    1C        O  788   2.939   2.472   1.878
    1C        O  789   2.930   2.294   2.025
    1C        C  790   3.176   2.382   5.078
    1C        O  791   3.182   2.262   5.038
    1C        O  792   3.231   2.404   5.205
    1C        H  793   4.273   3.024   5.059
    1C        H  794   4.206   2.794   5.075
    1C        H  795   4.521   3.125   5.047
    1C        H  796   4.500   3.377   5.060
    1C        H  797   4.590   3.818   5.031
    1C        H  798   4.351   3.944   5.033
    1C        H  799   4.276   4.175   5.045
    1C        H  800   4.003   4.492   5.039
    1C        H  801   3.822   4.606   5.033
    1C        H  802   3.583   4.640   5.030
    1C        H  803   3.399   4.458   5.024
    1C        H  804   3.170   4.429   5.040
    1C        H  805   3.893   2.467   5.055
    1C        H  806   3.671   2.414   5.061
    1C        H  807   3.005   2.568   5.070
    1C        H  808   3.436   2.506   5.071
    1C        H  809   2.825   2.702   5.062
    1C        H  810   2.712   2.910   5.074
    1C        H  811   2.511   3.294   5.070
    1C        H  812   2.572   3.499   5.069
    1C        H  813   2.470   3.725   5.054
    1C        H  814   2.550   4.201   5.008
    1C        H  815   2.771   4.307   5.053
    1C        H  816   2.704   2.873   1.967
    1C        H  817   2.862   2.707   1.971
    1C        H  818   3.217   2.485   1.980
    1C        H  819   3.429   2.427   1.976
    1C        H  820   3.840   2.532   1.974
    1C        H  821   4.065   2.607   1.966
    1C        H  822   4.246   2.717   1.973
    1C        H  823   4.417   2.885   1.980
    1C        H  824   4.574   3.310   1.970
    1C        H  825   4.538   3.515   1.961
    1C        H  826   4.534   3.746   1.959
    1C        H  827   3.820   4.589   1.995
    1C        H  828   3.944   4.356   1.952
    1C        H  829   4.173   4.271   1.948
    1C        H  830   4.520   3.980   1.975
    1C        H  831   2.673   3.828   1.990
    1C        H  832   2.690   4.069   1.956
    1C        H  833   2.712   4.308   1.975
    1C        H  834   3.380   4.470   1.948
    1C        H  835   3.158   4.411   1.944
    1C        H  836   2.495   2.999   2.010
    1C        H  837   2.440   3.227   1.983
    1C        H  838   2.469   3.690   1.972
    2V3OU   H29  839   2.804   3.545   5.481
    2V3OU   C27  840   2.780   3.502   5.582
    2V3OU   H27  841   2.722   3.573   5.646
    2V3OU   H28  842   2.733   3.402   5.563
    2V3OU   O11  843   2.903   3.476   5.648
    2V3OU   C15  844   2.919   3.398   5.761
    2V3OU   C13  845   3.049   3.374   5.810
    2V3OU   C14  846   3.072   3.272   5.902
    2V3OU   C16  847   2.970   3.190   5.949
    2V3OU    H6  848   2.991   3.111   6.023
    2V3OU   C12  849   3.212   3.228   5.922
    2V3OU    O2  850   3.241   3.121   5.981
    2V3OU   C10  851   3.324   3.309   5.873
    2V3OU    C8  852   3.455   3.272   5.899
    2V3OU   O10  853   3.489   3.155   5.959
    2V3OU   H26  854   3.404   3.114   5.982
    2V3OU    C6  855   3.565   3.350   5.851
    2V3OU    C5  856   3.539   3.467   5.780
    2V3OU    C4  857   3.701   3.291   5.843
    2V3OU    H4  858   3.723   3.222   5.930
    2V3OU    H5  859   3.710   3.233   5.746
    2V3OU    C2  860   3.813   3.395   5.845
    2V3OU    O6  861   3.803   3.475   5.963
    2V3OU   H21  862   3.764   3.556   5.926
    2V3OU    C3  863   3.785   3.494   5.731
    2V3OU    H2  864   3.870   3.566   5.721
    2V3OU    H3  865   3.785   3.432   5.638
    2V3OU   C25  866   3.946   3.323   5.824
    2V3OU    O7  867   3.998   3.297   5.715
    2V3OU   C26  868   4.027   3.289   5.948
    2V3OU   H22  869   4.069   3.376   6.003
    2V3OU   H23  870   4.115   3.226   5.919
    2V3OU    O8  871   3.959   3.202   6.035
    2V3OU   H24  872   3.922   3.256   6.107
    2V3OU    C1  873   3.649   3.561   5.743
    2V3OU    H1  874   3.627   3.615   5.646
    2V3OU    O3  875   3.662   3.652   5.853
    2V3OU   C19  876   3.619   3.787   5.838
    2V3OU    H9  877   3.517   3.790   5.788
    2V3OU    O4  878   3.715   3.845   5.753
    2V3OU   C20  879   3.845   3.877   5.803
    2V3OU   H10  880   3.892   3.776   5.818
    2V3OU   C24  881   3.608   3.860   5.972
    2V3OU   H16  882   3.546   3.794   6.038
    2V3OU   H17  883   3.558   3.960   5.963
    2V3OU   C23  884   3.747   3.875   6.034
    2V3OU   H15  885   3.784   3.772   6.065
    2V3OU    N1  886   3.739   3.945   6.161
    2V3OU   H19  887   3.803   3.924   6.235
    2V3OU   H20  888   3.646   3.933   6.196
    2V3OU   C21  889   3.848   3.947   5.939
    2V3OU   H11  890   3.954   3.927   5.971
    2V3OU    O5  891   3.829   4.088   5.938
    2V3OU   H18  892   3.782   4.109   6.020
    2V3OU   C22  893   3.917   3.950   5.690
    2V3OU   H12  894   3.866   4.048   5.670
    2V3OU   H13  895   3.905   3.892   5.595
    2V3OU   H14  896   4.025   3.963   5.714
    2V3OU   C11  897   3.157   3.466   5.770
    2V3OU    O1  898   3.138   3.582   5.728
    2V3OU    C9  899   3.298   3.426   5.796
    2V3OU    C7  900   3.404   3.505   5.753
    2V3OU    O9  901   3.388   3.625   5.687
    2V3OU   H25  902   3.292   3.632   5.678
    2V3OU   C17  903   2.817   3.316   5.814
    2V3OU    H7  904   2.713   3.344   5.797
    2V3OU   C18  905   2.841   3.210   5.901
    2V3OU    H8  906   2.759   3.144   5.933
    3SOL     OW  907   3.966   3.033   3.753
    3SOL    HW1  908   3.932   3.066   3.840
    3SOL    HW2  909   3.895   2.980   3.707
    4SOL     OW  910   6.692   6.105   0.799
    4SOL    HW1  911   6.678   6.016   0.754
    4SOL    HW2  912   6.668   6.178   0.735
    5SOL     OW  913   5.193   2.195   1.147
    5SOL    HW1  914   5.179   2.238   1.237
    5SOL    HW2  915   5.175   2.097   1.154
    6SOL     OW  916   4.268   1.258   2.535
    6SOL    HW1  917   4.334   1.256   2.460
    6SOL    HW2  918   4.187   1.205   2.510
    7SOL     OW  919   2.161   3.939   4.531
    7SOL    HW1  920   2.234   3.871   4.527
    7SOL    HW2  921   2.171   3.995   4.612
    8SOL     OW  922   1.118   2.496   5.040
    8SOL    HW1  923   1.179   2.418   5.033
    8SOL    HW2  924   1.153   2.572   4.985
    9SOL     OW  925   0.161   0.917   6.404
    9SOL    HW1  926   0.133   0.852   6.475
    9SOL    HW2  927   0.211   0.868   6.332
   10SOL     OW  928   5.348   5.012   1.568
   10SOL    HW1  929   5.409   5.072   1.620
   10SOL    HW2  930   5.265   5.062   1.544
   11SOL     OW  931   2.642   2.322   1.358
   11SOL    HW1  932   2.733   2.289   1.331
   11SOL    HW2  933   2.579   2.313   1.281
   12SOL     OW  934   4.833   4.718   2.614
   12SOL    HW1  935   4.748   4.751   2.657
   12SOL    HW2  936   4.858   4.630   2.654
   13SOL     OW  937   6.011   5.884   1.109
   13SOL    HW1  938   6.098   5.906   1.064
   13SOL    HW2  939   6.009   5.787   1.132
   14SOL     OW  940   4.188   6.893   6.880
   14SOL    HW1  941   4.130   6.911   6.959
   14SOL    HW2  942   4.281   6.921   6.899
   15SOL     OW  943   1.443   6.033   6.409
   15SOL    HW1  944   1.375   6.087   6.357
   15SOL    HW2  945   1.514   6.094   6.443
   16SOL     OW  946   2.020   4.902   4.992
   16SOL    HW1  947   1.980   4.811   5.004
   16SOL    HW2  948   2.120   4.894   4.990
   17SOL     OW  949   6.379   1.255   4.944
   17SOL    HW1  950   6.433   1.218   5.019
   17SOL    HW2  951   6.438   1.309   4.884
   18SOL     OW  952   2.803   1.269   5.799
   18SOL    HW1  953   2.853   1.346   5.758
   18SOL    HW2  954   2.791   1.285   5.897
   19SOL     OW  955   3.192   6.510   3.245
   19SOL    HW1  956   3.122   6.546   3.183
   19SOL    HW2  957   3.199   6.411   3.233
   20SOL     OW  958   5.971   1.579   5.417
   20SOL    HW1  959   5.988   1.673   5.444
   20SOL    HW2  960   5.886   1.547   5.460
   21SOL     OW  961   2.156   4.009   3.049
   21SOL    HW1  962   2.207   3.931   3.011
   21SOL    HW2  963   2.143   3.995   3.147
   22SOL     OW  964   1.227   1.140   0.398
   22SOL    HW1  965   1.212   1.173   0.491
   22SOL    HW2  966   1.194   1.046   0.391
   23SOL     OW  967   5.958   4.828   1.243
   23SOL    HW1  968   5.905   4.749   1.212
   23SOL    HW2  969   5.944   4.841   1.341
   24SOL     OW  970   5.156   1.600   0.686
   24SOL    HW1  971   5.231   1.653   0.647
   24SOL    HW2  972   5.193   1.535   0.753
   25SOL     OW  973   1.945   0.691   4.724
   25SOL    HW1  974   1.918   0.778   4.767
   25SOL    HW2  975   2.033   0.661   4.761
   26SOL     OW  976   1.182   1.995   6.391
   26SOL    HW1  977   1.270   2.015   6.349
   26SOL    HW2  978   1.111   2.052   6.350
   27SOL     OW  979   6.865   0.005   2.408
   27SOL    HW1  980   6.895   6.976   2.488
   27SOL    HW2  981   6.774   0.043   2.425
   28SOL     OW  982   1.949   0.814   5.330
   28SOL    HW1  983   1.858   0.785   5.298
   28SOL    HW2  984   2.009   0.828   5.251
   29SOL     OW  985   6.105   0.146   1.373
   29SOL    HW1  986   6.205   0.149   1.378
   29SOL    HW2  987   6.077   0.118   1.282
   30SOL     OW  988   4.534   0.008   5.327
   30SOL    HW1  989   4.538   0.108   5.330
   30SOL    HW2  990   4.615   6.994   5.281
   31SOL     OW  991   0.516   4.764   4.934
   31SOL    HW1  992   0.454   4.824   4.884
   31SOL    HW2  993   0.550   4.692   4.873
   32SOL     OW  994   3.543   0.693   1.013
   32SOL    HW1  995   3.447   0.701   1.036
   32SOL    HW2  996   3.553   0.638   0.930
   33SOL     OW  997   2.282   5.447   6.207
   33SOL    HW1  998   2.224   5.523   6.236
   33SOL    HW2  999   2.251   5.415   6.117
   34SOL     OW 1000   2.712   5.640   5.467
   34SOL    HW1 1001   2.779   5.568   5.483
   34SOL    HW2 1002   2.754   5.713   5.413
   35SOL     OW 1003   1.607   2.940   6.295
   35SOL    HW1 1004   1.617   2.893   6.207
   35SOL    HW2 1005   1.534   3.008   6.288
   36SOL     OW 1006   5.147   0.979   3.089
   36SOL    HW1 1007   5.175   0.988   3.184
   36SOL    HW2 1008   5.072   0.913   3.083
   37SOL     OW 1009   2.258   6.696   4.155
   37SOL    HW1 1010   2.200   6.670   4.232
   37SOL    HW2 1011   2.318   6.771   4.182
   38SOL     OW 1012   1.453   4.563   2.688
   38SOL    HW1 1013   1.391   4.593   2.616
   38SOL    HW2 1014   1.504   4.483   2.657
   39SOL     OW 1015   6.693   5.146   1.494
   39SOL    HW1 1016   6.652   5.066   1.538
   39SOL    HW2 1017   6.621   5.211   1.469
   40SOL     OW 1018   4.608   1.477   0.391
   40SOL    HW1 1019   4.599   1.550   0.323
   40SOL    HW2 1020   4.583   1.389   0.349
   41SOL     OW 1021   5.460   3.859   1.562
   41SOL    HW1 1022   5.553   3.862   1.526
   41SOL    HW2 1023   5.460   3.820   1.654
   42SOL     OW 1024   2.260   4.768   6.853
   42SOL    HW1 1025   2.259   4.742   6.757
   42SOL    HW2 1026   2.169   4.754   6.892
   43SOL     OW 1027   5.250   6.898   5.117
   43SOL    HW1 1028   5.172   6.931   5.169
   43SOL    HW2 1029   5.226   6.811   5.073
   44SOL     OW 1030   0.596   1.238   6.765
   44SOL    HW1 1031   0.511   1.280   6.734
   44SOL    HW2 1032   0.654   1.308   6.808
   45SOL     OW 1033   1.919   4.620   6.034
   45SOL    HW1 1034   1.917   4.718   6.017
   45SOL    HW2 1035   1.920   4.603   6.132
   46SOL     OW 1036   1.589   3.742   5.303
   46SOL    HW1 1037   1.522   3.745   5.229
   46SOL    HW2 1038   1.681   3.749   5.265
   47SOL     OW 1039   5.786   3.685   6.924
   47SOL    HW1 1040   5.764   3.709   7.018
   47SOL    HW2 1041   5.706   3.644   6.881
   48SOL     OW 1042   6.290   4.200   0.842
   48SOL    HW1 1043   6.314   4.284   0.793
   48SOL    HW2 1044   6.252   4.133   0.777
   49SOL     OW 1045   3.003   3.546   6.520
   49SOL    HW1 1046   2.912   3.560   6.560
   49SOL    HW2 1047   3.010   3.453   6.485
   50SOL     OW 1048   5.836   2.130   6.908
   50SOL    HW1 1049   5.906   2.171   6.967
   50SOL    HW2 1050   5.790   2.057   6.958
   51SOL     OW 1051   1.036   5.738   2.019
   51SOL    HW1 1052   0.956   5.791   1.992
   51SOL    HW2 1053   1.009   5.663   2.079
   52SOL     OW 1054   5.461   2.682   2.162
   52SOL    HW1 1055   5.426   2.704   2.070
   52SOL    HW2 1056   5.524   2.753   2.192
   53SOL     OW 1057   3.155   0.437   1.363
   53SOL    HW1 1058   3.200   0.422   1.275
   53SOL    HW2 1059   3.223   0.432   1.437
   54SOL     OW 1060   6.084   0.355   6.495
   54SOL    HW1 1061   6.117   0.264   6.517
   54SOL    HW2 1062   5.991   0.349   6.457
   55SOL     OW 1063   1.630   3.413   6.174
   55SOL    HW1 1064   1.691   3.490   6.159
   55SOL    HW2 1065   1.540   3.432   6.134
   56SOL     OW 1066   0.872   2.229   0.149
   56SOL    HW1 1067   0.785   2.203   0.190
   56SOL    HW2 1068   0.946   2.175   0.190
   57SOL     OW 1069   4.146   6.328   0.837
   57SOL    HW1 1070   4.180   6.407   0.888
   57SOL    HW2 1071   4.047   6.321   0.849
   58SOL     OW 1072   1.446   1.191   0.261
   58SOL    HW1 1073   1.520   1.145   0.310
   58SOL    HW2 1074   1.359   1.168   0.305
   59SOL     OW 1075   4.370   3.257   5.593
   59SOL    HW1 1076   4.428   3.277   5.672
   59SOL    HW2 1077   4.299   3.191   5.620
   60SOL     OW 1078   6.192   2.708   2.481
   60SOL    HW1 1079   6.211   2.783   2.544
   60SOL    HW2 1080   6.167   2.745   2.391
   61SOL     OW 1081   0.904   6.629   3.733
   61SOL    HW1 1082   0.925   6.538   3.770
   61SOL    HW2 1083   0.988   6.671   3.699
   62SOL     OW 1084   6.379   3.308   3.560
   62SOL    HW1 1085   6.317   3.229   3.565
   62SOL    HW2 1086   6.405   3.336   3.653
   63SOL     OW 1087   3.641   0.327   6.512
   63SOL    HW1 1088   3.734   0.293   6.501
   63SOL    HW2 1089   3.633   0.418   6.471
   64SOL     OW 1090   0.875   2.059   5.689
   64SOL    HW1 1091   0.966   2.037   5.655
   64SOL    HW2 1092   0.810   2.058   5.612
   65SOL     OW 1093   0.675   5.409   4.345
   65SOL    HW1 1094   0.774   5.396   4.355
   65SOL    HW2 1095   0.640   5.343   4.279
   66SOL     OW 1096   4.309   1.341   1.391
   66SOL    HW1 1097   4.238   1.296   1.338
   66SOL    HW2 1098   4.316   1.298   1.481
   67SOL     OW 1099   0.422   3.185   1.708
   67SOL    HW1 1100   0.371   3.228   1.634
   67SOL    HW2 1101   0.387   3.092   1.724
   68SOL     OW 1102   6.916   1.617   0.027
   68SOL    HW1 1103   6.969   1.662   6.977
   68SOL    HW2 1104   6.977   1.581   0.097
   69SOL     OW 1105   1.189   5.728   6.713
   69SOL    HW1 1106   1.101   5.679   6.714
   69SOL    HW2 1107   1.256   5.674   6.663
   70SOL     OW 1108   4.968   4.424   3.616
   70SOL    HW1 1109   4.925   4.467   3.537
   70SOL    HW2 1110   4.953   4.481   3.697
   71SOL     OW 1111   4.872   1.776   4.572
   71SOL    HW1 1112   4.815   1.840   4.520
   71SOL    HW2 1113   4.962   1.818   4.588
   72SOL     OW 1114   0.203   0.954   3.363
   72SOL    HW1 1115   0.181   1.006   3.280
   72SOL    HW2 1116   0.164   1.000   3.443
   73SOL     OW 1117   2.013   0.504   1.153
   73SOL    HW1 1118   1.933   0.484   1.096
   73SOL    HW2 1119   2.094   0.463   1.112
   74SOL     OW 1120   3.499   2.125   0.346
   74SOL    HW1 1121   3.465   2.195   0.283
   74SOL    HW2 1122   3.565   2.165   0.409
   75SOL     OW 1123   3.044   2.816   0.585
   75SOL    HW1 1124   2.967   2.834   0.647
   75SOL    HW2 1125   3.093   2.901   0.566
   76SOL     OW 1126   3.866   5.374   5.823
   76SOL    HW1 1127   3.938   5.324   5.775
   76SOL    HW2 1128   3.866   5.469   5.793
   77SOL     OW 1129   0.801   5.471   4.947
   77SOL    HW1 1130   0.783   5.500   5.041
   77SOL    HW2 1131   0.893   5.499   4.920
   78SOL     OW 1132   4.786   1.861   0.915
   78SOL    HW1 1133   4.783   1.956   0.883
   78SOL    HW2 1134   4.825   1.803   0.843
   79SOL     OW 1135   1.523   4.469   3.687
   79SOL    HW1 1136   1.536   4.504   3.595
   79SOL    HW2 1137   1.429   4.487   3.717
   80SOL     OW 1138   3.149   2.157   4.795
   80SOL    HW1 1139   3.145   2.198   4.887
   80SOL    HW2 1140   3.070   2.187   4.742
   81SOL     OW 1141   3.633   5.344   1.838
   81SOL    HW1 1142   3.553   5.338   1.898
   81SOL    HW2 1143   3.698   5.272   1.862
   82SOL     OW 1144   2.660   0.015   1.836
   82SOL    HW1 1145   2.726   0.038   1.765
   82SOL    HW2 1146   2.708   0.002   1.923
   83SOL     OW 1147   5.127   1.663   4.013
   83SOL    HW1 1148   5.225   1.677   4.027
   83SOL    HW2 1149   5.093   1.596   4.080
   84SOL     OW 1150   5.755   3.074   2.939
   84SOL    HW1 1151   5.805   2.987   2.946
   84SOL    HW2 1152   5.684   3.077   3.010
   85SOL     OW 1153   2.395   6.715   3.765
   85SOL    HW1 1154   2.366   6.640   3.823
   85SOL    HW2 1155   2.374   6.695   3.669
   86SOL     OW 1156   5.023   0.224   0.687
   86SOL    HW1 1157   5.041   0.320   0.668
   86SOL    HW2 1158   5.095   0.167   0.647
   87SOL     OW 1159   2.777   3.614   6.743
   87SOL    HW1 1160   2.799   3.702   6.700
   87SOL    HW2 1161   2.774   3.626   6.842
   88SOL     OW 1162   2.323   3.430   1.583
   88SOL    HW1 1163   2.400   3.385   1.537
   88SOL    HW2 1164   2.336   3.425   1.682
   89SOL     OW 1165   3.189   3.502   3.857
   89SOL    HW1 1166   3.288   3.492   3.856
   89SOL    HW2 1167   3.147   3.411   3.858
   90SOL     OW 1168   6.102   3.832   2.491
   90SOL    HW1 1169   6.109   3.761   2.421
   90SOL    HW2 1170   6.167   3.905   2.470
   91SOL     OW 1171   4.648   5.776   6.238
   91SOL    HW1 1172   4.582   5.770   6.313
   91SOL    HW2 1173   4.604   5.819   6.159
   92SOL     OW 1174   5.326   4.560   0.120
   92SOL    HW1 1175   5.291   4.494   0.187
   92SOL    HW2 1176   5.266   4.641   0.118
   93SOL     OW 1177   3.135   4.152   1.749
   93SOL    HW1 1178   3.121   4.119   1.655
   93SOL    HW2 1179   3.063   4.218   1.772
   94SOL     OW 1180   3.434   1.965   3.860
   94SOL    HW1 1181   3.448   1.938   3.955
   94SOL    HW2 1182   3.345   2.011   3.851
   95SOL     OW 1183   0.380   0.070   4.069
   95SOL    HW1 1184   0.404   6.994   4.065
   95SOL    HW2 1185   0.291   0.084   4.026
   96SOL     OW 1186   0.227   5.299   6.560
   96SOL    HW1 1187   0.313   5.289   6.511
   96SOL    HW2 1188   0.218   5.224   6.627
   97SOL     OW 1189   2.188   4.439   5.874
   97SOL    HW1 1190   2.202   4.529   5.833
   97SOL    HW2 1191   2.123   4.447   5.949
   98SOL     OW 1192   0.116   1.952   4.050
   98SOL    HW1 1193   0.177   1.994   4.117
   98SOL    HW2 1194   0.157   1.867   4.017
   99SOL     OW 1195   3.726   4.479   5.328
   99SOL    HW1 1196   3.718   4.421   5.409
   99SOL    HW2 1197   3.782   4.433   5.259
  100SOL     OW 1198   0.951   0.481   5.184
  100SOL    HW1 1199   0.973   0.469   5.087
  100SOL    HW2 1200   0.953   0.392   5.229
  101SOL     OW 1201   4.885   3.030   2.472
  101SOL    HW1 1202   4.881   2.962   2.544
  101SOL    HW2 1203   4.885   3.122   2.512
  102SOL     OW 1204   4.650   0.796   6.932
  102SOL    HW1 1205   4.717   0.810   7.005
  102SOL    HW2 1206   4.584   0.727   6.960
  103SOL     OW 1207   1.108   1.523   1.910
  103SOL    HW1 1208   1.108   1.579   1.993
  103SOL    HW2 1209   1.202   1.498   1.886
  104SOL     OW 1210   6.669   4.190   1.750
  104SOL    HW1 1211   6.617   4.179   1.835
  104SOL    HW2 1212   6.645   4.277   1.706
  105SOL     OW 1213   0.338   0.278   4.759
  105SOL    HW1 1214   0.403   0.212   4.796
  105SOL    HW2 1215   0.387   0.352   4.715
  106SOL     OW 1216   4.473   3.214   1.725
  106SOL    HW1 1217   4.391   3.157   1.735
  106SOL    HW2 1218   4.542   3.186   1.792
  107SOL     OW 1219   5.891   6.937   1.985
  107SOL    HW1 1220   5.794   6.931   2.006
  107SOL    HW2 1221   5.931   6.846   1.984
  108SOL     OW 1222   3.578   1.239   4.795
  108SOL    HW1 1223   3.608   1.156   4.843
  108SOL    HW2 1224   3.478   1.246   4.802
  109SOL     OW 1225   2.236   1.159   5.063
  109SOL    HW1 1226   2.307   1.104   5.108
  109SOL    HW2 1227   2.186   1.211   5.133
  110SOL     OW 1228   3.551   3.945   5.517
  110SOL    HW1 1229   3.608   3.927   5.597
  110SOL    HW2 1230   3.466   3.989   5.547
  111SOL     OW 1231   6.112   2.713   0.778
  111SOL    HW1 1232   6.134   2.794   0.832
  111SOL    HW2 1233   6.057   2.650   0.834
  112SOL     OW 1234   5.694   0.063   6.080
  112SOL    HW1 1235   5.728   0.156   6.096
  112SOL    HW2 1236   5.749   0.019   6.010
  113SOL     OW 1237   0.489   4.946   2.740
  113SOL    HW1 1238   0.575   4.985   2.707
  113SOL    HW2 1239   0.487   4.848   2.720
  114SOL     OW 1240   0.054   2.517   2.218
  114SOL    HW1 1241   6.999   2.527   2.281
  114SOL    HW2 1242   0.025   2.542   2.125
  115SOL     OW 1243   4.573   0.073   2.855
  115SOL    HW1 1244   4.632   0.051   2.778
  115SOL    HW2 1245   4.478   0.054   2.831
  116SOL     OW 1246   6.923   5.107   0.818
  116SOL    HW1 1247   6.862   5.186   0.822
  116SOL    HW2 1248   6.960   5.088   0.909
  117SOL     OW 1249   3.186   2.362   0.277
  117SOL    HW1 1250   3.147   2.279   0.237
  117SOL    HW2 1251   3.135   2.442   0.245
  118SOL     OW 1252   6.937   1.647   2.476
  118SOL    HW1 1253   6.843   1.618   2.491
  118SOL    HW2 1254   6.999   1.578   2.514
  119SOL     OW 1255   6.038   0.640   4.918
  119SOL    HW1 1256   6.066   0.546   4.899
  119SOL    HW2 1257   5.994   0.678   4.837
  120SOL     OW 1258   4.270   0.768   4.291
  120SOL    HW1 1259   4.343   0.802   4.233
  120SOL    HW2 1260   4.272   0.816   4.379
  121SOL     OW 1261   0.590   5.476   6.876
  121SOL    HW1 1262   0.518   5.535   6.839
  121SOL    HW2 1263   0.582   5.385   6.836
  122SOL     OW 1264   6.790   4.508   6.060
  122SOL    HW1 1265   6.756   4.602   6.072
  122SOL    HW2 1266   6.789   4.461   6.148
  123SOL     OW 1267   0.712   2.827   1.804
  123SOL    HW1 1268   0.743   2.872   1.721
  123SOL    HW2 1269   0.781   2.837   1.876
  124SOL     OW 1270   1.180   3.357   0.437
  124SOL    HW1 1271   1.194   3.272   0.487
  124SOL    HW2 1272   1.180   3.435   0.500
  125SOL     OW 1273   4.322   2.839   0.691
  125SOL    HW1 1274   4.398   2.846   0.756
  125SOL    HW2 1275   4.336   2.903   0.616
  126SOL     OW 1276   3.776   2.919   3.978
  126SOL    HW1 1277   3.773   2.914   3.878
  126SOL    HW2 1278   3.683   2.931   4.014
  127SOL     OW 1279   0.408   4.350   5.214
  127SOL    HW1 1280   0.485   4.396   5.258
  127SOL    HW2 1281   0.437   4.313   5.126
  128SOL     OW 1282   4.737   3.976   6.416
  128SOL    HW1 1283   4.734   3.892   6.469
  128SOL    HW2 1284   4.832   4.000   6.397
  129SOL     OW 1285   0.165   5.728   2.242
  129SOL    HW1 1286   0.259   5.761   2.243
  129SOL    HW2 1287   0.105   5.800   2.278
  130SOL     OW 1288   6.043   2.986   4.349
  130SOL    HW1 1289   6.066   2.995   4.252
  130SOL    HW2 1290   5.968   2.920   4.360
  131SOL     OW 1291   0.696   3.447   3.737
  131SOL    HW1 1292   0.794   3.429   3.734
  131SOL    HW2 1293   0.646   3.360   3.733
  132SOL     OW 1294   4.576   2.302   0.962
  132SOL    HW1 1295   4.494   2.360   0.963
  132SOL    HW2 1296   4.656   2.358   0.941
  133SOL     OW 1297   4.803   5.547   6.172
  133SOL    HW1 1298   4.754   5.631   6.146
  133SOL    HW2 1299   4.884   5.537   6.115
  134SOL     OW 1300   5.421   2.140   1.033
  134SOL    HW1 1301   5.326   2.162   1.054
  134SOL    HW2 1302   5.459   2.211   0.974
  135SOL     OW 1303   5.086   3.666   3.877
  135SOL    HW1 1304   5.108   3.703   3.786
  135SOL    HW2 1305   5.000   3.706   3.909
  136SOL     OW 1306   4.006   1.062   6.316
  136SOL    HW1 1307   4.051   1.087   6.230
  136SOL    HW2 1308   4.050   1.108   6.392
  137SOL     OW 1309   2.506   3.874   5.921
  137SOL    HW1 1310   2.551   3.933   5.854
  137SOL    HW2 1311   2.489   3.785   5.880
  138SOL     OW 1312   0.875   5.511   6.890
  138SOL    HW1 1313   0.778   5.493   6.871
  138SOL    HW2 1314   0.885   5.602   6.929
  139SOL     OW 1315   1.460   0.291   1.034
  139SOL    HW1 1316   1.481   0.389   1.030
  139SOL    HW2 1317   1.395   0.268   0.961
  140SOL     OW 1318   4.617   0.897   1.393
  140SOL    HW1 1319   4.621   0.888   1.493
  140SOL    HW2 1320   4.569   0.981   1.369
  141SOL     OW 1321   0.301   2.566   0.781
  141SOL    HW1 1322   0.300   2.532   0.875
  141SOL    HW2 1323   0.396   2.583   0.753
  142SOL     OW 1324   2.324   3.803   0.678
  142SOL    HW1 1325   2.412   3.765   0.648
  142SOL    HW2 1326   2.332   3.903   0.684
  143SOL     OW 1327   4.552   6.194   2.117
  143SOL    HW1 1328   4.516   6.286   2.105
  143SOL    HW2 1329   4.540   6.166   2.212
  144SOL     OW 1330   3.106   5.744   3.209
  144SOL    HW1 1331   3.057   5.740   3.296
  144SOL    HW2 1332   3.040   5.759   3.135
  145SOL     OW 1333   6.610   5.522   4.119
  145SOL    HW1 1334   6.571   5.549   4.207
  145SOL    HW2 1335   6.663   5.598   4.082
  146SOL     OW 1336   5.176   0.712   6.363
  146SOL    HW1 1337   5.257   0.770   6.356
  146SOL    HW2 1338   5.096   0.770   6.381
  147SOL     OW 1339   5.515   0.968   5.253
  147SOL    HW1 1340   5.439   1.032   5.244
  147SOL    HW2 1341   5.509   0.898   5.181
  148SOL     OW 1342   2.072   6.083   1.494
  148SOL    HW1 1343   2.101   6.002   1.444
  148SOL    HW2 1344   2.104   6.165   1.446
  149SOL     OW 1345   1.979   2.345   4.097
  149SOL    HW1 1346   2.044   2.346   4.173
  149SOL    HW2 1347   1.903   2.283   4.119
  150SOL     OW 1348   4.168   1.449   5.104
  150SOL    HW1 1349   4.105   1.449   5.026
  150SOL    HW2 1350   4.136   1.514   5.173
  151SOL     OW 1351   5.772   3.011   0.907
  151SOL    HW1 1352   5.818   3.043   0.989
  151SOL    HW2 1353   5.826   3.036   0.826
  152SOL     OW 1354   1.318   2.610   1.653
  152SOL    HW1 1355   1.235   2.555   1.649
  152SOL    HW2 1356   1.370   2.599   1.569
  153SOL     OW 1357   2.347   1.723   3.429
  153SOL    HW1 1358   2.258   1.726   3.475
  153SOL    HW2 1359   2.401   1.648   3.468
  154SOL     OW 1360   6.144   2.207   2.638
  154SOL    HW1 1361   6.071   2.184   2.703
  154SOL    HW2 1362   6.228   2.158   2.664
  155SOL     OW 1363   6.719   5.142   3.332
  155SOL    HW1 1364   6.628   5.143   3.291
  155SOL    HW2 1365   6.729   5.220   3.394
  156SOL     OW 1366   5.267   2.156   0.520
  156SOL    HW1 1367   5.214   2.234   0.552
  156SOL    HW2 1368   5.346   2.188   0.468
  157SOL     OW 1369   5.331   6.804   1.074
  157SOL    HW1 1370   5.256   6.761   1.124
  157SOL    HW2 1371   5.300   6.827   0.981
  158SOL     OW 1372   0.852   2.806   4.440
  158SOL    HW1 1373   0.795   2.848   4.370
  158SOL    HW2 1374   0.817   2.714   4.461
  159SOL     OW 1375   6.120   5.396   0.537
  159SOL    HW1 1376   6.179   5.450   0.478
  159SOL    HW2 1377   6.174   5.357   0.612
  160SOL     OW 1378   5.666   0.619   0.908
  160SOL    HW1 1379   5.670   0.528   0.950
  160SOL    HW2 1380   5.755   0.642   0.869
  161SOL     OW 1381   6.320   6.685   0.860
  161SOL    HW1 1382   6.310   6.616   0.932
  161SOL    HW2 1383   6.237   6.740   0.854
  162SOL     OW 1384   4.290   0.128   6.499
  162SOL    HW1 1385   4.345   0.103   6.420
  162SOL    HW2 1386   4.332   0.092   6.582
  163SOL     OW 1387   0.359   3.031   2.437
  163SOL    HW1 1388   0.403   2.944   2.415
  163SOL    HW2 1389   0.313   3.066   2.356
  164SOL     OW 1390   3.101   2.026   3.058
  164SOL    HW1 1391   3.165   1.966   3.105
  164SOL    HW2 1392   3.125   2.030   2.961
  165SOL     OW 1393   6.842   6.737   3.966
  165SOL    HW1 1394   6.889   6.716   4.052
  165SOL    HW2 1395   6.751   6.774   3.985
  166SOL     OW 1396   6.398   5.068   4.021
  166SOL    HW1 1397   6.417   4.971   4.028
  166SOL    HW2 1398   6.483   5.119   4.011
  167SOL     OW 1399   2.389   1.226   4.858
  167SOL    HW1 1400   2.335   1.224   4.942
  167SOL    HW2 1401   2.345   1.168   4.789
  168SOL     OW 1402   3.733   3.624   2.436
  168SOL    HW1 1403   3.762   3.568   2.514
  168SOL    HW2 1404   3.668   3.571   2.381
  169SOL     OW 1405   5.174   2.699   0.354
  169SOL    HW1 1406   5.202   2.621   0.299
  169SOL    HW2 1407   5.111   2.756   0.302
  170SOL     OW 1408   6.028   5.547   0.820
  170SOL    HW1 1409   6.091   5.475   0.791
  170SOL    HW2 1410   5.991   5.524   0.910
  171SOL     OW 1411   3.531   3.001   1.161
  171SOL    HW1 1412   3.499   3.083   1.209
  171SOL    HW2 1413   3.610   2.962   1.209
  172SOL     OW 1414   1.243   1.277   6.510
  172SOL    HW1 1415   1.143   1.274   6.507
  172SOL    HW2 1416   1.274   1.267   6.604
  173SOL     OW 1417   6.402   1.335   4.212
  173SOL    HW1 1418   6.384   1.365   4.305
  173SOL    HW2 1419   6.487   1.282   4.210
  174SOL     OW 1420   5.502   4.348   4.258
  174SOL    HW1 1421   5.488   4.443   4.287
  174SOL    HW2 1422   5.497   4.289   4.338
  175SOL     OW 1423   0.435   6.410   2.429
  175SOL    HW1 1424   0.337   6.419   2.413
  175SOL    HW2 1425   0.485   6.439   2.348
  176SOL     OW 1426   6.695   3.190   1.798
  176SOL    HW1 1427   6.691   3.254   1.721
  176SOL    HW2 1428   6.765   3.221   1.863
  177SOL     OW 1429   5.607   2.448   3.531
  177SOL    HW1 1430   5.629   2.360   3.489
  177SOL    HW2 1431   5.659   2.520   3.486
  178SOL     OW 1432   2.462   5.896   4.531
  178SOL    HW1 1433   2.510   5.832   4.472
  178SOL    HW2 1434   2.523   5.927   4.605
  179SOL     OW 1435   2.999   4.603   1.354
  179SOL    HW1 1436   3.049   4.569   1.434
  179SOL    HW2 1437   2.901   4.606   1.375
  180SOL     OW 1438   4.756   1.092   6.341
  180SOL    HW1 1439   4.732   0.996   6.328
  180SOL    HW2 1440   4.854   1.105   6.327
  181SOL     OW 1441   3.030   1.618   5.996
  181SOL    HW1 1442   3.001   1.679   5.923
  181SOL    HW2 1443   2.950   1.572   6.035
  182SOL     OW 1444   3.460   2.959   5.586
  182SOL    HW1 1445   3.372   2.980   5.629
  182SOL    HW2 1446   3.449   2.880   5.525
  183SOL     OW 1447   2.835   0.999   3.045
  183SOL    HW1 1448   2.826   0.900   3.031
  183SOL    HW2 1449   2.817   1.046   2.959
  184SOL     OW 1450   5.533   6.231   3.440
  184SOL    HW1 1451   5.537   6.305   3.508
  184SOL    HW2 1452   5.612   6.237   3.379
  185SOL     OW 1453   0.156   0.089   4.668
  185SOL    HW1 1454   0.228   0.153   4.697
  185SOL    HW2 1455   0.152   0.087   4.569
  186SOL     OW 1456   3.416   5.882   5.288
  186SOL    HW1 1457   3.353   5.807   5.307
  186SOL    HW2 1458   3.387   5.964   5.338
  187SOL     OW 1459   3.891   5.922   1.551
  187SOL    HW1 1460   3.841   5.861   1.612
  187SOL    HW2 1461   3.949   5.983   1.604
  188SOL     OW 1462   0.989   3.573   3.506
  188SOL    HW1 1463   0.937   3.498   3.549
  188SOL    HW2 1464   0.991   3.651   3.568
  189SOL     OW 1465   5.024   5.060   5.322
  189SOL    HW1 1466   5.063   5.131   5.381
  189SOL    HW2 1467   4.934   5.033   5.357
  190SOL     OW 1468   6.093   0.166   0.490
  190SOL    HW1 1469   6.140   0.173   0.402
  190SOL    HW2 1470   6.139   0.098   0.547
  191SOL     OW 1471   0.969   1.782   5.532
  191SOL    HW1 1472   1.028   1.863   5.522
  191SOL    HW2 1473   0.892   1.804   5.592
  192SOL     OW 1474   0.414   5.668   1.585
  192SOL    HW1 1475   0.482   5.711   1.643
  192SOL    HW2 1476   0.328   5.719   1.591
  193SOL     OW 1477   2.250   0.151   1.229
  193SOL    HW1 1478   2.178   0.115   1.288
  193SOL    HW2 1479   2.316   0.079   1.208
  194SOL     OW 1480   3.554   5.849   2.160
  194SOL    HW1 1481   3.503   5.921   2.207
  194SOL    HW2 1482   3.552   5.765   2.214
  195SOL     OW 1483   3.974   0.579   0.841
  195SOL    HW1 1484   3.953   0.518   0.917
  195SOL    HW2 1485   3.982   0.673   0.875
  196SOL     OW 1486   4.094   2.384   0.666
  196SOL    HW1 1487   4.103   2.288   0.639
  196SOL    HW2 1488   4.069   2.390   0.763
  197SOL     OW 1489   1.773   5.909   0.491
  197SOL    HW1 1490   1.734   5.905   0.400
  197SOL    HW2 1491   1.830   5.828   0.507
  198SOL     OW 1492   3.964   6.607   6.411
  198SOL    HW1 1493   3.927   6.691   6.452
  198SOL    HW2 1494   4.063   6.610   6.411
  199SOL     OW 1495   0.555   0.592   3.135
  199SOL    HW1 1496   0.477   0.650   3.113
  199SOL    HW2 1497   0.582   0.607   3.230
  200SOL     OW 1498   0.820   4.098   3.499
  200SOL    HW1 1499   0.765   4.153   3.436
  200SOL    HW2 1500   0.804   4.128   3.593
  201SOL     OW 1501   5.332   1.644   6.558
  201SOL    HW1 1502   5.368   1.564   6.510
  201SOL    HW2 1503   5.356   1.639   6.655
  202SOL     OW 1504   3.761   0.730   2.289
  202SOL    HW1 1505   3.722   0.665   2.224
  202SOL    HW2 1506   3.710   0.726   2.375
  203SOL     OW 1507   5.937   2.859   6.581
  203SOL    HW1 1508   5.999   2.893   6.651
  203SOL    HW2 1509   5.878   2.789   6.620
  204SOL     OW 1510   2.296   6.668   1.462
  204SOL    HW1 1511   2.301   6.765   1.483
  204SOL    HW2 1512   2.264   6.655   1.368
  205SOL     OW 1513   5.391   0.683   0.927
  205SOL    HW1 1514   5.337   0.649   0.850
  205SOL    HW2 1515   5.483   0.643   0.925
  206SOL     OW 1516   0.190   5.506   1.759
  206SOL    HW1 1517   0.164   5.596   1.723
  206SOL    HW2 1518   0.162   5.435   1.694
  207SOL     OW 1519   4.458   1.679   5.569
  207SOL    HW1 1520   4.521   1.723   5.633
  207SOL    HW2 1521   4.495   1.688   5.476
  208SOL     OW 1522   3.640   4.849   6.551
  208SOL    HW1 1523   3.553   4.827   6.597
  208SOL    HW2 1524   3.623   4.863   6.453
  209SOL     OW 1525   6.858   5.169   4.871
  209SOL    HW1 1526   6.916   5.088   4.871
  209SOL    HW2 1527   6.808   5.174   4.957
  210SOL     OW 1528   3.947   2.100   1.264
  210SOL    HW1 1529   3.979   2.085   1.171
  210SOL    HW2 1530   3.964   2.195   1.290
  211SOL     OW 1531   1.196   2.416   1.986
  211SOL    HW1 1532   1.287   2.438   1.951
  211SOL    HW2 1533   1.202   2.393   2.083
  212SOL     OW 1534   0.491   5.542   4.520
  212SOL    HW1 1535   0.520   5.510   4.610
  212SOL    HW2 1536   0.556   5.510   4.451
  213SOL     OW 1537   4.147   2.396   6.325
  213SOL    HW1 1538   4.128   2.449   6.242
  213SOL    HW2 1539   4.111   2.445   6.405
  214SOL     OW 1540   1.606   6.412   3.256
  214SOL    HW1 1541   1.641   6.320   3.241
  214SOL    HW2 1542   1.609   6.464   3.171
  215SOL     OW 1543   3.659   3.456   3.030
  215SOL    HW1 1544   3.727   3.468   3.102
  215SOL    HW2 1545   3.679   3.373   2.978
  216SOL     OW 1546   1.818   6.881   5.504
  216SOL    HW1 1547   1.737   6.829   5.478
  216SOL    HW2 1548   1.853   6.848   5.592
  217SOL     OW 1549   6.937   2.717   4.052
  217SOL    HW1 1550   6.916   2.744   4.146
  217SOL    HW2 1551   6.926   2.618   4.043
  218SOL     OW 1552   1.894   3.510   5.263
  218SOL    HW1 1553   1.853   3.487   5.351
  218SOL    HW2 1554   1.862   3.600   5.233
  219SOL     OW 1555   3.579   5.385   0.360
  219SOL    HW1 1556   3.504   5.339   0.408
  219SOL    HW2 1557   3.541   5.448   0.292
  220SOL     OW 1558   1.680   4.599   0.491
  220SOL    HW1 1559   1.767   4.554   0.513
  220SOL    HW2 1560   1.615   4.531   0.456
  221SOL     OW 1561   6.364   2.949   4.339
  221SOL    HW1 1562   6.327   2.961   4.247
  221SOL    HW2 1563   6.464   2.947   4.335
  222SOL     OW 1564   1.286   6.005   4.545
  222SOL    HW1 1565   1.201   6.045   4.510
  222SOL    HW2 1566   1.318   5.935   4.481
  223SOL     OW 1567   5.895   4.369   2.157
  223SOL    HW1 1568   5.949   4.449   2.184
  223SOL    HW2 1569   5.880   4.311   2.237
  224SOL     OW 1570   3.773   2.110   2.260
  224SOL    HW1 1571   3.760   2.141   2.166
  224SOL    HW2 1572   3.687   2.121   2.311
  225SOL     OW 1573   6.821   0.129   1.281
  225SOL    HW1 1574   6.845   0.080   1.196
  225SOL    HW2 1575   6.755   0.200   1.260
  226SOL     OW 1576   0.307   6.033   1.366
  226SOL    HW1 1577   0.396   6.008   1.404
  226SOL    HW2 1578   0.259   6.092   1.431
  227SOL     OW 1579   1.607   3.094   2.770
  227SOL    HW1 1580   1.557   3.137   2.845
  227SOL    HW2 1581   1.559   3.111   2.684
  228SOL     OW 1582   3.388   6.440   2.401
  228SOL    HW1 1583   3.362   6.511   2.466
  228SOL    HW2 1584   3.353   6.352   2.433
  229SOL     OW 1585   6.183   5.701   3.233
  229SOL    HW1 1586   6.133   5.624   3.274
  229SOL    HW2 1587   6.278   5.673   3.216
  230SOL     OW 1588   1.003   3.813   6.224
  230SOL    HW1 1589   1.007   3.811   6.124
  230SOL    HW2 1590   1.004   3.908   6.255
  231SOL     OW 1591   0.453   1.474   0.505
  231SOL    HW1 1592   0.363   1.502   0.471
  231SOL    HW2 1593   0.476   1.527   0.587
  232SOL     OW 1594   1.512   4.305   6.425
  232SOL    HW1 1595   1.537   4.352   6.509
  232SOL    HW2 1596   1.543   4.358   6.346
  233SOL     OW 1597   3.132   0.922   6.476
  233SOL    HW1 1598   3.188   0.977   6.413
  233SOL    HW2 1599   3.171   0.927   6.568
  234SOL     OW 1600   2.952   5.407   6.718
  234SOL    HW1 1601   3.032   5.467   6.711
  234SOL    HW2 1602   2.875   5.449   6.671
  235SOL     OW 1603   3.652   3.420   4.587
  235SOL    HW1 1604   3.714   3.461   4.654
  235SOL    HW2 1605   3.597   3.492   4.544
  236SOL     OW 1606   6.889   2.110   5.586
  236SOL    HW1 1607   6.967   2.170   5.566
  236SOL    HW2 1608   6.895   2.028   5.530
  237SOL     OW 1609   6.729   6.547   1.926
  237SOL    HW1 1610   6.722   6.492   1.843
  237SOL    HW2 1611   6.798   6.508   1.987
  238SOL     OW 1612   6.541   1.780   2.213
  238SOL    HW1 1613   6.610   1.839   2.255
  238SOL    HW2 1614   6.583   1.725   2.141
  239SOL     OW 1615   0.292   5.908   0.864
  239SOL    HW1 1616   0.219   5.857   0.911
  239SOL    HW2 1617   0.373   5.912   0.922
  240SOL     OW 1618   6.861   3.025   5.446
  240SOL    HW1 1619   6.951   2.992   5.419
  240SOL    HW2 1620   6.847   3.117   5.408
  241SOL     OW 1621   6.079   1.682   4.799
  241SOL    HW1 1622   6.043   1.716   4.886
  241SOL    HW2 1623   6.009   1.626   4.754
  242SOL     OW 1624   2.350   2.693   3.322
  242SOL    HW1 1625   2.330   2.760   3.251
  242SOL    HW2 1626   2.304   2.606   3.300
  243SOL     OW 1627   4.071   1.472   6.503
  243SOL    HW1 1628   4.034   1.538   6.569
  243SOL    HW2 1629   3.999   1.446   6.439
  244SOL     OW 1630   6.924   0.769   6.205
  244SOL    HW1 1631   6.948   0.783   6.301
  244SOL    HW2 1632   6.969   0.839   6.149
  245SOL     OW 1633   5.020   2.554   3.867
  245SOL    HW1 1634   4.958   2.520   3.937
  245SOL    HW2 1635   5.086   2.616   3.909
  246SOL     OW 1636   4.929   3.074   3.619
  246SOL    HW1 1637   4.978   3.066   3.705
  246SOL    HW2 1638   4.993   3.094   3.545
  247SOL     OW 1639   2.544   6.929   3.573
  247SOL    HW1 1640   2.599   6.972   3.502
  247SOL    HW2 1641   2.521   6.836   3.544
  248SOL     OW 1642   6.526   1.306   1.828
  248SOL    HW1 1643   6.583   1.301   1.910
  248SOL    HW2 1644   6.530   1.399   1.790
  249SOL     OW 1645   2.053   5.927   4.765
  249SOL    HW1 1646   1.957   5.916   4.742
  249SOL    HW2 1647   2.092   6.003   4.712
  250SOL     OW 1648   5.193   3.309   6.115
  250SOL    HW1 1649   5.113   3.263   6.076
  250SOL    HW2 1650   5.275   3.284   6.063
  251SOL     OW 1651   1.896   2.717   0.732
  251SOL    HW1 1652   1.945   2.653   0.673
  251SOL    HW2 1653   1.845   2.781   0.675
  252SOL     OW 1654   0.565   1.226   0.461
  252SOL    HW1 1655   0.495   1.291   0.491
  252SOL    HW2 1656   0.656   1.267   0.473
  253SOL     OW 1657   1.493   4.205   5.955
  253SOL    HW1 1658   1.476   4.112   5.923
  253SOL    HW2 1659   1.413   4.237   6.006
  254SOL     OW 1660   4.834   3.544   6.066
  254SOL    HW1 1661   4.924   3.582   6.041
  254SOL    HW2 1662   4.810   3.472   6.001
  255SOL     OW 1663   3.526   1.977   2.396
  255SOL    HW1 1664   3.431   2.001   2.376
  255SOL    HW2 1665   3.571   1.949   2.311
  256SOL     OW 1666   6.901   5.483   1.939
  256SOL    HW1 1667   6.820   5.427   1.955
  256SOL    HW2 1668   6.983   5.425   1.940
  257SOL     OW 1669   3.234   5.020   6.876
  257SOL    HW1 1670   3.179   5.064   6.805
  257SOL    HW2 1671   3.180   4.948   6.920
  258SOL     OW 1672   4.695   4.205   3.870
  258SOL    HW1 1673   4.705   4.217   3.771
  258SOL    HW2 1674   4.684   4.294   3.914
  259SOL     OW 1675   0.876   2.367   3.441
  259SOL    HW1 1676   0.892   2.428   3.364
  259SOL    HW2 1677   0.869   2.273   3.408
  260SOL     OW 1678   6.839   6.807   5.641
  260SOL    HW1 1679   6.931   6.778   5.615
  260SOL    HW2 1680   6.780   6.727   5.649
  261SOL     OW 1681   0.323   1.140   3.131
  261SOL    HW1 1682   0.236   1.188   3.141
  261SOL    HW2 1683   0.383   1.193   3.071
  262SOL     OW 1684   2.106   4.987   2.585
  262SOL    HW1 1685   2.195   5.002   2.541
  262SOL    HW2 1686   2.035   5.031   2.531
  263SOL     OW 1687   6.575   2.819   5.169
  263SOL    HW1 1688   6.604   2.767   5.250
  263SOL    HW2 1689   6.477   2.806   5.155
  264SOL     OW 1690   3.159   3.948   6.695
  264SOL    HW1 1691   3.174   3.857   6.658
  264SOL    HW2 1692   3.095   3.998   6.636
  265SOL     OW 1693   5.036   5.424   4.135
  265SOL    HW1 1694   5.060   5.453   4.043
  265SOL    HW2 1695   5.005   5.503   4.188
  266SOL     OW 1696   3.698   3.104   6.680
  266SOL    HW1 1697   3.794   3.076   6.678
  266SOL    HW2 1698   3.686   3.181   6.742
  267SOL     OW 1699   2.296   1.457   6.683
  267SOL    HW1 1700   2.249   1.476   6.597
  267SOL    HW2 1701   2.235   1.477   6.760
  268SOL     OW 1702   3.176   4.911   3.765
  268SOL    HW1 1703   3.136   4.843   3.827
  268SOL    HW2 1704   3.168   5.002   3.805
  269SOL     OW 1705   2.021   1.225   4.860
  269SOL    HW1 1706   2.070   1.294   4.914
  269SOL    HW2 1707   2.083   1.187   4.791
  270SOL     OW 1708   5.004   6.722   4.429
  270SOL    HW1 1709   5.055   6.715   4.515
  270SOL    HW2 1710   4.942   6.644   4.421
  271SOL     OW 1711   1.670   1.553   0.860
  271SOL    HW1 1712   1.572   1.534   0.867
  271SOL    HW2 1713   1.683   1.645   0.823
  272SOL     OW 1714   4.195   6.114   1.569
  272SOL    HW1 1715   4.136   6.059   1.627
  272SOL    HW2 1716   4.291   6.100   1.594
  273SOL     OW 1717   2.402   6.724   4.704
  273SOL    HW1 1718   2.454   6.804   4.735
  273SOL    HW2 1719   2.419   6.647   4.767
  274SOL     OW 1720   5.677   1.547   0.955
  274SOL    HW1 1721   5.712   1.613   1.022
  274SOL    HW2 1722   5.588   1.578   0.922
  275SOL     OW 1723   6.018   5.686   5.920
  275SOL    HW1 1724   5.955   5.693   5.843
  275SOL    HW2 1725   6.074   5.769   5.925
  276SOL     OW 1726   6.987   6.635   4.421
  276SOL    HW1 1727   6.887   6.639   4.416
  276SOL    HW2 1728   7.015   6.547   4.459
  277SOL     OW 1729   4.468   2.426   5.446
  277SOL    HW1 1730   4.520   2.426   5.532
  277SOL    HW2 1731   4.495   2.505   5.391
  278SOL     OW 1732   5.857   4.123   3.399
  278SOL    HW1 1733   5.880   4.073   3.316
  278SOL    HW2 1734   5.760   4.109   3.421
  279SOL     OW 1735   6.834   3.735   3.881
  279SOL    HW1 1736   6.926   3.733   3.841
  279SOL    HW2 1737   6.839   3.771   3.974
  280SOL     OW 1738   4.238   0.793   3.873
  280SOL    HW1 1739   4.258   0.828   3.964
  280SOL    HW2 1740   4.245   0.868   3.807
  281SOL     OW 1741   4.868   6.028   5.405
  281SOL    HW1 1742   4.891   5.933   5.383
  281SOL    HW2 1743   4.948   6.086   5.388
  282SOL     OW 1744   1.575   2.707   0.587
  282SOL    HW1 1745   1.560   2.798   0.624
  282SOL    HW2 1746   1.653   2.709   0.524
  283SOL     OW 1747   5.363   3.827   4.331
  283SOL    HW1 1748   5.435   3.885   4.368
  283SOL    HW2 1749   5.285   3.826   4.395
  284SOL     OW 1750   5.095   5.919   2.454
  284SOL    HW1 1751   5.190   5.911   2.482
  284SOL    HW2 1752   5.090   5.958   2.362
  285SOL     OW 1753   3.888   0.484   5.720
  285SOL    HW1 1754   3.972   0.497   5.772
  285SOL    HW2 1755   3.816   0.543   5.758
  286SOL     OW 1756   2.457   5.009   5.404
  286SOL    HW1 1757   2.536   4.986   5.462
  286SOL    HW2 1758   2.400   5.076   5.451
  287SOL     OW 1759   4.011   6.957   0.072
  287SOL    HW1 1760   3.968   0.024   0.056
  287SOL    HW2 1761   3.948   6.884   0.045
  288SOL     OW 1762   5.127   1.936   0.428
  288SOL    HW1 1763   5.167   2.027   0.427
  288SOL    HW2 1764   5.095   1.913   0.336
  289SOL     OW 1765   5.966   5.585   4.146
  289SOL    HW1 1766   6.048   5.623   4.189
  289SOL    HW2 1767   5.992   5.512   4.083
  290SOL     OW 1768   3.772   0.806   6.281
  290SOL    HW1 1769   3.695   0.869   6.279
  290SOL    HW2 1770   3.821   0.816   6.367
  291SOL     OW 1771   3.899   0.183   5.413
  291SOL    HW1 1772   3.969   0.114   5.432
  291SOL    HW2 1773   3.917   0.265   5.467
  292SOL     OW 1774   3.841   0.229   3.864
  292SOL    HW1 1775   3.841   0.278   3.951
  292SOL    HW2 1776   3.840   0.130   3.882
  293SOL     OW 1777   5.191   6.109   2.750
  293SOL    HW1 1778   5.229   6.037   2.692
  293SOL    HW2 1779   5.232   6.197   2.726
  294SOL     OW 1780   6.678   1.233   6.414
  294SOL    HW1 1781   6.664   1.139   6.382
  294SOL    HW2 1782   6.767   1.266   6.384
  295SOL     OW 1783   1.164   0.375   4.576
  295SOL    HW1 1784   1.118   0.449   4.625
  295SOL    HW2 1785   1.191   0.304   4.641
  296SOL     OW 1786   0.409   2.201   2.237
  296SOL    HW1 1787   0.424   2.292   2.276
  296SOL    HW2 1788   0.476   2.186   2.164
  297SOL     OW 1789   5.162   3.373   3.421
  297SOL    HW1 1790   5.104   3.438   3.370
  297SOL    HW2 1791   5.117   3.284   3.424
  298SOL     OW 1792   4.151   0.780   5.831
  298SOL    HW1 1793   4.105   0.770   5.919
  298SOL    HW2 1794   4.094   0.835   5.770
  299SOL     OW 1795   0.929   0.793   6.720
  299SOL    HW1 1796   1.019   0.801   6.677
  299SOL    HW2 1797   0.932   0.837   6.810
  300SOL     OW 1798   4.544   0.196   3.622
  300SOL    HW1 1799   4.613   0.153   3.563
  300SOL    HW2 1800   4.508   0.127   3.685
  301SOL     OW 1801   6.562   5.484   6.427
  301SOL    HW1 1802   6.649   5.500   6.475
  301SOL    HW2 1803   6.575   5.413   6.357
  302SOL     OW 1804   6.848   6.101   2.600
  302SOL    HW1 1805   6.941   6.086   2.567
  302SOL    HW2 1806   6.848   6.108   2.700
  303SOL     OW 1807   5.793   6.044   3.646
  303SOL    HW1 1808   5.735   5.967   3.621
  303SOL    HW2 1809   5.746   6.100   3.715
  304SOL     OW 1810   2.674   6.043   4.669
  304SOL    HW1 1811   2.712   6.032   4.761
  304SOL    HW2 1812   2.631   6.133   4.661
  305SOL     OW 1813   0.975   2.621   1.840
  305SOL    HW1 1814   1.023   2.668   1.915
  305SOL    HW2 1815   0.979   2.522   1.856
  306SOL     OW 1816   0.040   6.626   3.361
  306SOL    HW1 1817   0.127   6.582   3.380
  306SOL    HW2 1818   6.991   6.586   3.419
  307SOL     OW 1819   3.665   3.244   4.093
  307SOL    HW1 1820   3.723   3.166   4.119
  307SOL    HW2 1821   3.699   3.327   4.138
  308SOL     OW 1822   6.522   2.103   2.959
  308SOL    HW1 1823   6.531   2.006   2.980
  308SOL    HW2 1824   6.606   2.136   2.917
  309SOL     OW 1825   2.007   5.597   6.683
  309SOL    HW1 1826   2.034   5.694   6.679
  309SOL    HW2 1827   1.969   5.569   6.595
  310SOL     OW 1828   5.838   6.560   4.924
  310SOL    HW1 1829   5.876   6.490   4.984
  310SOL    HW2 1830   5.738   6.562   4.934
  311SOL     OW 1831   1.967   5.956   1.956
  311SOL    HW1 1832   2.010   5.973   1.868
  311SOL    HW2 1833   2.008   6.015   2.026
  312SOL     OW 1834   3.155   0.226   3.945
  312SOL    HW1 1835   3.251   0.245   3.966
  312SOL    HW2 1836   3.122   0.292   3.877
  313SOL     OW 1837   2.979   3.335   2.748
  313SOL    HW1 1838   2.957   3.400   2.822
  313SOL    HW2 1839   2.969   3.381   2.660
  314SOL     OW 1840   3.063   5.253   5.957
  314SOL    HW1 1841   3.015   5.166   5.966
  314SOL    HW2 1842   3.051   5.306   6.041
  315SOL     OW 1843   5.534   1.125   4.622
  315SOL    HW1 1844   5.444   1.087   4.642
  315SOL    HW2 1845   5.600   1.097   4.692
  316SOL     OW 1846   4.146   1.049   6.074
  316SOL    HW1 1847   4.153   1.007   5.983
  316SOL    HW2 1848   4.198   1.135   6.075
  317SOL     OW 1849   0.641   2.240   1.300
  317SOL    HW1 1850   0.700   2.162   1.278
  317SOL    HW2 1851   0.699   2.321   1.313
  318SOL     OW 1852   0.852   0.456   5.486
  318SOL    HW1 1853   0.814   0.364   5.492
  318SOL    HW2 1854   0.947   0.451   5.456
  319SOL     OW 1855   6.771   0.711   3.801
  319SOL    HW1 1856   6.764   0.776   3.726
  319SOL    HW2 1857   6.856   0.726   3.851
  320SOL     OW 1858   5.720   2.261   6.718
  320SOL    HW1 1859   5.657   2.313   6.776
  320SOL    HW2 1860   5.775   2.200   6.775
  321SOL     OW 1861   5.150   2.998   0.511
  321SOL    HW1 1862   5.229   2.950   0.472
  321SOL    HW2 1863   5.105   2.938   0.578
  322SOL     OW 1864   3.127   2.642   6.746
  322SOL    HW1 1865   3.125   2.674   6.652
  322SOL    HW2 1866   3.124   2.720   6.809
  323SOL     OW 1867   1.729   3.861   2.909
  323SOL    HW1 1868   1.771   3.775   2.936
  323SOL    HW2 1869   1.765   3.889   2.820
  324SOL     OW 1870   0.418   0.117   2.825
  324SOL    HW1 1871   0.332   0.097   2.779
  324SOL    HW2 1872   0.484   0.044   2.806
  325SOL     OW 1873   0.189   4.090   0.644
  325SOL    HW1 1874   0.230   4.011   0.689
  325SOL    HW2 1875   0.121   4.059   0.578
  326SOL     OW 1876   0.574   6.199   6.807
  326SOL    HW1 1877   0.650   6.193   6.742
  326SOL    HW2 1878   0.593   6.268   6.876
  327SOL     OW 1879   4.648   5.248   4.942
  327SOL    HW1 1880   4.550   5.243   4.927
  327SOL    HW2 1881   4.666   5.272   5.037
  328SOL     OW 1882   1.410   4.938   3.453
  328SOL    HW1 1883   1.355   5.006   3.501
  328SOL    HW2 1884   1.400   4.951   3.354
  329SOL     OW 1885   2.956   3.131   1.593
  329SOL    HW1 1886   2.895   3.139   1.672
  329SOL    HW2 1887   3.004   3.043   1.598
  330SOL     OW 1888   3.234   3.475   0.656
  330SOL    HW1 1889   3.325   3.474   0.616
  330SOL    HW2 1890   3.179   3.547   0.612
  331SOL     OW 1891   5.420   4.947   4.944
  331SOL    HW1 1892   5.413   5.039   4.981
  331SOL    HW2 1893   5.499   4.900   4.985
  332SOL     OW 1894   5.404   2.463   2.668
  332SOL    HW1 1895   5.384   2.526   2.592
  332SOL    HW2 1896   5.494   2.422   2.654
  333SOL     OW 1897   3.667   0.321   4.446
  333SOL    HW1 1898   3.684   0.251   4.376
  333SOL    HW2 1899   3.600   0.387   4.411
  334SOL     OW 1900   3.752   3.730   3.358
  334SOL    HW1 1901   3.774   3.694   3.449
  334SOL    HW2 1902   3.784   3.825   3.351
  335SOL     OW 1903   4.203   1.481   0.947
  335SOL    HW1 1904   4.233   1.567   0.904
  335SOL    HW2 1905   4.190   1.411   0.877
  336SOL     OW 1906   3.217   1.849   4.601
  336SOL    HW1 1907   3.261   1.937   4.621
  336SOL    HW2 1908   3.248   1.817   4.511
  337SOL     OW 1909   0.392   0.843   5.235
  337SOL    HW1 1910   0.363   0.808   5.146
  337SOL    HW2 1911   0.391   0.768   5.302
  338SOL     OW 1912   4.567   1.573   1.099
  338SOL    HW1 1913   4.550   1.670   1.087
  338SOL    HW2 1914   4.483   1.522   1.081
  339SOL     OW 1915   3.851   5.244   6.138
  339SOL    HW1 1916   3.894   5.158   6.113
  339SOL    HW2 1917   3.883   5.272   6.228
  340SOL     OW 1918   5.389   2.225   4.014
  340SOL    HW1 1919   5.373   2.208   4.111
  340SOL    HW2 1920   5.409   2.321   3.999
  341SOL     OW 1921   6.900   6.379   3.112
  341SOL    HW1 1922   6.951   6.367   3.027
  341SOL    HW2 1923   6.922   6.467   3.153
  342SOL     OW 1924   4.570   1.845   2.296
  342SOL    HW1 1925   4.550   1.941   2.313
  342SOL    HW2 1926   4.506   1.810   2.227
  343SOL     OW 1927   6.871   6.794   2.244
  343SOL    HW1 1928   6.880   6.863   2.316
  343SOL    HW2 1929   6.785   6.807   2.195
  344SOL     OW 1930   0.350   2.550   1.049
  344SOL    HW1 1931   0.377   2.594   1.134
  344SOL    HW2 1932   0.270   2.493   1.065
  345SOL     OW 1933   6.487   2.442   4.518
  345SOL    HW1 1934   6.451   2.469   4.429
  345SOL    HW2 1935   6.438   2.490   4.590
  346SOL     OW 1936   2.304   6.518   3.926
  346SOL    HW1 1937   2.216   6.472   3.914
  346SOL    HW2 1938   2.305   6.564   4.015
  347SOL     OW 1939   2.196   4.555   0.475
  347SOL    HW1 1940   2.162   4.484   0.412
  347SOL    HW2 1941   2.176   4.528   0.569
  348SOL     OW 1942   3.897   5.418   1.391
  348SOL    HW1 1943   3.918   5.405   1.488
  348SOL    HW2 1944   3.957   5.487   1.352
  349SOL     OW 1945   5.799   4.144   1.182
  349SOL    HW1 1946   5.891   4.114   1.157
  349SOL    HW2 1947   5.760   4.199   1.108
  350SOL     OW 1948   3.458   2.379   0.154
  350SOL    HW1 1949   3.456   2.422   0.064
  350SOL    HW2 1950   3.387   2.420   0.212
  351SOL     OW 1951   3.387   4.397   1.101
  351SOL    HW1 1952   3.367   4.467   1.169
  351SOL    HW2 1953   3.485   4.375   1.102
  352SOL     OW 1954   4.561   0.590   2.501
  352SOL    HW1 1955   4.633   0.632   2.446
  352SOL    HW2 1956   4.522   0.512   2.451
  353SOL     OW 1957   1.529   0.423   0.028
  353SOL    HW1 1958   1.550   0.389   6.958
  353SOL    HW2 1959   1.610   0.415   0.086
  354SOL     OW 1960   0.295   2.346   0.476
  354SOL    HW1 1961   0.346   2.268   0.441
  354SOL    HW2 1962   0.357   2.423   0.492
  355SOL     OW 1963   0.625   2.493   3.064
  355SOL    HW1 1964   0.608   2.395   3.053
  355SOL    HW2 1965   0.669   2.510   3.152
  356SOL     OW 1966   1.950   0.984   5.608
  356SOL    HW1 1967   1.910   0.954   5.521
  356SOL    HW2 1968   1.943   0.911   5.675
  357SOL     OW 1969   5.345   6.712   4.789
  357SOL    HW1 1970   5.412   6.785   4.809
  357SOL    HW2 1971   5.287   6.698   4.869
  358SOL     OW 1972   3.194   5.869   6.485
  358SOL    HW1 1973   3.121   5.801   6.491
  358SOL    HW2 1974   3.232   5.869   6.393
  359SOL     OW 1975   1.497   2.114   2.660
  359SOL    HW1 1976   1.427   2.050   2.692
  359SOL    HW2 1977   1.536   2.081   2.574
  360SOL     OW 1978   1.141   4.480   4.268
  360SOL    HW1 1979   1.113   4.559   4.322
  360SOL    HW2 1980   1.196   4.511   4.190
  361SOL     OW 1981   6.411   1.654   2.434
  361SOL    HW1 1982   6.455   1.696   2.355
  361SOL    HW2 1983   6.479   1.607   2.490
  362SOL     OW 1984   3.916   3.692   0.992
  362SOL    HW1 1985   3.827   3.724   0.959
  362SOL    HW2 1986   3.909   3.669   1.089
  363SOL     OW 1987   5.462   5.530   1.806
  363SOL    HW1 1988   5.444   5.482   1.891
  363SOL    HW2 1989   5.376   5.551   1.760
  364SOL     OW 1990   0.904   6.808   6.628
  364SOL    HW1 1991   0.851   6.766   6.555
  364SOL    HW2 1992   0.973   6.868   6.589
  365SOL     OW 1993   5.268   1.246   3.571
  365SOL    HW1 1994   5.342   1.187   3.604
  365SOL    HW2 1995   5.240   1.309   3.643
  366SOL     OW 1996   5.723   1.653   6.483
  366SOL    HW1 1997   5.737   1.725   6.550
  366SOL    HW2 1998   5.679   1.690   6.402
  367SOL     OW 1999   5.940   1.519   6.409
  367SOL    HW1 2000   5.860   1.568   6.444
  367SOL    HW2 2001   5.953   1.434   6.460
  368SOL     OW 2002   0.490   2.449   5.599
  368SOL    HW1 2003   0.544   2.415   5.522
  368SOL    HW2 2004   0.550   2.466   5.677
  369SOL     OW 2005   6.850   3.843   1.512
  369SOL    HW1 2006   6.783   3.866   1.582
  369SOL    HW2 2007   6.861   3.743   1.508
  370SOL     OW 2008   1.425   2.924   3.981
  370SOL    HW1 2009   1.428   2.900   3.884
  370SOL    HW2 2010   1.377   3.012   3.991
  371SOL     OW 2011   0.523   4.768   6.737
  371SOL    HW1 2012   0.519   4.828   6.657
  371SOL    HW2 2013   0.523   4.823   6.820
  372SOL     OW 2014   3.764   6.317   5.989
  372SOL    HW1 2015   3.715   6.349   6.070
  372SOL    HW2 2016   3.728   6.364   5.908
  373SOL     OW 2017   6.111   5.169   3.371
  373SOL    HW1 2018   6.036   5.141   3.311
  373SOL    HW2 2019   6.098   5.129   3.462
  374SOL     OW 2020   2.651   0.781   2.721
  374SOL    HW1 2021   2.584   0.856   2.716
  374SOL    HW2 2022   2.689   0.777   2.813
  375SOL     OW 2023   1.206   5.248   4.637
  375SOL    HW1 2024   1.232   5.316   4.568
  375SOL    HW2 2025   1.188   5.294   4.724
  376SOL     OW 2026   3.101   0.955   3.561
  376SOL    HW1 2027   3.100   0.917   3.653
  376SOL    HW2 2028   3.092   1.055   3.566
  377SOL     OW 2029   1.560   1.741   6.995
  377SOL    HW1 2030   1.569   1.829   0.020
  377SOL    HW2 2031   1.605   1.670   0.027
  378SOL     OW 2032   4.402   1.676   2.158
  378SOL    HW1 2033   4.312   1.686   2.200
  378SOL    HW2 2034   4.393   1.662   2.060
  379SOL     OW 2035   5.245   1.719   5.989
  379SOL    HW1 2036   5.305   1.683   6.060
  379SOL    HW2 2037   5.160   1.667   5.988
  380SOL     OW 2038   4.211   2.655   6.924
  380SOL    HW1 2039   4.269   2.704   6.990
  380SOL    HW2 2040   4.132   2.617   6.971
  381SOL     OW 2041   1.737   3.970   3.184
  381SOL    HW1 2042   1.671   3.936   3.251
  381SOL    HW2 2043   1.719   3.929   3.095
  382SOL     OW 2044   4.920   0.835   6.424
  382SOL    HW1 2045   4.894   0.853   6.518
  382SOL    HW2 2046   4.838   0.821   6.369
  383SOL     OW 2047   5.299   2.007   0.739
  383SOL    HW1 2048   5.237   1.955   0.799
  383SOL    HW2 2049   5.245   2.060   0.674
  384SOL     OW 2050   6.005   3.784   4.878
  384SOL    HW1 2051   5.936   3.838   4.829
  384SOL    HW2 2052   6.072   3.844   4.921
  385SOL     OW 2053   4.639   3.332   0.139
  385SOL    HW1 2054   4.571   3.326   0.212
  385SOL    HW2 2055   4.649   3.244   0.094
  386SOL     OW 2056   4.032   6.046   4.053
  386SOL    HW1 2057   4.012   5.973   4.118
  386SOL    HW2 2058   4.092   6.113   4.095
  387SOL     OW 2059   2.993   6.772   3.896
  387SOL    HW1 2060   3.026   6.861   3.863
  387SOL    HW2 2061   2.941   6.726   3.824
  388SOL     OW 2062   1.384   4.570   6.672
  388SOL    HW1 2063   1.400   4.494   6.736
  388SOL    HW2 2064   1.315   4.542   6.605
  389SOL     OW 2065   2.920   3.473   2.526
  389SOL    HW1 2066   3.008   3.520   2.519
  389SOL    HW2 2067   2.913   3.405   2.453
  390SOL     OW 2068   2.363   1.513   3.863
  390SOL    HW1 2069   2.301   1.523   3.941
  390SOL    HW2 2070   2.310   1.491   3.781
  391SOL     OW 2071   0.591   2.701   6.365
  391SOL    HW1 2072   0.579   2.602   6.360
  391SOL    HW2 2073   0.504   2.745   6.341
  392SOL     OW 2074   2.910   5.464   3.368
  392SOL    HW1 2075   2.953   5.375   3.351
  392SOL    HW2 2076   2.966   5.516   3.432
  393SOL     OW 2077   5.985   4.338   5.284
  393SOL    HW1 2078   5.915   4.394   5.329
  393SOL    HW2 2079   6.018   4.385   5.203
  394SOL     OW 2080   2.486   0.329   6.749
  394SOL    HW1 2081   2.423   0.284   6.686
  394SOL    HW2 2082   2.530   0.406   6.703
  395SOL     OW 2083   6.495   3.531   1.070
  395SOL    HW1 2084   6.590   3.532   1.039
  395SOL    HW2 2085   6.450   3.448   1.039
  396SOL     OW 2086   3.524   3.154   4.532
  396SOL    HW1 2087   3.499   3.130   4.626
  396SOL    HW2 2088   3.587   3.231   4.532
  397SOL     OW 2089   4.046   2.127   6.413
  397SOL    HW1 2090   3.973   2.105   6.348
  397SOL    HW2 2091   4.101   2.202   6.377
  398SOL     OW 2092   1.388   4.761   2.446
  398SOL    HW1 2093   1.442   4.843   2.464
  398SOL    HW2 2094   1.366   4.755   2.349
  399SOL     OW 2095   5.357   5.110   2.307
  399SOL    HW1 2096   5.450   5.130   2.273
  399SOL    HW2 2097   5.363   5.063   2.395
  400SOL     OW 2098   1.526   5.253   5.062
  400SOL    HW1 2099   1.626   5.257   5.073
  400SOL    HW2 2100   1.502   5.175   5.004
  401SOL     OW 2101   5.525   1.450   6.483
  401SOL    HW1 2102   5.599   1.515   6.469
  401SOL    HW2 2103   5.535   1.408   6.573
  402SOL     OW 2104   5.929   4.918   1.494
  402SOL    HW1 2105   5.957   4.982   1.564
  402SOL    HW2 2106   5.830   4.905   1.497
  403SOL     OW 2107   5.644   3.727   6.522
  403SOL    HW1 2108   5.732   3.773   6.511
  403SOL    HW2 2109   5.636   3.690   6.614
  404SOL     OW 2110   0.350   6.881   4.573
  404SOL    HW1 2111   0.364   6.923   4.662
  404SOL    HW2 2112   0.302   6.945   4.513
  405SOL     OW 2113   0.944   2.364   0.631
  405SOL    HW1 2114   0.868   2.313   0.590
  405SOL    HW2 2115   1.030   2.318   0.611
  406SOL     OW 2116   1.262   3.254   3.417
  406SOL    HW1 2117   1.277   3.351   3.436
  406SOL    HW2 2118   1.339   3.219   3.364
  407SOL     OW 2119   2.565   1.048   3.742
  407SOL    HW1 2120   2.605   1.009   3.825
  407SOL    HW2 2121   2.614   1.132   3.718
  408SOL     OW 2122   1.704   0.152   3.106
  408SOL    HW1 2123   1.722   0.118   3.198
  408SOL    HW2 2124   1.605   0.154   3.090
  409SOL     OW 2125   6.059   3.400   3.695
  409SOL    HW1 2126   6.047   3.312   3.648
  409SOL    HW2 2127   6.051   3.474   3.628
  410SOL     OW 2128   2.973   1.305   6.415
  410SOL    HW1 2129   2.993   1.358   6.497
  410SOL    HW2 2130   2.885   1.333   6.377
  411SOL     OW 2131   6.475   3.981   4.925
  411SOL    HW1 2132   6.515   3.971   5.016
  411SOL    HW2 2133   6.475   3.893   4.878
  412SOL     OW 2134   3.552   0.031   2.364
  412SOL    HW1 2135   3.524   6.966   2.405
  412SOL    HW2 2136   3.651   0.031   2.351
  413SOL     OW 2137   2.169   0.308   1.017
  413SOL    HW1 2138   2.178   0.255   1.102
  413SOL    HW2 2139   2.259   0.321   0.976
  414SOL     OW 2140   4.341   3.852   0.275
  414SOL    HW1 2141   4.278   3.774   0.277
  414SOL    HW2 2142   4.394   3.854   0.360
  415SOL     OW 2143   3.052   6.614   1.957
  415SOL    HW1 2144   2.972   6.669   1.981
  415SOL    HW2 2145   3.077   6.630   1.862
  416SOL     OW 2146   3.972   5.703   5.528
  416SOL    HW1 2147   4.068   5.676   5.521
  416SOL    HW2 2148   3.965   5.801   5.546
  417SOL     OW 2149   4.646   6.361   1.066
  417SOL    HW1 2150   4.601   6.281   1.026
  417SOL    HW2 2151   4.591   6.443   1.049
  418SOL     OW 2152   5.755   4.591   0.936
  418SOL    HW1 2153   5.699   4.649   0.995
  418SOL    HW2 2154   5.836   4.642   0.907
  419SOL     OW 2155   6.403   6.422   1.106
  419SOL    HW1 2156   6.474   6.471   1.156
  419SOL    HW2 2157   6.403   6.326   1.134
  420SOL     OW 2158   4.167   3.961   0.096
  420SOL    HW1 2159   4.198   3.927   0.185
  420SOL    HW2 2160   4.214   3.910   0.024
  421SOL     OW 2161   1.882   6.172   6.379
  421SOL    HW1 2162   1.947   6.189   6.304
  421SOL    HW2 2163   1.921   6.203   6.465
  422SOL     OW 2164   5.856   3.362   6.982
  422SOL    HW1 2165   5.801   3.392   0.038
  422SOL    HW2 2166   5.878   3.265   6.992
  423SOL     OW 2167   0.774   2.646   6.709
  423SOL    HW1 2168   0.828   2.722   6.674
  423SOL    HW2 2169   0.835   2.571   6.734
  424SOL     OW 2170   2.215   3.728   0.043
  424SOL    HW1 2171   2.163   3.669   0.105
  424SOL    HW2 2172   2.310   3.697   0.040
  425SOL     OW 2173   2.953   1.049   0.545
  425SOL    HW1 2174   2.931   0.963   0.499
  425SOL    HW2 2175   2.877   1.113   0.533
  426SOL     OW 2176   5.743   4.032   5.330
  426SOL    HW1 2177   5.749   4.002   5.235
  426SOL    HW2 2178   5.671   3.980   5.377
  427SOL     OW 2179   5.205   3.901   0.885
  427SOL    HW1 2180   5.215   3.806   0.915
  427SOL    HW2 2181   5.190   3.959   0.965
  428SOL     OW 2182   3.787   0.863   4.703
  428SOL    HW1 2183   3.757   0.913   4.785
  428SOL    HW2 2184   3.734   0.894   4.624
  429SOL     OW 2185   1.855   4.941   6.351
  429SOL    HW1 2186   1.866   4.856   6.402
  429SOL    HW2 2187   1.884   5.018   6.408
  430SOL     OW 2188   1.296   6.590   5.162
  430SOL    HW1 2189   1.228   6.652   5.200
  430SOL    HW2 2190   1.350   6.551   5.237
  431SOL     OW 2191   3.732   1.767   0.550
  431SOL    HW1 2192   3.730   1.865   0.570
  431SOL    HW2 2193   3.751   1.716   0.634
  432SOL     OW 2194   0.291   2.191   1.203
  432SOL    HW1 2195   0.361   2.136   1.156
  432SOL    HW2 2196   0.330   2.280   1.228
  433SOL     OW 2197   3.561   6.290   5.110
  433SOL    HW1 2198   3.601   6.203   5.139
  433SOL    HW2 2199   3.517   6.278   5.021
  434SOL     OW 2200   0.324   3.559   1.426
  434SOL    HW1 2201   0.385   3.604   1.491
  434SOL    HW2 2202   0.371   3.548   1.339
  435SOL     OW 2203   3.748   4.073   0.590
  435SOL    HW1 2204   3.840   4.057   0.554
  435SOL    HW2 2205   3.685   4.090   0.513
  436SOL     OW 2206   2.433   1.197   6.725
  436SOL    HW1 2207   2.479   1.158   6.645
  436SOL    HW2 2208   2.399   1.288   6.702
  437SOL     OW 2209   6.898   0.082   6.929
  437SOL    HW1 2210   6.869   0.097   0.002
  437SOL    HW2 2211   6.885   7.007   6.905
  438SOL     OW 2212   1.711   2.727   1.890
  438SOL    HW1 2213   1.774   2.804   1.883
  438SOL    HW2 2214   1.712   2.692   1.984
  439SOL     OW 2215   0.113   5.227   2.968
  439SOL    HW1 2216   0.186   5.258   3.028
  439SOL    HW2 2217   0.074   5.142   3.004
  440SOL     OW 2218   0.861   3.095   3.991
  440SOL    HW1 2219   0.769   3.077   3.957
  440SOL    HW2 2220   0.905   3.009   4.018
  441SOL     OW 2221   0.486   1.240   3.610
  441SOL    HW1 2222   0.437   1.167   3.658
  441SOL    HW2 2223   0.506   1.211   3.517
  442SOL     OW 2224   6.897   4.193   0.216
  442SOL    HW1 2225   6.864   4.275   0.168
  442SOL    HW2 2226   6.997   4.196   0.222
  443SOL     OW 2227   0.266   4.490   5.617
  443SOL    HW1 2228   0.193   4.455   5.676
  443SOL    HW2 2229   0.320   4.414   5.582
  444SOL     OW 2230   4.316   3.339   6.127
  444SOL    HW1 2231   4.333   3.243   6.104
  444SOL    HW2 2232   4.244   3.344   6.197
  445SOL     OW 2233   2.161   4.853   3.007
  445SOL    HW1 2234   2.144   4.756   3.025
  445SOL    HW2 2235   2.122   4.908   3.082
  446SOL     OW 2236   4.728   4.611   3.816
  446SOL    HW1 2237   4.684   4.621   3.727
  446SOL    HW2 2238   4.690   4.532   3.864
  447SOL     OW 2239   6.459   5.732   0.526
  447SOL    HW1 2240   6.365   5.766   0.525
  447SOL    HW2 2241   6.459   5.633   0.508
  448SOL     OW 2242   4.602   0.172   5.609
  448SOL    HW1 2243   4.623   0.075   5.604
  448SOL    HW2 2244   4.686   0.223   5.628
  449SOL     OW 2245   5.694   0.295   4.604
  449SOL    HW1 2246   5.677   0.197   4.594
  449SOL    HW2 2247   5.624   0.334   4.664
  450SOL     OW 2248   6.822   6.131   3.828
  450SOL    HW1 2249   6.733   6.097   3.796
  450SOL    HW2 2250   6.819   6.230   3.836
  451SOL     OW 2251   0.399   2.722   3.250
  451SOL    HW1 2252   0.337   2.729   3.328
  451SOL    HW2 2253   0.485   2.680   3.280
  452SOL     OW 2254   0.226   4.914   6.503
  452SOL    HW1 2255   0.199   4.992   6.446
  452SOL    HW2 2256   0.275   4.948   6.584
  453SOL     OW 2257   2.483   0.974   5.943
  453SOL    HW1 2258   2.415   0.939   5.878
  453SOL    HW2 2259   2.537   0.898   5.979
  454SOL     OW 2260   0.778   6.250   0.225
  454SOL    HW1 2261   0.865   6.255   0.273
  454SOL    HW2 2262   0.766   6.159   0.186
  455SOL     OW 2263   5.519   0.927   5.866
  455SOL    HW1 2264   5.610   0.903   5.832
  455SOL    HW2 2265   5.454   0.855   5.841
  456SOL     OW 2266   4.333   5.530   6.301
  456SOL    HW1 2267   4.326   5.590   6.222
  456SOL    HW2 2268   4.291   5.442   6.280
  457SOL     OW 2269   2.066   5.045   2.839
  457SOL    HW1 2270   2.090   5.013   2.748
  457SOL    HW2 2271   2.102   4.983   2.908
  458SOL     OW 2272   6.696   5.550   6.055
  458SOL    HW1 2273   6.624   5.539   6.123
  458SOL    HW2 2274   6.655   5.566   5.965
  459SOL     OW 2275   1.613   0.504   2.834
  459SOL    HW1 2276   1.543   0.441   2.801
  459SOL    HW2 2277   1.646   0.473   2.924
  460SOL     OW 2278   6.163   2.184   3.319
  460SOL    HW1 2279   6.107   2.233   3.253
  460SOL    HW2 2280   6.214   2.249   3.376
  461SOL     OW 2281   4.900   6.409   5.486
  461SOL    HW1 2282   4.940   6.499   5.502
  461SOL    HW2 2283   4.835   6.415   5.410
  462SOL     OW 2284   3.011   3.142   6.440
  462SOL    HW1 2285   2.969   3.220   6.393
  462SOL    HW2 2286   3.014   3.064   6.378
  463SOL     OW 2287   6.396   5.243   2.194
  463SOL    HW1 2288   6.369   5.305   2.268
  463SOL    HW2 2289   6.457   5.173   2.231
  464SOL     OW 2290   2.276   1.327   5.487
  464SOL    HW1 2291   2.224   1.340   5.403
  464SOL    HW2 2292   2.345   1.256   5.474
  465SOL     OW 2293   6.647   2.697   4.368
  465SOL    HW1 2294   6.607   2.775   4.415
  465SOL    HW2 2295   6.577   2.650   4.315
  466SOL     OW 2296   1.387   0.020   3.586
  466SOL    HW1 2297   1.419   6.957   3.628
  466SOL    HW2 2298   1.288   0.015   3.572
  467SOL     OW 2299   1.669   0.410   5.202
  467SOL    HW1 2300   1.681   0.451   5.112
  467SOL    HW2 2301   1.682   0.479   5.273
  468SOL     OW 2302   3.611   4.713   1.271
  468SOL    HW1 2303   3.622   4.737   1.174
  468SOL    HW2 2304   3.617   4.614   1.282
  469SOL     OW 2305   2.239   5.786   6.966
  469SOL    HW1 2306   2.285   5.706   6.927
  469SOL    HW2 2307   2.218   5.768   0.041
  470SOL     OW 2308   3.823   0.087   2.326
  470SOL    HW1 2309   3.876   0.148   2.268
  470SOL    HW2 2310   3.863   7.017   2.324
  471SOL     OW 2311   2.272   2.241   4.999
  471SOL    HW1 2312   2.214   2.193   4.933
  471SOL    HW2 2313   2.368   2.230   4.973
  472SOL     OW 2314   3.898   4.707   5.822
  472SOL    HW1 2315   3.845   4.785   5.856
  472SOL    HW2 2316   3.962   4.739   5.752
  473SOL     OW 2317   1.060   3.695   2.730
  473SOL    HW1 2318   1.063   3.666   2.826
  473SOL    HW2 2319   0.967   3.684   2.695
  474SOL     OW 2320   4.075   5.220   4.376
  474SOL    HW1 2321   4.004   5.210   4.306
  474SOL    HW2 2322   4.059   5.303   4.428
  475SOL     OW 2323   0.434   6.669   6.212
  475SOL    HW1 2324   0.448   6.730   6.290
  475SOL    HW2 2325   0.336   6.657   6.196
  476SOL     OW 2326   0.102   4.444   2.528
  476SOL    HW1 2327   0.064   4.466   2.618
  476SOL    HW2 2328   0.180   4.382   2.539
  477SOL     OW 2329   2.016   5.481   3.845
  477SOL    HW1 2330   2.005   5.385   3.872
  477SOL    HW2 2331   1.969   5.539   3.911
  478SOL     OW 2332   2.672   5.040   3.618
  478SOL    HW1 2333   2.580   5.042   3.657
  478SOL    HW2 2334   2.696   4.946   3.595
  479SOL     OW 2335   3.698   2.274   0.506
  479SOL    HW1 2336   3.784   2.317   0.478
  479SOL    HW2 2337   3.652   2.331   0.574
  480SOL     OW 2338   0.932   6.986   2.645
  480SOL    HW1 2339   0.993   6.907   2.652
  480SOL    HW2 2340   0.913   7.006   2.549
  481SOL     OW 2341   4.127   0.021   0.992
  481SOL    HW1 2342   4.063   7.007   1.060
  481SOL    HW2 2343   4.213   6.991   0.997
  482SOL     OW 2344   5.298   4.186   1.995
  482SOL    HW1 2345   5.242   4.120   1.945
  482SOL    HW2 2346   5.257   4.205   2.084
  483SOL     OW 2347   5.538   1.785   1.634
  483SOL    HW1 2348   5.447   1.763   1.599
  483SOL    HW2 2349   5.598   1.705   1.621
  484SOL     OW 2350   6.892   2.187   4.391
  484SOL    HW1 2351   6.881   2.286   4.389
  484SOL    HW2 2352   6.802   2.144   4.389
  485SOL     OW 2353   3.716   4.867   2.185
  485SOL    HW1 2354   3.712   4.829   2.092
  485SOL    HW2 2355   3.699   4.965   2.182
  486SOL     OW 2356   0.566   0.689   0.637
  486SOL    HW1 2357   0.645   0.628   0.643
  486SOL    HW2 2358   0.596   0.779   0.606
  487SOL     OW 2359   0.176   2.269   6.835
  487SOL    HW1 2360   0.214   2.351   6.793
  487SOL    HW2 2361   0.251   2.213   6.872
  488SOL     OW 2362   0.058   2.184   2.474
  488SOL    HW1 2363   6.999   2.224   2.429
  488SOL    HW2 2364   0.112   2.258   2.515
  489SOL     OW 2365   3.447   5.611   6.672
  489SOL    HW1 2366   3.504   5.541   6.715
  489SOL    HW2 2367   3.504   5.673   6.619
  490SOL     OW 2368   5.743   6.503   4.652
  490SOL    HW1 2369   5.750   6.511   4.751
  490SOL    HW2 2370   5.758   6.407   4.626
  491SOL     OW 2371   0.320   2.760   2.627
  491SOL    HW1 2372   0.322   2.712   2.539
  491SOL    HW2 2373   0.231   2.805   2.639
  492SOL     OW 2374   2.175   0.365   5.513
  492SOL    HW1 2375   2.224   0.352   5.599
  492SOL    HW2 2376   2.145   0.276   5.478
  493SOL     OW 2377   6.594   4.471   5.151
  493SOL    HW1 2378   6.549   4.560   5.145
  493SOL    HW2 2379   6.618   4.439   5.059
  494SOL     OW 2380   6.797   0.392   0.941
  494SOL    HW1 2381   6.812   0.476   0.992
  494SOL    HW2 2382   6.737   0.410   0.862
  495SOL     OW 2383   4.960   4.762   1.513
  495SOL    HW1 2384   4.943   4.665   1.496
  495SOL    HW2 2385   5.008   4.773   1.600
  496SOL     OW 2386   6.028   3.297   3.205
  496SOL    HW1 2387   6.073   3.234   3.267
  496SOL    HW2 2388   5.928   3.289   3.214
  497SOL     OW 2389   3.750   0.626   4.847
  497SOL    HW1 2390   3.838   0.604   4.891
  497SOL    HW2 2391   3.762   0.705   4.787
  498SOL     OW 2392   0.814   2.962   2.610
  498SOL    HW1 2393   0.733   2.928   2.657
  498SOL    HW2 2394   0.892   2.902   2.630
  499SOL     OW 2395   3.414   0.957   4.941
  499SOL    HW1 2396   3.341   0.890   4.940
  499SOL    HW2 2397   3.375   1.049   4.947
  500SOL     OW 2398   0.850   3.685   2.520
  500SOL    HW1 2399   0.786   3.717   2.589
  500SOL    HW2 2400   0.912   3.760   2.495
  501SOL     OW 2401   1.250   3.422   6.875
  501SOL    HW1 2402   1.167   3.366   6.877
  501SOL    HW2 2403   1.224   3.519   6.879
  502SOL     OW 2404   3.739   5.107   7.017
  502SOL    HW1 2405   3.821   5.062   6.983
  502SOL    HW2 2406   3.674   5.119   6.942
  503SOL     OW 2407   5.724   5.200   5.469
  503SOL    HW1 2408   5.823   5.190   5.457
  503SOL    HW2 2409   5.705   5.283   5.521
  504SOL     OW 2410   2.168   6.163   4.537
  504SOL    HW1 2411   2.215   6.115   4.464
  504SOL    HW2 2412   2.234   6.215   4.591
  505SOL     OW 2413   4.128   0.196   5.922
  505SOL    HW1 2414   4.029   0.189   5.911
  505SOL    HW2 2415   4.155   0.158   6.010
  506SOL     OW 2416   2.184   4.049   6.227
  506SOL    HW1 2417   2.183   4.058   6.326
  506SOL    HW2 2418   2.093   4.025   6.194
  507SOL     OW 2419   3.276   1.423   4.155
  507SOL    HW1 2420   3.249   1.520   4.152
  507SOL    HW2 2421   3.375   1.416   4.147
  508SOL     OW 2422   6.709   3.953   3.809
  508SOL    HW1 2423   6.649   3.969   3.730
  508SOL    HW2 2424   6.736   3.857   3.810
  509SOL     OW 2425   4.851   1.674   1.549
  509SOL    HW1 2426   4.766   1.717   1.579
  509SOL    HW2 2427   4.830   1.596   1.490
  510SOL     OW 2428   0.353   4.205   4.577
  510SOL    HW1 2429   0.434   4.175   4.527
  510SOL    HW2 2430   0.311   4.127   4.623
  511SOL     OW 2431   0.479   0.096   0.844
  511SOL    HW1 2432   0.577   0.111   0.843
  511SOL    HW2 2433   0.451   0.052   0.758
  512SOL     OW 2434   0.673   3.469   6.091
  512SOL    HW1 2435   0.706   3.515   6.173
  512SOL    HW2 2436   0.641   3.377   6.115
  513SOL     OW 2437   6.158   6.190   5.039
  513SOL    HW1 2438   6.205   6.112   4.998
  513SOL    HW2 2439   6.210   6.273   5.024
  514SOL     OW 2440   5.688   1.662   3.798
  514SOL    HW1 2441   5.657   1.714   3.878
  514SOL    HW2 2442   5.672   1.716   3.715
  515SOL     OW 2443   2.025   6.260   6.602
  515SOL    HW1 2444   2.114   6.305   6.597
  515SOL    HW2 2445   1.993   6.259   6.697
  516SOL     OW 2446   2.136   5.090   2.065
  516SOL    HW1 2447   2.145   4.991   2.072
  516SOL    HW2 2448   2.199   5.124   1.995
  517SOL     OW 2449   4.650   0.104   0.677
  517SOL    HW1 2450   4.611   0.184   0.630
  517SOL    HW2 2451   4.701   0.135   0.757
  518SOL     OW 2452   2.849   2.558   1.228
  518SOL    HW1 2453   2.890   2.468   1.239
  518SOL    HW2 2454   2.778   2.554   1.158
  519SOL     OW 2455   0.813   6.526   0.045
  519SOL    HW1 2456   0.743   6.456   0.038
  519SOL    HW2 2457   0.856   6.522   0.136
  520SOL     OW 2458   5.494   4.775   5.512
  520SOL    HW1 2459   5.483   4.804   5.608
  520SOL    HW2 2460   5.591   4.761   5.493
  521SOL     OW 2461   6.663   1.545   0.635
  521SOL    HW1 2462   6.752   1.548   0.681
  521SOL    HW2 2463   6.663   1.470   0.569
  522SOL     OW 2464   3.903   3.353   4.432
  522SOL    HW1 2465   3.809   3.332   4.460
  522SOL    HW2 2466   3.946   3.270   4.398
  523SOL     OW 2467   6.792   6.916   4.642
  523SOL    HW1 2468   6.711   6.958   4.601
  523SOL    HW2 2469   6.770   6.823   4.671
  524SOL     OW 2470   2.670   0.497   5.447
  524SOL    HW1 2471   2.573   0.521   5.443
  524SOL    HW2 2472   2.725   0.579   5.434
  525SOL     OW 2473   2.547   3.331   6.677
  525SOL    HW1 2474   2.537   3.372   6.587
  525SOL    HW2 2475   2.603   3.248   6.669
  526SOL     OW 2476   3.353   5.780   4.684
  526SOL    HW1 2477   3.448   5.756   4.667
  526SOL    HW2 2478   3.348   5.844   4.761
  527SOL     OW 2479   0.616   1.214   6.489
  527SOL    HW1 2480   0.619   1.119   6.456
  527SOL    HW2 2481   0.618   1.214   6.589
  528SOL     OW 2482   2.421   1.024   5.195
  528SOL    HW1 2483   2.442   1.093   5.264
  528SOL    HW2 2484   2.504   0.974   5.172
  529SOL     OW 2485   0.165   5.205   3.864
  529SOL    HW1 2486   0.235   5.246   3.805
  529SOL    HW2 2487   0.206   5.130   3.917
  530SOL     OW 2488   2.279   3.121   5.330
  530SOL    HW1 2489   2.216   3.095   5.257
  530SOL    HW2 2490   2.373   3.102   5.300
  531SOL     OW 2491   0.419   0.582   1.089
  531SOL    HW1 2492   0.512   0.594   1.054
  531SOL    HW2 2493   0.359   0.556   1.014
  532SOL     OW 2494   1.460   1.086   5.640
  532SOL    HW1 2495   1.366   1.109   5.664
  532SOL    HW2 2496   1.483   0.997   5.678
  533SOL     OW 2497   5.966   0.151   4.512
  533SOL    HW1 2498   5.906   0.079   4.545
  533SOL    HW2 2499   5.986   0.215   4.586
  534SOL     OW 2500   4.258   5.415   2.224
  534SOL    HW1 2501   4.276   5.450   2.132
  534SOL    HW2 2502   4.314   5.465   2.290
  535SOL     OW 2503   0.369   3.719   3.534
  535SOL    HW1 2504   0.353   3.637   3.479
  535SOL    HW2 2505   0.290   3.780   3.527
  536SOL     OW 2506   1.261   5.597   1.338
  536SOL    HW1 2507   1.246   5.578   1.241
  536SOL    HW2 2508   1.197   5.543   1.393
  537SOL     OW 2509   2.282   6.933   2.161
  537SOL    HW1 2510   2.342   6.994   2.213
  537SOL    HW2 2511   2.201   6.912   2.215
  538SOL     OW 2512   1.057   6.088   3.533
  538SOL    HW1 2513   1.066   6.061   3.437
  538SOL    HW2 2514   1.069   6.187   3.542
  539SOL     OW 2515   1.821   4.652   1.743
  539SOL    HW1 2516   1.759   4.663   1.666
  539SOL    HW2 2517   1.853   4.558   1.747
  540SOL     OW 2518   1.131   2.037   2.242
  540SOL    HW1 2519   1.187   2.118   2.222
  540SOL    HW2 2520   1.100   2.041   2.337
  541SOL     OW 2521   3.011   5.605   5.744
  541SOL    HW1 2522   3.077   5.672   5.713
  541SOL    HW2 2523   3.004   5.531   5.678
  542SOL     OW 2524   6.143   5.394   6.655
  542SOL    HW1 2525   6.133   5.492   6.670
  542SOL    HW2 2526   6.059   5.358   6.614
  543SOL     OW 2527   0.536   5.552   0.114
  543SOL    HW1 2528   0.606   5.521   0.179
  543SOL    HW2 2529   0.553   5.511   0.024
  544SOL     OW 2530   1.339   5.111   0.941
  544SOL    HW1 2531   1.380   5.023   0.918
  544SOL    HW2 2532   1.248   5.097   0.980
  545SOL     OW 2533   3.950   1.848   3.402
  545SOL    HW1 2534   4.034   1.877   3.448
  545SOL    HW2 2535   3.902   1.929   3.366
  546SOL     OW 2536   1.071   3.834   0.073
  546SOL    HW1 2537   1.130   3.840   7.015
  546SOL    HW2 2538   1.070   3.740   0.107
  547SOL     OW 2539   3.005   3.005   0.106
  547SOL    HW1 2540   2.948   2.923   0.117
  547SOL    HW2 2541   2.961   3.082   0.151
  548SOL     OW 2542   3.718   2.902   3.715
  548SOL    HW1 2543   3.662   2.983   3.736
  548SOL    HW2 2544   3.660   2.831   3.675
  549SOL     OW 2545   6.680   3.368   1.604
  549SOL    HW1 2546   6.665   3.385   1.507
  549SOL    HW2 2547   6.617   3.424   1.658
  550SOL     OW 2548   0.640   4.127   2.107
  550SOL    HW1 2549   0.711   4.188   2.073
  550SOL    HW2 2550   0.551   4.156   2.071
  551SOL     OW 2551   6.742   2.343   0.205
  551SOL    HW1 2552   6.670   2.358   0.273
  551SOL    HW2 2553   6.704   2.300   0.124
  552SOL     OW 2554   4.134   5.920   0.170
  552SOL    HW1 2555   4.233   5.920   0.186
  552SOL    HW2 2556   4.108   5.838   0.120
  553SOL     OW 2557   1.706   1.780   1.791
  553SOL    HW1 2558   1.730   1.735   1.705
  553SOL    HW2 2559   1.784   1.831   1.825
  554SOL     OW 2560   5.415   6.074   5.511
  554SOL    HW1 2561   5.429   6.152   5.450
  554SOL    HW2 2562   5.504   6.044   5.546
  555SOL     OW 2563   1.612   4.561   4.779
  555SOL    HW1 2564   1.595   4.509   4.695
  555SOL    HW2 2565   1.697   4.529   4.821
  556SOL     OW 2566   4.930   3.291   3.876
  556SOL    HW1 2567   4.854   3.324   3.932
  556SOL    HW2 2568   5.015   3.334   3.906
  557SOL     OW 2569   0.258   6.315   6.099
  557SOL    HW1 2570   0.167   6.355   6.095
  557SOL    HW2 2571   0.304   6.328   6.011
  558SOL     OW 2572   3.737   4.125   5.100
  558SOL    HW1 2573   3.823   4.154   5.143
  558SOL    HW2 2574   3.661   4.141   5.162
  559SOL     OW 2575   6.356   5.913   6.401
  559SOL    HW1 2576   6.439   5.939   6.353
  559SOL    HW2 2577   6.378   5.848   6.474
  560SOL     OW 2578   4.182   6.563   0.372
  560SOL    HW1 2579   4.163   6.660   0.359
  560SOL    HW2 2580   4.140   6.511   0.298
  561SOL     OW 2581   5.519   6.674   0.886
  561SOL    HW1 2582   5.508   6.575   0.894
  561SOL    HW2 2583   5.455   6.720   0.947
  562SOL     OW 2584   6.015   1.859   5.475
  562SOL    HW1 2585   6.065   1.893   5.395
  562SOL    HW2 2586   6.077   1.850   5.552
  563SOL     OW 2587   3.018   6.389   3.867
  563SOL    HW1 2588   2.966   6.313   3.905
  563SOL    HW2 2589   2.991   6.404   3.772
  564SOL     OW 2590   1.201   0.781   6.259
  564SOL    HW1 2591   1.152   0.854   6.306
  564SOL    HW2 2592   1.279   0.752   6.314
  565SOL     OW 2593   4.893   3.919   4.875
  565SOL    HW1 2594   4.992   3.914   4.891
  565SOL    HW2 2595   4.876   3.973   4.793
  566SOL     OW 2596   5.110   5.051   2.967
  566SOL    HW1 2597   5.022   5.093   2.947
  566SOL    HW2 2598   5.101   4.951   2.967
  567SOL     OW 2599   3.661   2.894   4.411
  567SOL    HW1 2600   3.582   2.852   4.366
  567SOL    HW2 2601   3.630   2.968   4.471
  568SOL     OW 2602   2.111   1.752   0.214
  568SOL    HW1 2603   2.167   1.801   0.281
  568SOL    HW2 2604   2.015   1.756   0.242
  569SOL     OW 2605   2.374   2.717   0.435
  569SOL    HW1 2606   2.385   2.632   0.487
  569SOL    HW2 2607   2.278   2.732   0.415
  570SOL     OW 2608   6.589   6.030   1.131
  570SOL    HW1 2609   6.538   6.033   1.216
  570SOL    HW2 2610   6.685   6.054   1.148
  571SOL     OW 2611   4.212   5.317   3.345
  571SOL    HW1 2612   4.112   5.319   3.353
  571SOL    HW2 2613   4.247   5.410   3.338
  572SOL     OW 2614   1.663   3.878   4.869
  572SOL    HW1 2615   1.697   3.805   4.929
  572SOL    HW2 2616   1.585   3.844   4.817
  573SOL     OW 2617   3.834   2.003   6.281
  573SOL    HW1 2618   3.791   1.925   6.235
  573SOL    HW2 2619   3.764   2.071   6.302
  574SOL     OW 2620   2.477   1.682   4.182
  574SOL    HW1 2621   2.462   1.766   4.234
  574SOL    HW2 2622   2.424   1.608   4.223
  575SOL     OW 2623   5.568   2.440   6.886
  575SOL    HW1 2624   5.531   2.521   6.933
  575SOL    HW2 2625   5.502   2.409   6.818
  576SOL     OW 2626   0.537   2.078   2.633
  576SOL    HW1 2627   0.470   2.037   2.695
  576SOL    HW2 2628   0.578   2.007   2.576
  577SOL     OW 2629   3.140   1.873   3.598
  577SOL    HW1 2630   3.120   1.970   3.616
  577SOL    HW2 2631   3.145   1.858   3.499
  578SOL     OW 2632   0.010   3.435   4.002
  578SOL    HW1 2633   0.047   3.343   4.012
  578SOL    HW2 2634   0.020   3.484   4.089
  579SOL     OW 2635   4.470   3.159   6.983
  579SOL    HW1 2636   4.562   3.124   7.003
  579SOL    HW2 2637   4.411   3.141   0.040
  580SOL     OW 2638   0.774   5.819   0.316
  580SOL    HW1 2639   0.869   5.848   0.302
  580SOL    HW2 2640   0.713   5.892   0.287
  581SOL     OW 2641   3.810   3.747   2.861
  581SOL    HW1 2642   3.825   3.744   2.960
  581SOL    HW2 2643   3.861   3.674   2.817
  582SOL     OW 2644   6.113   3.685   2.017
  582SOL    HW1 2645   6.028   3.738   2.010
  582SOL    HW2 2646   6.191   3.748   2.017
  583SOL     OW 2647   1.848   5.005   6.890
  583SOL    HW1 2648   1.764   5.023   6.840
  583SOL    HW2 2649   1.866   5.080   6.954
  584SOL     OW 2650   0.256   5.476   4.400
  584SOL    HW1 2651   0.312   5.500   4.479
  584SOL    HW2 2652   0.165   5.450   4.431
  585SOL     OW 2653   0.138   1.401   6.626
  585SOL    HW1 2654   0.131   1.389   6.725
  585SOL    HW2 2655   0.233   1.416   6.600
  586SOL     OW 2656   2.546   6.501   0.641
  586SOL    HW1 2657   2.598   6.491   0.725
  586SOL    HW2 2658   2.604   6.542   0.570
  587SOL     OW 2659   1.090   3.040   5.132
  587SOL    HW1 2660   0.992   3.057   5.121
  587SOL    HW2 2661   1.137   3.127   5.143
  588SOL     OW 2662   3.242   0.031   1.548
  588SOL    HW1 2663   3.301   0.076   1.615
  588SOL    HW2 2664   3.190   6.980   1.592
  589SOL     OW 2665   4.793   5.045   2.524
  589SOL    HW1 2666   4.890   5.023   2.530
  589SOL    HW2 2667   4.782   5.140   2.494
  590SOL     OW 2668   6.778   2.181   1.991
  590SOL    HW1 2669   6.775   2.261   2.050
  590SOL    HW2 2670   6.807   2.101   2.044
  591SOL     OW 2671   3.379   6.644   3.053
  591SOL    HW1 2672   3.450   6.628   3.122
  591SOL    HW2 2673   3.330   6.558   3.036
  592SOL     OW 2674   5.399   1.058   0.082
  592SOL    HW1 2675   5.489   1.079   0.044
  592SOL    HW2 2676   5.389   1.102   0.171
  593SOL     OW 2677   5.347   1.589   3.805
  593SOL    HW1 2678   5.365   1.671   3.858
  593SOL    HW2 2679   5.388   1.598   3.714
  594SOL     OW 2680   4.842   2.737   1.098
  594SOL    HW1 2681   4.819   2.830   1.126
  594SOL    HW2 2682   4.910   2.699   1.161
  595SOL     OW 2683   3.240   6.562   3.917
  595SOL    HW1 2684   3.165   6.508   3.879
  595SOL    HW2 2685   3.235   6.655   3.882
  596SOL     OW 2686   1.174   4.744   3.031
  596SOL    HW1 2687   1.101   4.765   2.966
  596SOL    HW2 2688   1.261   4.776   2.994
  597SOL     OW 2689   4.034   2.033   5.580
  597SOL    HW1 2690   3.949   2.001   5.623
  597SOL    HW2 2691   4.086   1.953   5.548
  598SOL     OW 2692   3.246   4.125   0.924
  598SOL    HW1 2693   3.166   4.098   0.870
  598SOL    HW2 2694   3.245   4.077   1.012
  599SOL     OW 2695   6.653   6.267   2.534
  599SOL    HW1 2696   6.701   6.193   2.580
  599SOL    HW2 2697   6.711   6.304   2.461
  600SOL     OW 2698   2.541   0.505   0.457
  600SOL    HW1 2699   2.601   0.469   0.529
  600SOL    HW2 2700   2.488   0.582   0.493
  601SOL     OW 2701   2.676   5.119   3.240
  601SOL    HW1 2702   2.632   5.040   3.283
  601SOL    HW2 2703   2.753   5.149   3.297
  602SOL     OW 2704   1.396   1.030   1.383
  602SOL    HW1 2705   1.459   0.991   1.450
  602SOL    HW2 2706   1.383   0.966   1.307
  603SOL     OW 2707   3.995   2.204   3.422
  603SOL    HW1 2708   3.948   2.174   3.505
  603SOL    HW2 2709   3.964   2.150   3.344
  604SOL     OW 2710   0.405   4.179   5.619
  604SOL    HW1 2711   0.490   4.217   5.582
  604SOL    HW2 2712   0.344   4.154   5.544
  605SOL     OW 2713   5.704   0.782   4.651
  605SOL    HW1 2714   5.792   0.760   4.609
  605SOL    HW2 2715   5.636   0.800   4.580
  606SOL     OW 2716   3.445   0.126   3.255
  606SOL    HW1 2717   3.431   0.063   3.178
  606SOL    HW2 2718   3.530   0.176   3.243
  607SOL     OW 2719   4.827   0.987   4.045
  607SOL    HW1 2720   4.833   0.947   3.954
  607SOL    HW2 2721   4.883   0.934   4.109
  608SOL     OW 2722   4.706   1.485   1.314
  608SOL    HW1 2723   4.806   1.495   1.309
  608SOL    HW2 2724   4.665   1.516   1.228
  609SOL     OW 2725   3.008   3.594   4.478
  609SOL    HW1 2726   3.077   3.665   4.466
  609SOL    HW2 2727   3.030   3.539   4.559
  610SOL     OW 2728   5.041   2.463   4.664
  610SOL    HW1 2729   5.041   2.379   4.719
  610SOL    HW2 2730   5.051   2.440   4.568
  611SOL     OW 2731   0.417   0.323   1.245
  611SOL    HW1 2732   0.411   0.412   1.200
  611SOL    HW2 2733   0.388   0.332   1.340
  612SOL     OW 2734   3.478   5.480   5.456
  612SOL    HW1 2735   3.419   5.447   5.382
  612SOL    HW2 2736   3.428   5.472   5.543
  613SOL     OW 2737   3.713   2.583   6.701
  613SOL    HW1 2738   3.636   2.521   6.682
  613SOL    HW2 2739   3.726   2.643   6.622
  614SOL     OW 2740   4.884   4.493   1.165
  614SOL    HW1 2741   4.956   4.552   1.128
  614SOL    HW2 2742   4.857   4.426   1.096
  615SOL     OW 2743   6.175   6.443   1.272
  615SOL    HW1 2744   6.240   6.416   1.201
  615SOL    HW2 2745   6.086   6.401   1.253
  616SOL     OW 2746   5.847   1.337   4.910
  616SOL    HW1 2747   5.844   1.279   4.829
  616SOL    HW2 2748   5.937   1.381   4.916
  617SOL     OW 2749   0.329   5.169   5.699
  617SOL    HW1 2750   0.300   5.133   5.611
  617SOL    HW2 2751   0.263   5.143   5.769
  618SOL     OW 2752   6.532   3.848   0.819
  618SOL    HW1 2753   6.557   3.766   0.766
  618SOL    HW2 2754   6.534   3.826   0.916
  619SOL     OW 2755   2.722   0.509   6.065
  619SOL    HW1 2756   2.696   0.422   6.025
  619SOL    HW2 2757   2.673   0.583   6.018
  620SOL     OW 2758   6.139   1.594   2.432
  620SOL    HW1 2759   6.082   1.655   2.376
  620SOL    HW2 2760   6.235   1.617   2.418
  621SOL     OW 2761   3.016   1.090   6.787
  621SOL    HW1 2762   2.989   1.186   6.776
  621SOL    HW2 2763   2.935   1.032   6.787
  622SOL     OW 2764   1.183   1.950   4.693
  622SOL    HW1 2765   1.132   1.872   4.729
  622SOL    HW2 2766   1.143   2.035   4.725
  623SOL     OW 2767   5.830   0.329   3.745
  623SOL    HW1 2768   5.773   0.403   3.709
  623SOL    HW2 2769   5.909   0.316   3.685
  624SOL     OW 2770   0.001   0.683   6.465
  624SOL    HW1 2771   0.029   0.637   6.549
  624SOL    HW2 2772   6.958   0.756   6.487
  625SOL     OW 2773   2.672   1.647   0.698
  625SOL    HW1 2774   2.655   1.639   0.796
  625SOL    HW2 2775   2.684   1.743   0.674
  626SOL     OW 2776   6.756   5.794   4.002
  626SOL    HW1 2777   6.695   5.813   3.924
  626SOL    HW2 2778   6.845   5.836   3.986
  627SOL     OW 2779   6.335   0.840   0.144
  627SOL    HW1 2780   6.265   0.770   0.154
  627SOL    HW2 2781   6.378   0.857   0.233
  628SOL     OW 2782   4.009   4.513   5.975
  628SOL    HW1 2783   3.977   4.587   5.917
  628SOL    HW2 2784   4.041   4.550   6.063
  629SOL     OW 2785   1.345   6.881   6.331
  629SOL    HW1 2786   1.252   6.844   6.342
  629SOL    HW2 2787   1.387   6.844   6.249
  630SOL     OW 2788   6.391   1.390   1.506
  630SOL    HW1 2789   6.333   1.334   1.566
  630SOL    HW2 2790   6.480   1.345   1.496
  631SOL     OW 2791   1.578   2.642   4.015
  631SOL    HW1 2792   1.576   2.626   4.113
  631SOL    HW2 2793   1.509   2.711   3.991
  632SOL     OW 2794   3.229   3.669   6.849
  632SOL    HW1 2795   3.296   3.596   6.865
  632SOL    HW2 2796   3.246   3.711   6.760
  633SOL     OW 2797   1.623   6.145   1.231
  633SOL    HW1 2798   1.654   6.147   1.136
  633SOL    HW2 2799   1.640   6.054   1.270
  634SOL     OW 2800   3.111   3.063   4.754
  634SOL    HW1 2801   3.113   3.046   4.853
  634SOL    HW2 2802   3.193   3.025   4.712
  635SOL     OW 2803   5.676   0.464   6.672
  635SOL    HW1 2804   5.705   0.368   6.680
  635SOL    HW2 2805   5.600   0.471   6.607
  636SOL     OW 2806   2.619   0.325   5.666
  636SOL    HW1 2807   2.613   0.242   5.611
  636SOL    HW2 2808   2.638   0.403   5.606
  637SOL     OW 2809   6.770   0.418   2.886
  637SOL    HW1 2810   6.862   0.429   2.922
  637SOL    HW2 2811   6.773   0.366   2.801
  638SOL     OW 2812   0.002   3.440   4.624
  638SOL    HW1 2813   0.009   3.539   4.611
  638SOL    HW2 2814   0.054   3.414   4.706
  639SOL     OW 2815   5.884   4.248   1.912
  639SOL    HW1 2816   5.909   4.283   2.003
  639SOL    HW2 2817   5.786   4.230   1.909
  640SOL     OW 2818   0.289   2.630   1.966
  640SOL    HW1 2819   0.333   2.580   1.891
  640SOL    HW2 2820   0.190   2.631   1.952
  641SOL     OW 2821   2.422   4.885   4.334
  641SOL    HW1 2822   2.445   4.789   4.317
  641SOL    HW2 2823   2.406   4.899   4.431
  642SOL     OW 2824   0.730   4.173   4.738
  642SOL    HW1 2825   0.651   4.234   4.732
  642SOL    HW2 2826   0.814   4.224   4.716
  643SOL     OW 2827   4.773   5.243   0.827
  643SOL    HW1 2828   4.864   5.242   0.785
  643SOL    HW2 2829   4.740   5.338   0.831
  644SOL     OW 2830   0.003   6.916   5.348
  644SOL    HW1 2831   6.957   6.853   5.309
  644SOL    HW2 2832   6.987   6.959   5.429
  645SOL     OW 2833   4.065   5.287   1.969
  645SOL    HW1 2834   4.139   5.348   1.940
  645SOL    HW2 2835   4.095   5.233   2.047
  646SOL     OW 2836   3.755   2.123   4.484
  646SOL    HW1 2837   3.670   2.138   4.435
  646SOL    HW2 2838   3.735   2.096   4.578
  647SOL     OW 2839   3.922   2.410   5.952
  647SOL    HW1 2840   3.932   2.440   5.857
  647SOL    HW2 2841   3.900   2.312   5.954
  648SOL     OW 2842   6.434   1.365   2.763
  648SOL    HW1 2843   6.396   1.280   2.725
  648SOL    HW2 2844   6.507   1.342   2.828
  649SOL     OW 2845   2.238   5.473   0.753
  649SOL    HW1 2846   2.142   5.500   0.756
  649SOL    HW2 2847   2.252   5.405   0.682
  650SOL     OW 2848   0.395   3.930   0.872
  650SOL    HW1 2849   0.421   3.940   0.968
  650SOL    HW2 2850   0.318   3.866   0.866
  651SOL     OW 2851   1.081   0.517   4.190
  651SOL    HW1 2852   1.161   0.543   4.243
  651SOL    HW2 2853   1.097   0.428   4.146
  652SOL     OW 2854   3.898   6.582   1.976
  652SOL    HW1 2855   3.891   6.560   2.073
  652SOL    HW2 2856   3.848   6.513   1.923
  653SOL     OW 2857   1.338   0.259   2.351
  653SOL    HW1 2858   1.408   0.331   2.349
  653SOL    HW2 2859   1.280   0.270   2.431
  654SOL     OW 2860   0.335   6.746   5.044
  654SOL    HW1 2861   0.288   6.680   4.985
  654SOL    HW2 2862   0.269   6.811   5.080
  655SOL     OW 2863   0.362   4.108   1.713
  655SOL    HW1 2864   0.309   4.039   1.762
  655SOL    HW2 2865   0.456   4.077   1.701
  656SOL     OW 2866   3.799   6.188   0.059
  656SOL    HW1 2867   3.886   6.231   0.034
  656SOL    HW2 2868   3.795   6.179   0.159
  657SOL     OW 2869   3.711   3.240   2.852
  657SOL    HW1 2870   3.719   3.253   2.753
  657SOL    HW2 2871   3.784   3.180   2.884
  658SOL     OW 2872   1.701   1.438   5.285
  658SOL    HW1 2873   1.761   1.421   5.207
  658SOL    HW2 2874   1.753   1.426   5.370
  659SOL     OW 2875   1.736   5.756   6.275
  659SOL    HW1 2876   1.792   5.804   6.343
  659SOL    HW2 2877   1.643   5.746   6.309
  660SOL     OW 2878   4.829   4.784   3.004
  660SOL    HW1 2879   4.804   4.846   3.078
  660SOL    HW2 2880   4.746   4.748   2.961
  661SOL     OW 2881   4.738   4.309   4.569
  661SOL    HW1 2882   4.823   4.354   4.538
  661SOL    HW2 2883   4.662   4.373   4.559
  662SOL     OW 2884   5.190   3.334   6.402
  662SOL    HW1 2885   5.159   3.271   6.474
  662SOL    HW2 2886   5.162   3.299   6.313
  663SOL     OW 2887   6.852   3.952   6.923
  663SOL    HW1 2888   6.860   3.929   7.021
  663SOL    HW2 2889   6.760   3.985   6.904
  664SOL     OW 2890   1.578   6.783   6.635
  664SOL    HW1 2891   1.671   6.799   6.603
  664SOL    HW2 2892   1.547   6.693   6.604
  665SOL     OW 2893   3.569   4.956   1.398
  665SOL    HW1 2894   3.479   4.967   1.439
  665SOL    HW2 2895   3.573   4.870   1.347
  666SOL     OW 2896   3.052   0.698   0.741
  666SOL    HW1 2897   2.980   0.720   0.675
  666SOL    HW2 2898   3.112   0.629   0.702
  667SOL     OW 2899   1.207   3.677   3.045
  667SOL    HW1 2900   1.191   3.762   2.995
  667SOL    HW2 2901   1.298   3.678   3.085
  668SOL     OW 2902   5.586   0.030   0.812
  668SOL    HW1 2903   5.617   7.004   0.730
  668SOL    HW2 2904   5.487   0.022   0.821
  669SOL     OW 2905   2.028   6.270   2.615
  669SOL    HW1 2906   2.055   6.280   2.710
  669SOL    HW2 2907   1.935   6.304   2.602
  670SOL     OW 2908   3.547   2.922   3.179
  670SOL    HW1 2909   3.516   3.016   3.171
  670SOL    HW2 2910   3.616   2.904   3.108
  671SOL     OW 2911   1.057   6.993   6.471
  671SOL    HW1 2912   1.021   6.945   6.391
  671SOL    HW2 2913   1.114   0.048   6.441
  672SOL     OW 2914   2.518   1.809   3.644
  672SOL    HW1 2915   2.468   1.821   3.559
  672SOL    HW2 2916   2.616   1.809   3.625
  673SOL     OW 2917   5.576   6.462   0.409
  673SOL    HW1 2918   5.552   6.402   0.486
  673SOL    HW2 2919   5.630   6.539   0.443
  674SOL     OW 2920   6.719   1.897   3.534
  674SOL    HW1 2921   6.674   1.848   3.609
  674SOL    HW2 2922   6.816   1.909   3.556
  675SOL     OW 2923   5.854   1.218   4.665
  675SOL    HW1 2924   5.886   1.127   4.693
  675SOL    HW2 2925   5.885   1.237   4.572
  676SOL     OW 2926   2.068   4.878   4.553
  676SOL    HW1 2927   1.987   4.899   4.499
  676SOL    HW2 2928   2.042   4.823   4.632
  677SOL     OW 2929   5.058   6.745   1.118
  677SOL    HW1 2930   5.068   6.655   1.161
  677SOL    HW2 2931   4.978   6.791   1.157
  678SOL     OW 2932   2.119   1.332   5.972
  678SOL    HW1 2933   2.041   1.287   5.929
  678SOL    HW2 2934   2.147   1.411   5.918
  679SOL     OW 2935   5.619   6.491   2.728
  679SOL    HW1 2936   5.675   6.428   2.782
  679SOL    HW2 2937   5.567   6.550   2.789
  680SOL     OW 2938   5.359   3.829   5.132
  680SOL    HW1 2939   5.430   3.873   5.187
  680SOL    HW2 2940   5.394   3.742   5.096
  681SOL     OW 2941   1.921   6.859   1.973
  681SOL    HW1 2942   1.829   6.826   1.952
  681SOL    HW2 2943   1.980   6.845   1.894
  682SOL     OW 2944   1.100   6.200   6.707
  682SOL    HW1 2945   1.153   6.245   6.779
  682SOL    HW2 2946   1.155   6.125   6.668
  683SOL     OW 2947   5.240   1.675   0.321
  683SOL    HW1 2948   5.236   1.735   0.401
  683SOL    HW2 2949   5.333   1.672   0.285
  684SOL     OW 2950   0.192   6.199   6.527
  684SOL    HW1 2951   0.181   6.258   6.607
  684SOL    HW2 2952   0.104   6.156   6.505
  685SOL     OW 2953   5.930   1.177   5.995
  685SOL    HW1 2954   5.861   1.224   6.051
  685SOL    HW2 2955   5.963   1.240   5.924
  686SOL     OW 2956   5.491   4.591   3.039
  686SOL    HW1 2957   5.443   4.569   3.124
  686SOL    HW2 2958   5.442   4.664   2.991
  687SOL     OW 2959   5.818   2.455   4.576
  687SOL    HW1 2960   5.730   2.489   4.544
  687SOL    HW2 2961   5.848   2.509   4.655
  688SOL     OW 2962   0.618   3.406   4.685
  688SOL    HW1 2963   0.616   3.483   4.621
  688SOL    HW2 2964   0.527   3.366   4.691
  689SOL     OW 2965   5.756   4.743   5.535
  689SOL    HW1 2966   5.818   4.729   5.611
  689SOL    HW2 2967   5.799   4.804   5.468
  690SOL     OW 2968   0.467   2.905   3.636
  690SOL    HW1 2969   0.410   2.935   3.712
  690SOL    HW2 2970   0.558   2.880   3.670
  691SOL     OW 2971   0.422   3.279   6.907
  691SOL    HW1 2972   0.497   3.326   6.953
  691SOL    HW2 2973   0.384   3.209   6.968
  692SOL     OW 2974   1.797   0.127   3.384
  692SOL    HW1 2975   1.773   0.074   3.465
  692SOL    HW2 2976   1.896   0.123   3.368
  693SOL     OW 2977   6.716   0.729   2.450
  693SOL    HW1 2978   6.755   0.814   2.485
  693SOL    HW2 2979   6.683   0.743   2.357
  694SOL     OW 2980   1.512   0.482   2.377
  694SOL    HW1 2981   1.537   0.571   2.415
  694SOL    HW2 2982   1.560   0.409   2.426
  695SOL     OW 2983   4.188   5.627   6.034
  695SOL    HW1 2984   4.176   5.703   6.099
  695SOL    HW2 2985   4.101   5.579   6.023
  696SOL     OW 2986   4.627   5.659   2.461
  696SOL    HW1 2987   4.674   5.632   2.376
  696SOL    HW2 2988   4.629   5.584   2.526
  697SOL     OW 2989   1.465   3.790   4.132
  697SOL    HW1 2990   1.433   3.811   4.225
  697SOL    HW2 2991   1.386   3.771   4.074
  698SOL     OW 2992   3.745   6.696   3.666
  698SOL    HW1 2993   3.823   6.645   3.700
  698SOL    HW2 2994   3.661   6.658   3.705
  699SOL     OW 2995   1.890   4.635   0.127
  699SOL    HW1 2996   1.945   4.640   0.210
  699SOL    HW2 2997   1.941   4.673   0.050
  700SOL     OW 2998   2.292   1.109   3.792
  700SOL    HW1 2999   2.253   1.169   3.723
  700SOL    HW2 3000   2.385   1.082   3.763
  701SOL     OW 3001   0.776   4.988   5.885
  701SOL    HW1 3002   0.685   5.030   5.880
  701SOL    HW2 3003   0.776   4.917   5.955
  702SOL     OW 3004   5.387   5.415   4.862
  702SOL    HW1 3005   5.408   5.327   4.819
  702SOL    HW2 3006   5.376   5.485   4.792
  703SOL     OW 3007   4.563   3.827   0.088
  703SOL    HW1 3008   4.577   3.917   0.047
  703SOL    HW2 3009   4.479   3.827   0.142
  704SOL     OW 3010   2.446   0.278   0.944
  704SOL    HW1 3011   2.530   0.288   0.890
  704SOL    HW2 3012   2.443   0.186   0.983
  705SOL     OW 3013   6.191   2.760   3.058
  705SOL    HW1 3014   6.242   2.745   2.973
  705SOL    HW2 3015   6.200   2.679   3.116
  706SOL     OW 3016   4.310   2.052   3.960
  706SOL    HW1 3017   4.278   2.139   3.998
  706SOL    HW2 3018   4.371   2.070   3.882
  707SOL     OW 3019   5.069   1.664   1.710
  707SOL    HW1 3020   5.000   1.664   1.638
  707SOL    HW2 3021   5.054   1.743   1.770
  708SOL     OW 3022   4.165   0.848   1.576
  708SOL    HW1 3023   4.204   0.886   1.660
  708SOL    HW2 3024   4.101   0.914   1.537
  709SOL     OW 3025   1.128   5.002   6.848
  709SOL    HW1 3026   1.196   5.062   6.889
  709SOL    HW2 3027   1.167   4.912   6.833
  710SOL     OW 3028   2.888   3.713   2.709
  710SOL    HW1 3029   2.851   3.664   2.630
  710SOL    HW2 3030   2.823   3.708   2.784
  711SOL     OW 3031   0.742   0.390   4.055
  711SOL    HW1 3032   0.823   0.433   4.015
  711SOL    HW2 3033   0.723   0.303   4.007
  712SOL     OW 3034   1.551   4.017   1.591
  712SOL    HW1 3035   1.642   4.060   1.584
  712SOL    HW2 3036   1.519   3.992   1.500
  713SOL     OW 3037   4.144   3.458   3.295
  713SOL    HW1 3038   4.136   3.393   3.371
  713SOL    HW2 3039   4.128   3.411   3.209
  714SOL     OW 3040   4.854   5.312   5.412
  714SOL    HW1 3041   4.901   5.364   5.341
  714SOL    HW2 3042   4.906   5.229   5.432
  715SOL     OW 3043   4.350   0.710   6.283
  715SOL    HW1 3044   4.310   0.694   6.374
  715SOL    HW2 3045   4.428   0.650   6.271
  716SOL     OW 3046   6.919   4.983   1.775
  716SOL    HW1 3047   6.985   4.987   1.849
  716SOL    HW2 3048   6.903   5.074   1.738
  717SOL     OW 3049   5.969   2.913   0.411
  717SOL    HW1 3050   5.906   2.983   0.377
  717SOL    HW2 3051   6.001   2.858   0.334
  718SOL     OW 3052   3.448   3.547   6.510
  718SOL    HW1 3053   3.528   3.606   6.507
  718SOL    HW2 3054   3.476   3.452   6.493
  719SOL     OW 3055   5.132   4.742   0.110
  719SOL    HW1 3056   5.087   4.663   0.069
  719SOL    HW2 3057   5.065   4.800   0.155
  720SOL     OW 3058   2.137   0.445   6.135
  720SOL    HW1 3059   2.078   0.436   6.055
  720SOL    HW2 3060   2.081   0.438   6.219
  721SOL     OW 3061   1.555   6.786   5.811
  721SOL    HW1 3062   1.616   6.767   5.734
  721SOL    HW2 3063   1.472   6.730   5.802
  722SOL     OW 3064   4.828   0.199   5.990
  722SOL    HW1 3065   4.731   0.196   6.014
  722SOL    HW2 3066   4.845   0.138   5.913
  723SOL     OW 3067   1.563   3.043   2.423
  723SOL    HW1 3068   1.642   3.053   2.484
  723SOL    HW2 3069   1.596   3.034   2.328
  724SOL     OW 3070   6.634   1.025   4.630
  724SOL    HW1 3071   6.580   0.942   4.641
  724SOL    HW2 3072   6.690   1.018   4.547
  725SOL     OW 3073   2.232   5.195   0.660
  725SOL    HW1 3074   2.292   5.149   0.725
  725SOL    HW2 3075   2.142   5.150   0.660
  726SOL     OW 3076   4.053   0.025   6.575
  726SOL    HW1 3077   4.037   0.050   6.670
  726SOL    HW2 3078   4.145   0.052   6.548
  727SOL     OW 3079   2.755   4.898   4.272
  727SOL    HW1 3080   2.731   4.816   4.324
  727SOL    HW2 3081   2.740   4.881   4.174
  728SOL     OW 3082   6.746   3.468   4.793
  728SOL    HW1 3083   6.715   3.374   4.807
  728SOL    HW2 3084   6.845   3.469   4.784
  729SOL     OW 3085   3.106   0.218   0.966
  729SOL    HW1 3086   3.170   0.187   0.896
  729SOL    HW2 3087   3.106   0.152   1.042
  730SOL     OW 3088   6.174   0.124   4.811
  730SOL    HW1 3089   6.184   0.222   4.828
  730SOL    HW2 3090   6.215   0.102   4.722
  731SOL     OW 3091   6.006   3.674   3.614
  731SOL    HW1 3092   5.957   3.626   3.541
  731SOL    HW2 3093   6.061   3.747   3.575
  732SOL     OW 3094   6.817   3.012   2.473
  732SOL    HW1 3095   6.916   3.020   2.462
  732SOL    HW2 3096   6.797   2.955   2.553
  733SOL     OW 3097   4.704   4.275   3.597
  733SOL    HW1 3098   4.653   4.348   3.552
  733SOL    HW2 3099   4.766   4.232   3.531
  734SOL     OW 3100   6.971   4.761   1.170
  734SOL    HW1 3101   0.049   4.760   1.163
  734SOL    HW2 3102   6.933   4.697   1.103
  735SOL     OW 3103   1.027   4.624   6.401
  735SOL    HW1 3104   1.027   4.650   6.305
  735SOL    HW2 3105   0.974   4.690   6.454
  736SOL     OW 3106   6.017   1.335   3.263
  736SOL    HW1 3107   6.082   1.374   3.199
  736SOL    HW2 3108   6.029   1.235   3.266
  737SOL     OW 3109   5.551   3.448   0.416
  737SOL    HW1 3110   5.536   3.350   0.401
  737SOL    HW2 3111   5.464   3.492   0.441
  738SOL     OW 3112   0.417   4.106   3.900
  738SOL    HW1 3113   0.440   4.120   3.996
  738SOL    HW2 3114   0.324   4.070   3.893
  739SOL     OW 3115   5.007   6.082   6.847
  739SOL    HW1 3116   5.062   6.166   6.847
  739SOL    HW2 3117   4.912   6.105   6.870
  740SOL     OW 3118   5.777   6.552   1.049
  740SOL    HW1 3119   5.757   6.639   1.093
  740SOL    HW2 3120   5.766   6.560   0.950
  741SOL     OW 3121   2.285   1.205   3.189
  741SOL    HW1 3122   2.382   1.228   3.182
  741SOL    HW2 3123   2.258   1.151   3.110
  742SOL     OW 3124   0.884   0.482   3.284
  742SOL    HW1 3125   0.887   0.581   3.272
  742SOL    HW2 3126   0.964   0.452   3.336
  743SOL     OW 3127   1.605   4.042   4.448
  743SOL    HW1 3128   1.696   4.059   4.409
  743SOL    HW2 3129   1.543   4.116   4.423
  744SOL     OW 3130   0.760   5.974   0.877
  744SOL    HW1 3131   0.801   5.884   0.860
  744SOL    HW2 3132   0.795   6.040   0.810
  745SOL     OW 3133   1.494   5.846   2.394
  745SOL    HW1 3134   1.520   5.916   2.327
  745SOL    HW2 3135   1.570   5.783   2.407
  746SOL     OW 3136   1.739   0.470   4.571
  746SOL    HW1 3137   1.703   0.541   4.631
  746SOL    HW2 3138   1.836   0.453   4.593
  747SOL     OW 3139   5.606   4.731   2.472
  747SOL    HW1 3140   5.689   4.681   2.497
  747SOL    HW2 3141   5.593   4.808   2.535
  748SOL     OW 3142   4.228   3.096   1.738
  748SOL    HW1 3143   4.217   3.089   1.639
  748SOL    HW2 3144   4.176   3.174   1.772
  749SOL     OW 3145   6.955   1.598   5.217
  749SOL    HW1 3146   6.980   1.581   5.122
  749SOL    HW2 3147   7.013   1.544   5.278
  750SOL     OW 3148   2.326   4.055   0.652
  750SOL    HW1 3149   2.309   4.084   0.558
  750SOL    HW2 3150   2.321   4.135   0.712
  751SOL     OW 3151   4.782   0.683   0.445
  751SOL    HW1 3152   4.763   0.664   0.541
  751SOL    HW2 3153   4.874   0.722   0.436
  752SOL     OW 3154   5.077   1.802   1.936
  752SOL    HW1 3155   5.170   1.769   1.954
  752SOL    HW2 3156   5.037   1.836   2.022
  753SOL     OW 3157   2.119   2.679   3.651
  753SOL    HW1 3158   2.215   2.698   3.628
  753SOL    HW2 3159   2.083   2.610   3.590
  754SOL     OW 3160   4.989   5.568   6.951
  754SOL    HW1 3161   5.037   5.524   6.875
  754SOL    HW2 3162   4.985   5.667   6.936
  755SOL     OW 3163   0.218   6.663   1.267
  755SOL    HW1 3164   0.278   6.736   1.233
  755SOL    HW2 3165   0.195   6.681   1.363
  756SOL     OW 3166   4.039   0.352   3.683
  756SOL    HW1 3167   3.975   0.292   3.731
  756SOL    HW2 3168   3.987   0.423   3.634
  757SOL     OW 3169   0.590   0.511   3.820
  757SOL    HW1 3170   0.660   0.503   3.750
  757SOL    HW2 3171   0.605   0.441   3.891
  758SOL     OW 3172   4.030   2.685   1.208
  758SOL    HW1 3173   3.976   2.606   1.180
  758SOL    HW2 3174   3.976   2.743   1.269
  759SOL     OW 3175   1.701   1.457   0.421
  759SOL    HW1 3176   1.731   1.429   0.330
  759SOL    HW2 3177   1.632   1.530   0.412
  760SOL     OW 3178   4.648   1.480   6.278
  760SOL    HW1 3179   4.729   1.443   6.233
  760SOL    HW2 3180   4.573   1.487   6.213
  761SOL     OW 3181   6.412   2.706   6.702
  761SOL    HW1 3182   6.510   2.715   6.718
  761SOL    HW2 3183   6.365   2.695   6.790
  762SOL     OW 3184   2.272   5.726   3.323
  762SOL    HW1 3185   2.302   5.633   3.343
  762SOL    HW2 3186   2.202   5.753   3.388
  763SOL     OW 3187   5.259   5.703   6.606
  763SOL    HW1 3188   5.163   5.703   6.632
  763SOL    HW2 3189   5.275   5.630   6.540
  764SOL     OW 3190   4.199   0.821   2.060
  764SOL    HW1 3191   4.108   0.802   2.096
  764SOL    HW2 3192   4.264   0.756   2.099
  765SOL     OW 3193   0.210   0.038   3.488
  765SOL    HW1 3194   0.256   0.018   3.402
  765SOL    HW2 3195   0.119   0.073   3.469
  766SOL     OW 3196   0.089   6.543   0.031
  766SOL    HW1 3197   0.134   6.632   0.036
  766SOL    HW2 3198   7.014   6.555   0.009
  767SOL     OW 3199   5.727   6.765   2.379
  767SOL    HW1 3200   5.823   6.739   2.366
  767SOL    HW2 3201   5.713   6.860   2.349
  768SOL     OW 3202   3.214   6.659   3.551
  768SOL    HW1 3203   3.211   6.561   3.568
  768SOL    HW2 3204   3.222   6.675   3.452
  769SOL     OW 3205   3.791   0.940   5.801
  769SOL    HW1 3206   3.772   0.978   5.891
  769SOL    HW2 3207   3.791   1.013   5.733
  770SOL     OW 3208   3.427   4.956   4.230
  770SOL    HW1 3209   3.433   4.981   4.133
  770SOL    HW2 3210   3.335   4.974   4.264
  771SOL     OW 3211   0.723   5.911   3.731
  771SOL    HW1 3212   0.773   5.832   3.696
  771SOL    HW2 3213   0.626   5.887   3.740
  772SOL     OW 3214   6.633   4.390   5.846
  772SOL    HW1 3215   6.648   4.415   5.941
  772SOL    HW2 3216   6.657   4.467   5.786
  773SOL     OW 3217   0.300   4.208   2.517
  773SOL    HW1 3218   0.281   4.184   2.421
  773SOL    HW2 3219   0.247   4.149   2.577
  774SOL     OW 3220   1.404   1.114   1.862
  774SOL    HW1 3221   1.440   1.021   1.863
  774SOL    HW2 3222   1.395   1.146   1.767
  775SOL     OW 3223   1.834   1.972   4.362
  775SOL    HW1 3224   1.772   1.966   4.440
  775SOL    HW2 3225   1.919   1.923   4.382
  776SOL     OW 3226   2.137   0.652   5.925
  776SOL    HW1 3227   2.098   0.609   6.007
  776SOL    HW2 3228   2.085   0.624   5.845
  777SOL     OW 3229   4.192   0.879   0.636
  777SOL    HW1 3230   4.244   0.912   0.715
  777SOL    HW2 3231   4.229   0.920   0.552
  778SOL     OW 3232   4.018   6.824   4.332
  778SOL    HW1 3233   4.046   6.849   4.239
  778SOL    HW2 3234   4.008   6.906   4.387
  779SOL     OW 3235   0.985   1.113   2.444
  779SOL    HW1 3236   1.036   1.198   2.429
  779SOL    HW2 3237   0.983   1.059   2.360
  780SOL     OW 3238   5.181   3.319   4.892
  780SOL    HW1 3239   5.229   3.284   4.972
  780SOL    HW2 3240   5.173   3.418   4.898
  781SOL     OW 3241   0.164   1.534   5.773
  781SOL    HW1 3242   0.232   1.538   5.700
  781SOL    HW2 3243   0.076   1.503   5.735
  782SOL     OW 3244   0.521   3.061   0.872
  782SOL    HW1 3245   0.462   3.039   0.950
  782SOL    HW2 3246   0.571   2.979   0.844
  783SOL     OW 3247   3.249   4.484   0.317
  783SOL    HW1 3248   3.233   4.401   0.263
  783SOL    HW2 3249   3.183   4.554   0.291
  784SOL     OW 3250   4.793   0.310   5.003
  784SOL    HW1 3251   4.731   0.301   5.081
  784SOL    HW2 3252   4.768   0.243   4.933
  785SOL     OW 3253   6.482   2.640   3.400
  785SOL    HW1 3254   6.404   2.601   3.351
  785SOL    HW2 3255   6.546   2.567   3.423
  786SOL     OW 3256   6.835   0.143   0.156
  786SOL    HW1 3257   6.894   0.079   0.204
  786SOL    HW2 3258   6.758   0.168   0.215
  787SOL     OW 3259   3.265   1.515   6.157
  787SOL    HW1 3260   3.242   1.496   6.252
  787SOL    HW2 3261   3.183   1.548   6.109
  788SOL     OW 3262   1.369   4.152   4.031
  788SOL    HW1 3263   1.459   4.129   4.067
  788SOL    HW2 3264   1.344   4.086   3.959
  789SOL     OW 3265   5.390   3.828   1.173
  789SOL    HW1 3266   5.316   3.842   1.239
  789SOL    HW2 3267   5.452   3.906   1.176
  790SOL     OW 3268   3.037   1.588   3.342
  790SOL    HW1 3269   3.113   1.524   3.343
  790SOL    HW2 3270   2.991   1.585   3.253
  791SOL     OW 3271   3.637   1.684   4.026
  791SOL    HW1 3272   3.708   1.631   4.071
  791SOL    HW2 3273   3.556   1.687   4.084
  792SOL     OW 3274   5.954   0.291   3.275
  792SOL    HW1 3275   6.047   0.324   3.295
  792SOL    HW2 3276   5.931   0.218   3.339
  793SOL     OW 3277   6.330   0.641   6.936
  793SOL    HW1 3278   6.408   0.681   6.986
  793SOL    HW2 3279   6.254   0.706   6.937
  794SOL     OW 3280   2.083   5.132   5.372
  794SOL    HW1 3281   2.022   5.211   5.383
  794SOL    HW2 3282   2.155   5.136   5.440
  795SOL     OW 3283   4.971   4.817   5.947
  795SOL    HW1 3284   4.904   4.821   5.873
  795SOL    HW2 3285   4.927   4.783   6.030
  796SOL     OW 3286   0.694   2.154   6.327
  796SOL    HW1 3287   0.727   2.175   6.419
  796SOL    HW2 3288   0.608   2.104   6.332
  797SOL     OW 3289   5.590   2.726   4.118
  797SOL    HW1 3290   5.645   2.724   4.034
  797SOL    HW2 3291   5.543   2.814   4.125
  798SOL     OW 3292   6.074   0.932   6.188
  798SOL    HW1 3293   5.979   0.945   6.216
  798SOL    HW2 3294   6.080   0.933   6.089
  799SOL     OW 3295   6.952   3.380   3.411
  799SOL    HW1 3296   6.858   3.363   3.441
  799SOL    HW2 3297   7.007   3.298   3.423
  800SOL     OW 3298   6.215   1.692   1.926
  800SOL    HW1 3299   6.157   1.628   1.975
  800SOL    HW2 3300   6.222   1.665   1.830
  801SOL     OW 3301   0.131   2.512   3.406
  801SOL    HW1 3302   0.148   2.414   3.393
  801SOL    HW2 3303   0.198   2.550   3.469
  802SOL     OW 3304   5.764   1.024   0.785
  802SOL    HW1 3305   5.717   0.991   0.703
  802SOL    HW2 3306   5.724   1.111   0.813
  803SOL     OW 3307   0.207   6.980   5.151
  803SOL    HW1 3308   0.154   6.981   5.236
  803SOL    HW2 3309   0.230   0.053   5.126
  804SOL     OW 3310   0.052   0.345   0.821
  804SOL    HW1 3311   6.994   0.371   0.875
  804SOL    HW2 3312   0.057   0.245   0.814
  805SOL     OW 3313   2.607   3.476   6.017
  805SOL    HW1 3314   2.700   3.512   6.021
  805SOL    HW2 3315   2.542   3.551   6.031
  806SOL     OW 3316   5.346   0.943   0.893
  806SOL    HW1 3317   5.355   0.844   0.900
  806SOL    HW2 3318   5.272   0.965   0.829
  807SOL     OW 3319   1.105   0.001   3.585
  807SOL    HW1 3320   1.076   0.069   3.652
  807SOL    HW2 3321   1.026   6.992   3.532
  808SOL     OW 3322   5.174   3.495   5.355
  808SOL    HW1 3323   5.139   3.412   5.399
  808SOL    HW2 3324   5.116   3.518   5.278
  809SOL     OW 3325   0.059   4.483   5.985
  809SOL    HW1 3326   0.061   4.402   5.928
  809SOL    HW2 3327   6.986   4.508   6.006
  810SOL     OW 3328   6.211   4.788   6.909
  810SOL    HW1 3329   6.210   4.873   6.962
  810SOL    HW2 3330   6.275   4.724   6.952
  811SOL     OW 3331   4.904   5.109   4.422
  811SOL    HW1 3332   4.969   5.122   4.497
  811SOL    HW2 3333   4.811   5.120   4.455
  812SOL     OW 3334   0.354   6.847   2.381
  812SOL    HW1 3335   0.402   6.836   2.469
  812SOL    HW2 3336   0.290   6.923   2.388
  813SOL     OW 3337   5.054   5.556   2.367
  813SOL    HW1 3338   4.966   5.546   2.321
  813SOL    HW2 3339   5.047   5.629   2.435
  814SOL     OW 3340   5.221   6.219   1.437
  814SOL    HW1 3341   5.173   6.272   1.506
  814SOL    HW2 3342   5.285   6.278   1.388
  815SOL     OW 3343   0.224   2.286   0.727
  815SOL    HW1 3344   0.222   2.265   0.630
  815SOL    HW2 3345   0.231   2.385   0.741
  816SOL     OW 3346   6.253   0.468   1.182
  816SOL    HW1 3347   6.175   0.438   1.128
  816SOL    HW2 3348   6.221   0.508   1.268
  817SOL     OW 3349   1.927   2.185   3.020
  817SOL    HW1 3350   1.981   2.102   3.029
  817SOL    HW2 3351   1.833   2.161   2.995
  818SOL     OW 3352   6.693   1.899   0.956
  818SOL    HW1 3353   6.695   1.976   1.019
  818SOL    HW2 3354   6.706   1.813   1.006
  819SOL     OW 3355   0.373   3.850   4.106
  819SOL    HW1 3356   0.342   3.877   4.014
  819SOL    HW2 3357   0.365   3.751   4.115
  820SOL     OW 3358   1.139   2.992   4.453
  820SOL    HW1 3359   1.056   2.941   4.474
  820SOL    HW2 3360   1.127   3.040   4.366
  821SOL     OW 3361   1.516   3.336   0.058
  821SOL    HW1 3362   1.596   3.396   0.059
  821SOL    HW2 3363   1.439   3.385   0.016
  822SOL     OW 3364   1.442   3.828   4.703
  822SOL    HW1 3365   1.363   3.783   4.743
  822SOL    HW2 3366   1.473   3.777   4.623
  823SOL     OW 3367   3.324   3.694   0.840
  823SOL    HW1 3368   3.247   3.756   0.848
  823SOL    HW2 3369   3.292   3.606   0.805
  824SOL     OW 3370   6.001   2.149   5.552
  824SOL    HW1 3371   6.079   2.099   5.589
  824SOL    HW2 3372   5.927   2.084   5.531
  825SOL     OW 3373   1.982   4.215   2.554
  825SOL    HW1 3374   2.060   4.156   2.573
  825SOL    HW2 3375   1.916   4.208   2.629
  826SOL     OW 3376   0.385   3.833   5.824
  826SOL    HW1 3377   0.433   3.771   5.886
  826SOL    HW2 3378   0.411   3.927   5.843
  827SOL     OW 3379   4.123   6.146   6.808
  827SOL    HW1 3380   4.212   6.103   6.795
  827SOL    HW2 3381   4.110   6.170   6.904
  828SOL     OW 3382   6.186   6.622   6.133
  828SOL    HW1 3383   6.200   6.665   6.223
  828SOL    HW2 3384   6.164   6.692   6.066
  829SOL     OW 3385   3.313   2.918   4.626
  829SOL    HW1 3386   3.332   2.901   4.529
  829SOL    HW2 3387   3.284   2.833   4.670
  830SOL     OW 3388   4.448   3.951   5.336
  830SOL    HW1 3389   4.481   4.044   5.355
  830SOL    HW2 3390   4.461   3.895   5.418
  831SOL     OW 3391   6.721   0.890   5.168
  831SOL    HW1 3392   6.735   0.954   5.092
  831SOL    HW2 3393   6.629   0.851   5.161
  832SOL     OW 3394   2.424   1.554   5.969
  832SOL    HW1 3395   2.395   1.486   5.902
  832SOL    HW2 3396   2.498   1.609   5.932
  833SOL     OW 3397   0.274   0.143   5.984
  833SOL    HW1 3398   0.218   0.070   6.023
  833SOL    HW2 3399   0.371   0.123   5.999
  834SOL     OW 3400   3.200   4.303   5.279
  834SOL    HW1 3401   3.152   4.248   5.347
  834SOL    HW2 3402   3.284   4.340   5.318
  835SOL     OW 3403   4.021   0.185   3.243
  835SOL    HW1 3404   4.061   0.181   3.335
  835SOL    HW2 3405   4.067   0.119   3.184
  836SOL     OW 3406   2.445   1.378   0.270
  836SOL    HW1 3407   2.365   1.372   0.210
  836SOL    HW2 3408   2.528   1.375   0.214
  837SOL     OW 3409   4.240   1.121   5.792
  837SOL    HW1 3410   4.234   1.063   5.711
  837SOL    HW2 3411   4.309   1.085   5.854
  838SOL     OW 3412   2.312   5.128   3.385
  838SOL    HW1 3413   2.341   5.210   3.435
  838SOL    HW2 3414   2.212   5.122   3.388
  839SOL     OW 3415   2.825   1.295   2.371
  839SOL    HW1 3416   2.803   1.203   2.401
  839SOL    HW2 3417   2.741   1.347   2.356
  840SOL     OW 3418   0.966   1.428   6.544
  840SOL    HW1 3419   0.886   1.464   6.497
  840SOL    HW2 3420   1.025   1.503   6.573
  841SOL     OW 3421   0.912   3.454   6.984
  841SOL    HW1 3422   0.915   3.487   6.889
  841SOL    HW2 3423   0.845   3.381   6.991
  842SOL     OW 3424   3.674   5.218   3.800
  842SOL    HW1 3425   3.766   5.255   3.783
  842SOL    HW2 3426   3.607   5.291   3.789
  843SOL     OW 3427   6.598   2.566   1.879
  843SOL    HW1 3428   6.526   2.632   1.897
  843SOL    HW2 3429   6.648   2.546   1.963
  844SOL     OW 3430   5.548   5.262   0.531
  844SOL    HW1 3431   5.541   5.162   0.520
  844SOL    HW2 3432   5.644   5.290   0.523
  845SOL     OW 3433   0.808   4.226   5.026
  845SOL    HW1 3434   0.844   4.311   4.986
  845SOL    HW2 3435   0.776   4.166   4.954
  846SOL     OW 3436   6.005   1.743   6.831
  846SOL    HW1 3437   6.054   1.656   6.840
  846SOL    HW2 3438   6.066   1.818   6.858
  847SOL     OW 3439   4.944   3.557   1.993
  847SOL    HW1 3440   4.853   3.585   1.961
  847SOL    HW2 3441   4.953   3.458   1.987
  848SOL     OW 3442   6.205   0.342   5.890
  848SOL    HW1 3443   6.293   0.330   5.846
  848SOL    HW2 3444   6.194   0.437   5.917
  849SOL     OW 3445   0.318   5.297   4.210
  849SOL    HW1 3446   0.235   5.254   4.174
  849SOL    HW2 3447   0.294   5.355   4.288
  850SOL     OW 3448   3.726   0.240   2.543
  850SOL    HW1 3449   3.753   0.188   2.462
  850SOL    HW2 3450   3.685   0.327   2.514
  851SOL     OW 3451   0.871   0.845   6.287
  851SOL    HW1 3452   0.950   0.889   6.328
  851SOL    HW2 3453   0.849   0.761   6.337
  852SOL     OW 3454   2.076   4.195   6.649
  852SOL    HW1 3455   2.099   4.267   6.584
  852SOL    HW2 3456   2.068   4.234   6.741
  853SOL     OW 3457   1.825   3.826   1.359
  853SOL    HW1 3458   1.772   3.836   1.275
  853SOL    HW2 3459   1.784   3.883   1.431
  854SOL     OW 3460   5.617   5.010   1.743
  854SOL    HW1 3461   5.639   5.103   1.771
  854SOL    HW2 3462   5.557   4.967   1.810
  855SOL     OW 3463   5.672   0.049   1.749
  855SOL    HW1 3464   5.751   0.097   1.712
  855SOL    HW2 3465   5.654   6.989   1.694
  856SOL     OW 3466   1.659   0.025   5.084
  856SOL    HW1 3467   1.753   7.016   5.065
  856SOL    HW2 3468   1.599   6.967   5.087
  857SOL     OW 3469   7.011   3.451   2.190
  857SOL    HW1 3470   6.975   3.544   2.193
  857SOL    HW2 3471   6.980   3.406   2.106
  858SOL     OW 3472   3.027   4.012   1.167
  858SOL    HW1 3473   3.120   4.038   1.191
  858SOL    HW2 3474   3.024   3.914   1.143
  859SOL     OW 3475   6.759   4.774   6.903
  859SOL    HW1 3476   6.708   4.853   6.868
  859SOL    HW2 3477   6.743   4.695   6.844
  860SOL     OW 3478   1.980   4.662   1.465
  860SOL    HW1 3479   1.886   4.630   1.452
  860SOL    HW2 3480   1.980   4.761   1.480
  861SOL     OW 3481   3.269   5.396   5.273
  861SOL    HW1 3482   3.183   5.428   5.232
  861SOL    HW2 3483   3.295   5.309   5.232
  862SOL     OW 3484   4.463   4.594   4.272
  862SOL    HW1 3485   4.447   4.593   4.173
  862SOL    HW2 3486   4.381   4.629   4.318
  863SOL     OW 3487   5.837   1.108   1.260
  863SOL    HW1 3488   5.843   1.011   1.238
  863SOL    HW2 3489   5.928   1.147   1.267
  864SOL     OW 3490   6.165   4.592   2.990
  864SOL    HW1 3491   6.238   4.590   3.058
  864SOL    HW2 3492   6.143   4.499   2.961
  865SOL     OW 3493   1.383   0.163   4.449
  865SOL    HW1 3494   1.391   0.180   4.548
  865SOL    HW2 3495   1.286   0.153   4.426
  866SOL     OW 3496   3.780   1.729   1.165
  866SOL    HW1 3497   3.851   1.703   1.100
  866SOL    HW2 3498   3.711   1.784   1.118
  867SOL     OW 3499   1.572   2.673   5.924
  867SOL    HW1 3500   1.630   2.751   5.950
  867SOL    HW2 3501   1.502   2.705   5.860
  868SOL     OW 3502   5.349   2.723   3.196
  868SOL    HW1 3503   5.269   2.721   3.136
  868SOL    HW2 3504   5.318   2.717   3.291
  869SOL     OW 3505   6.681   5.001   2.650
  869SOL    HW1 3506   6.601   5.034   2.700
  869SOL    HW2 3507   6.717   5.075   2.594
  870SOL     OW 3508   7.004   2.637   0.845
  870SOL    HW1 3509   6.987   2.586   0.930
  870SOL    HW2 3510   0.049   2.709   0.863
  871SOL     OW 3511   6.152   3.406   0.929
  871SOL    HW1 3512   6.195   3.496   0.917
  871SOL    HW2 3513   6.185   3.344   0.858
  872SOL     OW 3514   5.868   2.686   2.773
  872SOL    HW1 3515   5.868   2.737   2.859
  872SOL    HW2 3516   5.939   2.616   2.776
  873SOL     OW 3517   4.844   6.759   5.722
  873SOL    HW1 3518   4.889   6.701   5.655
  873SOL    HW2 3519   4.781   6.703   5.777
  874SOL     OW 3520   0.190   3.688   6.083
  874SOL    HW1 3521   0.271   3.673   6.026
  874SOL    HW2 3522   0.116   3.628   6.051
  875SOL     OW 3523   6.136   4.733   6.481
  875SOL    HW1 3524   6.140   4.663   6.552
  875SOL    HW2 3525   6.144   4.824   6.523
  876SOL     OW 3526   1.244   3.298   1.797
  876SOL    HW1 3527   1.199   3.381   1.828
  876SOL    HW2 3528   1.198   3.218   1.837
  877SOL     OW 3529   5.363   6.128   0.500
  877SOL    HW1 3530   5.358   6.046   0.556
  877SOL    HW2 3531   5.421   6.111   0.421
  878SOL     OW 3532   2.769   3.614   0.291
  878SOL    HW1 3533   2.849   3.563   0.259
  878SOL    HW2 3534   2.794   3.709   0.308
  879SOL     OW 3535   4.163   1.942   2.041
  879SOL    HW1 3536   4.118   2.008   2.102
  879SOL    HW2 3537   4.155   1.850   2.079
  880SOL     OW 3538   3.941   5.555   0.844
  880SOL    HW1 3539   3.892   5.579   0.760
  880SOL    HW2 3540   3.959   5.638   0.897
  881SOL     OW 3541   4.147   5.231   4.922
  881SOL    HW1 3542   4.180   5.317   4.961
  881SOL    HW2 3543   4.057   5.245   4.881
  882SOL     OW 3544   1.043   1.312   4.514
  882SOL    HW1 3545   1.064   1.351   4.604
  882SOL    HW2 3546   1.128   1.292   4.466
  883SOL     OW 3547   3.041   4.812   6.853
  883SOL    HW1 3548   3.005   4.745   6.788
  883SOL    HW2 3549   3.102   4.766   6.918
  884SOL     OW 3550   4.737   4.022   1.525
  884SOL    HW1 3551   4.650   4.051   1.565
  884SOL    HW2 3552   4.728   4.013   1.426
  885SOL     OW 3553   4.746   6.181   6.910
  885SOL    HW1 3554   4.712   6.273   6.890
  885SOL    HW2 3555   4.756   6.171   7.009
  886SOL     OW 3556   4.895   1.388   6.135
  886SOL    HW1 3557   4.935   1.432   6.054
  886SOL    HW2 3558   4.948   1.412   6.216
  887SOL     OW 3559   5.043   0.435   6.447
  887SOL    HW1 3560   5.021   0.516   6.391
  887SOL    HW2 3561   4.960   0.380   6.460
  888SOL     OW 3562   6.199   6.390   3.375
  888SOL    HW1 3563   6.139   6.396   3.455
  888SOL    HW2 3564   6.175   6.309   3.321
  889SOL     OW 3565   1.030   6.826   4.879
  889SOL    HW1 3566   0.946   6.773   4.868
  889SOL    HW2 3567   1.046   6.879   4.796
  890SOL     OW 3568   2.443   4.935   2.044
  890SOL    HW1 3569   2.525   4.892   2.007
  890SOL    HW2 3570   2.393   4.869   2.101
  891SOL     OW 3571   5.820   3.314   6.069
  891SOL    HW1 3572   5.809   3.221   6.103
  891SOL    HW2 3573   5.788   3.318   5.974
  892SOL     OW 3574   2.594   5.327   1.814
  892SOL    HW1 3575   2.628   5.259   1.749
  892SOL    HW2 3576   2.589   5.416   1.769
  893SOL     OW 3577   2.048   0.185   0.795
  893SOL    HW1 3578   2.097   0.226   0.872
  893SOL    HW2 3579   1.961   0.233   0.782
  894SOL     OW 3580   1.038   5.765   3.455
  894SOL    HW1 3581   1.047   5.677   3.409
  894SOL    HW2 3582   1.126   5.790   3.495
  895SOL     OW 3583   1.844   0.193   4.693
  895SOL    HW1 3584   1.811   0.118   4.636
  895SOL    HW2 3585   1.766   0.239   4.736
  896SOL     OW 3586   5.452   6.750   3.463
  896SOL    HW1 3587   5.531   6.782   3.516
  896SOL    HW2 3588   5.386   6.824   3.454
  897SOL     OW 3589   5.241   2.634   6.051
  897SOL    HW1 3590   5.255   2.614   6.148
  897SOL    HW2 3591   5.246   2.733   6.037
  898SOL     OW 3592   6.344   6.478   4.246
  898SOL    HW1 3593   6.316   6.538   4.171
  898SOL    HW2 3594   6.365   6.387   4.211
  899SOL     OW 3595   0.719   4.607   6.653
  899SOL    HW1 3596   0.700   4.509   6.653
  899SOL    HW2 3597   0.636   4.658   6.677
  900SOL     OW 3598   0.893   6.348   3.820
  900SOL    HW1 3599   0.848   6.355   3.909
  900SOL    HW2 3600   0.843   6.285   3.762
  901SOL     OW 3601   5.370   2.566   3.579
  901SOL    HW1 3602   5.296   2.509   3.615
  901SOL    HW2 3603   5.454   2.512   3.572
  902SOL     OW 3604   6.951   6.289   0.051
  902SOL    HW1 3605   7.005   6.373   0.049
  902SOL    HW2 3606   7.009   6.212   0.078
  903SOL     OW 3607   0.538   4.682   0.043
  903SOL    HW1 3608   0.593   4.696   0.126
  903SOL    HW2 3609   0.577   4.608   7.011
  904SOL     OW 3610   1.848   1.547   3.600
  904SOL    HW1 3611   1.766   1.599   3.627
  904SOL    HW2 3612   1.873   1.484   3.674
  905SOL     OW 3613   5.748   1.798   5.514
  905SOL    HW1 3614   5.698   1.782   5.429
  905SOL    HW2 3615   5.838   1.837   5.493
  906SOL     OW 3616   6.147   3.878   5.188
  906SOL    HW1 3617   6.244   3.896   5.177
  906SOL    HW2 3618   6.105   3.952   5.242
  907SOL     OW 3619   6.987   3.281   1.507
  907SOL    HW1 3620   7.011   3.187   1.531
  907SOL    HW2 3621   6.912   3.312   1.565
  908SOL     OW 3622   1.483   0.779   3.111
  908SOL    HW1 3623   1.454   0.685   3.091
  908SOL    HW2 3624   1.457   0.803   3.205
  909SOL     OW 3625   4.066   0.212   0.806
  909SOL    HW1 3626   4.123   0.142   0.848
  909SOL    HW2 3627   4.027   0.270   0.877
  910SOL     OW 3628   2.084   1.863   1.759
  910SOL    HW1 3629   2.173   1.873   1.805
  910SOL    HW2 3630   2.094   1.888   1.663
  911SOL     OW 3631   0.429   4.221   0.918
  911SOL    HW1 3632   0.469   4.223   0.827
  911SOL    HW2 3633   0.500   4.241   0.986
  912SOL     OW 3634   0.626   0.484   6.174
  912SOL    HW1 3635   0.619   0.584   6.168
  912SOL    HW2 3636   0.646   0.447   6.083
  913SOL     OW 3637   2.453   1.399   1.626
  913SOL    HW1 3638   2.394   1.318   1.631
  913SOL    HW2 3639   2.491   1.418   1.717
  914SOL     OW 3640   2.877   6.881   3.263
  914SOL    HW1 3641   2.844   6.848   3.175
  914SOL    HW2 3642   2.967   6.923   3.251
  915SOL     OW 3643   1.101   2.106   6.964
  915SOL    HW1 3644   1.181   2.155   7.000
  915SOL    HW2 3645   1.095   2.017   7.008
  916SOL     OW 3646   1.507   3.281   3.007
  916SOL    HW1 3647   1.599   3.273   2.967
  916SOL    HW2 3648   1.448   3.332   2.944
  917SOL     OW 3649   3.495   2.438   6.641
  917SOL    HW1 3650   3.452   2.352   6.612
  917SOL    HW2 3651   3.508   2.497   6.562
  918SOL     OW 3652   1.438   0.751   5.305
  918SOL    HW1 3653   1.470   0.720   5.216
  918SOL    HW2 3654   1.508   0.808   5.348
  919SOL     OW 3655   2.428   6.876   1.207
  919SOL    HW1 3656   2.352   6.811   1.201
  919SOL    HW2 3657   2.418   6.946   1.137
  920SOL     OW 3658   2.083   0.700   4.266
  920SOL    HW1 3659   1.991   0.738   4.270
  920SOL    HW2 3660   2.138   0.739   4.341
  921SOL     OW 3661   4.907   5.318   6.682
  921SOL    HW1 3662   4.911   5.351   6.588
  921SOL    HW2 3663   4.857   5.231   6.685
  922SOL     OW 3664   1.992   3.679   6.398
  922SOL    HW1 3665   2.058   3.667   6.325
  922SOL    HW2 3666   1.993   3.775   6.429
  923SOL     OW 3667   4.083   1.075   6.793
  923SOL    HW1 3668   3.984   1.085   6.782
  923SOL    HW2 3669   4.102   0.999   6.855
  924SOL     OW 3670   6.465   3.881   3.223
  924SOL    HW1 3671   6.398   3.821   3.266
  924SOL    HW2 3672   6.425   3.971   3.208
  925SOL     OW 3673   5.857   2.401   3.249
  925SOL    HW1 3674   5.940   2.416   3.196
  925SOL    HW2 3675   5.813   2.316   3.218
  926SOL     OW 3676   5.579   6.406   0.685
  926SOL    HW1 3677   5.512   6.457   0.739
  926SOL    HW2 3678   5.638   6.353   0.746
  927SOL     OW 3679   4.553   4.952   4.527
  927SOL    HW1 3680   4.629   5.011   4.552
  927SOL    HW2 3681   4.527   4.896   4.606
  928SOL     OW 3682   0.705   1.341   1.117
  928SOL    HW1 3683   0.705   1.367   1.020
  928SOL    HW2 3684   0.710   1.242   1.125
  929SOL     OW 3685   0.686   2.588   2.548
  929SOL    HW1 3686   0.614   2.521   2.565
  929SOL    HW2 3687   0.660   2.676   2.586
  930SOL     OW 3688   4.828   5.930   3.082
  930SOL    HW1 3689   4.790   5.999   3.020
  930SOL    HW2 3690   4.836   5.969   3.174
  931SOL     OW 3691   1.857   2.840   2.403
  931SOL    HW1 3692   1.824   2.909   2.468
  931SOL    HW2 3693   1.850   2.875   2.310
  932SOL     OW 3694   4.609   6.444   1.346
  932SOL    HW1 3695   4.629   6.420   1.251
  932SOL    HW2 3696   4.583   6.541   1.350
  933SOL     OW 3697   1.914   6.151   3.643
  933SOL    HW1 3698   2.004   6.106   3.647
  933SOL    HW2 3699   1.860   6.125   3.722
  934SOL     OW 3700   3.032   1.039   5.561
  934SOL    HW1 3701   2.940   1.054   5.597
  934SOL    HW2 3702   3.073   1.126   5.536
  935SOL     OW 3703   2.520   3.115   6.044
  935SOL    HW1 3704   2.593   3.153   6.101
  935SOL    HW2 3705   2.482   3.034   6.089
  936SOL     OW 3706   0.125   1.736   1.733
  936SOL    HW1 3707   0.059   1.792   1.783
  936SOL    HW2 3708   0.122   1.760   1.636
  937SOL     OW 3709   4.739   2.336   3.789
  937SOL    HW1 3710   4.808   2.265   3.776
  937SOL    HW2 3711   4.748   2.374   3.882
  938SOL     OW 3712   6.810   2.072   0.302
  938SOL    HW1 3713   6.893   2.050   0.355
  938SOL    HW2 3714   6.837   2.106   0.212
  939SOL     OW 3715   6.394   1.021   5.930
  939SOL    HW1 3716   6.398   0.923   5.945
  939SOL    HW2 3717   6.486   1.060   5.938
  940SOL     OW 3718   0.348   0.806   4.348
  940SOL    HW1 3719   0.404   0.804   4.431
  940SOL    HW2 3720   0.393   0.863   4.279
  941SOL     OW 3721   5.263   2.789   5.265
  941SOL    HW1 3722   5.261   2.708   5.206
  941SOL    HW2 3723   5.205   2.860   5.226
  942SOL     OW 3724   5.167   6.906   5.545
  942SOL    HW1 3725   5.177   6.978   5.613
  942SOL    HW2 3726   5.134   6.945   5.459
  943SOL     OW 3727   5.751   1.887   0.016
  943SOL    HW1 3728   5.734   1.811   6.976
  943SOL    HW2 3729   5.847   1.886   0.045
  944SOL     OW 3730   5.869   4.144   5.017
  944SOL    HW1 3731   5.959   4.139   5.062
  944SOL    HW2 3732   5.881   4.175   4.923
  945SOL     OW 3733   5.431   3.557   5.281
  945SOL    HW1 3734   5.444   3.570   5.182
  945SOL    HW2 3735   5.335   3.536   5.299
  946SOL     OW 3736   6.081   2.904   5.983
  946SOL    HW1 3737   6.095   2.887   5.885
  946SOL    HW2 3738   6.083   2.817   6.033
  947SOL     OW 3739   1.407   3.073   5.677
  947SOL    HW1 3740   1.476   3.071   5.604
  947SOL    HW2 3741   1.316   3.082   5.636
  948SOL     OW 3742   4.025   1.916   0.456
  948SOL    HW1 3743   4.002   2.002   0.411
  948SOL    HW2 3744   3.946   1.884   0.509
  949SOL     OW 3745   6.055   5.689   6.594
  949SOL    HW1 3746   6.148   5.716   6.570
  949SOL    HW2 3747   5.994   5.711   6.517
  950SOL     OW 3748   4.384   5.092   0.838
  950SOL    HW1 3749   4.444   5.094   0.919
  950SOL    HW2 3750   4.434   5.126   0.759
  951SOL     OW 3751   0.946   2.530   3.240
  951SOL    HW1 3752   1.028   2.578   3.273
  951SOL    HW2 3753   0.927   2.558   3.146
  952SOL     OW 3754   5.273   1.236   1.504
  952SOL    HW1 3755   5.317   1.301   1.566
  952SOL    HW2 3756   5.177   1.226   1.529
  953SOL     OW 3757   3.562   6.930   6.285
  953SOL    HW1 3758   3.633   6.998   6.266
  953SOL    HW2 3759   3.478   6.955   6.237
  954SOL     OW 3760   0.522   6.692   1.081
  954SOL    HW1 3761   0.453   6.629   1.045
  954SOL    HW2 3762   0.476   6.772   1.121
  955SOL     OW 3763   6.481   6.685   2.474
  955SOL    HW1 3764   6.432   6.743   2.408
  955SOL    HW2 3765   6.460   6.589   2.457
  956SOL     OW 3766   0.562   2.451   0.186
  956SOL    HW1 3767   0.606   2.538   0.166
  956SOL    HW2 3768   0.480   2.441   0.129
  957SOL     OW 3769   2.723   6.237   5.625
  957SOL    HW1 3770   2.651   6.175   5.658
  957SOL    HW2 3771   2.699   6.271   5.534
  958SOL     OW 3772   4.859   2.431   0.323
  958SOL    HW1 3773   4.829   2.371   0.397
  958SOL    HW2 3774   4.947   2.400   0.289
  959SOL     OW 3775   1.457   4.229   2.405
  959SOL    HW1 3776   1.472   4.326   2.389
  959SOL    HW2 3777   1.486   4.205   2.498
  960SOL     OW 3778   1.582   5.831   5.347
  960SOL    HW1 3779   1.598   5.743   5.391
  960SOL    HW2 3780   1.624   5.904   5.401
  961SOL     OW 3781   3.626   0.073   1.548
  961SOL    HW1 3782   3.530   0.089   1.529
  961SOL    HW2 3783   3.663   0.149   1.602
  962SOL     OW 3784   1.676   6.587   4.092
  962SOL    HW1 3785   1.718   6.609   4.004
  962SOL    HW2 3786   1.745   6.584   4.163
  963SOL     OW 3787   5.876   0.707   1.878
  963SOL    HW1 3788   5.914   0.678   1.790
  963SOL    HW2 3789   5.777   0.691   1.879
  964SOL     OW 3790   4.784   3.677   1.133
  964SOL    HW1 3791   4.717   3.751   1.129
  964SOL    HW2 3792   4.737   3.591   1.153
  965SOL     OW 3793   1.152   2.354   0.837
  965SOL    HW1 3794   1.164   2.443   0.793
  965SOL    HW2 3795   1.055   2.339   0.856
  966SOL     OW 3796   6.975   1.942   1.850
  966SOL    HW1 3797   6.910   1.921   1.923
  966SOL    HW2 3798   0.003   2.025   1.873
  967SOL     OW 3799   0.821   5.872   2.443
  967SOL    HW1 3800   0.738   5.926   2.430
  967SOL    HW2 3801   0.831   5.850   2.540
  968SOL     OW 3802   6.558   4.164   2.213
  968SOL    HW1 3803   6.545   4.263   2.225
  968SOL    HW2 3804   6.523   4.137   2.124
  969SOL     OW 3805   4.212   6.237   6.405
  969SOL    HW1 3806   4.269   6.198   6.333
  969SOL    HW2 3807   4.116   6.226   6.382
  970SOL     OW 3808   4.250   2.248   5.358
  970SOL    HW1 3809   4.279   2.162   5.401
  970SOL    HW2 3810   4.312   2.322   5.386
  971SOL     OW 3811   0.576   2.390   1.863
  971SOL    HW1 3812   0.609   2.381   1.957
  971SOL    HW2 3813   0.579   2.301   1.817
  972SOL     OW 3814   6.947   5.861   1.715
  972SOL    HW1 3815   6.932   5.960   1.719
  972SOL    HW2 3816   6.859   5.816   1.700
  973SOL     OW 3817   6.119   4.060   5.634
  973SOL    HW1 3818   6.203   4.111   5.655
  973SOL    HW2 3819   6.106   4.059   5.535
  974SOL     OW 3820   2.884   1.429   4.089
  974SOL    HW1 3821   2.790   1.457   4.069
  974SOL    HW2 3822   2.943   1.452   4.012
  975SOL     OW 3823   3.992   6.996   5.619
  975SOL    HW1 3824   3.971   6.986   5.716
  975SOL    HW2 3825   3.958   6.916   5.569
  976SOL     OW 3826   0.130   5.993   3.688
  976SOL    HW1 3827   0.220   6.004   3.731
  976SOL    HW2 3828   0.098   5.899   3.704
  977SOL     OW 3829   1.322   2.407   3.222
  977SOL    HW1 3830   1.278   2.430   3.309
  977SOL    HW2 3831   1.297   2.475   3.153
  978SOL     OW 3832   5.812   3.325   4.651
  978SOL    HW1 3833   5.842   3.245   4.599
  978SOL    HW2 3834   5.879   3.345   4.723
  979SOL     OW 3835   5.567   0.886   3.290
  979SOL    HW1 3836   5.531   0.863   3.200
  979SOL    HW2 3837   5.651   0.940   3.280
  980SOL     OW 3838   6.429   0.849   4.672
  980SOL    HW1 3839   6.388   0.833   4.762
  980SOL    HW2 3840   6.358   0.842   4.601
  981SOL     OW 3841   6.924   3.379   5.306
  981SOL    HW1 3842   6.896   3.386   5.402
  981SOL    HW2 3843   0.000   3.395   5.298
  982SOL     OW 3844   1.558   2.925   1.783
  982SOL    HW1 3845   1.618   2.917   1.704
  982SOL    HW2 3846   1.586   2.859   1.853
  983SOL     OW 3847   5.497   1.659   2.924
  983SOL    HW1 3848   5.538   1.595   2.990
  983SOL    HW2 3849   5.472   1.609   2.841
  984SOL     OW 3850   4.696   1.107   4.676
  984SOL    HW1 3851   4.679   1.136   4.581
  984SOL    HW2 3852   4.783   1.059   4.681
  985SOL     OW 3853   3.236   4.775   0.020
  985SOL    HW1 3854   3.304   4.721   6.992
  985SOL    HW2 3855   3.269   4.792   0.113
  986SOL     OW 3856   4.351   5.075   6.378
  986SOL    HW1 3857   4.410   5.094   6.300
  986SOL    HW2 3858   4.406   5.047   6.457
  987SOL     OW 3859   3.228   6.918   2.496
  987SOL    HW1 3860   3.187   6.842   2.444
  987SOL    HW2 3861   3.326   6.900   2.507
  988SOL     OW 3862   3.601   4.187   1.899
  988SOL    HW1 3863   3.634   4.247   1.826
  988SOL    HW2 3864   3.667   4.187   1.974
  989SOL     OW 3865   1.018   0.173   4.872
  989SOL    HW1 3866   0.928   0.170   4.916
  989SOL    HW2 3867   1.021   0.106   4.798
  990SOL     OW 3868   4.790   6.209   3.754
  990SOL    HW1 3869   4.733   6.195   3.673
  990SOL    HW2 3870   4.751   6.160   3.831
  991SOL     OW 3871   6.578   1.415   5.135
  991SOL    HW1 3872   6.623   1.373   5.056
  991SOL    HW2 3873   6.591   1.358   5.215
  992SOL     OW 3874   0.395   3.137   0.636
  992SOL    HW1 3875   0.297   3.118   0.639
  992SOL    HW2 3876   0.434   3.128   0.727
  993SOL     OW 3877   3.492   5.124   4.009
  993SOL    HW1 3878   3.544   5.193   4.059
  993SOL    HW2 3879   3.532   5.110   3.918
  994SOL     OW 3880   2.910   3.695   2.227
  994SOL    HW1 3881   2.970   3.659   2.298
  994SOL    HW2 3882   2.947   3.781   2.192
  995SOL     OW 3883   0.944   1.137   5.036
  995SOL    HW1 3884   0.984   1.110   5.123
  995SOL    HW2 3885   0.956   1.236   5.022
  996SOL     OW 3886   1.386   3.770   2.216
  996SOL    HW1 3887   1.353   3.760   2.122
  996SOL    HW2 3888   1.309   3.785   2.277
  997SOL     OW 3889   6.553   1.084   1.644
  997SOL    HW1 3890   6.635   1.114   1.595
  997SOL    HW2 3891   6.540   1.141   1.725
  998SOL     OW 3892   5.067   0.363   3.348
  998SOL    HW1 3893   5.158   0.405   3.342
  998SOL    HW2 3894   5.008   0.402   3.278
  999SOL     OW 3895   0.112   5.804   1.047
  999SOL    HW1 3896   0.171   5.727   1.071
  999SOL    HW2 3897   0.030   5.770   1.000
 1000SOL     OW 3898   4.119   1.934   4.099
 1000SOL    HW1 3899   4.066   1.868   4.045
 1000SOL    HW2 3900   4.182   1.983   4.040
 1001SOL     OW 3901   4.585   0.123   6.059
 1001SOL    HW1 3902   4.516   0.107   5.988
 1001SOL    HW2 3903   4.552   0.088   6.146
 1002SOL     OW 3904   6.587   1.819   0.545
 1002SOL    HW1 3905   6.665   1.868   0.583
 1002SOL    HW2 3906   6.593   1.722   0.570
 1003SOL     OW 3907   4.296   5.058   2.519
 1003SOL    HW1 3908   4.254   4.972   2.548
 1003SOL    HW2 3909   4.227   5.115   2.474
 1004SOL     OW 3910   5.774   5.595   0.395
 1004SOL    HW1 3911   5.794   5.516   0.452
 1004SOL    HW2 3912   5.741   5.671   0.452
 1005SOL     OW 3913   6.433   6.282   3.686
 1005SOL    HW1 3914   6.462   6.367   3.730
 1005SOL    HW2 3915   6.477   6.274   3.596
 1006SOL     OW 3916   2.416   4.304   1.098
 1006SOL    HW1 3917   2.474   4.375   1.137
 1006SOL    HW2 3918   2.345   4.278   1.164
 1007SOL     OW 3919   0.554   0.652   3.395
 1007SOL    HW1 3920   0.630   0.701   3.436
 1007SOL    HW2 3921   0.518   0.585   3.459
 1008SOL     OW 3922   2.229   2.968   3.343
 1008SOL    HW1 3923   2.217   3.058   3.301
 1008SOL    HW2 3924   2.260   2.980   3.437
 1009SOL     OW 3925   1.305   5.785   5.018
 1009SOL    HW1 3926   1.246   5.718   4.973
 1009SOL    HW2 3927   1.251   5.839   5.082
 1010SOL     OW 3928   4.920   1.203   6.637
 1010SOL    HW1 3929   4.823   1.200   6.614
 1010SOL    HW2 3930   4.933   1.165   6.729
 1011SOL     OW 3931   3.544   5.935   3.569
 1011SOL    HW1 3932   3.533   5.959   3.473
 1011SOL    HW2 3933   3.455   5.936   3.614
 1012SOL     OW 3934   5.044   5.627   0.192
 1012SOL    HW1 3935   5.027   5.582   0.105
 1012SOL    HW2 3936   5.003   5.574   0.266
 1013SOL     OW 3937   0.397   1.403   1.454
 1013SOL    HW1 3938   0.495   1.419   1.461
 1013SOL    HW2 3939   0.362   1.371   1.542
 1014SOL     OW 3940   5.288   0.459   6.324
 1014SOL    HW1 3941   5.208   0.411   6.360
 1014SOL    HW2 3942   5.265   0.556   6.312
 1015SOL     OW 3943   3.140   6.237   4.321
 1015SOL    HW1 3944   3.199   6.166   4.359
 1015SOL    HW2 3945   3.163   6.252   4.225
 1016SOL     OW 3946   4.389   2.879   1.442
 1016SOL    HW1 3947   4.339   2.824   1.375
 1016SOL    HW2 3948   4.474   2.833   1.465
 1017SOL     OW 3949   4.496   1.770   6.613
 1017SOL    HW1 3950   4.430   1.740   6.544
 1017SOL    HW2 3951   4.474   1.862   6.642
 1018SOL     OW 3952   1.843   3.580   2.496
 1018SOL    HW1 3953   1.818   3.496   2.447
 1018SOL    HW2 3954   1.941   3.579   2.515
 1019SOL     OW 3955   6.095   0.799   0.437
 1019SOL    HW1 3956   6.109   0.729   0.507
 1019SOL    HW2 3957   6.047   0.877   0.477
 1020SOL     OW 3958   2.950   1.812   1.618
 1020SOL    HW1 3959   2.974   1.714   1.614
 1020SOL    HW2 3960   3.003   1.862   1.549
 1021SOL     OW 3961   6.728   1.651   1.070
 1021SOL    HW1 3962   6.742   1.573   1.009
 1021SOL    HW2 3963   6.802   1.656   1.136
 1022SOL     OW 3964   4.327   2.903   6.719
 1022SOL    HW1 3965   4.425   2.898   6.739
 1022SOL    HW2 3966   4.298   2.818   6.675
 1023SOL     OW 3967   4.951   1.254   3.842
 1023SOL    HW1 3968   4.912   1.293   3.925
 1023SOL    HW2 3969   5.001   1.325   3.792
 1024SOL     OW 3970   5.779   1.692   3.425
 1024SOL    HW1 3971   5.726   1.765   3.384
 1024SOL    HW2 3972   5.877   1.712   3.416
 1025SOL     OW 3973   3.055   4.376   1.122
 1025SOL    HW1 3974   3.028   4.451   1.182
 1025SOL    HW2 3975   2.974   4.326   1.093
 1026SOL     OW 3976   1.074   2.774   6.848
 1026SOL    HW1 3977   1.011   2.809   6.779
 1026SOL    HW2 3978   1.022   2.737   6.925
 1027SOL     OW 3979   2.751   4.936   2.524
 1027SOL    HW1 3980   2.715   4.929   2.431
 1027SOL    HW2 3981   2.845   4.970   2.521
 1028SOL     OW 3982   1.977   6.154   0.746
 1028SOL    HW1 3983   1.973   6.058   0.775
 1028SOL    HW2 3984   1.993   6.158   0.647
 1029SOL     OW 3985   2.836   1.070   6.192
 1029SOL    HW1 3986   2.935   1.080   6.183
 1029SOL    HW2 3987   2.807   1.101   6.283
 1030SOL     OW 3988   3.473   4.177   4.900
 1030SOL    HW1 3989   3.572   4.166   4.910
 1030SOL    HW2 3990   3.451   4.195   4.805
 1031SOL     OW 3991   2.314   5.225   1.308
 1031SOL    HW1 3992   2.270   5.307   1.271
 1031SOL    HW2 3993   2.405   5.249   1.343
 1032SOL     OW 3994   1.809   0.777   4.310
 1032SOL    HW1 3995   1.728   0.718   4.311
 1032SOL    HW2 3996   1.813   0.828   4.396
 1033SOL     OW 3997   1.936   5.991   3.319
 1033SOL    HW1 3998   1.996   6.034   3.252
 1033SOL    HW2 3999   1.984   5.916   3.364
 1034SOL     OW 4000   1.348   5.636   3.363
 1034SOL    HW1 4001   1.257   5.601   3.339
 1034SOL    HW2 4002   1.365   5.620   3.460
 1035SOL     OW 4003   2.537   1.259   4.155
 1035SOL    HW1 4004   2.598   1.292   4.228
 1035SOL    HW2 4005   2.463   1.205   4.195
 1036SOL     OW 4006   4.836   1.741   0.116
 1036SOL    HW1 4007   4.931   1.750   0.084
 1036SOL    HW2 4008   4.780   1.703   0.042
 1037SOL     OW 4009   2.959   2.131   6.569
 1037SOL    HW1 4010   3.028   2.188   6.614
 1037SOL    HW2 4011   2.908   2.080   6.638
 1038SOL     OW 4012   2.612   1.437   3.955
 1038SOL    HW1 4013   2.537   1.500   3.934
 1038SOL    HW2 4014   2.583   1.371   4.023
 1039SOL     OW 4015   3.758   1.438   3.473
 1039SOL    HW1 4016   3.694   1.430   3.550
 1039SOL    HW2 4017   3.774   1.348   3.434
 1040SOL     OW 4018   6.450   4.293   3.469
 1040SOL    HW1 4019   6.479   4.378   3.426
 1040SOL    HW2 4020   6.366   4.309   3.521
 1041SOL     OW 4021   0.759   6.738   4.588
 1041SOL    HW1 4022   0.778   6.775   4.679
 1041SOL    HW2 4023   0.764   6.811   4.520
 1042SOL     OW 4024   5.397   4.129   0.848
 1042SOL    HW1 4025   5.415   4.176   0.935
 1042SOL    HW2 4026   5.340   4.048   0.866
 1043SOL     OW 4027   3.333   1.311   6.580
 1043SOL    HW1 4028   3.390   1.232   6.603
 1043SOL    HW2 4029   3.383   1.372   6.520
 1044SOL     OW 4030   4.122   3.809   1.835
 1044SOL    HW1 4031   4.215   3.795   1.800
 1044SOL    HW2 4032   4.110   3.758   1.920
 1045SOL     OW 4033   3.242   1.373   3.364
 1045SOL    HW1 4034   3.296   1.301   3.405
 1045SOL    HW2 4035   3.300   1.452   3.343
 1046SOL     OW 4036   3.827   0.891   1.934
 1046SOL    HW1 4037   3.749   0.935   1.979
 1046SOL    HW2 4038   3.900   0.957   1.921
 1047SOL     OW 4039   1.019   5.019   2.079
 1047SOL    HW1 4040   0.969   4.934   2.062
 1047SOL    HW2 4041   1.047   5.023   2.175
 1048SOL     OW 4042   6.114   4.634   5.534
 1048SOL    HW1 4043   6.149   4.541   5.533
 1048SOL    HW2 4044   6.033   4.639   5.593
 1049SOL     OW 4045   0.826   3.134   5.132
 1049SOL    HW1 4046   0.830   3.205   5.061
 1049SOL    HW2 4047   0.836   3.176   5.222
 1050SOL     OW 4048   3.320   0.381   6.816
 1050SOL    HW1 4049   3.301   0.385   6.718
 1050SOL    HW2 4050   3.260   0.445   6.864
 1051SOL     OW 4051   4.526   4.855   1.845
 1051SOL    HW1 4052   4.426   4.853   1.835
 1051SOL    HW2 4053   4.568   4.877   1.758
 1052SOL     OW 4054   3.160   6.881   4.475
 1052SOL    HW1 4055   3.244   6.929   4.503
 1052SOL    HW2 4056   3.148   6.890   4.376
 1053SOL     OW 4057   4.487   4.887   3.013
 1053SOL    HW1 4058   4.560   4.918   3.074
 1053SOL    HW2 4059   4.451   4.965   2.962
 1054SOL     OW 4060   3.778   6.214   4.220
 1054SOL    HW1 4061   3.750   6.205   4.315
 1054SOL    HW2 4062   3.733   6.144   4.165
 1055SOL     OW 4063   4.395   5.216   4.785
 1055SOL    HW1 4064   4.431   5.134   4.831
 1055SOL    HW2 4065   4.297   5.224   4.805
 1056SOL     OW 4066   1.563   6.234   5.325
 1056SOL    HW1 4067   1.624   6.212   5.250
 1056SOL    HW2 4068   1.617   6.255   5.407
 1057SOL     OW 4069   3.683   3.911   1.861
 1057SOL    HW1 4070   3.691   3.879   1.956
 1057SOL    HW2 4071   3.632   3.997   1.859
 1058SOL     OW 4072   3.634   0.511   1.207
 1058SOL    HW1 4073   3.612   0.558   1.121
 1058SOL    HW2 4074   3.731   0.523   1.227
 1059SOL     OW 4075   3.374   1.816   1.099
 1059SOL    HW1 4076   3.334   1.868   1.175
 1059SOL    HW2 4077   3.324   1.730   1.088
 1060SOL     OW 4078   2.517   2.232   4.873
 1060SOL    HW1 4079   2.494   2.245   4.776
 1060SOL    HW2 4080   2.610   2.264   4.890
 1061SOL     OW 4081   3.099   6.274   1.537
 1061SOL    HW1 4082   3.011   6.301   1.497
 1061SOL    HW2 4083   3.165   6.256   1.464
 1062SOL     OW 4084   4.880   4.424   5.129
 1062SOL    HW1 4085   4.934   4.487   5.073
 1062SOL    HW2 4086   4.937   4.347   5.158
 1063SOL     OW 4087   2.535   2.296   5.767
 1063SOL    HW1 4088   2.576   2.373   5.719
 1063SOL    HW2 4089   2.600   2.260   5.834
 1064SOL     OW 4090   0.280   3.292   1.514
 1064SOL    HW1 4091   0.304   3.378   1.469
 1064SOL    HW2 4092   0.182   3.275   1.504
 1065SOL     OW 4093   5.734   5.873   5.106
 1065SOL    HW1 4094   5.784   5.789   5.128
 1065SOL    HW2 4095   5.778   5.918   5.028
 1066SOL     OW 4096   3.634   0.438   3.783
 1066SOL    HW1 4097   3.674   0.349   3.806
 1066SOL    HW2 4098   3.589   0.432   3.695
 1067SOL     OW 4099   1.627   3.418   1.604
 1067SOL    HW1 4100   1.707   3.479   1.605
 1067SOL    HW2 4101   1.638   3.347   1.673
 1068SOL     OW 4102   0.883   3.872   1.575
 1068SOL    HW1 4103   0.820   3.817   1.629
 1068SOL    HW2 4104   0.833   3.919   1.502
 1069SOL     OW 4105   3.623   3.836   1.585
 1069SOL    HW1 4106   3.626   3.862   1.682
 1069SOL    HW2 4107   3.535   3.862   1.545
 1070SOL     OW 4108   2.307   0.654   6.992
 1070SOL    HW1 4109   2.301   0.748   0.004
 1070SOL    HW2 4110   2.358   0.599   0.036
 1071SOL     OW 4111   4.058   6.615   3.710
 1071SOL    HW1 4112   4.050   6.560   3.792
 1071SOL    HW2 4113   4.048   6.557   3.629
 1072SOL     OW 4114   3.537   5.805   3.211
 1072SOL    HW1 4115   3.528   5.706   3.212
 1072SOL    HW2 4116   3.628   5.831   3.243
 1073SOL     OW 4117   3.000   4.887   2.820
 1073SOL    HW1 4118   2.994   4.864   2.723
 1073SOL    HW2 4119   2.947   4.822   2.874
 1074SOL     OW 4120   1.443   5.200   2.300
 1074SOL    HW1 4121   1.355   5.247   2.290
 1074SOL    HW2 4122   1.471   5.163   2.212
 1075SOL     OW 4123   0.281   4.181   2.837
 1075SOL    HW1 4124   0.270   4.097   2.785
 1075SOL    HW2 4125   0.345   4.166   2.912
 1076SOL     OW 4126   0.175   4.856   3.542
 1076SOL    HW1 4127   0.170   4.799   3.459
 1076SOL    HW2 4128   0.170   4.952   3.516
 1077SOL     OW 4129   4.482   0.482   0.790
 1077SOL    HW1 4130   4.493   0.458   0.886
 1077SOL    HW2 4131   4.390   0.518   0.775
 1078SOL     OW 4132   1.456   2.515   1.895
 1078SOL    HW1 4133   1.415   2.547   1.809
 1078SOL    HW2 4134   1.486   2.594   1.949
 1079SOL     OW 4135   2.515   5.112   2.603
 1079SOL    HW1 4136   2.580   5.067   2.665
 1079SOL    HW2 4137   2.456   5.043   2.560
 1080SOL     OW 4138   1.387   5.621   4.093
 1080SOL    HW1 4139   1.443   5.559   4.147
 1080SOL    HW2 4140   1.361   5.577   4.008
 1081SOL     OW 4141   1.080   1.466   0.483
 1081SOL    HW1 4142   1.120   1.508   0.402
 1081SOL    HW2 4143   1.120   1.375   0.496
 1082SOL     OW 4144   2.172   6.968   6.675
 1082SOL    HW1 4145   2.098   7.022   6.716
 1082SOL    HW2 4146   2.224   0.004   6.612
 1083SOL     OW 4147   3.533   2.682   1.344
 1083SOL    HW1 4148   3.455   2.651   1.290
 1083SOL    HW2 4149   3.589   2.603   1.368
 1084SOL     OW 4150   6.385   3.682   0.440
 1084SOL    HW1 4151   6.382   3.768   0.490
 1084SOL    HW2 4152   6.424   3.611   0.497
 1085SOL     OW 4153   2.273   4.123   3.884
 1085SOL    HW1 4154   2.213   4.092   3.810
 1085SOL    HW2 4155   2.312   4.212   3.861
 1086SOL     OW 4156   4.273   5.468   1.938
 1086SOL    HW1 4157   4.272   5.495   1.842
 1086SOL    HW2 4158   4.367   5.454   1.968
 1087SOL     OW 4159   4.242   2.928   5.383
 1087SOL    HW1 4160   4.177   2.863   5.343
 1087SOL    HW2 4161   4.263   2.999   5.317
 1088SOL     OW 4162   5.279   4.091   3.507
 1088SOL    HW1 4163   5.242   3.999   3.519
 1088SOL    HW2 4164   5.216   4.158   3.546
 1089SOL     OW 4165   5.899   0.078   3.058
 1089SOL    HW1 4166   5.895   0.091   2.959
 1089SOL    HW2 4167   5.908   0.167   3.103
 1090SOL     OW 4168   0.869   1.779   5.284
 1090SOL    HW1 4169   0.841   1.695   5.238
 1090SOL    HW2 4170   0.900   1.757   5.376
 1091SOL     OW 4171   1.373   2.424   4.673
 1091SOL    HW1 4172   1.370   2.521   4.650
 1091SOL    HW2 4173   1.379   2.369   4.590
 1092SOL     OW 4174   2.245   4.843   1.086
 1092SOL    HW1 4175   2.155   4.880   1.112
 1092SOL    HW2 4176   2.315   4.913   1.099
 1093SOL     OW 4177   0.373   1.816   2.583
 1093SOL    HW1 4178   0.278   1.787   2.577
 1093SOL    HW2 4179   0.412   1.822   2.492
 1094SOL     OW 4180   0.797   6.471   1.556
 1094SOL    HW1 4181   0.893   6.444   1.567
 1094SOL    HW2 4182   0.747   6.450   1.640
 1095SOL     OW 4183   6.021   3.365   5.795
 1095SOL    HW1 4184   6.040   3.315   5.880
 1095SOL    HW2 4185   6.085   3.442   5.788
 1096SOL     OW 4186   3.697   4.373   1.710
 1096SOL    HW1 4187   3.689   4.367   1.611
 1096SOL    HW2 4188   3.648   4.455   1.743
 1097SOL     OW 4189   1.835   4.568   5.294
 1097SOL    HW1 4190   1.795   4.495   5.239
 1097SOL    HW2 4191   1.929   4.586   5.265
 1098SOL     OW 4192   4.094   1.065   3.463
 1098SOL    HW1 4193   4.159   0.991   3.482
 1098SOL    HW2 4194   4.129   1.122   3.389
 1099SOL     OW 4195   3.682   1.560   2.409
 1099SOL    HW1 4196   3.589   1.594   2.425
 1099SOL    HW2 4197   3.740   1.636   2.380
 1100SOL     OW 4198   0.751   0.100   0.790
 1100SOL    HW1 4199   0.757   0.134   0.883
 1100SOL    HW2 4200   0.813   0.152   0.731
 1101SOL     OW 4201   5.959   2.372   0.790
 1101SOL    HW1 4202   5.956   2.272   0.793
 1101SOL    HW2 4203   5.949   2.408   0.883
 1102SOL     OW 4204   0.764   4.654   4.004
 1102SOL    HW1 4205   0.814   4.587   3.949
 1102SOL    HW2 4206   0.683   4.611   4.043
 1103SOL     OW 4207   0.901   3.174   1.580
 1103SOL    HW1 4208   0.924   3.270   1.561
 1103SOL    HW2 4209   0.984   3.122   1.596
 1104SOL     OW 4210   3.022   5.266   5.678
 1104SOL    HW1 4211   3.119   5.290   5.670
 1104SOL    HW2 4212   2.999   5.254   5.775
 1105SOL     OW 4213   4.529   6.116   0.044
 1105SOL    HW1 4214   4.501   6.043   0.106
 1105SOL    HW2 4215   4.626   6.105   0.022
 1106SOL     OW 4216   1.090   1.779   5.847
 1106SOL    HW1 4217   1.107   1.699   5.904
 1106SOL    HW2 4218   1.103   1.754   5.751
 1107SOL     OW 4219   1.117   0.514   1.461
 1107SOL    HW1 4220   1.041   0.577   1.443
 1107SOL    HW2 4221   1.199   0.545   1.412
 1108SOL     OW 4222   1.155   1.560   5.978
 1108SOL    HW1 4223   1.077   1.500   5.961
 1108SOL    HW2 4224   1.231   1.507   6.014
 1109SOL     OW 4225   4.519   1.200   3.846
 1109SOL    HW1 4226   4.575   1.185   3.765
 1109SOL    HW2 4227   4.566   1.262   3.909
 1110SOL     OW 4228   3.437   2.826   2.193
 1110SOL    HW1 4229   3.431   2.731   2.163
 1110SOL    HW2 4230   3.437   2.887   2.113
 1111SOL     OW 4231   5.348   0.008   6.847
 1111SOL    HW1 4232   5.273   0.073   6.842
 1111SOL    HW2 4233   5.412   0.023   6.771
 1112SOL     OW 4234   0.198   1.434   2.787
 1112SOL    HW1 4235   0.281   1.380   2.779
 1112SOL    HW2 4236   0.164   1.457   2.696
 1113SOL     OW 4237   6.551   3.568   1.746
 1113SOL    HW1 4238   6.567   3.657   1.790
 1113SOL    HW2 4239   6.453   3.551   1.740
 1114SOL     OW 4240   5.644   1.581   4.960
 1114SOL    HW1 4241   5.739   1.554   4.945
 1114SOL    HW2 4242   5.612   1.542   5.046
 1115SOL     OW 4243   2.433   3.150   0.342
 1115SOL    HW1 4244   2.362   3.087   0.312
 1115SOL    HW2 4245   2.393   3.239   0.363
 1116SOL     OW 4246   4.185   5.488   5.039
 1116SOL    HW1 4247   4.131   5.571   5.024
 1116SOL    HW2 4248   4.282   5.512   5.042
 1117SOL     OW 4249   2.538   3.226   1.142
 1117SOL    HW1 4250   2.498   3.306   1.098
 1117SOL    HW2 4251   2.466   3.159   1.160
 1118SOL     OW 4252   1.790   3.775   3.555
 1118SOL    HW1 4253   1.711   3.732   3.599
 1118SOL    HW2 4254   1.870   3.765   3.614
 1119SOL     OW 4255   3.349   3.976   2.424
 1119SOL    HW1 4256   3.420   3.909   2.447
 1119SOL    HW2 4257   3.290   3.938   2.353
 1120SOL     OW 4258   4.194   0.684   4.718
 1120SOL    HW1 4259   4.281   0.640   4.696
 1120SOL    HW2 4260   4.122   0.650   4.658
 1121SOL     OW 4261   5.141   3.272   2.224
 1121SOL    HW1 4262   5.153   3.371   2.224
 1121SOL    HW2 4263   5.058   3.249   2.275
 1122SOL     OW 4264   4.925   4.956   6.806
 1122SOL    HW1 4265   4.932   4.861   6.777
 1122SOL    HW2 4266   4.905   5.014   6.726
 1123SOL     OW 4267   3.707   0.667   1.750
 1123SOL    HW1 4268   3.743   0.717   1.671
 1123SOL    HW2 4269   3.776   0.663   1.822
 1124SOL     OW 4270   0.863   4.510   4.959
 1124SOL    HW1 4271   0.931   4.476   5.023
 1124SOL    HW2 4272   0.826   4.597   4.992
 1125SOL     OW 4273   4.079   3.285   4.991
 1125SOL    HW1 4274   4.018   3.263   4.915
 1125SOL    HW2 4275   4.168   3.312   4.955
 1126SOL     OW 4276   5.721   0.324   2.560
 1126SOL    HW1 4277   5.638   0.379   2.570
 1126SOL    HW2 4278   5.747   0.320   2.464
 1127SOL     OW 4279   1.263   4.756   6.875
 1127SOL    HW1 4280   1.292   4.695   6.948
 1127SOL    HW2 4281   1.301   4.724   6.788
 1128SOL     OW 4282   3.370   1.574   4.903
 1128SOL    HW1 4283   3.297   1.627   4.946
 1128SOL    HW2 4284   3.334   1.526   4.823
 1129SOL     OW 4285   5.143   0.143   6.658
 1129SOL    HW1 4286   5.055   0.127   6.702
 1129SOL    HW2 4287   5.183   0.228   6.692
 1130SOL     OW 4288   0.161   4.707   5.837
 1130SOL    HW1 4289   0.107   4.634   5.878
 1130SOL    HW2 4290   0.224   4.745   5.905
 1131SOL     OW 4291   0.495   5.046   5.883
 1131SOL    HW1 4292   0.446   5.082   5.804
 1131SOL    HW2 4293   0.486   5.109   5.960
 1132SOL     OW 4294   4.809   0.178   5.367
 1132SOL    HW1 4295   4.759   0.135   5.442
 1132SOL    HW2 4296   4.748   0.239   5.316
 1133SOL     OW 4297   1.003   2.728   0.906
 1133SOL    HW1 4298   0.957   2.685   0.984
 1133SOL    HW2 4299   1.069   2.796   0.939
 1134SOL     OW 4300   6.373   2.897   5.725
 1134SOL    HW1 4301   6.376   2.824   5.657
 1134SOL    HW2 4302   6.465   2.932   5.742
 1135SOL     OW 4303   4.973   1.708   3.156
 1135SOL    HW1 4304   4.982   1.677   3.251
 1135SOL    HW2 4305   5.013   1.640   3.095
 1136SOL     OW 4306   3.766   5.534   4.174
 1136SOL    HW1 4307   3.822   5.476   4.115
 1136SOL    HW2 4308   3.806   5.536   4.266
 1137SOL     OW 4309   1.805   1.389   5.546
 1137SOL    HW1 4310   1.890   1.337   5.550
 1137SOL    HW2 4311   1.802   1.455   5.621
 1138SOL     OW 4312   0.600   4.350   5.510
 1138SOL    HW1 4313   0.579   4.447   5.510
 1138SOL    HW2 4314   0.674   4.331   5.576
 1139SOL     OW 4315   1.268   6.690   1.378
 1139SOL    HW1 4316   1.187   6.682   1.320
 1139SOL    HW2 4317   1.348   6.706   1.320
 1140SOL     OW 4318   3.475   1.511   3.339
 1140SOL    HW1 4319   3.555   1.452   3.354
 1140SOL    HW2 4320   3.491   1.600   3.381
 1141SOL     OW 4321   6.837   5.960   5.975
 1141SOL    HW1 4322   6.932   5.989   5.991
 1141SOL    HW2 4323   6.775   6.017   6.028
 1142SOL     OW 4324   5.953   0.951   4.048
 1142SOL    HW1 4325   5.914   0.911   3.964
 1142SOL    HW2 4326   5.879   0.976   4.110
 1143SOL     OW 4327   4.218   1.532   2.512
 1143SOL    HW1 4328   4.208   1.433   2.521
 1143SOL    HW2 4329   4.210   1.575   2.602
 1144SOL     OW 4330   1.133   6.325   5.492
 1144SOL    HW1 4331   1.088   6.414   5.502
 1144SOL    HW2 4332   1.063   6.254   5.482
 1145SOL     OW 4333   1.362   5.341   5.273
 1145SOL    HW1 4334   1.420   5.317   5.351
 1145SOL    HW2 4335   1.407   5.314   5.188
 1146SOL     OW 4336   5.947   2.023   0.612
 1146SOL    HW1 4337   6.037   2.059   0.636
 1146SOL    HW2 4338   5.886   2.029   0.690
 1147SOL     OW 4339   6.168   2.661   1.669
 1147SOL    HW1 4340   6.151   2.563   1.673
 1147SOL    HW2 4341   6.228   2.682   1.592
 1148SOL     OW 4342   4.356   0.609   0.211
 1148SOL    HW1 4343   4.377   0.536   0.277
 1148SOL    HW2 4344   4.398   0.694   0.242
 1149SOL     OW 4345   0.316   3.147   2.731
 1149SOL    HW1 4346   0.401   3.097   2.713
 1149SOL    HW2 4347   0.248   3.123   2.662
 1150SOL     OW 4348   1.047   4.630   6.123
 1150SOL    HW1 4349   1.141   4.598   6.110
 1150SOL    HW2 4350   1.030   4.710   6.066
 1151SOL     OW 4351   4.568   5.753   0.063
 1151SOL    HW1 4352   4.621   5.711   0.136
 1151SOL    HW2 4353   4.628   5.769   7.006
 1152SOL     OW 4354   0.322   0.484   5.004
 1152SOL    HW1 4355   0.330   0.537   4.920
 1152SOL    HW2 4356   0.391   0.411   5.004
 1153SOL     OW 4357   2.359   5.355   2.582
 1153SOL    HW1 4358   2.406   5.424   2.526
 1153SOL    HW2 4359   2.423   5.282   2.605
 1154SOL     OW 4360   2.125   4.422   1.914
 1154SOL    HW1 4361   2.123   4.425   2.013
 1154SOL    HW2 4362   2.180   4.497   1.879
 1155SOL     OW 4363   3.075   5.529   1.957
 1155SOL    HW1 4364   3.139   5.593   1.999
 1155SOL    HW2 4365   3.037   5.469   2.027
 1156SOL     OW 4366   1.659   0.899   4.130
 1156SOL    HW1 4367   1.709   0.855   4.205
 1156SOL    HW2 4368   1.688   0.994   4.121
 1157SOL     OW 4369   1.298   2.096   4.242
 1157SOL    HW1 4370   1.395   2.074   4.229
 1157SOL    HW2 4371   1.267   2.056   4.328
 1158SOL     OW 4372   4.604   5.344   5.455
 1158SOL    HW1 4373   4.574   5.332   5.549
 1158SOL    HW2 4374   4.701   5.319   5.447
 1159SOL     OW 4375   5.195   5.171   3.192
 1159SOL    HW1 4376   5.155   5.139   3.106
 1159SOL    HW2 4377   5.150   5.125   3.268
 1160SOL     OW 4378   2.748   2.807   0.640
 1160SOL    HW1 4379   2.752   2.815   0.540
 1160SOL    HW2 4380   2.666   2.855   0.673
 1161SOL     OW 4381   4.028   0.055   4.471
 1161SOL    HW1 4382   4.005   0.105   4.387
 1161SOL    HW2 4383   3.958   0.070   4.540
 1162SOL     OW 4384   4.056   4.567   1.662
 1162SOL    HW1 4385   4.140   4.581   1.715
 1162SOL    HW2 4386   4.012   4.483   1.691
 1163SOL     OW 4387   4.651   2.139   2.343
 1163SOL    HW1 4388   4.708   2.198   2.285
 1163SOL    HW2 4389   4.570   2.190   2.373
 1164SOL     OW 4390   5.809   3.388   3.863
 1164SOL    HW1 4391   5.749   3.386   3.783
 1164SOL    HW2 4392   5.901   3.414   3.834
 1165SOL     OW 4393   1.726   4.924   2.365
 1165SOL    HW1 4394   1.711   4.959   2.273
 1165SOL    HW2 4395   1.789   4.984   2.414
 1166SOL     OW 4396   3.574   3.083   6.276
 1166SOL    HW1 4397   3.515   3.028   6.335
 1166SOL    HW2 4398   3.588   3.035   6.189
 1167SOL     OW 4399   4.757   1.535   4.369
 1167SOL    HW1 4400   4.707   1.621   4.367
 1167SOL    HW2 4401   4.813   1.530   4.451
 1168SOL     OW 4402   6.196   5.784   3.491
 1168SOL    HW1 4403   6.158   5.873   3.515
 1168SOL    HW2 4404   6.200   5.775   3.392
 1169SOL     OW 4405   1.075   3.544   1.765
 1169SOL    HW1 4406   1.113   3.634   1.740
 1169SOL    HW2 4407   1.047   3.496   1.682
 1170SOL     OW 4408   2.755   0.480   0.680
 1170SOL    HW1 4409   2.707   0.549   0.733
 1170SOL    HW2 4410   2.734   0.389   0.717
 1171SOL     OW 4411   2.202   0.123   0.568
 1171SOL    HW1 4412   2.143   0.141   0.647
 1171SOL    HW2 4413   2.223   0.209   0.521
 1172SOL     OW 4414   3.278   3.070   4.990
 1172SOL    HW1 4415   3.349   3.002   4.973
 1172SOL    HW2 4416   3.296   3.116   5.077
 1173SOL     OW 4417   4.798   0.906   6.039
 1173SOL    HW1 4418   4.787   0.809   6.058
 1173SOL    HW2 4419   4.887   0.937   6.075
 1174SOL     OW 4420   3.131   6.619   0.956
 1174SOL    HW1 4421   3.171   6.658   1.039
 1174SOL    HW2 4422   3.205   6.585   0.897
 1175SOL     OW 4423   6.831   4.752   5.102
 1175SOL    HW1 4424   6.814   4.784   5.195
 1175SOL    HW2 4425   6.927   4.726   5.092
 1176SOL     OW 4426   6.781   3.524   1.066
 1176SOL    HW1 4427   6.850   3.497   1.134
 1176SOL    HW2 4428   6.806   3.612   1.027
 1177SOL     OW 4429   6.123   3.295   0.237
 1177SOL    HW1 4430   6.105   3.376   0.182
 1177SOL    HW2 4431   6.071   3.300   0.322
 1178SOL     OW 4432   5.599   4.186   1.942
 1178SOL    HW1 4433   5.591   4.094   1.903
 1178SOL    HW2 4434   5.514   4.211   1.988
 1179SOL     OW 4435   2.751   5.614   6.701
 1179SOL    HW1 4436   2.769   5.672   6.622
 1179SOL    HW2 4437   2.653   5.595   6.706
 1180SOL     OW 4438   2.743   1.975   4.010
 1180SOL    HW1 4439   2.780   1.883   4.000
 1180SOL    HW2 4440   2.708   2.007   3.922
 1181SOL     OW 4441   2.047   4.368   3.273
 1181SOL    HW1 4442   2.147   4.365   3.281
 1181SOL    HW2 4443   2.010   4.428   3.343
 1182SOL     OW 4444   1.369   4.646   3.403
 1182SOL    HW1 4445   1.278   4.610   3.386
 1182SOL    HW2 4446   1.369   4.746   3.396
 1183SOL     OW 4447   4.761   5.512   1.116
 1183SOL    HW1 4448   4.838   5.448   1.110
 1183SOL    HW2 4449   4.687   5.470   1.168
 1184SOL     OW 4450   3.168   2.611   5.600
 1184SOL    HW1 4451   3.087   2.552   5.602
 1184SOL    HW2 4452   3.187   2.639   5.506
 1185SOL     OW 4453   2.328   2.045   0.256
 1185SOL    HW1 4454   2.373   2.127   0.222
 1185SOL    HW2 4455   2.324   1.977   0.182
 1186SOL     OW 4456   3.912   0.980   5.226
 1186SOL    HW1 4457   3.909   0.880   5.225
 1186SOL    HW2 4458   3.819   1.016   5.227
 1187SOL     OW 4459   6.897   1.213   5.534
 1187SOL    HW1 4460   6.812   1.174   5.499
 1187SOL    HW2 4461   6.955   1.140   5.569
 1188SOL     OW 4462   1.223   0.087   5.727
 1188SOL    HW1 4463   1.259   0.161   5.670
 1188SOL    HW2 4464   1.293   0.054   5.790
 1189SOL     OW 4465   6.751   0.898   1.513
 1189SOL    HW1 4466   6.780   0.860   1.425
 1189SOL    HW2 4467   6.652   0.883   1.525
 1190SOL     OW 4468   4.550   4.384   2.872
 1190SOL    HW1 4469   4.468   4.431   2.838
 1190SOL    HW2 4470   4.604   4.351   2.795
 1191SOL     OW 4471   3.589   4.707   7.001
 1191SOL    HW1 4472   3.578   4.803   0.005
 1191SOL    HW2 4473   3.637   4.658   0.052
 1192SOL     OW 4474   4.551   5.023   2.388
 1192SOL    HW1 4475   4.470   5.029   2.447
 1192SOL    HW2 4476   4.634   5.029   2.445
 1193SOL     OW 4477   4.296   6.707   3.939
 1193SOL    HW1 4478   4.240   6.625   3.954
 1193SOL    HW2 4479   4.279   6.743   3.847
 1194SOL     OW 4480   6.077   0.443   1.401
 1194SOL    HW1 4481   6.150   0.470   1.464
 1194SOL    HW2 4482   6.045   0.352   1.425
 1195SOL     OW 4483   3.994   0.412   6.844
 1195SOL    HW1 4484   3.929   0.483   6.816
 1195SOL    HW2 4485   4.075   0.417   6.785
 1196SOL     OW 4486   0.112   5.662   2.681
 1196SOL    HW1 4487   0.069   5.620   2.601
 1196SOL    HW2 4488   0.142   5.591   2.744
 1197SOL     OW 4489   2.979   5.413   6.160
 1197SOL    HW1 4490   2.970   5.365   6.248
 1197SOL    HW2 4491   2.889   5.439   6.126
 1198SOL     OW 4492   3.182   1.482   2.505
 1198SOL    HW1 4493   3.112   1.551   2.524
 1198SOL    HW2 4494   3.224   1.453   2.591
 1199SOL     OW 4495   3.651   4.161   3.648
 1199SOL    HW1 4496   3.568   4.148   3.595
 1199SOL    HW2 4497   3.629   4.157   3.746
 1200SOL     OW 4498   4.056   3.976   0.446
 1200SOL    HW1 4499   4.005   3.909   0.392
 1200SOL    HW2 4500   4.061   3.945   0.541
 1201SOL     OW 4501   1.581   0.663   4.718
 1201SOL    HW1 4502   1.523   0.732   4.674
 1201SOL    HW2 4503   1.523   0.591   4.756
 1202SOL     OW 4504   5.890   0.409   5.011
 1202SOL    HW1 4505   5.917   0.468   4.935
 1202SOL    HW2 4506   5.837   0.331   4.977
 1203SOL     OW 4507   5.978   6.604   2.014
 1203SOL    HW1 4508   6.024   6.521   2.046
 1203SOL    HW2 4509   5.918   6.582   1.938
 1204SOL     OW 4510   3.040   0.304   0.035
 1204SOL    HW1 4511   2.945   0.333   0.052
 1204SOL    HW2 4512   3.047   0.205   0.043
 1205SOL     OW 4513   0.315   2.221   5.260
 1205SOL    HW1 4514   0.289   2.206   5.165
 1205SOL    HW2 4515   0.399   2.274   5.264
 1206SOL     OW 4516   0.775   1.651   4.742
 1206SOL    HW1 4517   0.774   1.608   4.652
 1206SOL    HW2 4518   0.709   1.727   4.744
 1207SOL     OW 4519   5.855   6.084   6.542
 1207SOL    HW1 4520   5.889   6.172   6.577
 1207SOL    HW2 4521   5.870   6.080   6.443
 1208SOL     OW 4522   3.895   4.042   3.682
 1208SOL    HW1 4523   3.909   4.023   3.779
 1208SOL    HW2 4524   3.813   4.098   3.670
 1209SOL     OW 4525   6.529   4.756   4.689
 1209SOL    HW1 4526   6.434   4.783   4.708
 1209SOL    HW2 4527   6.532   4.699   4.607
 1210SOL     OW 4528   2.727   6.608   2.746
 1210SOL    HW1 4529   2.772   6.649   2.826
 1210SOL    HW2 4530   2.776   6.634   2.663
 1211SOL     OW 4531   1.278   3.432   4.303
 1211SOL    HW1 4532   1.303   3.389   4.390
 1211SOL    HW2 4533   1.204   3.498   4.319
 1212SOL     OW 4534   2.250   4.126   4.749
 1212SOL    HW1 4535   2.156   4.159   4.755
 1212SOL    HW2 4536   2.285   4.111   4.842
 1213SOL     OW 4537   5.492   2.829   5.678
 1213SOL    HW1 4538   5.563   2.775   5.632
 1213SOL    HW2 4539   5.425   2.767   5.719
 1214SOL     OW 4540   1.986   2.765   2.892
 1214SOL    HW1 4541   2.021   2.711   2.815
 1214SOL    HW2 4542   2.057   2.827   2.924
 1215SOL     OW 4543   0.465   5.191   1.948
 1215SOL    HW1 4544   0.377   5.161   1.985
 1215SOL    HW2 4545   0.534   5.192   2.020
 1216SOL     OW 4546   3.013   0.106   1.879
 1216SOL    HW1 4547   3.017   0.203   1.902
 1216SOL    HW2 4548   2.948   0.060   1.939
 1217SOL     OW 4549   1.361   1.545   2.769
 1217SOL    HW1 4550   1.458   1.559   2.750
 1217SOL    HW2 4551   1.325   1.474   2.708
 1218SOL     OW 4552   0.492   3.474   4.285
 1218SOL    HW1 4553   0.438   3.396   4.318
 1218SOL    HW2 4554   0.438   3.527   4.219
 1219SOL     OW 4555   2.321   6.142   3.460
 1219SOL    HW1 4556   2.325   6.079   3.383
 1219SOL    HW2 4557   2.399   6.126   3.521
 1220SOL     OW 4558   6.656   4.306   2.783
 1220SOL    HW1 4559   6.597   4.320   2.704
 1220SOL    HW2 4560   6.607   4.255   2.854
 1221SOL     OW 4561   4.830   3.577   6.919
 1221SOL    HW1 4562   4.739   3.539   6.907
 1221SOL    HW2 4563   4.869   3.545   7.006
 1222SOL     OW 4564   5.726   5.876   1.443
 1222SOL    HW1 4565   5.709   5.868   1.542
 1222SOL    HW2 4566   5.717   5.786   1.401
 1223SOL     OW 4567   5.794   5.409   5.148
 1223SOL    HW1 4568   5.843   5.493   5.125
 1223SOL    HW2 4569   5.717   5.430   5.209
 1224SOL     OW 4570   4.916   4.817   2.057
 1224SOL    HW1 4571   4.824   4.839   2.090
 1224SOL    HW2 4572   4.912   4.793   1.960
 1225SOL     OW 4573   4.520   1.266   0.257
 1225SOL    HW1 4574   4.553   1.224   0.172
 1225SOL    HW2 4575   4.421   1.276   0.253
 1226SOL     OW 4576   4.998   4.760   0.358
 1226SOL    HW1 4577   4.918   4.734   0.304
 1226SOL    HW2 4578   4.980   4.744   0.455
 1227SOL     OW 4579   5.175   4.930   6.567
 1227SOL    HW1 4580   5.187   4.931   6.666
 1227SOL    HW2 4581   5.198   5.020   6.529
 1228SOL     OW 4582   3.676   3.792   4.349
 1228SOL    HW1 4583   3.642   3.753   4.434
 1228SOL    HW2 4584   3.601   3.803   4.284
 1229SOL     OW 4585   1.982   5.793   2.671
 1229SOL    HW1 4586   1.926   5.788   2.754
 1229SOL    HW2 4587   2.072   5.753   2.689
 1230SOL     OW 4588   5.220   5.274   1.844
 1230SOL    HW1 4589   5.291   5.293   1.913
 1230SOL    HW2 4590   5.189   5.180   1.853
 1231SOL     OW 4591   1.934   2.151   6.959
 1231SOL    HW1 4592   1.914   2.244   6.992
 1231SOL    HW2 4593   1.937   2.152   6.859
 1232SOL     OW 4594   3.090   1.237   4.817
 1232SOL    HW1 4595   3.087   1.301   4.740
 1232SOL    HW2 4596   3.006   1.244   4.870
 1233SOL     OW 4597   6.769   5.554   5.298
 1233SOL    HW1 4598   6.741   5.470   5.253
 1233SOL    HW2 4599   6.867   5.550   5.319
 1234SOL     OW 4600   6.270   3.849   6.813
 1234SOL    HW1 4601   6.312   3.939   6.804
 1234SOL    HW2 4602   6.260   3.827   6.910
 1235SOL     OW 4603   6.202   5.198   1.414
 1235SOL    HW1 4604   6.286   5.240   1.449
 1235SOL    HW2 4605   6.219   5.102   1.392
 1236SOL     OW 4606   1.341   1.679   3.021
 1236SOL    HW1 4607   1.415   1.643   3.077
 1236SOL    HW2 4608   1.337   1.629   2.934
 1237SOL     OW 4609   0.981   6.775   5.157
 1237SOL    HW1 4610   0.924   6.696   5.136
 1237SOL    HW2 4611   1.030   6.804   5.075
 1238SOL     OW 4612   0.708   0.332   4.500
 1238SOL    HW1 4613   0.776   0.393   4.459
 1238SOL    HW2 4614   0.635   0.387   4.540
 1239SOL     OW 4615   4.963   5.043   4.167
 1239SOL    HW1 4616   4.901   5.107   4.121
 1239SOL    HW2 4617   4.957   5.056   4.266
 1240SOL     OW 4618   1.072   3.930   2.036
 1240SOL    HW1 4619   1.143   3.889   1.979
 1240SOL    HW2 4620   1.004   3.861   2.061
 1241SOL     OW 4621   4.269   5.368   5.565
 1241SOL    HW1 4622   4.365   5.370   5.590
 1241SOL    HW2 4623   4.227   5.456   5.586
 1242SOL     OW 4624   2.244   4.215   0.902
 1242SOL    HW1 4625   2.304   4.250   0.974
 1242SOL    HW2 4626   2.153   4.255   0.912
 1243SOL     OW 4627   0.583   3.871   4.274
 1243SOL    HW1 4628   0.517   3.868   4.199
 1243SOL    HW2 4629   0.539   3.840   4.358
 1244SOL     OW 4630   6.072   0.380   5.486
 1244SOL    HW1 4631   6.049   0.373   5.389
 1244SOL    HW2 4632   6.171   0.378   5.498
 1245SOL     OW 4633   4.735   6.069   1.228
 1245SOL    HW1 4634   4.758   6.164   1.205
 1245SOL    HW2 4635   4.819   6.016   1.239
 1246SOL     OW 4636   5.069   0.755   0.531
 1246SOL    HW1 4637   5.096   0.813   0.608
 1246SOL    HW2 4638   5.147   0.740   0.471
 1247SOL     OW 4639   6.774   6.905   2.892
 1247SOL    HW1 4640   6.775   6.805   2.897
 1247SOL    HW2 4641   6.823   6.943   2.970
 1248SOL     OW 4642   1.101   6.690   4.590
 1248SOL    HW1 4643   1.181   6.674   4.532
 1248SOL    HW2 4644   1.054   6.773   4.559
 1249SOL     OW 4645   5.864   5.760   6.410
 1249SOL    HW1 4646   5.858   5.776   6.312
 1249SOL    HW2 4647   5.774   5.740   6.447
 1250SOL     OW 4648   0.182   2.926   4.845
 1250SOL    HW1 4649   0.255   2.895   4.906
 1250SOL    HW2 4650   0.093   2.899   4.882
 1251SOL     OW 4651   2.834   1.066   2.753
 1251SOL    HW1 4652   2.908   1.000   2.762
 1251SOL    HW2 4653   2.785   1.050   2.667
 1252SOL     OW 4654   1.891   5.873   6.463
 1252SOL    HW1 4655   1.869   5.968   6.442
 1252SOL    HW2 4656   1.974   5.870   6.520
 1253SOL     OW 4657   3.239   6.966   0.107
 1253SOL    HW1 4658   3.238   6.868   0.086
 1253SOL    HW2 4659   3.274   7.016   0.028
 1254SOL     OW 4660   5.929   0.592   3.356
 1254SOL    HW1 4661   5.945   0.587   3.454
 1254SOL    HW2 4662   5.922   0.499   3.319
 1255SOL     OW 4663   5.569   1.165   5.542
 1255SOL    HW1 4664   5.550   1.251   5.495
 1255SOL    HW2 4665   5.517   1.163   5.628
 1256SOL     OW 4666   0.069   5.847   4.572
 1256SOL    HW1 4667   0.051   5.766   4.628
 1256SOL    HW2 4668   0.162   5.841   4.534
 1257SOL     OW 4669   0.331   6.319   3.629
 1257SOL    HW1 4670   0.240   6.278   3.630
 1257SOL    HW2 4671   0.352   6.351   3.537
 1258SOL     OW 4672   4.541   5.903   6.039
 1258SOL    HW1 4673   4.457   5.886   5.988
 1258SOL    HW2 4674   4.597   5.969   5.988
 1259SOL     OW 4675   5.749   0.232   5.451
 1259SOL    HW1 4676   5.654   0.208   5.472
 1259SOL    HW2 4677   5.765   0.328   5.474
 1260SOL     OW 4678   3.174   1.329   1.177
 1260SOL    HW1 4679   3.242   1.327   1.251
 1260SOL    HW2 4680   3.100   1.265   1.198
 1261SOL     OW 4681   6.739   4.396   5.392
 1261SOL    HW1 4682   6.798   4.320   5.364
 1261SOL    HW2 4683   6.693   4.434   5.312
 1262SOL     OW 4684   4.072   5.101   1.051
 1262SOL    HW1 4685   3.978   5.133   1.059
 1262SOL    HW2 4686   4.128   5.141   1.124
 1263SOL     OW 4687   6.678   2.205   0.822
 1263SOL    HW1 4688   6.718   2.178   0.734
 1263SOL    HW2 4689   6.744   2.189   0.895
 1264SOL     OW 4690   6.916   3.002   4.018
 1264SOL    HW1 4691   6.929   2.910   4.055
 1264SOL    HW2 4692   6.832   3.041   4.054
 1265SOL     OW 4693   6.967   6.033   4.714
 1265SOL    HW1 4694   6.878   6.058   4.676
 1265SOL    HW2 4695   7.006   5.957   4.662
 1266SOL     OW 4696   2.307   1.264   4.487
 1266SOL    HW1 4697   2.337   1.180   4.443
 1266SOL    HW2 4698   2.224   1.298   4.441
 1267SOL     OW 4699   6.284   4.956   2.279
 1267SOL    HW1 4700   6.274   4.972   2.378
 1267SOL    HW2 4701   6.208   4.999   2.231
 1268SOL     OW 4702   5.953   3.611   0.334
 1268SOL    HW1 4703   6.012   3.607   0.253
 1268SOL    HW2 4704   5.975   3.693   0.387
 1269SOL     OW 4705   6.971   5.651   6.132
 1269SOL    HW1 4706   6.891   5.597   6.106
 1269SOL    HW2 4707   6.958   5.686   6.225
 1270SOL     OW 4708   1.709   2.573   5.014
 1270SOL    HW1 4709   1.780   2.615   5.071
 1270SOL    HW2 4710   1.739   2.573   4.918
 1271SOL     OW 4711   5.060   1.965   3.089
 1271SOL    HW1 4712   4.985   2.027   3.063
 1271SOL    HW2 4713   5.023   1.877   3.116
 1272SOL     OW 4714   0.269   6.521   2.164
 1272SOL    HW1 4715   0.308   6.613   2.152
 1272SOL    HW2 4716   0.325   6.454   2.116
 1273SOL     OW 4717   2.616   6.433   6.540
 1273SOL    HW1 4718   2.615   6.422   6.639
 1273SOL    HW2 4719   2.575   6.521   6.515
 1274SOL     OW 4720   6.487   2.595   1.539
 1274SOL    HW1 4721   6.435   2.534   1.480
 1274SOL    HW2 4722   6.545   2.541   1.600
 1275SOL     OW 4723   3.917   1.519   3.796
 1275SOL    HW1 4724   3.840   1.574   3.765
 1275SOL    HW2 4725   3.948   1.553   3.885
 1276SOL     OW 4726   6.216   0.360   3.353
 1276SOL    HW1 4727   6.262   0.367   3.265
 1276SOL    HW2 4728   6.271   0.406   3.423
 1277SOL     OW 4729   0.155   1.067   5.084
 1277SOL    HW1 4730   0.212   1.141   5.119
 1277SOL    HW2 4731   0.150   1.073   4.984
 1278SOL     OW 4732   2.736   1.784   5.175
 1278SOL    HW1 4733   2.807   1.768   5.106
 1278SOL    HW2 4734   2.726   1.883   5.188
 1279SOL     OW 4735   2.615   5.318   6.944
 1279SOL    HW1 4736   2.678   5.361   7.009
 1279SOL    HW2 4737   2.667   5.259   6.882
 1280SOL     OW 4738   1.968   6.367   3.267
 1280SOL    HW1 4739   1.927   6.395   3.180
 1280SOL    HW2 4740   1.896   6.341   3.331
 1281SOL     OW 4741   0.772   6.852   3.863
 1281SOL    HW1 4742   0.673   6.837   3.867
 1281SOL    HW2 4743   0.813   6.783   3.802
 1282SOL     OW 4744   1.215   0.717   2.510
 1282SOL    HW1 4745   1.162   0.682   2.433
 1282SOL    HW2 4746   1.192   0.813   2.525
 1283SOL     OW 4747   5.015   5.201   5.738
 1283SOL    HW1 4748   5.055   5.283   5.778
 1283SOL    HW2 4749   5.031   5.202   5.639
 1284SOL     OW 4750   2.432   1.877   2.268
 1284SOL    HW1 4751   2.521   1.831   2.260
 1284SOL    HW2 4752   2.365   1.813   2.305
 1285SOL     OW 4753   4.985   2.255   5.507
 1285SOL    HW1 4754   5.029   2.344   5.520
 1285SOL    HW2 4755   5.055   2.183   5.514
 1286SOL     OW 4756   6.074   5.578   1.590
 1286SOL    HW1 4757   6.063   5.585   1.491
 1286SOL    HW2 4758   6.168   5.601   1.615
 1287SOL     OW 4759   6.360   4.978   6.034
 1287SOL    HW1 4760   6.336   4.921   6.113
 1287SOL    HW2 4761   6.449   5.019   6.050
 1288SOL     OW 4762   6.685   2.706   2.816
 1288SOL    HW1 4763   6.751   2.634   2.833
 1288SOL    HW2 4764   6.635   2.686   2.732
 1289SOL     OW 4765   6.382   5.867   2.807
 1289SOL    HW1 4766   6.310   5.799   2.800
 1289SOL    HW2 4767   6.445   5.841   2.881
 1290SOL     OW 4768   0.926   6.754   1.744
 1290SOL    HW1 4769   0.976   6.839   1.727
 1290SOL    HW2 4770   0.891   6.718   1.658
 1291SOL     OW 4771   2.274   6.850   0.357
 1291SOL    HW1 4772   2.313   6.937   0.388
 1291SOL    HW2 4773   2.193   6.828   0.411
 1292SOL     OW 4774   1.113   6.189   0.282
 1292SOL    HW1 4775   1.169   6.180   0.199
 1292SOL    HW2 4776   1.169   6.227   0.355
 1293SOL     OW 4777   0.432   2.856   5.711
 1293SOL    HW1 4778   0.361   2.886   5.774
 1293SOL    HW2 4779   0.516   2.836   5.762
 1294SOL     OW 4780   6.765   1.910   2.667
 1294SOL    HW1 4781   6.772   1.843   2.741
 1294SOL    HW2 4782   6.669   1.927   2.645
 1295SOL     OW 4783   6.057   3.019   1.779
 1295SOL    HW1 4784   6.059   3.009   1.679
 1295SOL    HW2 4785   6.083   2.932   1.821
 1296SOL     OW 4786   3.732   2.793   6.219
 1296SOL    HW1 4787   3.743   2.855   6.140
 1296SOL    HW2 4788   3.682   2.712   6.190
 1297SOL     OW 4789   6.698   1.768   5.968
 1297SOL    HW1 4790   6.755   1.828   5.912
 1297SOL    HW2 4791   6.687   1.680   5.922
 1298SOL     OW 4792   5.665   3.025   3.455
 1298SOL    HW1 4793   5.600   2.950   3.467
 1298SOL    HW2 4794   5.631   3.106   3.502
 1299SOL     OW 4795   0.802   3.835   4.097
 1299SOL    HW1 4796   0.735   3.816   4.169
 1299SOL    HW2 4797   0.790   3.929   4.064
 1300SOL     OW 4798   2.852   3.465   1.281
 1300SOL    HW1 4799   2.892   3.428   1.365
 1300SOL    HW2 4800   2.886   3.414   1.203
 1301SOL     OW 4801   0.214   0.437   3.108
 1301SOL    HW1 4802   0.297   0.394   3.072
 1301SOL    HW2 4803   0.236   0.527   3.145
 1302SOL     OW 4804   2.507   5.821   4.845
 1302SOL    HW1 4805   2.419   5.794   4.806
 1302SOL    HW2 4806   2.500   5.820   4.945
 1303SOL     OW 4807   3.987   1.009   1.430
 1303SOL    HW1 4808   3.905   0.976   1.384
 1303SOL    HW2 4809   4.049   1.049   1.363
 1304SOL     OW 4810   2.868   1.050   6.487
 1304SOL    HW1 4811   2.947   0.992   6.505
 1304SOL    HW2 4812   2.892   1.146   6.502
 1305SOL     OW 4813   5.053   6.872   4.766
 1305SOL    HW1 4814   5.078   6.931   4.689
 1305SOL    HW2 4815   5.045   6.927   4.849
 1306SOL     OW 4816   0.978   4.709   4.177
 1306SOL    HW1 4817   0.941   4.664   4.096
 1306SOL    HW2 4818   0.934   4.671   4.259
 1307SOL     OW 4819   2.002   1.761   4.433
 1307SOL    HW1 4820   2.072   1.716   4.378
 1307SOL    HW2 4821   1.998   1.718   4.523
 1308SOL     OW 4822   4.537   5.781   2.831
 1308SOL    HW1 4823   4.488   5.694   2.825
 1308SOL    HW2 4824   4.631   5.768   2.800
 1309SOL     OW 4825   5.657   2.881   4.732
 1309SOL    HW1 4826   5.576   2.839   4.692
 1309SOL    HW2 4827   5.654   2.980   4.719
 1310SOL     OW 4828   4.938   3.806   5.283
 1310SOL    HW1 4829   4.912   3.840   5.373
 1310SOL    HW2 4830   4.935   3.706   5.282
 1311SOL     OW 4831   5.018   5.741   5.536
 1311SOL    HW1 4832   5.061   5.830   5.546
 1311SOL    HW2 4833   5.049   5.698   5.452
 1312SOL     OW 4834   0.383   6.883   1.226
 1312SOL    HW1 4835   0.381   6.916   1.320
 1312SOL    HW2 4836   0.416   6.956   1.165
 1313SOL     OW 4837   3.380   5.566   5.019
 1313SOL    HW1 4838   3.379   5.468   5.040
 1313SOL    HW2 4839   3.468   5.604   5.046
 1314SOL     OW 4840   6.278   1.487   4.700
 1314SOL    HW1 4841   6.233   1.458   4.616
 1314SOL    HW2 4842   6.235   1.571   4.734
 1315SOL     OW 4843   1.958   1.010   2.902
 1315SOL    HW1 4844   1.866   1.040   2.927
 1315SOL    HW2 4845   1.962   0.910   2.900
 1316SOL     OW 4846   2.959   6.601   2.582
 1316SOL    HW1 4847   2.998   6.537   2.515
 1316SOL    HW2 4848   2.944   6.689   2.537
 1317SOL     OW 4849   0.070   5.726   3.798
 1317SOL    HW1 4850   0.038   5.789   3.869
 1317SOL    HW2 4851   0.105   5.643   3.840
 1318SOL     OW 4852   0.128   6.650   0.962
 1318SOL    HW1 4853   0.211   6.624   1.010
 1318SOL    HW2 4854   0.151   6.682   0.870
 1319SOL     OW 4855   6.516   1.194   0.201
 1319SOL    HW1 4856   6.428   1.178   0.156
 1319SOL    HW2 4857   6.582   1.227   0.133
 1320SOL     OW 4858   5.589   5.059   6.128
 1320SOL    HW1 4859   5.519   4.987   6.119
 1320SOL    HW2 4860   5.619   5.065   6.223
 1321SOL     OW 4861   4.001   2.800   6.664
 1321SOL    HW1 4862   3.992   2.724   6.728
 1321SOL    HW2 4863   4.083   2.788   6.609
 1322SOL     OW 4864   6.166   1.689   5.167
 1322SOL    HW1 4865   6.229   1.660   5.094
 1322SOL    HW2 4866   6.127   1.609   5.211
 1323SOL     OW 4867   6.540   1.449   4.769
 1323SOL    HW1 4868   6.443   1.471   4.760
 1323SOL    HW2 4869   6.587   1.522   4.817
 1324SOL     OW 4870   0.818   3.829   0.663
 1324SOL    HW1 4871   0.790   3.807   0.569
 1324SOL    HW2 4872   0.914   3.856   0.663
 1325SOL     OW 4873   3.559   5.845   2.933
 1325SOL    HW1 4874   3.547   5.830   3.031
 1325SOL    HW2 4875   3.620   5.774   2.896
 1326SOL     OW 4876   5.579   3.103   4.012
 1326SOL    HW1 4877   5.669   3.108   4.055
 1326SOL    HW2 4878   5.521   3.177   4.046
 1327SOL     OW 4879   2.961   5.200   3.369
 1327SOL    HW1 4880   3.018   5.218   3.288
 1327SOL    HW2 4881   2.971   5.105   3.397
 1328SOL     OW 4882   1.836   2.554   6.766
 1328SOL    HW1 4883   1.875   2.478   6.819
 1328SOL    HW2 4884   1.786   2.518   6.687
 1329SOL     OW 4885   1.127   0.531   0.948
 1329SOL    HW1 4886   1.227   0.536   0.956
 1329SOL    HW2 4887   1.087   0.609   0.996
 1330SOL     OW 4888   6.365   6.565   1.539
 1330SOL    HW1 4889   6.293   6.516   1.588
 1330SOL    HW2 4890   6.324   6.622   1.468
 1331SOL     OW 4891   5.729   0.362   2.257
 1331SOL    HW1 4892   5.820   0.402   2.267
 1331SOL    HW2 4893   5.692   0.387   2.168
 1332SOL     OW 4894   4.354   1.597   1.508
 1332SOL    HW1 4895   4.412   1.670   1.474
 1332SOL    HW2 4896   4.369   1.514   1.454
 1333SOL     OW 4897   3.794   4.258   5.460
 1333SOL    HW1 4898   3.850   4.238   5.380
 1333SOL    HW2 4899   3.850   4.305   5.529
 1334SOL     OW 4900   0.433   3.821   4.526
 1334SOL    HW1 4901   0.509   3.756   4.521
 1334SOL    HW2 4902   0.424   3.854   4.620
 1335SOL     OW 4903   2.424   4.677   2.992
 1335SOL    HW1 4904   2.364   4.721   2.926
 1335SOL    HW2 4905   2.492   4.742   3.024
 1336SOL     OW 4906   0.655   0.688   5.480
 1336SOL    HW1 4907   0.556   0.692   5.465
 1336SOL    HW2 4908   0.687   0.595   5.464
 1337SOL     OW 4909   2.390   1.227   5.947
 1337SOL    HW1 4910   2.398   1.128   5.960
 1337SOL    HW2 4911   2.295   1.251   5.925
 1338SOL     OW 4912   4.008   5.762   0.473
 1338SOL    HW1 4913   4.047   5.815   0.549
 1338SOL    HW2 4914   4.081   5.715   0.425
 1339SOL     OW 4915   0.291   4.581   4.245
 1339SOL    HW1 4916   0.306   4.558   4.342
 1339SOL    HW2 4917   0.297   4.498   4.190
 1340SOL     OW 4918   1.947   1.768   6.195
 1340SOL    HW1 4919   1.864   1.814   6.162
 1340SOL    HW2 4920   1.938   1.670   6.181
 1341SOL     OW 4921   4.349   1.562   3.811
 1341SOL    HW1 4922   4.337   1.657   3.782
 1341SOL    HW2 4923   4.434   1.526   3.773
 1342SOL     OW 4924   0.390   6.475   1.002
 1342SOL    HW1 4925   0.314   6.415   1.024
 1342SOL    HW2 4926   0.415   6.463   0.906
 1343SOL     OW 4927   4.374   4.660   3.101
 1343SOL    HW1 4928   4.317   4.626   3.026
 1343SOL    HW2 4929   4.417   4.747   3.074
 1344SOL     OW 4930   5.775   1.309   2.648
 1344SOL    HW1 4931   5.775   1.409   2.656
 1344SOL    HW2 4932   5.867   1.278   2.626
 1345SOL     OW 4933   0.898   6.944   3.416
 1345SOL    HW1 4934   0.811   6.994   3.414
 1345SOL    HW2 4935   0.881   6.846   3.409
 1346SOL     OW 4936   0.034   0.638   3.744
 1346SOL    HW1 4937   0.077   0.638   3.654
 1346SOL    HW2 4938   0.086   0.698   3.806
 1347SOL     OW 4939   6.181   0.384   2.865
 1347SOL    HW1 4940   6.195   0.293   2.824
 1347SOL    HW2 4941   6.094   0.421   2.835
 1348SOL     OW 4942   5.033   4.349   4.546
 1348SOL    HW1 4943   5.014   4.436   4.591
 1348SOL    HW2 4944   5.113   4.357   4.488
 1349SOL     OW 4945   4.834   2.725   6.955
 1349SOL    HW1 4946   4.850   2.711   0.031
 1349SOL    HW2 4947   4.746   2.771   6.943
 1350SOL     OW 4948   3.208   0.009   5.708
 1350SOL    HW1 4949   3.136   0.075   5.729
 1350SOL    HW2 4950   3.292   0.034   5.757
 1351SOL     OW 4951   0.852   0.539   4.383
 1351SOL    HW1 4952   0.924   0.506   4.322
 1351SOL    HW2 4953   0.772   0.564   4.329
 1352SOL     OW 4954   0.442   0.527   3.607
 1352SOL    HW1 4955   0.387   0.444   3.595
 1352SOL    HW2 4956   0.491   0.522   3.694
 1353SOL     OW 4957   1.733   4.354   3.845
 1353SOL    HW1 4958   1.809   4.301   3.809
 1353SOL    HW2 4959   1.678   4.390   3.769
 1354SOL     OW 4960   0.257   0.371   1.481
 1354SOL    HW1 4961   0.169   0.331   1.507
 1354SOL    HW2 4962   0.241   0.462   1.443
 1355SOL     OW 4963   4.892   3.000   6.544
 1355SOL    HW1 4964   4.819   3.043   6.490
 1355SOL    HW2 4965   4.875   2.902   6.550
 1356SOL     OW 4966   3.209   3.942   2.171
 1356SOL    HW1 4967   3.142   3.918   2.101
 1356SOL    HW2 4968   3.273   4.010   2.134
 1357SOL     OW 4969   2.714   2.487   5.564
 1357SOL    HW1 4970   2.787   2.427   5.531
 1357SOL    HW2 4971   2.753   2.573   5.596
 1358SOL     OW 4972   2.582   2.569   5.345
 1358SOL    HW1 4973   2.586   2.669   5.349
 1358SOL    HW2 4974   2.600   2.531   5.435
 1359SOL     OW 4975   6.646   1.330   0.472
 1359SOL    HW1 4976   6.717   1.328   0.401
 1359SOL    HW2 4977   6.557   1.315   0.430
 1360SOL     OW 4978   2.980   3.280   4.224
 1360SOL    HW1 4979   2.948   3.254   4.133
 1360SOL    HW2 4980   2.955   3.375   4.242
 1361SOL     OW 4981   1.238   6.072   1.088
 1361SOL    HW1 4982   1.278   6.048   1.177
 1361SOL    HW2 4983   1.307   6.116   1.031
 1362SOL     OW 4984   3.184   2.836   6.029
 1362SOL    HW1 4985   3.200   2.789   5.942
 1362SOL    HW2 4986   3.212   2.931   6.021
 1363SOL     OW 4987   5.885   6.337   2.101
 1363SOL    HW1 4988   5.841   6.251   2.129
 1363SOL    HW2 4989   5.822   6.413   2.119
 1364SOL     OW 4990   0.692   3.709   0.882
 1364SOL    HW1 4991   0.722   3.748   0.794
 1364SOL    HW2 4992   0.704   3.610   0.881
 1365SOL     OW 4993   0.212   3.745   5.128
 1365SOL    HW1 4994   0.306   3.751   5.162
 1365SOL    HW2 4995   0.166   3.833   5.143
 1366SOL     OW 4996   5.191   0.474   1.035
 1366SOL    HW1 4997   5.096   0.479   1.003
 1366SOL    HW2 4998   5.252   0.511   0.965
 1367SOL     OW 4999   0.754   6.366   4.715
 1367SOL    HW1 5000   0.730   6.276   4.678
 1367SOL    HW2 5001   0.853   6.378   4.713
 1368SOL     OW 5002   1.361   6.460   5.394
 1368SOL    HW1 5003   1.274   6.435   5.437
 1368SOL    HW2 5004   1.417   6.378   5.383
 1369SOL     OW 5005   2.808   6.624   3.411
 1369SOL    HW1 5006   2.852   6.699   3.363
 1369SOL    HW2 5007   2.817   6.540   3.358
 1370SOL     OW 5008   6.739   2.198   2.831
 1370SOL    HW1 5009   6.778   2.170   2.744
 1370SOL    HW2 5010   6.749   2.297   2.842
 1371SOL     OW 5011   6.118   2.360   5.707
 1371SOL    HW1 5012   6.053   2.392   5.776
 1371SOL    HW2 5013   6.071   2.301   5.641
 1372SOL     OW 5014   6.601   3.176   0.159
 1372SOL    HW1 5015   6.528   3.127   0.113
 1372SOL    HW2 5016   6.629   3.254   0.103
 1373SOL     OW 5017   4.984   2.340   1.782
 1373SOL    HW1 5018   5.010   2.329   1.878
 1373SOL    HW2 5019   4.915   2.271   1.759
 1374SOL     OW 5020   3.947   3.847   0.707
 1374SOL    HW1 5021   3.952   3.842   0.807
 1374SOL    HW2 5022   3.865   3.798   0.676
 1375SOL     OW 5023   5.353   5.583   3.913
 1375SOL    HW1 5024   5.367   5.598   4.011
 1375SOL    HW2 5025   5.425   5.522   3.878
 1376SOL     OW 5026   2.497   4.625   6.164
 1376SOL    HW1 5027   2.516   4.615   6.067
 1376SOL    HW2 5028   2.525   4.716   6.195
 1377SOL     OW 5029   1.341   1.234   2.820
 1377SOL    HW1 5030   1.272   1.267   2.755
 1377SOL    HW2 5031   1.348   1.135   2.813
 1378SOL     OW 5032   4.628   2.260   4.056
 1378SOL    HW1 5033   4.595   2.201   3.983
 1378SOL    HW2 5034   4.681   2.206   4.122
 1379SOL     OW 5035   5.044   5.803   1.063
 1379SOL    HW1 5036   5.038   5.705   1.079
 1379SOL    HW2 5037   5.041   5.851   1.150
 1380SOL     OW 5038   6.853   6.295   2.007
 1380SOL    HW1 5039   6.869   6.240   2.088
 1380SOL    HW2 5040   6.939   6.332   1.973
 1381SOL     OW 5041   6.566   2.391   5.629
 1381SOL    HW1 5042   6.546   2.303   5.671
 1381SOL    HW2 5043   6.660   2.417   5.649
 1382SOL     OW 5044   4.831   2.698   0.218
 1382SOL    HW1 5045   4.853   2.608   0.258
 1382SOL    HW2 5046   4.741   2.728   0.251
 1383SOL     OW 5047   0.542   1.527   1.910
 1383SOL    HW1 5048   0.573   1.569   1.995
 1383SOL    HW2 5049   0.442   1.531   1.905
 1384SOL     OW 5050   5.892   1.783   1.781
 1384SOL    HW1 5051   5.926   1.869   1.742
 1384SOL    HW2 5052   5.886   1.792   1.881
 1385SOL     OW 5053   0.801   5.899   1.490
 1385SOL    HW1 5054   0.865   5.885   1.414
 1385SOL    HW2 5055   0.751   5.985   1.476
 1386SOL     OW 5056   2.335   5.654   4.230
 1386SOL    HW1 5057   2.403   5.726   4.236
 1386SOL    HW2 5058   2.380   5.566   4.220
 1387SOL     OW 5059   2.726   5.612   2.191
 1387SOL    HW1 5060   2.795   5.543   2.214
 1387SOL    HW2 5061   2.698   5.660   2.274
 1388SOL     OW 5062   6.605   0.624   1.873
 1388SOL    HW1 5063   6.567   0.701   1.925
 1388SOL    HW2 5064   6.689   0.654   1.826
 1389SOL     OW 5065   6.243   0.884   2.937
 1389SOL    HW1 5066   6.332   0.884   2.983
 1389SOL    HW2 5067   6.221   0.791   2.908
 1390SOL     OW 5068   0.844   1.550   6.149
 1390SOL    HW1 5069   0.870   1.494   6.070
 1390SOL    HW2 5070   0.823   1.490   6.226
 1391SOL     OW 5071   0.303   2.888   3.053
 1391SOL    HW1 5072   0.290   2.859   3.148
 1391SOL    HW2 5073   0.353   2.818   3.003
 1392SOL     OW 5074   4.903   4.669   5.537
 1392SOL    HW1 5075   4.987   4.640   5.492
 1392SOL    HW2 5076   4.824   4.634   5.486
 1393SOL     OW 5077   3.690   6.493   5.768
 1393SOL    HW1 5078   3.598   6.532   5.778
 1393SOL    HW2 5079   3.758   6.565   5.782
 1394SOL     OW 5080   2.093   5.942   5.997
 1394SOL    HW1 5081   2.148   5.862   5.972
 1394SOL    HW2 5082   2.153   6.011   6.037
 1395SOL     OW 5083   3.327   4.414   5.601
 1395SOL    HW1 5084   3.342   4.325   5.645
 1395SOL    HW2 5085   3.371   4.415   5.512
 1396SOL     OW 5086   5.713   6.023   4.256
 1396SOL    HW1 5087   5.770   6.106   4.260
 1396SOL    HW2 5088   5.745   5.964   4.182
 1397SOL     OW 5089   4.315   6.319   4.773
 1397SOL    HW1 5090   4.403   6.273   4.784
 1397SOL    HW2 5091   4.314   6.370   4.687
 1398SOL     OW 5092   1.596   1.506   4.713
 1398SOL    HW1 5093   1.563   1.571   4.782
 1398SOL    HW2 5094   1.581   1.544   4.622
 1399SOL     OW 5095   2.826   6.574   1.569
 1399SOL    HW1 5096   2.765   6.525   1.631
 1399SOL    HW2 5097   2.844   6.517   1.488
 1400SOL     OW 5098   1.084   0.157   2.238
 1400SOL    HW1 5099   1.166   0.203   2.272
 1400SOL    HW2 5100   1.103   0.117   2.149
 1401SOL     OW 5101   0.003   1.325   4.578
 1401SOL    HW1 5102   7.009   1.227   4.592
 1401SOL    HW2 5103   6.951   1.363   4.522
 1402SOL     OW 5104   6.762   3.249   0.364
 1402SOL    HW1 5105   6.688   3.215   0.305
 1402SOL    HW2 5106   6.738   3.232   0.459
 1403SOL     OW 5107   2.575   0.411   2.243
 1403SOL    HW1 5108   2.660   0.363   2.223
 1403SOL    HW2 5109   2.547   0.464   2.163
 1404SOL     OW 5110   5.866   0.400   0.386
 1404SOL    HW1 5111   5.956   0.358   0.391
 1404SOL    HW2 5112   5.848   0.452   0.469
 1405SOL     OW 5113   2.209   3.695   1.090
 1405SOL    HW1 5114   2.307   3.676   1.099
 1405SOL    HW2 5115   2.195   3.794   1.079
 1406SOL     OW 5116   1.908   4.049   0.908
 1406SOL    HW1 5117   1.847   4.067   0.984
 1406SOL    HW2 5118   1.864   3.988   0.843
 1407SOL     OW 5119   6.529   2.297   2.484
 1407SOL    HW1 5120   6.430   2.293   2.467
 1407SOL    HW2 5121   6.551   2.382   2.531
 1408SOL     OW 5122   6.542   0.813   6.698
 1408SOL    HW1 5123   6.503   0.721   6.707
 1408SOL    HW2 5124   6.504   0.858   6.617
 1409SOL     OW 5125   0.080   0.849   4.597
 1409SOL    HW1 5126   0.148   0.790   4.554
 1409SOL    HW2 5127   0.059   0.814   4.688
 1410SOL     OW 5128   0.603   2.996   0.058
 1410SOL    HW1 5129   0.595   2.957   6.988
 1410SOL    HW2 5130   0.539   2.951   0.119
 1411SOL     OW 5131   1.234   6.911   1.555
 1411SOL    HW1 5132   1.239   6.829   1.498
 1411SOL    HW2 5133   1.321   6.960   1.550
 1412SOL     OW 5134   0.929   2.692   0.019
 1412SOL    HW1 5135   0.858   2.718   0.083
 1412SOL    HW2 5136   0.965   2.602   0.042
 1413SOL     OW 5137   2.663   0.587   3.808
 1413SOL    HW1 5138   2.610   0.660   3.764
 1413SOL    HW2 5139   2.659   0.504   3.753
 1414SOL     OW 5140   1.897   1.867   1.965
 1414SOL    HW1 5141   1.965   1.881   1.892
 1414SOL    HW2 5142   1.887   1.952   2.018
 1415SOL     OW 5143   4.263   5.999   5.733
 1415SOL    HW1 5144   4.348   6.019   5.685
 1415SOL    HW2 5145   4.280   5.926   5.800
 1416SOL     OW 5146   4.476   5.328   1.702
 1416SOL    HW1 5147   4.396   5.276   1.672
 1416SOL    HW2 5148   4.559   5.284   1.668
 1417SOL     OW 5149   2.995   1.821   6.287
 1417SOL    HW1 5150   2.897   1.840   6.292
 1417SOL    HW2 5151   3.014   1.762   6.209
 1418SOL     OW 5152   3.916   4.013   3.114
 1418SOL    HW1 5153   3.994   4.062   3.076
 1418SOL    HW2 5154   3.926   4.006   3.213
 1419SOL     OW 5155   4.048   6.659   4.795
 1419SOL    HW1 5156   3.995   6.640   4.712
 1419SOL    HW2 5157   4.059   6.758   4.804
 1420SOL     OW 5158   0.609   5.988   2.003
 1420SOL    HW1 5159   0.609   5.890   2.023
 1420SOL    HW2 5160   0.692   6.012   1.952
 1421SOL     OW 5161   3.170   1.580   2.112
 1421SOL    HW1 5162   3.174   1.490   2.069
 1421SOL    HW2 5163   3.249   1.634   2.085
 1422SOL     OW 5164   3.097   5.217   0.689
 1422SOL    HW1 5165   3.101   5.316   0.692
 1422SOL    HW2 5166   3.082   5.187   0.594
 1423SOL     OW 5167   5.032   7.021   2.540
 1423SOL    HW1 5168   4.938   7.017   2.574
 1423SOL    HW2 5169   5.081   0.074   2.585
 1424SOL     OW 5170   6.159   5.246   4.875
 1424SOL    HW1 5171   6.078   5.225   4.929
 1424SOL    HW2 5172   6.241   5.232   4.931
 1425SOL     OW 5173   2.384   7.017   4.081
 1425SOL    HW1 5174   2.385   0.023   4.177
 1425SOL    HW2 5175   2.386   0.076   4.022
 1426SOL     OW 5176   0.806   1.437   5.493
 1426SOL    HW1 5177   0.794   1.429   5.394
 1426SOL    HW2 5178   0.727   1.399   5.540
 1427SOL     OW 5179   5.882   0.641   4.063
 1427SOL    HW1 5180   5.894   0.715   3.996
 1427SOL    HW2 5181   5.787   0.610   4.061
 1428SOL     OW 5182   5.558   2.002   6.778
 1428SOL    HW1 5183   5.639   2.006   6.720
 1428SOL    HW2 5184   5.562   1.919   6.835
 1429SOL     OW 5185   0.258   0.946   0.593
 1429SOL    HW1 5186   0.296   0.896   0.514
 1429SOL    HW2 5187   0.224   1.035   0.562
 1430SOL     OW 5188   1.762   5.431   3.638
 1430SOL    HW1 5189   1.853   5.419   3.678
 1430SOL    HW2 5190   1.702   5.358   3.669
 1431SOL     OW 5191   1.943   0.985   0.950
 1431SOL    HW1 5192   1.885   0.995   0.869
 1431SOL    HW2 5193   2.027   1.038   0.939
 1432SOL     OW 5194   1.935   1.346   2.370
 1432SOL    HW1 5195   1.911   1.317   2.277
 1432SOL    HW2 5196   1.876   1.422   2.398
 1433SOL     OW 5197   3.953   0.969   4.232
 1433SOL    HW1 5198   3.987   1.030   4.304
 1433SOL    HW2 5199   4.031   0.931   4.181
 1434SOL     OW 5200   1.133   0.877   5.510
 1434SOL    HW1 5201   1.083   0.964   5.510
 1434SOL    HW2 5202   1.226   0.892   5.477
 1435SOL     OW 5203   6.357   2.055   2.733
 1435SOL    HW1 5204   6.341   1.959   2.709
 1435SOL    HW2 5205   6.402   2.061   2.822
 1436SOL     OW 5206   4.172   3.611   0.321
 1436SOL    HW1 5207   4.198   3.528   0.272
 1436SOL    HW2 5208   4.082   3.642   0.289
 1437SOL     OW 5209   3.630   0.576   2.113
 1437SOL    HW1 5210   3.656   0.486   2.076
 1437SOL    HW2 5211   3.568   0.621   2.049
 1438SOL     OW 5212   3.019   6.834   1.339
 1438SOL    HW1 5213   2.922   6.832   1.311
 1438SOL    HW2 5214   3.027   6.807   1.434
 1439SOL     OW 5215   0.425   5.796   2.319
 1439SOL    HW1 5216   0.505   5.838   2.276
 1439SOL    HW2 5217   0.427   5.812   2.417
 1440SOL     OW 5218   3.136   3.186   1.369
 1440SOL    HW1 5219   3.071   3.139   1.428
 1440SOL    HW2 5220   3.100   3.189   1.276
 1441SOL     OW 5221   6.123   6.346   0.930
 1441SOL    HW1 5222   6.212   6.370   0.969
 1441SOL    HW2 5223   6.055   6.341   1.003
 1442SOL     OW 5224   5.853   5.162   0.639
 1442SOL    HW1 5225   5.918   5.118   0.577
 1442SOL    HW2 5226   5.854   5.261   0.622
 1443SOL     OW 5227   0.646   2.826   3.059
 1443SOL    HW1 5228   0.611   2.735   3.036
 1443SOL    HW2 5229   0.619   2.850   3.152
 1444SOL     OW 5230   6.043   5.206   0.316
 1444SOL    HW1 5231   6.143   5.206   0.304
 1444SOL    HW2 5232   6.016   5.286   0.369
 1445SOL     OW 5233   1.659   3.398   2.400
 1445SOL    HW1 5234   1.640   3.489   2.437
 1445SOL    HW2 5235   1.675   3.405   2.302
 1446SOL     OW 5236   6.862   0.419   6.816
 1446SOL    HW1 5237   6.916   0.387   6.894
 1446SOL    HW2 5238   6.765   0.419   6.840
 1447SOL     OW 5239   6.085   4.907   4.400
 1447SOL    HW1 5240   6.149   4.965   4.350
 1447SOL    HW2 5241   6.067   4.947   4.490
 1448SOL     OW 5242   1.291   3.300   5.922
 1448SOL    HW1 5243   1.367   3.314   5.858
 1448SOL    HW2 5244   1.295   3.369   5.993
 1449SOL     OW 5245   1.843   4.065   4.310
 1449SOL    HW1 5246   1.865   3.968   4.316
 1449SOL    HW2 5247   1.923   4.115   4.275
 1450SOL     OW 5248   2.194   2.277   4.615
 1450SOL    HW1 5249   2.157   2.340   4.683
 1450SOL    HW2 5250   2.122   2.216   4.583
 1451SOL     OW 5251   2.480   0.529   2.009
 1451SOL    HW1 5252   2.468   0.519   1.910
 1451SOL    HW2 5253   2.391   0.527   2.054
 1452SOL     OW 5254   4.820   2.862   5.469
 1452SOL    HW1 5255   4.919   2.865   5.483
 1452SOL    HW2 5256   4.777   2.939   5.516
 1453SOL     OW 5257   0.805   4.948   5.225
 1453SOL    HW1 5258   0.837   5.042   5.238
 1453SOL    HW2 5259   0.762   4.915   5.309
 1454SOL     OW 5260   3.509   1.801   3.410
 1454SOL    HW1 5261   3.497   1.889   3.364
 1454SOL    HW2 5262   3.531   1.816   3.506
 1455SOL     OW 5263   0.720   5.735   2.013
 1455SOL    HW1 5264   0.692   5.657   2.070
 1455SOL    HW2 5265   0.699   5.715   1.917
 1456SOL     OW 5266   6.296   5.362   5.223
 1456SOL    HW1 5267   6.332   5.329   5.136
 1456SOL    HW2 5268   6.197   5.348   5.225
 1457SOL     OW 5269   0.647   4.265   6.006
 1457SOL    HW1 5270   0.676   4.204   6.079
 1457SOL    HW2 5271   0.643   4.359   6.041
 1458SOL     OW 5272   5.031   5.387   5.212
 1458SOL    HW1 5273   4.990   5.308   5.167
 1458SOL    HW2 5274   5.078   5.443   5.144
 1459SOL     OW 5275   5.236   6.335   5.442
 1459SOL    HW1 5276   5.273   6.427   5.431
 1459SOL    HW2 5277   5.180   6.312   5.362
 1460SOL     OW 5278   1.714   6.380   5.514
 1460SOL    HW1 5279   1.791   6.373   5.451
 1460SOL    HW2 5280   1.677   6.473   5.512
 1461SOL     OW 5281   0.453   3.293   3.344
 1461SOL    HW1 5282   0.411   3.209   3.311
 1461SOL    HW2 5283   0.552   3.280   3.351
 1462SOL     OW 5284   0.798   0.542   0.633
 1462SOL    HW1 5285   0.852   0.516   0.713
 1462SOL    HW2 5286   0.771   0.460   0.583
 1463SOL     OW 5287   1.924   5.577   6.961
 1463SOL    HW1 5288   1.825   5.582   6.947
 1463SOL    HW2 5289   1.970   5.583   6.872
 1464SOL     OW 5290   0.541   4.269   4.205
 1464SOL    HW1 5291   0.619   4.211   4.228
 1464SOL    HW2 5292   0.504   4.311   4.288
 1465SOL     OW 5293   1.137   2.427   3.442
 1465SOL    HW1 5294   1.186   2.409   3.527
 1465SOL    HW2 5295   1.049   2.380   3.444
 1466SOL     OW 5296   4.727   2.435   1.468
 1466SOL    HW1 5297   4.793   2.485   1.524
 1466SOL    HW2 5298   4.732   2.468   1.373
 1467SOL     OW 5299   1.231   0.975   4.412
 1467SOL    HW1 5300   1.138   0.957   4.442
 1467SOL    HW2 5301   1.245   1.074   4.405
 1468SOL     OW 5302   2.607   5.770   2.415
 1468SOL    HW1 5303   2.532   5.832   2.390
 1468SOL    HW2 5304   2.622   5.775   2.514
 1469SOL     OW 5305   6.214   4.650   3.423
 1469SOL    HW1 5306   6.133   4.708   3.432
 1469SOL    HW2 5307   6.235   4.609   3.511
 1470SOL     OW 5308   6.430   1.899   0.859
 1470SOL    HW1 5309   6.520   1.898   0.903
 1470SOL    HW2 5310   6.404   1.806   0.835
 1471SOL     OW 5311   4.959   6.901   1.557
 1471SOL    HW1 5312   4.984   6.963   1.631
 1471SOL    HW2 5313   4.876   6.933   1.512
 1472SOL     OW 5314   1.697   6.968   6.176
 1472SOL    HW1 5315   1.783   6.935   6.138
 1472SOL    HW2 5316   1.706   0.042   6.202
 1473SOL     OW 5317   2.531   5.439   4.270
 1473SOL    HW1 5318   2.555   5.375   4.343
 1473SOL    HW2 5319   2.576   5.411   4.185
 1474SOL     OW 5320   3.565   5.172   1.242
 1474SOL    HW1 5321   3.606   5.095   1.290
 1474SOL    HW2 5322   3.602   5.258   1.278
 1475SOL     OW 5323   5.188   0.327   0.094
 1475SOL    HW1 5324   5.256   0.254   0.086
 1475SOL    HW2 5325   5.151   0.348   0.004
 1476SOL     OW 5326   4.940   0.950   1.116
 1476SOL    HW1 5327   4.923   0.889   1.194
 1476SOL    HW2 5328   4.862   1.011   1.104
 1477SOL     OW 5329   4.206   5.202   1.333
 1477SOL    HW1 5330   4.115   5.184   1.372
 1477SOL    HW2 5331   4.264   5.121   1.345
 1478SOL     OW 5332   5.278   5.829   6.181
 1478SOL    HW1 5333   5.181   5.849   6.171
 1478SOL    HW2 5334   5.295   5.792   6.272
 1479SOL     OW 5335   3.758   3.930   1.377
 1479SOL    HW1 5336   3.709   3.896   1.457
 1479SOL    HW2 5337   3.850   3.960   1.405
 1480SOL     OW 5338   3.023   0.475   4.832
 1480SOL    HW1 5339   3.073   0.531   4.765
 1480SOL    HW2 5340   3.087   0.417   4.881
 1481SOL     OW 5341   5.459   2.306   6.080
 1481SOL    HW1 5342   5.419   2.216   6.095
 1481SOL    HW2 5343   5.443   2.335   5.986
 1482SOL     OW 5344   4.702   1.140   0.468
 1482SOL    HW1 5345   4.745   1.218   0.513
 1482SOL    HW2 5346   4.642   1.172   0.395
 1483SOL     OW 5347   5.464   1.399   5.860
 1483SOL    HW1 5348   5.432   1.458   5.786
 1483SOL    HW2 5349   5.454   1.303   5.832
 1484SOL     OW 5350   3.125   5.614   5.091
 1484SOL    HW1 5351   3.215   5.582   5.060
 1484SOL    HW2 5352   3.098   5.694   5.036
 1485SOL     OW 5353   5.299   2.436   3.141
 1485SOL    HW1 5354   5.257   2.396   3.060
 1485SOL    HW2 5355   5.376   2.494   3.113
 1486SOL     OW 5356   5.281   0.029   4.063
 1486SOL    HW1 5357   5.238   0.010   3.975
 1486SOL    HW2 5358   5.213   0.021   4.136
 1487SOL     OW 5359   6.628   0.209   1.103
 1487SOL    HW1 5360   6.685   0.286   1.075
 1487SOL    HW2 5361   6.670   0.123   1.072
 1488SOL     OW 5362   6.119   0.680   2.793
 1488SOL    HW1 5363   6.118   0.740   2.713
 1488SOL    HW2 5364   6.044   0.615   2.787
 1489SOL     OW 5365   3.622   4.280   6.782
 1489SOL    HW1 5366   3.641   4.232   6.696
 1489SOL    HW2 5367   3.627   4.378   6.768
 1490SOL     OW 5368   0.190   2.285   2.832
 1490SOL    HW1 5369   0.215   2.323   2.743
 1490SOL    HW2 5370   0.106   2.231   2.823
 1491SOL     OW 5371   6.802   3.144   3.006
 1491SOL    HW1 5372   6.756   3.055   3.013
 1491SOL    HW2 5373   6.898   3.134   3.034
 1492SOL     OW 5374   6.104   1.365   2.944
 1492SOL    HW1 5375   6.083   1.417   2.861
 1492SOL    HW2 5376   6.117   1.269   2.920
 1493SOL     OW 5377   4.620   2.528   5.662
 1493SOL    HW1 5378   4.720   2.526   5.660
 1493SOL    HW2 5379   4.588   2.501   5.753
 1494SOL     OW 5380   6.369   4.620   5.347
 1494SOL    HW1 5381   6.312   4.678   5.405
 1494SOL    HW2 5382   6.378   4.662   5.257
 1495SOL     OW 5383   6.371   4.416   4.450
 1495SOL    HW1 5384   6.410   4.342   4.505
 1495SOL    HW2 5385   6.422   4.500   4.466
 1496SOL     OW 5386   6.362   5.661   6.556
 1496SOL    HW1 5387   6.354   5.636   6.653
 1496SOL    HW2 5388   6.441   5.614   6.516
 1497SOL     OW 5389   6.142   3.512   3.080
 1497SOL    HW1 5390   6.099   3.441   3.136
 1497SOL    HW2 5391   6.218   3.473   3.028
 1498SOL     OW 5392   3.421   4.331   0.758
 1498SOL    HW1 5393   3.391   4.386   0.680
 1498SOL    HW2 5394   3.406   4.234   0.738
 1499SOL     OW 5395   0.570   4.041   5.329
 1499SOL    HW1 5396   0.596   4.125   5.376
 1499SOL    HW2 5397   0.471   4.041   5.314
 1500SOL     OW 5398   0.840   5.377   1.782
 1500SOL    HW1 5399   0.872   5.462   1.741
 1500SOL    HW2 5400   0.743   5.363   1.762
 1501SOL     OW 5401   5.610   1.623   0.159
 1501SOL    HW1 5402   5.638   1.638   0.065
 1501SOL    HW2 5403   5.684   1.648   0.221
 1502SOL     OW 5404   6.462   0.050   7.016
 1502SOL    HW1 5405   6.509   0.110   6.952
 1502SOL    HW2 5406   6.363   0.069   7.013
 1503SOL     OW 5407   0.590   4.540   1.704
 1503SOL    HW1 5408   0.568   4.629   1.666
 1503SOL    HW2 5409   0.585   4.470   1.633
 1504SOL     OW 5410   0.715   0.292   2.388
 1504SOL    HW1 5411   0.645   0.221   2.398
 1504SOL    HW2 5412   0.806   0.252   2.401
 1505SOL     OW 5413   4.929   6.026   5.082
 1505SOL    HW1 5414   4.928   5.940   5.132
 1505SOL    HW2 5415   4.997   6.087   5.122
 1506SOL     OW 5416   0.449   1.662   0.830
 1506SOL    HW1 5417   0.522   1.642   0.765
 1506SOL    HW2 5418   0.367   1.691   0.781
 1507SOL     OW 5419   1.797   2.416   4.497
 1507SOL    HW1 5420   1.801   2.453   4.590
 1507SOL    HW2 5421   1.863   2.342   4.488
 1508SOL     OW 5422   1.307   0.942   0.674
 1508SOL    HW1 5423   1.393   0.892   0.663
 1508SOL    HW2 5424   1.243   0.917   0.602
 1509SOL     OW 5425   5.007   0.594   4.316
 1509SOL    HW1 5426   5.035   0.499   4.303
 1509SOL    HW2 5427   5.033   0.648   4.235
 1510SOL     OW 5428   3.662   5.800   4.097
 1510SOL    HW1 5429   3.610   5.775   4.015
 1510SOL    HW2 5430   3.699   5.717   4.139
 1511SOL     OW 5431   3.495   3.667   4.517
 1511SOL    HW1 5432   3.422   3.618   4.470
 1511SOL    HW2 5433   3.460   3.752   4.557
 1512SOL     OW 5434   6.343   6.139   1.014
 1512SOL    HW1 5435   6.425   6.097   1.052
 1512SOL    HW2 5436   6.272   6.070   1.002
 1513SOL     OW 5437   3.007   0.146   6.207
 1513SOL    HW1 5438   3.016   0.093   6.291
 1513SOL    HW2 5439   3.095   0.187   6.184
 1514SOL     OW 5440   3.389   2.079   5.697
 1514SOL    HW1 5441   3.447   2.158   5.720
 1514SOL    HW2 5442   3.383   2.018   5.776
 1515SOL     OW 5443   5.723   1.869   2.045
 1515SOL    HW1 5444   5.741   1.775   2.074
 1515SOL    HW2 5445   5.647   1.871   1.981
 1516SOL     OW 5446   5.894   6.808   4.743
 1516SOL    HW1 5447   5.823   6.839   4.680
 1516SOL    HW2 5448   5.858   6.735   4.801
 1517SOL     OW 5449   4.213   6.254   3.690
 1517SOL    HW1 5450   4.240   6.170   3.643
 1517SOL    HW2 5451   4.114   6.262   3.689
 1518SOL     OW 5452   0.389   2.433   6.998
 1518SOL    HW1 5453   0.338   2.475   6.923
 1518SOL    HW2 5454   0.484   2.419   6.971
 1519SOL     OW 5455   6.835   4.302   6.616
 1519SOL    HW1 5456   6.885   4.241   6.554
 1519SOL    HW2 5457   6.740   4.309   6.587
 1520SOL     OW 5458   0.061   5.971   2.500
 1520SOL    HW1 5459   0.106   6.030   2.433
 1520SOL    HW2 5460   0.118   5.891   2.517
 1521SOL     OW 5461   1.761   5.276   6.296
 1521SOL    HW1 5462   1.664   5.293   6.280
 1521SOL    HW2 5463   1.799   5.222   6.220
 1522SOL     OW 5464   4.841   5.632   4.134
 1522SOL    HW1 5465   4.756   5.650   4.182
 1522SOL    HW2 5466   4.909   5.701   4.159
 1523SOL     OW 5467   3.783   5.919   0.066
 1523SOL    HW1 5468   3.767   6.018   0.059
 1523SOL    HW2 5469   3.803   5.883   6.996
 1524SOL     OW 5470   2.211   1.726   2.301
 1524SOL    HW1 5471   2.229   1.660   2.375
 1524SOL    HW2 5472   2.219   1.680   2.213
 1525SOL     OW 5473   5.827   2.497   6.922
 1525SOL    HW1 5474   5.742   2.464   6.882
 1525SOL    HW2 5475   5.877   2.420   6.962
 1526SOL     OW 5476   0.798   1.323   0.548
 1526SOL    HW1 5477   0.841   1.240   0.513
 1526SOL    HW2 5478   0.802   1.395   0.478
 1527SOL     OW 5479   3.745   0.830   3.892
 1527SOL    HW1 5480   3.839   0.795   3.895
 1527SOL    HW2 5481   3.723   0.856   3.799
 1528SOL     OW 5482   4.414   3.451   1.267
 1528SOL    HW1 5483   4.324   3.462   1.225
 1528SOL    HW2 5484   4.453   3.541   1.287
 1529SOL     OW 5485   5.063   1.412   5.701
 1529SOL    HW1 5486   5.099   1.390   5.610
 1529SOL    HW2 5487   4.996   1.342   5.728
 1530SOL     OW 5488   3.322   6.412   1.950
 1530SOL    HW1 5489   3.365   6.415   1.860
 1530SOL    HW2 5490   3.378   6.357   2.011
 1531SOL     OW 5491   3.438   6.766   4.282
 1531SOL    HW1 5492   3.357   6.821   4.265
 1531SOL    HW2 5493   3.412   6.682   4.330
 1532SOL     OW 5494   2.473   5.232   6.263
 1532SOL    HW1 5495   2.413   5.311   6.271
 1532SOL    HW2 5496   2.436   5.169   6.194
 1533SOL     OW 5497   5.856   5.415   1.601
 1533SOL    HW1 5498   5.930   5.478   1.622
 1533SOL    HW2 5499   5.772   5.466   1.585
 1534SOL     OW 5500   3.389   5.054   6.539
 1534SOL    HW1 5501   3.359   5.149   6.548
 1534SOL    HW2 5502   3.417   5.037   6.445
 1535SOL     OW 5503   6.084   6.696   4.990
 1535SOL    HW1 5504   5.992   6.657   4.978
 1535SOL    HW2 5505   6.076   6.792   5.015
 1536SOL     OW 5506   4.468   4.097   6.732
 1536SOL    HW1 5507   4.386   4.146   6.761
 1536SOL    HW2 5508   4.444   4.031   6.661
 1537SOL     OW 5509   2.805   5.410   3.879
 1537SOL    HW1 5510   2.737   5.373   3.942
 1537SOL    HW2 5511   2.796   5.366   3.790
 1538SOL     OW 5512   2.894   1.295   6.991
 1538SOL    HW1 5513   2.833   1.237   6.937
 1538SOL    HW2 5514   2.881   1.275   0.067
 1539SOL     OW 5515   5.878   3.476   0.892
 1539SOL    HW1 5516   5.976   3.463   0.907
 1539SOL    HW2 5517   5.851   3.431   0.807
 1540SOL     OW 5518   3.427   6.945   4.904
 1540SOL    HW1 5519   3.455   6.950   5.000
 1540SOL    HW2 5520   3.340   6.896   4.897
 1541SOL     OW 5521   3.645   3.199   4.911
 1541SOL    HW1 5522   3.568   3.213   4.848
 1541SOL    HW2 5523   3.731   3.199   4.860
 1542SOL     OW 5524   6.782   0.150   2.790
 1542SOL    HW1 5525   6.778   0.065   2.843
 1542SOL    HW2 5526   6.699   0.158   2.734
 1543SOL     OW 5527   2.787   4.422   6.910
 1543SOL    HW1 5528   2.854   4.496   6.906
 1543SOL    HW2 5529   2.726   4.428   6.830
 1544SOL     OW 5530   3.937   3.052   4.590
 1544SOL    HW1 5531   4.009   3.002   4.542
 1544SOL    HW2 5532   3.852   3.000   4.585
 1545SOL     OW 5533   6.211   6.437   2.619
 1545SOL    HW1 5534   6.202   6.396   2.529
 1545SOL    HW2 5535   6.296   6.406   2.663
 1546SOL     OW 5536   5.338   6.389   5.977
 1546SOL    HW1 5537   5.336   6.466   6.040
 1546SOL    HW2 5538   5.361   6.421   5.885
 1547SOL     OW 5539   1.805   3.374   7.005
 1547SOL    HW1 5540   1.797   3.462   6.956
 1547SOL    HW2 5541   1.854   3.309   6.947
 1548SOL     OW 5542   6.567   2.260   6.543
 1548SOL    HW1 5543   6.510   2.183   6.573
 1548SOL    HW2 5544   6.514   2.345   6.550
 1549SOL     OW 5545   4.383   0.918   5.399
 1549SOL    HW1 5546   4.374   0.996   5.336
 1549SOL    HW2 5547   4.304   0.857   5.388
 1550SOL     OW 5548   3.137   3.003   3.186
 1550SOL    HW1 5549   3.154   3.078   3.121
 1550SOL    HW2 5550   3.089   2.929   3.139
 1551SOL     OW 5551   0.112   5.116   6.064
 1551SOL    HW1 5552   0.094   5.208   6.031
 1551SOL    HW2 5553   0.097   5.113   6.163
 1552SOL     OW 5554   2.389   4.423   2.251
 1552SOL    HW1 5555   2.292   4.405   2.234
 1552SOL    HW2 5556   2.405   4.426   2.350
 1553SOL     OW 5557   0.757   1.797   5.704
 1553SOL    HW1 5558   0.757   1.886   5.750
 1553SOL    HW2 5559   0.665   1.777   5.671
 1554SOL     OW 5560   2.787   1.785   3.561
 1554SOL    HW1 5561   2.865   1.838   3.593
 1554SOL    HW2 5562   2.812   1.688   3.556
 1555SOL     OW 5563   0.027   3.464   6.336
 1555SOL    HW1 5564   0.119   3.449   6.302
 1555SOL    HW2 5565   6.996   3.379   6.328
 1556SOL     OW 5566   1.904   1.214   5.847
 1556SOL    HW1 5567   1.931   1.203   5.752
 1556SOL    HW2 5568   1.806   1.232   5.852
 1557SOL     OW 5569   0.504   3.214   6.665
 1557SOL    HW1 5570   0.473   3.230   6.759
 1557SOL    HW2 5571   0.513   3.116   6.649
 1558SOL     OW 5572   6.534   0.102   4.932
 1558SOL    HW1 5573   6.567   0.135   4.844
 1558SOL    HW2 5574   6.552   0.170   5.003
 1559SOL     OW 5575   0.517   1.899   6.094
 1559SOL    HW1 5576   0.520   1.973   6.026
 1559SOL    HW2 5577   0.608   1.860   6.104
 1560SOL     OW 5578   0.264   0.818   6.660
 1560SOL    HW1 5579   0.184   0.758   6.663
 1560SOL    HW2 5580   0.236   0.911   6.685
 1561SOL     OW 5581   5.570   5.706   2.874
 1561SOL    HW1 5582   5.471   5.716   2.878
 1561SOL    HW2 5583   5.611   5.753   2.953
 1562SOL     OW 5584   5.599   0.805   3.546
 1562SOL    HW1 5585   5.574   0.829   3.452
 1562SOL    HW2 5586   5.697   0.815   3.559
 1563SOL     OW 5587   3.425   0.738   5.776
 1563SOL    HW1 5588   3.367   0.766   5.699
 1563SOL    HW2 5589   3.521   0.758   5.755
 1564SOL     OW 5590   1.330   2.279   2.850
 1564SOL    HW1 5591   1.398   2.233   2.792
 1564SOL    HW2 5592   1.363   2.369   2.875
 1565SOL     OW 5593   5.056   3.770   1.747
 1565SOL    HW1 5594   5.079   3.680   1.709
 1565SOL    HW2 5595   4.983   3.761   1.814
 1566SOL     OW 5596   5.621   4.090   3.653
 1566SOL    HW1 5597   5.678   4.160   3.697
 1566SOL    HW2 5598   5.526   4.104   3.681
 1567SOL     OW 5599   6.983   5.694   5.868
 1567SOL    HW1 5600   7.015   5.601   5.853
 1567SOL    HW2 5601   6.991   5.717   5.965
 1568SOL     OW 5602   0.186   0.542   0.896
 1568SOL    HW1 5603   0.134   0.469   0.852
 1568SOL    HW2 5604   0.253   0.579   0.832
 1569SOL     OW 5605   3.631   6.025   5.399
 1569SOL    HW1 5606   3.716   6.030   5.345
 1569SOL    HW2 5607   3.560   5.982   5.344
 1570SOL     OW 5608   3.760   2.037   1.628
 1570SOL    HW1 5609   3.786   1.987   1.546
 1570SOL    HW2 5610   3.682   1.993   1.672
 1571SOL     OW 5611   6.773   4.203   1.476
 1571SOL    HW1 5612   6.863   4.180   1.439
 1571SOL    HW2 5613   6.764   4.164   1.567
 1572SOL     OW 5614   1.466   6.822   2.375
 1572SOL    HW1 5615   1.470   6.726   2.347
 1572SOL    HW2 5616   1.538   6.873   2.328
 1573SOL     OW 5617   4.210   0.233   1.170
 1573SOL    HW1 5618   4.194   0.150   1.117
 1573SOL    HW2 5619   4.125   0.261   1.214
 1574SOL     OW 5620   6.713   2.423   2.122
 1574SOL    HW1 5621   6.615   2.410   2.139
 1574SOL    HW2 5622   6.748   2.494   2.182
 1575SOL     OW 5623   2.391   2.483   0.566
 1575SOL    HW1 5624   2.317   2.438   0.615
 1575SOL    HW2 5625   2.420   2.426   0.489
 1576SOL     OW 5626   6.298   6.332   3.994
 1576SOL    HW1 5627   6.208   6.291   4.007
 1576SOL    HW2 5628   6.288   6.430   3.977
 1577SOL     OW 5629   2.245   0.463   6.548
 1577SOL    HW1 5630   2.179   0.508   6.488
 1577SOL    HW2 5631   2.335   0.503   6.534
 1578SOL     OW 5632   5.670   4.865   5.041
 1578SOL    HW1 5633   5.652   4.767   5.045
 1578SOL    HW2 5634   5.727   4.892   5.119
 1579SOL     OW 5635   1.383   0.541   3.823
 1579SOL    HW1 5636   1.298   0.488   3.824
 1579SOL    HW2 5637   1.381   0.608   3.897
 1580SOL     OW 5638   3.124   4.187   5.530
 1580SOL    HW1 5639   3.168   4.164   5.617
 1580SOL    HW2 5640   3.029   4.211   5.546
 1581SOL     OW 5641   6.628   4.070   4.405
 1581SOL    HW1 5642   6.579   4.066   4.492
 1581SOL    HW2 5643   6.572   4.117   4.337
 1582SOL     OW 5644   6.220   5.147   4.641
 1582SOL    HW1 5645   6.156   5.157   4.564
 1582SOL    HW2 5646   6.184   5.195   4.721
 1583SOL     OW 5647   1.525   2.924   3.088
 1583SOL    HW1 5648   1.582   2.951   3.165
 1583SOL    HW2 5649   1.582   2.906   3.008
 1584SOL     OW 5650   2.362   6.816   6.211
 1584SOL    HW1 5651   2.373   6.867   6.126
 1584SOL    HW2 5652   2.434   6.844   6.275
 1585SOL     OW 5653   5.322   1.745   5.201
 1585SOL    HW1 5654   5.279   1.764   5.113
 1585SOL    HW2 5655   5.288   1.659   5.237
 1586SOL     OW 5656   3.639   3.789   3.120
 1586SOL    HW1 5657   3.656   3.787   3.219
 1586SOL    HW2 5658   3.621   3.884   3.092
 1587SOL     OW 5659   3.095   6.567   6.831
 1587SOL    HW1 5660   3.152   6.517   6.897
 1587SOL    HW2 5661   3.099   6.520   6.743
 1588SOL     OW 5662   5.811   3.173   1.835
 1588SOL    HW1 5663   5.885   3.160   1.770
 1588SOL    HW2 5664   5.841   3.143   1.926
 1589SOL     OW 5665   6.010   4.085   3.909
 1589SOL    HW1 5666   6.037   3.990   3.895
 1589SOL    HW2 5667   5.980   4.097   4.004
 1590SOL     OW 5668   1.628   0.753   5.654
 1590SOL    HW1 5669   1.622   0.783   5.750
 1590SOL    HW2 5670   1.550   0.695   5.632
 1591SOL     OW 5671   1.438   4.632   1.663
 1591SOL    HW1 5672   1.457   4.596   1.754
 1591SOL    HW2 5673   1.524   4.658   1.619
 1592SOL     OW 5674   3.298   3.479   2.793
 1592SOL    HW1 5675   3.225   3.546   2.804
 1592SOL    HW2 5676   3.282   3.425   2.710
 1593SOL     OW 5677   0.993   5.592   5.370
 1593SOL    HW1 5678   0.912   5.535   5.355
 1593SOL    HW2 5679   1.066   5.537   5.411
 1594SOL     OW 5680   6.646   5.202   2.895
 1594SOL    HW1 5681   6.683   5.276   2.839
 1594SOL    HW2 5682   6.548   5.219   2.912
 1595SOL     OW 5683   6.871   4.960   6.039
 1595SOL    HW1 5684   6.917   4.909   6.112
 1595SOL    HW2 5685   6.926   5.040   6.016
 1596SOL     OW 5686   3.061   5.000   6.388
 1596SOL    HW1 5687   3.141   4.946   6.413
 1596SOL    HW2 5688   3.007   4.950   6.320
 1597SOL     OW 5689   2.659   0.014   1.427
 1597SOL    HW1 5690   2.615   6.986   1.352
 1597SOL    HW2 5691   2.700   6.969   1.490
 1598SOL     OW 5692   0.114   5.381   1.326
 1598SOL    HW1 5693   0.212   5.393   1.335
 1598SOL    HW2 5694   0.085   5.401   1.232
 1599SOL     OW 5695   3.962   4.978   6.944
 1599SOL    HW1 5696   3.948   4.920   0.003
 1599SOL    HW2 5697   4.042   5.037   6.958
 1600SOL     OW 5698   3.727   1.543   4.231
 1600SOL    HW1 5699   3.705   1.448   4.253
 1600SOL    HW2 5700   3.781   1.583   4.305
 1601SOL     OW 5701   0.705   4.883   3.589
 1601SOL    HW1 5702   0.642   4.810   3.614
 1601SOL    HW2 5703   0.762   4.906   3.668
 1602SOL     OW 5704   0.929   4.896   3.842
 1602SOL    HW1 5705   0.851   4.928   3.896
 1602SOL    HW2 5706   0.966   4.973   3.789
 1603SOL     OW 5707   6.947   6.659   1.298
 1603SOL    HW1 5708   0.021   6.642   1.273
 1603SOL    HW2 5709   6.934   6.757   1.315
 1604SOL     OW 5710   0.471   5.309   6.431
 1604SOL    HW1 5711   0.489   5.406   6.418
 1604SOL    HW2 5712   0.479   5.262   6.343
 1605SOL     OW 5713   4.858   6.377   3.216
 1605SOL    HW1 5714   4.899   6.319   3.146
 1605SOL    HW2 5715   4.775   6.419   3.179
 1606SOL     OW 5716   4.997   6.679   6.450
 1606SOL    HW1 5717   5.047   6.766   6.456
 1606SOL    HW2 5718   4.908   6.695   6.408
 1607SOL     OW 5719   4.115   2.118   0.622
 1607SOL    HW1 5720   4.153   2.063   0.547
 1607SOL    HW2 5721   4.062   2.058   0.683
 1608SOL     OW 5722   2.652   0.222   0.761
 1608SOL    HW1 5723   2.649   0.162   0.681
 1608SOL    HW2 5724   2.714   0.183   0.830
 1609SOL     OW 5725   4.987   2.075   5.284
 1609SOL    HW1 5726   4.972   2.138   5.360
 1609SOL    HW2 5727   5.058   2.010   5.309
 1610SOL     OW 5728   6.164   5.521   4.878
 1610SOL    HW1 5729   6.142   5.530   4.975
 1610SOL    HW2 5730   6.169   5.424   4.854
 1611SOL     OW 5731   2.850   3.500   1.576
 1611SOL    HW1 5732   2.800   3.489   1.662
 1611SOL    HW2 5733   2.912   3.578   1.584
 1612SOL     OW 5734   3.113   0.841   4.347
 1612SOL    HW1 5735   3.210   0.861   4.362
 1612SOL    HW2 5736   3.058   0.916   4.382
 1613SOL     OW 5737   2.588   5.957   0.586
 1613SOL    HW1 5738   2.591   6.029   0.656
 1613SOL    HW2 5739   2.614   5.870   0.627
 1614SOL     OW 5740   6.299   2.639   6.937
 1614SOL    HW1 5741   6.328   2.651   0.010
 1614SOL    HW2 5742   6.291   2.542   6.917
 1615SOL     OW 5743   6.583   4.941   6.390
 1615SOL    HW1 5744   6.595   5.026   6.441
 1615SOL    HW2 5745   6.601   4.863   6.450
 1616SOL     OW 5746   2.839   1.735   5.755
 1616SOL    HW1 5747   2.848   1.696   5.664
 1616SOL    HW2 5748   2.916   1.797   5.773
 1617SOL     OW 5749   4.403   0.322   3.995
 1617SOL    HW1 5750   4.369   0.403   4.043
 1617SOL    HW2 5751   4.341   0.300   3.919
 1618SOL     OW 5752   5.715   2.278   0.978
 1618SOL    HW1 5753   5.761   2.256   1.064
 1618SOL    HW2 5754   5.636   2.337   0.997
 1619SOL     OW 5755   1.695   3.103   4.555
 1619SOL    HW1 5756   1.726   3.197   4.549
 1619SOL    HW2 5757   1.739   3.048   4.483
 1620SOL     OW 5758   3.486   5.545   0.693
 1620SOL    HW1 5759   3.521   5.627   0.648
 1620SOL    HW2 5760   3.506   5.550   0.791
 1621SOL     OW 5761   1.724   1.103   1.787
 1621SOL    HW1 5762   1.747   1.078   1.881
 1621SOL    HW2 5763   1.674   1.190   1.788
 1622SOL     OW 5764   2.192   1.768   4.205
 1622SOL    HW1 5765   2.133   1.840   4.168
 1622SOL    HW2 5766   2.250   1.806   4.277
 1623SOL     OW 5767   2.740   2.051   5.168
 1623SOL    HW1 5768   2.823   2.048   5.113
 1623SOL    HW2 5769   2.739   2.135   5.223
 1624SOL     OW 5770   2.156   1.162   0.396
 1624SOL    HW1 5771   2.084   1.217   0.439
 1624SOL    HW2 5772   2.177   1.201   0.306
 1625SOL     OW 5773   0.456   4.802   1.899
 1625SOL    HW1 5774   0.473   4.814   1.802
 1625SOL    HW2 5775   0.537   4.827   1.951
 1626SOL     OW 5776   1.915   1.868   6.567
 1626SOL    HW1 5777   1.933   1.866   6.665
 1626SOL    HW2 5778   1.995   1.835   6.517
 1627SOL     OW 5779   5.446   2.821   3.780
 1627SOL    HW1 5780   5.427   2.792   3.686
 1627SOL    HW2 5781   5.505   2.901   3.779
 1628SOL     OW 5782   2.961   3.443   0.201
 1628SOL    HW1 5783   2.973   3.481   0.110
 1628SOL    HW2 5784   3.051   3.435   0.246
 1629SOL     OW 5785   4.473   2.321   3.640
 1629SOL    HW1 5786   4.377   2.294   3.645
 1629SOL    HW2 5787   4.499   2.368   3.725
 1630SOL     OW 5788   0.030   4.701   4.214
 1630SOL    HW1 5789   0.032   4.696   4.114
 1630SOL    HW2 5790   0.124   4.702   4.250
 1631SOL     OW 5791   0.472   6.800   5.493
 1631SOL    HW1 5792   0.388   6.777   5.445
 1631SOL    HW2 5793   0.508   6.718   5.539
 1632SOL     OW 5794   5.969   0.584   1.649
 1632SOL    HW1 5795   6.044   0.586   1.583
 1632SOL    HW2 5796   5.883   0.606   1.602
 1633SOL     OW 5797   4.996   2.960   3.895
 1633SOL    HW1 5798   5.005   3.027   3.968
 1633SOL    HW2 5799   5.081   2.956   3.842
 1634SOL     OW 5800   3.270   1.019   6.704
 1634SOL    HW1 5801   3.291   0.953   6.776
 1634SOL    HW2 5802   3.200   1.083   6.736
 1635SOL     OW 5803   0.377   5.328   3.772
 1635SOL    HW1 5804   0.421   5.324   3.682
 1635SOL    HW2 5805   0.442   5.302   3.843
 1636SOL     OW 5806   1.951   5.967   1.095
 1636SOL    HW1 5807   2.048   5.974   1.068
 1636SOL    HW2 5808   1.912   6.058   1.101
 1637SOL     OW 5809   0.246   3.312   1.903
 1637SOL    HW1 5810   0.316   3.280   1.840
 1637SOL    HW2 5811   0.234   3.246   1.977
 1638SOL     OW 5812   1.220   2.907   4.890
 1638SOL    HW1 5813   1.165   2.967   4.832
 1638SOL    HW2 5814   1.212   2.935   4.986
 1639SOL     OW 5815   5.135   5.031   1.950
 1639SOL    HW1 5816   5.106   4.955   1.891
 1639SOL    HW2 5817   5.072   5.039   2.027
 1640SOL     OW 5818   5.694   0.180   1.466
 1640SOL    HW1 5819   5.654   0.260   1.421
 1640SOL    HW2 5820   5.766   0.211   1.529
 1641SOL     OW 5821   6.324   2.535   5.464
 1641SOL    HW1 5822   6.275   2.551   5.378
 1641SOL    HW2 5823   6.313   2.614   5.524
 1642SOL     OW 5824   7.008   2.638   1.960
 1642SOL    HW1 5825   6.967   2.585   1.885
 1642SOL    HW2 5826   7.019   2.733   1.932
 1643SOL     OW 5827   3.918   0.653   5.452
 1643SOL    HW1 5828   3.919   0.612   5.543
 1643SOL    HW2 5829   3.836   0.709   5.441
 1644SOL     OW 5830   3.229   0.700   1.027
 1644SOL    HW1 5831   3.236   0.780   0.967
 1644SOL    HW2 5832   3.148   0.708   1.084
 1645SOL     OW 5833   2.119   0.169   6.316
 1645SOL    HW1 5834   2.156   0.079   6.338
 1645SOL    HW2 5835   2.098   0.174   6.219
 1646SOL     OW 5836   1.307   3.549   1.289
 1646SOL    HW1 5837   1.364   3.534   1.208
 1646SOL    HW2 5838   1.282   3.461   1.329
 1647SOL     OW 5839   5.870   3.218   3.551
 1647SOL    HW1 5840   5.875   3.301   3.496
 1647SOL    HW2 5841   5.791   3.164   3.523
 1648SOL     OW 5842   4.269   7.019   2.159
 1648SOL    HW1 5843   4.182   0.044   2.144
 1648SOL    HW2 5844   4.338   0.038   2.100
 1649SOL     OW 5845   3.188   0.764   3.007
 1649SOL    HW1 5846   3.165   0.672   3.039
 1649SOL    HW2 5847   3.203   0.824   3.086
 1650SOL     OW 5848   2.544   6.122   3.624
 1650SOL    HW1 5849   2.513   6.200   3.679
 1650SOL    HW2 5850   2.622   6.150   3.568
 1651SOL     OW 5851   1.822   6.644   0.571
 1651SOL    HW1 5852   1.817   6.658   0.669
 1651SOL    HW2 5853   1.789   6.552   0.549
 1652SOL     OW 5854   2.967   2.568   1.484
 1652SOL    HW1 5855   2.930   2.565   1.391
 1652SOL    HW2 5856   3.065   2.549   1.481
 1653SOL     OW 5857   0.956   5.875   1.248
 1653SOL    HW1 5858   0.864   5.885   1.209
 1653SOL    HW2 5859   1.018   5.836   1.180
 1654SOL     OW 5860   0.487   3.420   2.957
 1654SOL    HW1 5861   0.502   3.438   3.054
 1654SOL    HW2 5862   0.434   3.336   2.945
 1655SOL     OW 5863   4.605   4.987   5.923
 1655SOL    HW1 5864   4.562   4.904   5.888
 1655SOL    HW2 5865   4.681   4.963   5.983
 1656SOL     OW 5866   0.551   5.097   3.139
 1656SOL    HW1 5867   0.494   5.102   3.221
 1656SOL    HW2 5868   0.497   5.062   3.063
 1657SOL     OW 5869   1.229   0.123   5.305
 1657SOL    HW1 5870   1.232   0.023   5.294
 1657SOL    HW2 5871   1.302   0.165   5.251
 1658SOL     OW 5872   6.062   6.087   2.810
 1658SOL    HW1 5873   6.131   6.158   2.826
 1658SOL    HW2 5874   6.094   6.001   2.849
 1659SOL     OW 5875   4.147   2.121   5.800
 1659SOL    HW1 5876   4.127   2.051   5.869
 1659SOL    HW2 5877   4.097   2.100   5.716
 1660SOL     OW 5878   1.694   5.899   3.379
 1660SOL    HW1 5879   1.775   5.957   3.383
 1660SOL    HW2 5880   1.720   5.804   3.392
 1661SOL     OW 5881   2.875   0.053   2.362
 1661SOL    HW1 5882   2.962   0.102   2.374
 1661SOL    HW2 5883   2.802   0.118   2.345
 1662SOL     OW 5884   0.225   0.735   3.203
 1662SOL    HW1 5885   0.293   0.752   3.133
 1662SOL    HW2 5886   0.236   0.800   3.278
 1663SOL     OW 5887   2.733   0.032   3.407
 1663SOL    HW1 5888   2.808   0.087   3.443
 1663SOL    HW2 5889   2.769   6.982   3.347
 1664SOL     OW 5890   2.271   5.757   4.711
 1664SOL    HW1 5891   2.183   5.795   4.737
 1664SOL    HW2 5892   2.313   5.816   4.641
 1665SOL     OW 5893   0.015   6.941   4.200
 1665SOL    HW1 5894   0.078   6.865   4.188
 1665SOL    HW2 5895   0.017   6.972   4.294
 1666SOL     OW 5896   6.118   2.588   5.850
 1666SOL    HW1 5897   6.174   2.525   5.797
 1666SOL    HW2 5898   6.104   2.672   5.799
 1667SOL     OW 5899   6.639   0.734   6.152
 1667SOL    HW1 5900   6.582   0.747   6.232
 1667SOL    HW2 5901   6.735   0.750   6.176
 1668SOL     OW 5902   3.673   1.000   4.925
 1668SOL    HW1 5903   3.707   1.059   4.998
 1668SOL    HW2 5904   3.575   0.986   4.937
 1669SOL     OW 5905   6.016   0.120   6.727
 1669SOL    HW1 5906   5.945   0.188   6.741
 1669SOL    HW2 5907   5.981   0.045   6.672
 1670SOL     OW 5908   5.615   4.439   5.665
 1670SOL    HW1 5909   5.621   4.509   5.736
 1670SOL    HW2 5910   5.523   4.441   5.624
 1671SOL     OW 5911   5.475   4.061   0.318
 1671SOL    HW1 5912   5.388   4.102   0.347
 1671SOL    HW2 5913   5.547   4.131   0.321
 1672SOL     OW 5914   1.718   5.445   2.405
 1672SOL    HW1 5915   1.621   5.444   2.381
 1672SOL    HW2 5916   1.768   5.382   2.345
 1673SOL     OW 5917   6.476   2.159   4.165
 1673SOL    HW1 5918   6.406   2.166   4.095
 1673SOL    HW2 5919   6.529   2.075   4.152
 1674SOL     OW 5920   0.378   4.385   6.549
 1674SOL    HW1 5921   0.393   4.436   6.634
 1674SOL    HW2 5922   0.371   4.287   6.570
 1675SOL     OW 5923   4.699   2.357   0.107
 1675SOL    HW1 5924   4.734   2.265   0.117
 1675SOL    HW2 5925   4.722   2.411   0.188
 1676SOL     OW 5926   1.427   0.447   3.129
 1676SOL    HW1 5927   1.412   0.395   3.212
 1676SOL    HW2 5928   1.522   0.440   3.100
 1677SOL     OW 5929   6.432   1.392   5.499
 1677SOL    HW1 5930   6.345   1.441   5.493
 1677SOL    HW2 5931   6.417   1.294   5.482
 1678SOL     OW 5932   5.441   6.927   1.592
 1678SOL    HW1 5933   5.381   6.863   1.545
 1678SOL    HW2 5934   5.499   6.974   1.525
 1679SOL     OW 5935   6.969   3.520   6.785
 1679SOL    HW1 5936   6.894   3.454   6.792
 1679SOL    HW2 5937   0.024   3.489   6.840
 1680SOL     OW 5938   1.278   1.566   4.457
 1680SOL    HW1 5939   1.370   1.569   4.418
 1680SOL    HW2 5940   1.282   1.533   4.551
 1681SOL     OW 5941   6.374   5.395   0.991
 1681SOL    HW1 5942   6.430   5.314   1.010
 1681SOL    HW2 5943   6.417   5.475   1.033
 1682SOL     OW 5944   6.333   3.201   5.706
 1682SOL    HW1 5945   6.420   3.183   5.751
 1682SOL    HW2 5946   6.258   3.187   5.771
 1683SOL     OW 5947   5.510   5.532   0.539
 1683SOL    HW1 5948   5.457   5.575   0.466
 1683SOL    HW2 5949   5.515   5.433   0.523
 1684SOL     OW 5950   0.694   5.990   5.309
 1684SOL    HW1 5951   0.618   5.992   5.374
 1684SOL    HW2 5952   0.663   5.954   5.222
 1685SOL     OW 5953   1.118   1.841   6.959
 1685SOL    HW1 5954   1.165   1.817   6.874
 1685SOL    HW2 5955   1.021   1.859   6.940
 1686SOL     OW 5956   1.785   6.771   0.137
 1686SOL    HW1 5957   1.809   6.811   0.049
 1686SOL    HW2 5958   1.868   6.743   0.185
 1687SOL     OW 5959   1.849   0.089   1.670
 1687SOL    HW1 5960   1.836   0.142   1.586
 1687SOL    HW2 5961   1.805   7.022   1.661
 1688SOL     OW 5962   0.427   2.112   3.463
 1688SOL    HW1 5963   0.353   2.046   3.476
 1688SOL    HW2 5964   0.391   2.195   3.419
 1689SOL     OW 5965   1.849   1.425   2.912
 1689SOL    HW1 5966   1.800   1.384   2.989
 1689SOL    HW2 5967   1.789   1.491   2.865
 1690SOL     OW 5968   1.017   2.096   1.073
 1690SOL    HW1 5969   1.014   2.195   1.063
 1690SOL    HW2 5970   1.064   2.072   1.158
 1691SOL     OW 5971   5.177   4.266   2.210
 1691SOL    HW1 5972   5.081   4.251   2.232
 1691SOL    HW2 5973   5.187   4.352   2.160
 1692SOL     OW 5974   1.535   0.834   3.397
 1692SOL    HW1 5975   1.574   0.912   3.446
 1692SOL    HW2 5976   1.569   0.749   3.438
 1693SOL     OW 5977   2.806   2.171   3.400
 1693SOL    HW1 5978   2.759   2.243   3.349
 1693SOL    HW2 5979   2.768   2.082   3.376
 1694SOL     OW 5980   4.603   6.049   5.300
 1694SOL    HW1 5981   4.564   6.141   5.309
 1694SOL    HW2 5982   4.693   6.047   5.344
 1695SOL     OW 5983   2.969   2.148   5.772
 1695SOL    HW1 5984   2.893   2.087   5.752
 1695SOL    HW2 5985   3.054   2.106   5.740
 1696SOL     OW 5986   3.311   5.612   0.500
 1696SOL    HW1 5987   3.385   5.664   0.457
 1696SOL    HW2 5988   3.350   5.544   0.562
 1697SOL     OW 5989   0.710   1.142   1.903
 1697SOL    HW1 5990   0.688   1.133   2.000
 1697SOL    HW2 5991   0.732   1.052   1.865
 1698SOL     OW 5992   4.804   1.946   1.198
 1698SOL    HW1 5993   4.725   2.007   1.197
 1698SOL    HW2 5994   4.811   1.899   1.110
 1699SOL     OW 5995   2.057   3.675   0.829
 1699SOL    HW1 5996   2.057   3.739   0.752
 1699SOL    HW2 5997   2.150   3.643   0.845
 1700SOL     OW 5998   6.270   3.219   4.001
 1700SOL    HW1 5999   6.354   3.225   4.055
 1700SOL    HW2 6000   6.253   3.307   3.956
 1701SOL     OW 6001   5.648   3.496   4.517
 1701SOL    HW1 6002   5.657   3.591   4.547
 1701SOL    HW2 6003   5.714   3.440   4.567
 1702SOL     OW 6004   5.114   3.143   0.295
 1702SOL    HW1 6005   5.050   3.213   0.326
 1702SOL    HW2 6006   5.136   3.081   0.371
 1703SOL     OW 6007   2.069   3.569   0.217
 1703SOL    HW1 6008   2.083   3.612   0.306
 1703SOL    HW2 6009   2.006   3.492   0.226
 1704SOL     OW 6010   1.024   1.092   1.996
 1704SOL    HW1 6011   0.949   1.047   2.044
 1704SOL    HW2 6012   1.093   1.122   2.062
 1705SOL     OW 6013   3.783   3.152   1.895
 1705SOL    HW1 6014   3.720   3.157   1.817
 1705SOL    HW2 6015   3.814   3.058   1.907
 1706SOL     OW 6016   2.733   1.104   6.882
 1706SOL    HW1 6017   2.637   1.127   6.896
 1706SOL    HW2 6018   2.752   1.014   6.921
 1707SOL     OW 6019   5.516   1.897   3.034
 1707SOL    HW1 6020   5.514   1.811   2.984
 1707SOL    HW2 6021   5.600   1.903   3.088
 1708SOL     OW 6022   6.922   4.910   2.789
 1708SOL    HW1 6023   6.916   4.964   2.873
 1708SOL    HW2 6024   6.857   4.946   2.722
 1709SOL     OW 6025   2.984   6.133   3.305
 1709SOL    HW1 6026   2.930   6.207   3.344
 1709SOL    HW2 6027   2.926   6.078   3.244
 1710SOL     OW 6028   0.064   6.255   3.654
 1710SOL    HW1 6029   0.078   6.166   3.699
 1710SOL    HW2 6030   0.005   6.312   3.711
 1711SOL     OW 6031   1.550   4.577   5.747
 1711SOL    HW1 6032   1.612   4.508   5.784
 1711SOL    HW2 6033   1.592   4.621   5.668
 1712SOL     OW 6034   0.748   4.907   0.540
 1712SOL    HW1 6035   0.760   4.810   0.518
 1712SOL    HW2 6036   0.754   4.960   0.455
 1713SOL     OW 6037   1.235   3.349   1.000
 1713SOL    HW1 6038   1.150   3.382   0.959
 1713SOL    HW2 6039   1.214   3.285   1.074
 1714SOL     OW 6040   3.442   1.616   0.610
 1714SOL    HW1 6041   3.368   1.566   0.565
 1714SOL    HW2 6042   3.481   1.682   0.546
 1715SOL     OW 6043   0.266   3.193   3.917
 1715SOL    HW1 6044   0.213   3.212   3.999
 1715SOL    HW2 6045   0.212   3.216   3.836
 1716SOL     OW 6046   0.258   6.882   0.180
 1716SOL    HW1 6047   0.350   6.843   0.186
 1716SOL    HW2 6048   0.214   6.851   0.096
 1717SOL     OW 6049   3.309   0.410   0.098
 1717SOL    HW1 6050   3.387   0.354   0.126
 1717SOL    HW2 6051   3.235   0.352   0.067
 1718SOL     OW 6052   0.852   4.852   5.531
 1718SOL    HW1 6053   0.848   4.952   5.523
 1718SOL    HW2 6054   0.947   4.822   5.520
 1719SOL     OW 6055   2.071   3.627   1.704
 1719SOL    HW1 6056   2.088   3.532   1.730
 1719SOL    HW2 6057   2.058   3.682   1.787
 1720SOL     OW 6058   6.837   1.728   1.343
 1720SOL    HW1 6059   6.767   1.799   1.349
 1720SOL    HW2 6060   6.925   1.770   1.321
 1721SOL     OW 6061   1.590   6.321   4.112
 1721SOL    HW1 6062   1.620   6.416   4.117
 1721SOL    HW2 6063   1.501   6.316   4.067
 1722SOL     OW 6064   5.777   6.163   1.855
 1722SOL    HW1 6065   5.693   6.206   1.888
 1722SOL    HW2 6066   5.846   6.164   1.928
 1723SOL     OW 6067   6.029   1.322   2.432
 1723SOL    HW1 6068   5.950   1.369   2.395
 1723SOL    HW2 6069   6.110   1.380   2.423
 1724SOL     OW 6070   4.784   0.602   0.186
 1724SOL    HW1 6071   4.821   0.690   0.158
 1724SOL    HW2 6072   4.740   0.612   0.276
 1725SOL     OW 6073   4.151   4.740   1.471
 1725SOL    HW1 6074   4.097   4.681   1.532
 1725SOL    HW2 6075   4.089   4.786   1.407
 1726SOL     OW 6076   0.674   5.023   4.547
 1726SOL    HW1 6077   0.768   5.047   4.523
 1726SOL    HW2 6078   0.650   5.066   4.634
 1727SOL     OW 6079   3.246   3.798   5.464
 1727SOL    HW1 6080   3.196   3.713   5.443
 1727SOL    HW2 6081   3.228   3.865   5.392
 1728SOL     OW 6082   4.740   4.201   3.109
 1728SOL    HW1 6083   4.644   4.220   3.091
 1728SOL    HW2 6084   4.796   4.280   3.082
 1729SOL     OW 6085   1.827   3.636   3.252
 1729SOL    HW1 6086   1.740   3.613   3.296
 1729SOL    HW2 6087   1.866   3.717   3.296
 1730SOL     OW 6088   5.848   2.618   4.799
 1730SOL    HW1 6089   5.785   2.693   4.778
 1730SOL    HW2 6090   5.931   2.655   4.839
 1731SOL     OW 6091   1.755   5.163   0.473
 1731SOL    HW1 6092   1.841   5.116   0.452
 1731SOL    HW2 6093   1.711   5.193   0.389
 1732SOL     OW 6094   0.310   4.855   0.028
 1732SOL    HW1 6095   0.385   4.805   0.071
 1732SOL    HW2 6096   0.241   4.790   7.017
 1733SOL     OW 6097   1.383   3.940   0.704
 1733SOL    HW1 6098   1.438   3.857   0.719
 1733SOL    HW2 6099   1.416   4.013   0.765
 1734SOL     OW 6100   4.902   3.240   0.502
 1734SOL    HW1 6101   4.893   3.334   0.535
 1734SOL    HW2 6102   4.929   3.180   0.577
 1735SOL     OW 6103   6.111   5.014   1.816
 1735SOL    HW1 6104   6.094   5.048   1.723
 1735SOL    HW2 6105   6.027   5.018   1.869
 1736SOL     OW 6106   3.631   3.769   0.557
 1736SOL    HW1 6107   3.668   3.804   0.642
 1736SOL    HW2 6108   3.532   3.782   0.556
 1737SOL     OW 6109   1.520   6.836   3.701
 1737SOL    HW1 6110   1.553   6.768   3.636
 1737SOL    HW2 6111   1.561   6.819   3.791
 1738SOL     OW 6112   1.533   2.520   2.326
 1738SOL    HW1 6113   1.456   2.469   2.364
 1738SOL    HW2 6114   1.575   2.575   2.398
 1739SOL     OW 6115   4.223   1.828   5.210
 1739SOL    HW1 6116   4.299   1.816   5.274
 1739SOL    HW2 6117   4.186   1.738   5.186
 1740SOL     OW 6118   0.598   1.280   5.569
 1740SOL    HW1 6119   0.623   1.234   5.484
 1740SOL    HW2 6120   0.598   1.213   5.643
 1741SOL     OW 6121   1.546   0.013   2.868
 1741SOL    HW1 6122   1.542   0.048   2.774
 1741SOL    HW2 6123   1.482   0.064   2.925
 1742SOL     OW 6124   6.007   0.410   4.638
 1742SOL    HW1 6125   5.918   0.433   4.676
 1742SOL    HW2 6126   6.012   0.442   4.543
 1743SOL     OW 6127   4.296   0.801   0.931
 1743SOL    HW1 6128   4.312   0.736   0.857
 1743SOL    HW2 6129   4.324   0.760   1.018
 1744SOL     OW 6130   2.395   0.597   1.145
 1744SOL    HW1 6131   2.351   0.524   1.197
 1744SOL    HW2 6132   2.324   0.652   1.100
 1745SOL     OW 6133   6.657   2.402   3.787
 1745SOL    HW1 6134   6.675   2.359   3.875
 1745SOL    HW2 6135   6.742   2.405   3.734
 1746SOL     OW 6136   2.978   0.440   6.006
 1746SOL    HW1 6137   2.979   0.366   5.940
 1746SOL    HW2 6138   2.884   0.457   6.036
 1747SOL     OW 6139   3.923   0.480   1.495
 1747SOL    HW1 6140   3.851   0.548   1.506
 1747SOL    HW2 6141   4.006   0.525   1.462
 1748SOL     OW 6142   5.664   2.306   2.004
 1748SOL    HW1 6143   5.569   2.285   2.030
 1748SOL    HW2 6144   5.705   2.367   2.071
 1749SOL     OW 6145   4.266   6.661   6.192
 1749SOL    HW1 6146   4.168   6.672   6.173
 1749SOL    HW2 6147   4.282   6.664   6.290
 1750SOL     OW 6148   5.109   0.449   3.946
 1750SOL    HW1 6149   5.113   0.419   3.851
 1750SOL    HW2 6150   5.107   0.549   3.950
 1751SOL     OW 6151   1.833   5.757   3.660
 1751SOL    HW1 6152   1.777   5.835   3.688
 1751SOL    HW2 6153   1.781   5.699   3.598
 1752SOL     OW 6154   5.878   2.129   0.326
 1752SOL    HW1 6155   5.863   2.097   0.419
 1752SOL    HW2 6156   5.859   2.056   0.262
 1753SOL     OW 6157   2.234   0.558   2.116
 1753SOL    HW1 6158   2.205   0.471   2.156
 1753SOL    HW2 6159   2.236   0.628   2.188
 1754SOL     OW 6160   3.988   2.972   1.017
 1754SOL    HW1 6161   3.903   2.919   1.025
 1754SOL    HW2 6162   4.064   2.911   0.995
 1755SOL     OW 6163   5.382   3.637   0.470
 1755SOL    HW1 6164   5.417   3.716   0.520
 1755SOL    HW2 6165   5.283   3.631   0.484
 1756SOL     OW 6166   6.591   5.688   4.717
 1756SOL    HW1 6167   6.547   5.599   4.730
 1756SOL    HW2 6168   6.684   5.675   4.684
 1757SOL     OW 6169   3.015   6.659   4.486
 1757SOL    HW1 6170   2.943   6.687   4.424
 1757SOL    HW2 6171   3.092   6.721   4.479
 1758SOL     OW 6172   1.948   0.747   3.000
 1758SOL    HW1 6173   1.939   0.786   3.092
 1758SOL    HW2 6174   1.856   0.733   2.962
 1759SOL     OW 6175   0.969   5.668   6.509
 1759SOL    HW1 6176   0.901   5.607   6.551
 1759SOL    HW2 6177   1.053   5.617   6.491
 1760SOL     OW 6178   5.987   0.592   2.380
 1760SOL    HW1 6179   5.991   0.625   2.285
 1760SOL    HW2 6180   6.051   0.515   2.391
 1761SOL     OW 6181   6.573   2.673   1.169
 1761SOL    HW1 6182   6.639   2.730   1.120
 1761SOL    HW2 6183   6.621   2.598   1.214
 1762SOL     OW 6184   6.194   1.826   6.123
 1762SOL    HW1 6185   6.256   1.756   6.090
 1762SOL    HW2 6186   6.150   1.795   6.207
 1763SOL     OW 6187   2.006   4.279   4.070
 1763SOL    HW1 6188   2.043   4.343   4.003
 1763SOL    HW2 6189   2.061   4.195   4.071
 1764SOL     OW 6190   6.556   3.063   3.717
 1764SOL    HW1 6191   6.507   2.978   3.703
 1764SOL    HW2 6192   6.655   3.046   3.715
 1765SOL     OW 6193   2.999   2.944   6.262
 1765SOL    HW1 6194   2.912   2.934   6.215
 1765SOL    HW2 6195   3.072   2.906   6.205
 1766SOL     OW 6196   5.265   3.231   5.117
 1766SOL    HW1 6197   5.207   3.201   5.193
 1766SOL    HW2 6198   5.360   3.237   5.148
 1767SOL     OW 6199   5.947   3.514   2.447
 1767SOL    HW1 6200   5.872   3.579   2.456
 1767SOL    HW2 6201   5.911   3.425   2.420
 1768SOL     OW 6202   5.748   0.013   4.559
 1768SOL    HW1 6203   5.697   6.953   4.582
 1768SOL    HW2 6204   5.758   0.020   4.459
 1769SOL     OW 6205   4.442   1.514   2.362
 1769SOL    HW1 6206   4.460   1.576   2.285
 1769SOL    HW2 6207   4.359   1.544   2.410
 1770SOL     OW 6208   2.299   5.394   5.384
 1770SOL    HW1 6209   2.270   5.351   5.298
 1770SOL    HW2 6210   2.399   5.401   5.385
 1771SOL     OW 6211   5.031   5.862   6.170
 1771SOL    HW1 6212   4.984   5.799   6.109
 1771SOL    HW2 6213   4.982   5.866   6.257
 1772SOL     OW 6214   3.342   6.573   2.623
 1772SOL    HW1 6215   3.259   6.573   2.679
 1772SOL    HW2 6216   3.420   6.602   2.680
 1773SOL     OW 6217   1.068   5.156   6.639
 1773SOL    HW1 6218   1.072   5.232   6.705
 1773SOL    HW2 6219   1.060   5.070   6.688
 1774SOL     OW 6220   3.974   5.381   1.687
 1774SOL    HW1 6221   4.065   5.339   1.698
 1774SOL    HW2 6222   3.952   5.435   1.769
 1775SOL     OW 6223   0.809   4.161   2.334
 1775SOL    HW1 6224   0.895   4.115   2.355
 1775SOL    HW2 6225   0.754   4.103   2.275
 1776SOL     OW 6226   3.006   5.806   4.892
 1776SOL    HW1 6227   2.923   5.754   4.913
 1776SOL    HW2 6228   3.034   5.789   4.798
 1777SOL     OW 6229   4.299   6.066   0.458
 1777SOL    HW1 6230   4.314   6.098   0.552
 1777SOL    HW2 6231   4.275   5.969   0.459
 1778SOL     OW 6232   5.557   3.701   5.977
 1778SOL    HW1 6233   5.525   3.673   5.887
 1778SOL    HW2 6234   5.571   3.620   6.034
 1779SOL     OW 6235   3.190   6.602   5.109
 1779SOL    HW1 6236   3.217   6.566   5.198
 1779SOL    HW2 6237   3.186   6.702   5.113
 1780SOL     OW 6238   3.233   3.322   6.253
 1780SOL    HW1 6239   3.328   3.355   6.246
 1780SOL    HW2 6240   3.227   3.253   6.324
 1781SOL     OW 6241   3.271   5.534   3.098
 1781SOL    HW1 6242   3.357   5.554   3.145
 1781SOL    HW2 6243   3.205   5.607   3.115
 1782SOL     OW 6244   3.292   1.740   3.765
 1782SOL    HW1 6245   3.226   1.792   3.711
 1782SOL    HW2 6246   3.370   1.799   3.788
 1783SOL     OW 6247   1.962   6.020   0.155
 1783SOL    HW1 6248   1.885   6.042   0.095
 1783SOL    HW2 6249   2.047   6.056   0.114
 1784SOL     OW 6250   3.546   6.748   5.462
 1784SOL    HW1 6251   3.467   6.752   5.524
 1784SOL    HW2 6252   3.570   6.653   5.445
 1785SOL     OW 6253   6.855   4.248   2.586
 1785SOL    HW1 6254   6.802   4.277   2.666
 1785SOL    HW2 6255   6.800   4.186   2.531
 1786SOL     OW 6256   3.355   2.407   1.045
 1786SOL    HW1 6257   3.289   2.365   0.982
 1786SOL    HW2 6258   3.396   2.336   1.102
 1787SOL     OW 6259   3.367   0.588   6.268
 1787SOL    HW1 6260   3.368   0.664   6.204
 1787SOL    HW2 6261   3.344   0.621   6.359
 1788SOL     OW 6262   1.949   5.361   5.401
 1788SOL    HW1 6263   1.996   5.446   5.378
 1788SOL    HW2 6264   1.899   5.372   5.487
 1789SOL     OW 6265   6.698   1.785   0.039
 1789SOL    HW1 6266   6.665   1.805   0.131
 1789SOL    HW2 6267   6.783   1.732   0.045
 1790SOL     OW 6268   3.637   6.893   3.857
 1790SOL    HW1 6269   3.553   6.943   3.836
 1790SOL    HW2 6270   3.655   6.825   3.786
 1791SOL     OW 6271   6.767   6.627   2.804
 1791SOL    HW1 6272   6.745   6.634   2.706
 1791SOL    HW2 6273   6.684   6.608   2.856
 1792SOL     OW 6274   1.200   3.133   4.689
 1792SOL    HW1 6275   1.128   3.115   4.623
 1792SOL    HW2 6276   1.285   3.088   4.658
 1793SOL     OW 6277   6.730   6.981   3.756
 1793SOL    HW1 6278   6.811   6.984   3.697
 1793SOL    HW2 6279   6.756   7.006   3.850
 1794SOL     OW 6280   4.385   5.160   5.882
 1794SOL    HW1 6281   4.301   5.108   5.896
 1794SOL    HW2 6282   4.464   5.102   5.902
 1795SOL     OW 6283   0.717   2.861   0.829
 1795SOL    HW1 6284   0.800   2.806   0.838
 1795SOL    HW2 6285   0.653   2.814   0.769
 1796SOL     OW 6286   3.108   0.502   6.257
 1796SOL    HW1 6287   3.087   0.452   6.173
 1796SOL    HW2 6288   3.207   0.516   6.263
 1797SOL     OW 6289   1.312   6.834   0.702
 1797SOL    HW1 6290   1.264   6.825   0.615
 1797SOL    HW2 6291   1.286   6.759   0.763
 1798SOL     OW 6292   4.810   2.595   3.043
 1798SOL    HW1 6293   4.807   2.543   2.957
 1798SOL    HW2 6294   4.831   2.533   3.118
 1799SOL     OW 6295   1.517   1.939   6.729
 1799SOL    HW1 6296   1.430   1.894   6.750
 1799SOL    HW2 6297   1.547   1.994   6.807
 1800SOL     OW 6298   4.219   4.917   1.711
 1800SOL    HW1 6299   4.168   4.861   1.776
 1800SOL    HW2 6300   4.236   4.864   1.628
 1801SOL     OW 6301   6.702   6.775   1.776
 1801SOL    HW1 6302   6.711   6.703   1.846
 1801SOL    HW2 6303   6.650   6.740   1.699
 1802SOL     OW 6304   5.377   5.597   4.664
 1802SOL    HW1 6305   5.456   5.574   4.607
 1802SOL    HW2 6306   5.360   5.695   4.660
 1803SOL     OW 6307   0.267   6.199   0.705
 1803SOL    HW1 6308   0.242   6.174   0.799
 1803SOL    HW2 6309   0.348   6.147   0.677
 1804SOL     OW 6310   2.725   3.435   5.286
 1804SOL    HW1 6311   2.729   3.338   5.309
 1804SOL    HW2 6312   2.630   3.466   5.285
 1805SOL     OW 6313   4.739   3.189   6.284
 1805SOL    HW1 6314   4.730   3.192   6.184
 1805SOL    HW2 6315   4.692   3.108   6.319
 1806SOL     OW 6316   0.928   0.155   1.560
 1806SOL    HW1 6317   0.934   0.117   1.467
 1806SOL    HW2 6318   0.839   0.134   1.599
 1807SOL     OW 6319   6.149   1.377   4.992
 1807SOL    HW1 6320   6.171   1.467   4.955
 1807SOL    HW2 6321   6.227   1.316   4.979
 1808SOL     OW 6322   1.082   4.912   4.061
 1808SOL    HW1 6323   1.054   4.827   4.105
 1808SOL    HW2 6324   1.042   4.917   3.970
 1809SOL     OW 6325   3.360   1.410   5.918
 1809SOL    HW1 6326   3.325   1.435   6.008
 1809SOL    HW2 6327   3.334   1.480   5.851
 1810SOL     OW 6328   2.679   6.367   2.869
 1810SOL    HW1 6329   2.763   6.316   2.888
 1810SOL    HW2 6330   2.703   6.458   2.834
 1811SOL     OW 6331   5.948   5.492   3.317
 1811SOL    HW1 6332   5.861   5.534   3.290
 1811SOL    HW2 6333   5.953   5.486   3.416
 1812SOL     OW 6334   4.284   5.450   6.559
 1812SOL    HW1 6335   4.334   5.490   6.482
 1812SOL    HW2 6336   4.226   5.521   6.601
 1813SOL     OW 6337   6.520   4.899   6.808
 1813SOL    HW1 6338   6.421   4.885   6.818
 1813SOL    HW2 6339   6.540   4.996   6.804
 1814SOL     OW 6340   4.552   6.724   2.620
 1814SOL    HW1 6341   4.512   6.773   2.697
 1814SOL    HW2 6342   4.629   6.775   2.584
 1815SOL     OW 6343   0.170   0.155   3.196
 1815SOL    HW1 6344   0.083   0.121   3.158
 1815SOL    HW2 6345   0.174   0.254   3.185
 1816SOL     OW 6346   1.213   4.263   0.394
 1816SOL    HW1 6347   1.232   4.321   0.474
 1816SOL    HW2 6348   1.221   4.167   0.420
 1817SOL     OW 6349   2.155   5.402   2.336
 1817SOL    HW1 6350   2.176   5.464   2.412
 1817SOL    HW2 6351   2.192   5.440   2.251
 1818SOL     OW 6352   1.850   1.113   3.391
 1818SOL    HW1 6353   1.810   1.073   3.309
 1818SOL    HW2 6354   1.849   1.213   3.383
 1819SOL     OW 6355   1.680   4.865   1.566
 1819SOL    HW1 6356   1.776   4.874   1.539
 1819SOL    HW2 6357   1.649   4.951   1.608
 1820SOL     OW 6358   4.990   0.483   2.642
 1820SOL    HW1 6359   4.993   0.413   2.713
 1820SOL    HW2 6360   4.923   0.553   2.668
 1821SOL     OW 6361   3.038   1.923   2.616
 1821SOL    HW1 6362   3.112   1.990   2.619
 1821SOL    HW2 6363   2.950   1.971   2.614
 1822SOL     OW 6364   3.146   3.312   1.662
 1822SOL    HW1 6365   3.084   3.256   1.607
 1822SOL    HW2 6366   3.205   3.253   1.716
 1823SOL     OW 6367   4.273   6.626   2.536
 1823SOL    HW1 6368   4.365   6.614   2.499
 1823SOL    HW2 6369   4.232   6.709   2.499
 1824SOL     OW 6370   5.034   2.841   1.412
 1824SOL    HW1 6371   5.087   2.823   1.495
 1824SOL    HW2 6372   4.996   2.933   1.416
 1825SOL     OW 6373   1.283   0.653   1.886
 1825SOL    HW1 6374   1.293   0.554   1.886
 1825SOL    HW2 6375   1.190   0.677   1.856
 1826SOL     OW 6376   3.401   6.630   6.743
 1826SOL    HW1 6377   3.411   6.570   6.664
 1826SOL    HW2 6378   3.436   6.584   6.824
 1827SOL     OW 6379   0.091   6.361   1.959
 1827SOL    HW1 6380   0.145   6.278   1.943
 1827SOL    HW2 6381   0.152   6.434   1.992
 1828SOL     OW 6382   0.952   2.452   6.341
 1828SOL    HW1 6383   1.038   2.496   6.367
 1828SOL    HW2 6384   0.878   2.520   6.343
 1829SOL     OW 6385   5.391   5.655   2.632
 1829SOL    HW1 6386   5.461   5.634   2.699
 1829SOL    HW2 6387   5.301   5.634   2.670
 1830SOL     OW 6388   4.531   6.337   3.313
 1830SOL    HW1 6389   4.585   6.419   3.295
 1830SOL    HW2 6390   4.561   6.263   3.253
 1831SOL     OW 6391   4.932   6.773   2.247
 1831SOL    HW1 6392   4.945   6.825   2.163
 1831SOL    HW2 6393   5.018   6.771   2.299
 1832SOL     OW 6394   4.536   2.807   0.855
 1832SOL    HW1 6395   4.625   2.774   0.821
 1832SOL    HW2 6396   4.548   2.846   0.946
 1833SOL     OW 6397   5.346   1.180   5.130
 1833SOL    HW1 6398   5.270   1.242   5.150
 1833SOL    HW2 6399   5.415   1.229   5.076
 1834SOL     OW 6400   3.030   3.244   1.092
 1834SOL    HW1 6401   2.936   3.245   1.060
 1834SOL    HW2 6402   3.080   3.171   1.047
 1835SOL     OW 6403   1.539   5.274   0.909
 1835SOL    HW1 6404   1.478   5.195   0.917
 1835SOL    HW2 6405   1.495   5.354   0.950
 1836SOL     OW 6406   0.482   6.705   0.570
 1836SOL    HW1 6407   0.519   6.702   0.663
 1836SOL    HW2 6408   0.485   6.613   0.530
 1837SOL     OW 6409   1.052   2.190   4.772
 1837SOL    HW1 6410   1.010   2.210   4.683
 1837SOL    HW2 6411   1.068   2.276   4.821
 1838SOL     OW 6412   6.855   2.465   4.424
 1838SOL    HW1 6413   6.819   2.529   4.357
 1838SOL    HW2 6414   6.811   2.481   4.513
 1839SOL     OW 6415   6.961   2.516   5.440
 1839SOL    HW1 6416   7.021   2.596   5.435
 1839SOL    HW2 6417   6.994   2.446   5.376
 1840SOL     OW 6418   2.331   6.065   0.513
 1840SOL    HW1 6419   2.297   6.146   0.561
 1840SOL    HW2 6420   2.411   6.029   0.562
 1841SOL     OW 6421   2.125   2.776   3.168
 1841SOL    HW1 6422   2.045   2.717   3.181
 1841SOL    HW2 6423   2.129   2.844   3.240
 1842SOL     OW 6424   0.872   5.091   0.309
 1842SOL    HW1 6425   0.942   5.161   0.325
 1842SOL    HW2 6426   0.910   5.020   0.249
 1843SOL     OW 6427   2.731   1.922   4.827
 1843SOL    HW1 6428   2.646   1.927   4.880
 1843SOL    HW2 6429   2.796   1.864   4.876
 1844SOL     OW 6430   4.473   2.453   3.881
 1844SOL    HW1 6431   4.521   2.538   3.858
 1844SOL    HW2 6432   4.519   2.409   3.959
 1845SOL     OW 6433   4.455   0.590   6.970
 1845SOL    HW1 6434   4.409   0.606   0.035
 1845SOL    HW2 6435   4.412   0.513   6.923
 1846SOL     OW 6436   2.938   1.461   5.652
 1846SOL    HW1 6437   2.881   1.534   5.616
 1846SOL    HW2 6438   2.954   1.393   5.581
 1847SOL     OW 6439   0.312   0.708   0.722
 1847SOL    HW1 6440   0.410   0.693   0.724
 1847SOL    HW2 6441   0.289   0.769   0.645
 1848SOL     OW 6442   2.800   6.740   2.008
 1848SOL    HW1 6443   2.829   6.834   2.027
 1848SOL    HW2 6444   2.752   6.703   2.088
 1849SOL     OW 6445   3.199   1.622   6.443
 1849SOL    HW1 6446   3.142   1.690   6.396
 1849SOL    HW2 6447   3.141   1.554   6.488
 1850SOL     OW 6448   6.298   2.489   2.618
 1850SOL    HW1 6449   6.237   2.413   2.641
 1850SOL    HW2 6450   6.251   2.552   2.556
 1851SOL     OW 6451   0.112   2.680   2.828
 1851SOL    HW1 6452   0.136   2.593   2.872
 1851SOL    HW2 6453   0.088   2.747   2.898
 1852SOL     OW 6454   4.790   3.051   0.325
 1852SOL    HW1 6455   4.846   3.131   0.347
 1852SOL    HW2 6456   4.804   2.980   0.394
 1853SOL     OW 6457   1.033   4.668   0.844
 1853SOL    HW1 6458   1.061   4.722   0.923
 1853SOL    HW2 6459   1.087   4.693   0.764
 1854SOL     OW 6460   2.733   5.692   4.936
 1854SOL    HW1 6461   2.678   5.625   4.987
 1854SOL    HW2 6462   2.677   5.733   4.864
 1855SOL     OW 6463   5.241   5.145   1.009
 1855SOL    HW1 6464   5.143   5.157   0.995
 1855SOL    HW2 6465   5.291   5.169   0.926
 1856SOL     OW 6466   5.347   2.273   5.195
 1856SOL    HW1 6467   5.378   2.325   5.116
 1856SOL    HW2 6468   5.267   2.318   5.236
 1857SOL     OW 6469   4.280   0.877   3.413
 1857SOL    HW1 6470   4.304   0.893   3.317
 1857SOL    HW2 6471   4.316   0.789   3.443
 1858SOL     OW 6472   4.871   3.422   3.645
 1858SOL    HW1 6473   4.949   3.432   3.583
 1858SOL    HW2 6474   4.874   3.331   3.687
 1859SOL     OW 6475   4.841   2.152   3.025
 1859SOL    HW1 6476   4.838   2.236   2.970
 1859SOL    HW2 6477   4.761   2.096   3.004
 1860SOL     OW 6478   5.323   0.939   4.636
 1860SOL    HW1 6479   5.348   0.930   4.733
 1860SOL    HW2 6480   5.308   0.848   4.597
 1861SOL     OW 6481   5.190   6.541   2.962
 1861SOL    HW1 6482   5.155   6.455   2.925
 1861SOL    HW2 6483   5.186   6.612   2.892
 1862SOL     OW 6484   1.923   1.646   0.396
 1862SOL    HW1 6485   1.856   1.571   0.392
 1862SOL    HW2 6486   2.008   1.613   0.437
 1863SOL     OW 6487   3.310   2.861   1.089
 1863SOL    HW1 6488   3.275   2.899   1.003
 1863SOL    HW2 6489   3.374   2.925   1.131
 1864SOL     OW 6490   1.522   6.802   4.465
 1864SOL    HW1 6491   1.536   6.878   4.402
 1864SOL    HW2 6492   1.532   6.834   4.560
 1865SOL     OW 6493   4.767   2.501   6.516
 1865SOL    HW1 6494   4.692   2.505   6.449
 1865SOL    HW2 6495   4.738   2.446   6.594
 1866SOL     OW 6496   4.891   4.641   2.366
 1866SOL    HW1 6497   4.861   4.684   2.451
 1866SOL    HW2 6498   4.816   4.646   2.299
 1867SOL     OW 6499   0.839   3.928   6.965
 1867SOL    HW1 6500   0.918   3.905   0.001
 1867SOL    HW2 6501   0.755   3.898   7.010
 1868SOL     OW 6502   5.915   4.638   5.734
 1868SOL    HW1 6503   5.986   4.602   5.795
 1868SOL    HW2 6504   5.828   4.643   5.783
 1869SOL     OW 6505   6.431   0.854   5.157
 1869SOL    HW1 6506   6.351   0.808   5.195
 1869SOL    HW2 6507   6.426   0.952   5.178
 1870SOL     OW 6508   1.597   5.921   4.111
 1870SOL    HW1 6509   1.643   5.859   4.048
 1870SOL    HW2 6510   1.665   5.976   4.159
 1871SOL     OW 6511   1.785   0.300   0.832
 1871SOL    HW1 6512   1.703   0.302   0.774
 1871SOL    HW2 6513   1.791   0.212   0.879
 1872SOL     OW 6514   2.202   4.421   0.135
 1872SOL    HW1 6515   2.271   4.494   0.137
 1872SOL    HW2 6516   2.244   4.337   0.099
 1873SOL     OW 6517   4.886   1.490   6.608
 1873SOL    HW1 6518   4.789   1.504   6.585
 1873SOL    HW2 6519   4.905   1.392   6.612
 1874SOL     OW 6520   1.105   2.236   2.696
 1874SOL    HW1 6521   1.178   2.265   2.758
 1874SOL    HW2 6522   1.018   2.277   2.725
 1875SOL     OW 6523   1.163   6.536   6.545
 1875SOL    HW1 6524   1.182   6.634   6.552
 1875SOL    HW2 6525   1.089   6.511   6.608
 1876SOL     OW 6526   2.776   0.166   4.365
 1876SOL    HW1 6527   2.813   0.081   4.326
 1876SOL    HW2 6528   2.769   0.235   4.294
 1877SOL     OW 6529   0.499   0.194   3.306
 1877SOL    HW1 6530   0.468   0.135   3.232
 1877SOL    HW2 6531   0.432   0.266   3.323
 1878SOL     OW 6532   6.200   2.553   4.967
 1878SOL    HW1 6533   6.157   2.466   4.991
 1878SOL    HW2 6534   6.128   2.621   4.949
 1879SOL     OW 6535   1.424   3.707   5.521
 1879SOL    HW1 6536   1.491   3.721   5.449
 1879SOL    HW2 6537   1.336   3.748   5.495
 1880SOL     OW 6538   6.105   0.748   5.740
 1880SOL    HW1 6539   6.190   0.759   5.689
 1880SOL    HW2 6540   6.046   0.682   5.694
 1881SOL     OW 6541   6.347   2.208   0.537
 1881SOL    HW1 6542   6.341   2.276   0.610
 1881SOL    HW2 6543   6.442   2.177   0.528
 1882SOL     OW 6544   0.386   4.183   6.279
 1882SOL    HW1 6545   0.313   4.186   6.212
 1882SOL    HW2 6546   0.470   4.147   6.237
 1883SOL     OW 6547   0.092   2.310   3.755
 1883SOL    HW1 6548   0.150   2.236   3.788
 1883SOL    HW2 6549   0.121   2.396   3.795
 1884SOL     OW 6550   0.398   2.448   1.322
 1884SOL    HW1 6551   0.467   2.449   1.394
 1884SOL    HW2 6552   0.342   2.531   1.328
 1885SOL     OW 6553   1.946   2.018   5.077
 1885SOL    HW1 6554   1.962   2.010   5.175
 1885SOL    HW2 6555   1.849   2.001   5.057
 1886SOL     OW 6556   1.069   6.476   3.265
 1886SOL    HW1 6557   0.993   6.438   3.212
 1886SOL    HW2 6558   1.155   6.444   3.227
 1887SOL     OW 6559   1.497   5.973   6.720
 1887SOL    HW1 6560   1.542   6.059   6.744
 1887SOL    HW2 6561   1.565   5.908   6.687
 1888SOL     OW 6562   2.397   0.961   1.521
 1888SOL    HW1 6563   2.431   1.031   1.459
 1888SOL    HW2 6564   2.469   0.894   1.540
 1889SOL     OW 6565   0.874   3.038   3.619
 1889SOL    HW1 6566   0.956   3.018   3.673
 1889SOL    HW2 6567   0.901   3.055   3.524
 1890SOL     OW 6568   0.616   6.072   3.363
 1890SOL    HW1 6569   0.568   6.095   3.279
 1890SOL    HW2 6570   0.550   6.054   3.436
 1891SOL     OW 6571   4.031   3.534   2.936
 1891SOL    HW1 6572   4.051   3.452   2.990
 1891SOL    HW2 6573   4.001   3.608   2.996
 1892SOL     OW 6574   0.492   0.802   2.210
 1892SOL    HW1 6575   0.565   0.789   2.277
 1892SOL    HW2 6576   0.426   0.869   2.244
 1893SOL     OW 6577   3.391   3.355   3.692
 1893SOL    HW1 6578   3.464   3.379   3.756
 1893SOL    HW2 6579   3.382   3.426   3.622
 1894SOL     OW 6580   3.201   4.121   4.501
 1894SOL    HW1 6581   3.163   4.199   4.451
 1894SOL    HW2 6582   3.156   4.037   4.473
 1895SOL     OW 6583   2.909   6.272   6.889
 1895SOL    HW1 6584   2.977   6.339   6.861
 1895SOL    HW2 6585   2.862   6.235   6.809
 1896SOL     OW 6586   5.539   2.338   1.328
 1896SOL    HW1 6587   5.541   2.363   1.425
 1896SOL    HW2 6588   5.485   2.254   1.316
 1897SOL     OW 6589   1.963   5.235   3.896
 1897SOL    HW1 6590   1.872   5.216   3.933
 1897SOL    HW2 6591   2.022   5.155   3.908
 1898SOL     OW 6592   1.477   5.986   3.521
 1898SOL    HW1 6593   1.552   5.936   3.477
 1898SOL    HW2 6594   1.471   6.077   3.482
 1899SOL     OW 6595   0.184   0.399   2.262
 1899SOL    HW1 6596   0.133   0.314   2.252
 1899SOL    HW2 6597   0.119   0.475   2.272
 1900SOL     OW 6598   2.666   6.950   0.239
 1900SOL    HW1 6599   2.594   6.989   0.296
 1900SOL    HW2 6600   2.646   6.854   0.221
 1901SOL     OW 6601   2.772   3.736   1.332
 1901SOL    HW1 6602   2.770   3.779   1.422
 1901SOL    HW2 6603   2.764   3.637   1.342
 1902SOL     OW 6604   1.124   6.507   4.289
 1902SOL    HW1 6605   1.195   6.577   4.288
 1902SOL    HW2 6606   1.034   6.550   4.280
 1903SOL     OW 6607   1.382   2.688   4.603
 1903SOL    HW1 6608   1.455   2.684   4.535
 1903SOL    HW2 6609   1.354   2.783   4.617
 1904SOL     OW 6610   5.159   5.277   2.445
 1904SOL    HW1 6611   5.175   5.370   2.412
 1904SOL    HW2 6612   5.192   5.211   2.377
 1905SOL     OW 6613   6.720   0.425   3.744
 1905SOL    HW1 6614   6.753   0.507   3.698
 1905SOL    HW2 6615   6.637   0.447   3.796
 1906SOL     OW 6616   2.252   0.161   5.200
 1906SOL    HW1 6617   2.290   0.250   5.174
 1906SOL    HW2 6618   2.304   0.088   5.155
 1907SOL     OW 6619   5.626   2.387   0.555
 1907SOL    HW1 6620   5.613   2.446   0.634
 1907SOL    HW2 6621   5.716   2.403   0.515
 1908SOL     OW 6622   3.494   1.069   1.274
 1908SOL    HW1 6623   3.513   1.134   1.200
 1908SOL    HW2 6624   3.418   1.011   1.248
 1909SOL     OW 6625   6.787   4.511   4.922
 1909SOL    HW1 6626   6.836   4.527   4.836
 1909SOL    HW2 6627   6.835   4.555   4.997
 1910SOL     OW 6628   6.692   6.578   5.703
 1910SOL    HW1 6629   6.696   6.480   5.685
 1910SOL    HW2 6630   6.598   6.611   5.690
 1911SOL     OW 6631   6.951   4.936   3.962
 1911SOL    HW1 6632   0.003   4.920   4.027
 1911SOL    HW2 6633   6.879   4.990   4.006
 1912SOL     OW 6634   2.891   5.296   2.625
 1912SOL    HW1 6635   2.824   5.224   2.610
 1912SOL    HW2 6636   2.934   5.283   2.715
 1913SOL     OW 6637   2.812   4.565   5.629
 1913SOL    HW1 6638   2.723   4.580   5.586
 1913SOL    HW2 6639   2.878   4.630   5.591
 1914SOL     OW 6640   2.449   4.308   6.479
 1914SOL    HW1 6641   2.430   4.210   6.476
 1914SOL    HW2 6642   2.365   4.360   6.463
 1915SOL     OW 6643   4.383   2.252   6.213
 1915SOL    HW1 6644   4.301   2.308   6.227
 1915SOL    HW2 6645   4.395   2.234   6.116
 1916SOL     OW 6646   3.955   0.673   2.053
 1916SOL    HW1 6647   3.890   0.729   2.001
 1916SOL    HW2 6648   3.904   0.612   2.114
 1917SOL     OW 6649   2.564   4.039   1.657
 1917SOL    HW1 6650   2.622   4.121   1.660
 1917SOL    HW2 6651   2.490   4.048   1.724
 1918SOL     OW 6652   5.583   2.451   4.116
 1918SOL    HW1 6653   5.628   2.535   4.147
 1918SOL    HW2 6654   5.517   2.472   4.044
 1919SOL     OW 6655   0.758   2.004   1.173
 1919SOL    HW1 6656   0.838   2.036   1.122
 1919SOL    HW2 6657   0.782   1.921   1.224
 1920SOL     OW 6658   5.132   2.366   0.644
 1920SOL    HW1 6659   5.142   2.465   0.644
 1920SOL    HW2 6660   5.107   2.335   0.736
 1921SOL     OW 6661   2.100   2.690   0.386
 1921SOL    HW1 6662   2.085   2.592   0.396
 1921SOL    HW2 6663   2.085   2.716   0.290
 1922SOL     OW 6664   3.251   3.273   2.612
 1922SOL    HW1 6665   3.245   3.235   2.520
 1922SOL    HW2 6666   3.258   3.199   2.679
 1923SOL     OW 6667   4.198   0.441   5.381
 1923SOL    HW1 6668   4.107   0.428   5.420
 1923SOL    HW2 6669   4.191   0.458   5.283
 1924SOL     OW 6670   3.997   0.320   0.240
 1924SOL    HW1 6671   4.048   0.259   0.300
 1924SOL    HW2 6672   4.054   0.345   0.162
 1925SOL     OW 6673   1.512   4.447   0.804
 1925SOL    HW1 6674   1.476   4.510   0.873
 1925SOL    HW2 6675   1.610   4.461   0.794
 1926SOL     OW 6676   3.693   0.050   1.969
 1926SOL    HW1 6677   3.718   0.015   1.878
 1926SOL    HW2 6678   3.720   7.006   2.038
 1927SOL     OW 6679   2.154   5.231   1.712
 1927SOL    HW1 6680   2.186   5.171   1.639
 1927SOL    HW2 6681   2.178   5.192   1.800
 1928SOL     OW 6682   5.460   4.228   2.892
 1928SOL    HW1 6683   5.524   4.283   2.946
 1928SOL    HW2 6684   5.403   4.289   2.837
 1929SOL     OW 6685   3.130   6.855   2.897
 1929SOL    HW1 6686   3.096   6.922   2.963
 1929SOL    HW2 6687   3.089   6.874   2.807
 1930SOL     OW 6688   4.754   3.317   6.544
 1930SOL    HW1 6689   4.800   3.403   6.522
 1930SOL    HW2 6690   4.740   3.264   6.461
 1931SOL     OW 6691   0.300   2.068   4.220
 1931SOL    HW1 6692   0.379   2.124   4.195
 1931SOL    HW2 6693   0.330   1.994   4.279
 1932SOL     OW 6694   4.402   2.569   1.574
 1932SOL    HW1 6695   4.460   2.650   1.577
 1932SOL    HW2 6696   4.389   2.533   1.666
 1933SOL     OW 6697   1.420   1.561   1.307
 1933SOL    HW1 6698   1.493   1.563   1.238
 1933SOL    HW2 6699   1.375   1.650   1.310
 1934SOL     OW 6700   0.288   0.249   6.606
 1934SOL    HW1 6701   0.216   0.202   6.657
 1934SOL    HW2 6702   0.345   0.302   6.670
 1935SOL     OW 6703   6.628   5.268   3.991
 1935SOL    HW1 6704   6.638   5.276   3.892
 1935SOL    HW2 6705   6.620   5.359   4.031
 1936SOL     OW 6706   4.664   2.665   5.419
 1936SOL    HW1 6707   4.639   2.625   5.507
 1936SOL    HW2 6708   4.714   2.750   5.433
 1937SOL     OW 6709   5.607   5.205   6.658
 1937SOL    HW1 6710   5.531   5.249   6.706
 1937SOL    HW2 6711   5.684   5.194   6.720
 1938SOL     OW 6712   0.258   3.243   6.511
 1938SOL    HW1 6713   0.353   3.241   6.543
 1938SOL    HW2 6714   0.240   3.332   6.469
 1939SOL     OW 6715   0.973   0.434   4.916
 1939SOL    HW1 6716   0.984   0.493   4.836
 1939SOL    HW2 6717   1.002   0.341   4.894
 1940SOL     OW 6718   6.823   4.892   0.657
 1940SOL    HW1 6719   6.858   4.965   0.715
 1940SOL    HW2 6720   6.847   4.803   0.697
 1941SOL     OW 6721   6.081   2.060   4.021
 1941SOL    HW1 6722   6.040   2.034   3.933
 1941SOL    HW2 6723   6.157   2.124   4.004
 1942SOL     OW 6724   6.099   3.662   2.720
 1942SOL    HW1 6725   6.179   3.720   2.738
 1942SOL    HW2 6726   6.050   3.697   2.640
 1943SOL     OW 6727   0.930   1.639   2.809
 1943SOL    HW1 6728   0.984   1.686   2.880
 1943SOL    HW2 6729   0.834   1.667   2.816
 1944SOL     OW 6730   6.927   2.913   3.182
 1944SOL    HW1 6731   6.985   2.841   3.220
 1944SOL    HW2 6732   6.850   2.930   3.244
 1945SOL     OW 6733   4.668   1.372   1.929
 1945SOL    HW1 6734   4.693   1.300   1.864
 1945SOL    HW2 6735   4.721   1.455   1.909
 1946SOL     OW 6736   5.963   5.259   1.292
 1946SOL    HW1 6737   6.045   5.228   1.340
 1946SOL    HW2 6738   5.900   5.299   1.358
 1947SOL     OW 6739   5.848   4.722   3.662
 1947SOL    HW1 6740   5.887   4.734   3.753
 1947SOL    HW2 6741   5.917   4.745   3.593
 1948SOL     OW 6742   4.936   3.496   3.291
 1948SOL    HW1 6743   4.977   3.571   3.240
 1948SOL    HW2 6744   4.849   3.526   3.330
 1949SOL     OW 6745   4.007   4.587   0.014
 1949SOL    HW1 6746   4.090   4.572   6.981
 1949SOL    HW2 6747   3.934   4.620   6.976
 1950SOL     OW 6748   3.023   3.896   3.343
 1950SOL    HW1 6749   2.983   3.830   3.406
 1950SOL    HW2 6750   3.073   3.965   3.395
 1951SOL     OW 6751   5.978   5.102   5.455
 1951SOL    HW1 6752   6.021   5.138   5.538
 1951SOL    HW2 6753   5.994   5.003   5.449
 1952SOL     OW 6754   6.055   5.003   0.564
 1952SOL    HW1 6755   6.023   4.908   0.566
 1952SOL    HW2 6756   6.095   5.022   0.474
 1953SOL     OW 6757   0.822   1.083   6.805
 1953SOL    HW1 6758   0.728   1.118   6.804
 1953SOL    HW2 6759   0.826   1.000   6.860
 1954SOL     OW 6760   4.161   6.796   1.945
 1954SOL    HW1 6761   4.094   6.724   1.928
 1954SOL    HW2 6762   4.124   6.860   2.012
 1955SOL     OW 6763   0.090   2.181   3.196
 1955SOL    HW1 6764   0.088   2.217   3.289
 1955SOL    HW2 6765   0.019   2.111   3.186
 1956SOL     OW 6766   5.672   0.421   1.998
 1956SOL    HW1 6767   5.665   0.519   1.978
 1956SOL    HW2 6768   5.604   0.371   1.943
 1957SOL     OW 6769   5.544   2.055   4.638
 1957SOL    HW1 6770   5.637   2.090   4.647
 1957SOL    HW2 6771   5.535   1.970   4.690
 1958SOL     OW 6772   4.732   2.105   0.826
 1958SOL    HW1 6773   4.667   2.138   0.894
 1958SOL    HW2 6774   4.721   2.157   0.741
 1959SOL     OW 6775   0.306   0.673   4.762
 1959SOL    HW1 6776   0.348   0.764   4.774
 1959SOL    HW2 6777   0.213   0.675   4.798
 1960SOL     OW 6778   6.130   4.437   4.080
 1960SOL    HW1 6779   6.218   4.454   4.123
 1960SOL    HW2 6780   6.138   4.362   4.015
 1961SOL     OW 6781   0.069   3.813   4.378
 1961SOL    HW1 6782   7.008   3.867   4.362
 1961SOL    HW2 6783   0.149   3.871   4.362
 1962SOL     OW 6784   0.952   0.506   2.584
 1962SOL    HW1 6785   0.892   0.584   2.603
 1962SOL    HW2 6786   0.947   0.483   2.486
 1963SOL     OW 6787   0.376   2.872   1.058
 1963SOL    HW1 6788   0.340   2.918   1.139
 1963SOL    HW2 6789   0.457   2.819   1.083
 1964SOL     OW 6790   6.116   3.664   1.255
 1964SOL    HW1 6791   6.200   3.610   1.267
 1964SOL    HW2 6792   6.040   3.603   1.234
 1965SOL     OW 6793   6.588   4.548   4.005
 1965SOL    HW1 6794   6.569   4.644   3.986
 1965SOL    HW2 6795   6.546   4.491   3.934
 1966SOL     OW 6796   1.436   5.014   0.142
 1966SOL    HW1 6797   1.513   4.951   0.137
 1966SOL    HW2 6798   1.442   5.067   0.227
 1967SOL     OW 6799   6.231   3.471   3.898
 1967SOL    HW1 6800   6.177   3.537   3.950
 1967SOL    HW2 6801   6.179   3.439   3.819
 1968SOL     OW 6802   2.903   1.243   4.998
 1968SOL    HW1 6803   2.929   1.333   5.033
 1968SOL    HW2 6804   2.804   1.233   5.005
 1969SOL     OW 6805   2.667   6.584   6.843
 1969SOL    HW1 6806   2.764   6.607   6.834
 1969SOL    HW2 6807   2.624   6.647   6.907
 1970SOL     OW 6808   5.755   5.490   4.689
 1970SOL    HW1 6809   5.851   5.484   4.661
 1970SOL    HW2 6810   5.728   5.586   4.696
 1971SOL     OW 6811   1.747   5.635   5.084
 1971SOL    HW1 6812   1.726   5.733   5.084
 1971SOL    HW2 6813   1.685   5.587   5.146
 1972SOL     OW 6814   5.938   3.250   2.830
 1972SOL    HW1 6815   5.856   3.308   2.830
 1972SOL    HW2 6816   5.931   3.184   2.904
 1973SOL     OW 6817   2.627   2.840   0.358
 1973SOL    HW1 6818   2.547   2.781   0.365
 1973SOL    HW2 6819   2.598   2.936   0.356
 1974SOL     OW 6820   2.939   6.321   5.133
 1974SOL    HW1 6821   3.020   6.346   5.080
 1974SOL    HW2 6822   2.949   6.227   5.167
 1975SOL     OW 6823   1.998   2.915   3.626
 1975SOL    HW1 6824   1.936   2.934   3.702
 1975SOL    HW2 6825   2.037   2.824   3.637
 1976SOL     OW 6826   0.187   0.097   6.286
 1976SOL    HW1 6827   0.277   0.061   6.261
 1976SOL    HW2 6828   0.197   0.187   6.326
 1977SOL     OW 6829   2.142   4.275   5.673
 1977SOL    HW1 6830   2.224   4.219   5.665
 1977SOL    HW2 6831   2.159   4.349   5.738
 1978SOL     OW 6832   2.520   0.134   1.608
 1978SOL    HW1 6833   2.571   0.104   1.689
 1978SOL    HW2 6834   2.570   0.109   1.525
 1979SOL     OW 6835   7.012   4.821   6.269
 1979SOL    HW1 6836   6.932   4.762   6.281
 1979SOL    HW2 6837   0.073   4.768   6.285
 1980SOL     OW 6838   3.720   1.689   0.300
 1980SOL    HW1 6839   3.706   1.714   0.395
 1980SOL    HW2 6840   3.814   1.659   0.286
 1981SOL     OW 6841   3.258   2.107   2.642
 1981SOL    HW1 6842   3.312   2.026   2.664
 1981SOL    HW2 6843   3.268   2.174   2.715
 1982SOL     OW 6844   0.851   2.412   5.134
 1982SOL    HW1 6845   0.833   2.489   5.195
 1982SOL    HW2 6846   0.940   2.424   5.090
 1983SOL     OW 6847   7.008   0.588   2.426
 1983SOL    HW1 6848   0.024   0.680   2.412
 1983SOL    HW2 6849   6.927   0.577   2.369
 1984SOL     OW 6850   4.593   2.976   5.848
 1984SOL    HW1 6851   4.611   2.923   5.931
 1984SOL    HW2 6852   4.515   2.937   5.799
 1985SOL     OW 6853   6.367   3.711   2.419
 1985SOL    HW1 6854   6.288   3.682   2.366
 1985SOL    HW2 6855   6.341   3.723   2.515
 1986SOL     OW 6856   3.895   2.715   1.727
 1986SOL    HW1 6857   3.830   2.639   1.731
 1986SOL    HW2 6858   3.986   2.680   1.704
 1987SOL     OW 6859   2.712   1.240   1.315
 1987SOL    HW1 6860   2.775   1.303   1.362
 1987SOL    HW2 6861   2.693   1.275   1.224
 1988SOL     OW 6862   0.121   2.135   1.899
 1988SOL    HW1 6863   0.137   2.217   1.844
 1988SOL    HW2 6864   0.141   2.155   1.995
 1989SOL     OW 6865   2.646   4.988   4.576
 1989SOL    HW1 6866   2.628   4.891   4.589
 1989SOL    HW2 6867   2.615   5.015   4.485
 1990SOL     OW 6868   3.710   6.943   0.442
 1990SOL    HW1 6869   3.645   6.956   0.367
 1990SOL    HW2 6870   3.766   0.004   0.452
 1991SOL     OW 6871   2.723   4.929   0.704
 1991SOL    HW1 6872   2.780   4.903   0.782
 1991SOL    HW2 6873   2.780   4.974   0.635
 1992SOL     OW 6874   0.613   6.755   1.464
 1992SOL    HW1 6875   0.599   6.692   1.541
 1992SOL    HW2 6876   0.571   6.843   1.485
 1993SOL     OW 6877   2.573   2.551   3.434
 1993SOL    HW1 6878   2.483   2.576   3.397
 1993SOL    HW2 6879   2.634   2.630   3.426
 1994SOL     OW 6880   3.222   2.616   0.564
 1994SOL    HW1 6881   3.151   2.687   0.567
 1994SOL    HW2 6882   3.285   2.635   0.489
 1995SOL     OW 6883   5.673   1.873   4.018
 1995SOL    HW1 6884   5.756   1.845   4.066
 1995SOL    HW2 6885   5.671   1.973   4.010
 1996SOL     OW 6886   3.789   1.312   0.888
 1996SOL    HW1 6887   3.841   1.266   0.815
 1996SOL    HW2 6888   3.705   1.350   0.850
 1997SOL     OW 6889   3.983   0.198   4.238
 1997SOL    HW1 6890   3.997   0.285   4.287
 1997SOL    HW2 6891   3.910   0.210   4.170
 1998SOL     OW 6892   1.954   3.973   1.792
 1998SOL    HW1 6893   2.008   3.953   1.874
 1998SOL    HW2 6894   1.877   4.032   1.817
 1999SOL     OW 6895   1.411   0.092   0.204
 1999SOL    HW1 6896   1.506   0.119   0.187
 1999SOL    HW2 6897   1.405   0.042   0.290
 2000SOL     OW 6898   3.660   4.186   5.729
 2000SOL    HW1 6899   3.738   4.147   5.779
 2000SOL    HW2 6900   3.681   4.188   5.632
 2001SOL     OW 6901   1.977   1.941   0.722
 2001SOL    HW1 6902   1.892   1.990   0.702
 2001SOL    HW2 6903   1.960   1.842   0.716
 2002SOL     OW 6904   0.105   5.193   0.566
 2002SOL    HW1 6905   0.047   5.116   0.591
 2002SOL    HW2 6906   0.118   5.194   0.466
 2003SOL     OW 6907   6.543   4.799   3.049
 2003SOL    HW1 6908   6.503   4.877   3.000
 2003SOL    HW2 6909   6.590   4.739   2.984
 2004SOL     OW 6910   3.400   6.864   3.368
 2004SOL    HW1 6911   3.429   6.945   3.418
 2004SOL    HW2 6912   3.438   6.867   3.275
 2005SOL     OW 6913   1.537   6.298   0.268
 2005SOL    HW1 6914   1.557   6.218   0.212
 2005SOL    HW2 6915   1.508   6.374   0.210
 2006SOL     OW 6916   5.692   6.128   2.426
 2006SOL    HW1 6917   5.684   6.218   2.468
 2006SOL    HW2 6918   5.701   6.058   2.497
 2007SOL     OW 6919   5.455   4.754   6.773
 2007SOL    HW1 6920   5.386   4.684   6.790
 2007SOL    HW2 6921   5.536   4.735   6.828
 2008SOL     OW 6922   1.677   3.350   3.924
 2008SOL    HW1 6923   1.710   3.444   3.922
 2008SOL    HW2 6924   1.604   3.338   3.857
 2009SOL     OW 6925   6.167   0.131   2.784
 2009SOL    HW1 6926   6.206   0.065   2.720
 2009SOL    HW2 6927   6.068   0.135   2.770
 2010SOL     OW 6928   1.007   1.926   1.428
 2010SOL    HW1 6929   1.057   2.001   1.386
 2010SOL    HW2 6930   1.053   1.900   1.513
 2011SOL     OW 6931   1.073   6.579   5.520
 2011SOL    HW1 6932   1.103   6.653   5.460
 2011SOL    HW2 6933   1.080   6.608   5.615
 2012SOL     OW 6934   1.631   3.168   2.159
 2012SOL    HW1 6935   1.712   3.188   2.104
 2012SOL    HW2 6936   1.577   3.252   2.171
 2013SOL     OW 6937   0.531   3.222   2.277
 2013SOL    HW1 6938   0.542   3.237   2.375
 2013SOL    HW2 6939   0.499   3.307   2.234
 2014SOL     OW 6940   3.797   0.714   4.350
 2014SOL    HW1 6941   3.748   0.761   4.423
 2014SOL    HW2 6942   3.841   0.783   4.291
 2015SOL     OW 6943   4.325   0.612   2.238
 2015SOL    HW1 6944   4.420   0.636   2.219
 2015SOL    HW2 6945   4.293   0.664   2.318
 2016SOL     OW 6946   1.749   0.505   4.950
 2016SOL    HW1 6947   1.848   0.521   4.952
 2016SOL    HW2 6948   1.712   0.539   4.864
 2017SOL     OW 6949   3.821   6.355   3.371
 2017SOL    HW1 6950   3.800   6.316   3.460
 2017SOL    HW2 6951   3.801   6.289   3.299
 2018SOL     OW 6952   1.413   0.930   3.867
 2018SOL    HW1 6953   1.349   0.857   3.844
 2018SOL    HW2 6954   1.369   0.993   3.931
 2019SOL     OW 6955   5.898   5.323   6.602
 2019SOL    HW1 6956   5.842   5.274   6.669
 2019SOL    HW2 6957   5.862   5.305   6.510
 2020SOL     OW 6958   1.813   6.098   6.946
 2020SOL    HW1 6959   1.868   6.182   6.948
 2020SOL    HW2 6960   1.781   6.083   6.852
 2021SOL     OW 6961   6.732   5.885   4.268
 2021SOL    HW1 6962   6.794   5.826   4.319
 2021SOL    HW2 6963   6.726   5.852   4.173
 2022SOL     OW 6964   2.085   4.468   4.556
 2022SOL    HW1 6965   2.058   4.393   4.617
 2022SOL    HW2 6966   2.008   4.530   4.543
 2023SOL     OW 6967   6.620   6.615   0.499
 2023SOL    HW1 6968   6.534   6.593   0.546
 2023SOL    HW2 6969   6.697   6.594   0.559
 2024SOL     OW 6970   0.491   5.832   4.714
 2024SOL    HW1 6971   0.440   5.827   4.629
 2024SOL    HW2 6972   0.435   5.796   4.789
 2025SOL     OW 6973   1.545   6.285   4.385
 2025SOL    HW1 6974   1.579   6.281   4.291
 2025SOL    HW2 6975   1.544   6.380   4.416
 2026SOL     OW 6976   6.858   0.301   6.108
 2026SOL    HW1 6977   6.895   0.337   6.193
 2026SOL    HW2 6978   6.860   0.201   6.111
 2027SOL     OW 6979   6.641   5.885   1.995
 2027SOL    HW1 6980   6.567   5.818   2.002
 2027SOL    HW2 6981   6.603   5.977   1.985
 2028SOL     OW 6982   2.933   5.505   4.376
 2028SOL    HW1 6983   2.847   5.497   4.426
 2028SOL    HW2 6984   2.991   5.427   4.396
 2029SOL     OW 6985   6.700   2.657   6.678
 2029SOL    HW1 6986   6.746   2.680   6.592
 2029SOL    HW2 6987   6.714   2.560   6.698
 2030SOL     OW 6988   2.034   6.883   1.717
 2030SOL    HW1 6989   2.109   6.911   1.777
 2030SOL    HW2 6990   1.982   6.964   1.691
 2031SOL     OW 6991   6.981   6.100   4.233
 2031SOL    HW1 6992   0.008   6.017   4.260
 2031SOL    HW2 6993   6.887   6.077   4.208
 2032SOL     OW 6994   2.563   2.042   5.986
 2032SOL    HW1 6995   2.562   2.112   6.058
 2032SOL    HW2 6996   2.476   2.044   5.937
 2033SOL     OW 6997   2.809   2.164   0.988
 2033SOL    HW1 6998   2.799   2.224   0.909
 2033SOL    HW2 6999   2.741   2.091   0.984
 2034SOL     OW 7000   0.057   3.699   4.636
 2034SOL    HW1 7001   0.134   3.705   4.701
 2034SOL    HW2 7002   0.087   3.731   4.547
 2035SOL     OW 7003   5.424   0.237   2.993
 2035SOL    HW1 7004   5.427   0.251   2.894
 2035SOL    HW2 7005   5.442   0.141   3.015
 2036SOL     OW 7006   0.784   4.323   0.405
 2036SOL    HW1 7007   0.873   4.364   0.388
 2036SOL    HW2 7008   0.745   4.363   0.489
 2037SOL     OW 7009   0.741   2.156   6.572
 2037SOL    HW1 7010   0.653   2.112   6.556
 2037SOL    HW2 7011   0.777   2.127   6.661
 2038SOL     OW 7012   1.415   0.720   6.419
 2038SOL    HW1 7013   1.404   0.774   6.502
 2038SOL    HW2 7014   1.416   0.623   6.442
 2039SOL     OW 7015   5.547   6.303   2.988
 2039SOL    HW1 7016   5.647   6.309   2.992
 2039SOL    HW2 7017   5.517   6.321   2.895
 2040SOL     OW 7018   1.863   2.370   1.004
 2040SOL    HW1 7019   1.815   2.413   0.927
 2040SOL    HW2 7020   1.939   2.427   1.033
 2041SOL     OW 7021   2.535   0.888   6.863
 2041SOL    HW1 7022   2.515   0.790   6.857
 2041SOL    HW2 7023   2.541   0.927   6.771
 2042SOL     OW 7024   6.020   1.317   5.767
 2042SOL    HW1 7025   5.988   1.409   5.790
 2042SOL    HW2 7026   5.965   1.280   5.692
 2043SOL     OW 7027   0.633   4.046   1.172
 2043SOL    HW1 7028   0.611   3.949   1.161
 2043SOL    HW2 7029   0.591   4.080   1.256
 2044SOL     OW 7030   4.103   0.801   1.167
 2044SOL    HW1 7031   4.193   0.760   1.180
 2044SOL    HW2 7032   4.083   0.808   1.069
 2045SOL     OW 7033   1.290   6.682   4.896
 2045SOL    HW1 7034   1.295   6.635   4.984
 2045SOL    HW2 7035   1.200   6.726   4.887
 2046SOL     OW 7036   0.586   1.997   4.728
 2046SOL    HW1 7037   0.539   2.084   4.714
 2046SOL    HW2 7038   0.667   2.012   4.785
 2047SOL     OW 7039   0.237   1.031   0.847
 2047SOL    HW1 7040   0.332   1.023   0.877
 2047SOL    HW2 7041   0.229   0.993   0.755
 2048SOL     OW 7042   0.897   2.193   4.178
 2048SOL    HW1 7043   0.897   2.168   4.274
 2048SOL    HW2 7044   0.976   2.251   4.158
 2049SOL     OW 7045   4.484   1.812   4.693
 2049SOL    HW1 7046   4.467   1.899   4.738
 2049SOL    HW2 7047   4.571   1.774   4.724
 2050SOL     OW 7048   0.474   0.941   4.139
 2050SOL    HW1 7049   0.417   0.969   4.062
 2050SOL    HW2 7050   0.569   0.934   4.109
 2051SOL     OW 7051   2.896   6.737   6.776
 2051SOL    HW1 7052   2.964   6.665   6.784
 2051SOL    HW2 7053   2.931   6.821   6.817
 2052SOL     OW 7054   1.308   4.132   6.346
 2052SOL    HW1 7055   1.269   4.093   6.430
 2052SOL    HW2 7056   1.381   4.196   6.370
 2053SOL     OW 7057   0.241   5.987   3.092
 2053SOL    HW1 7058   0.157   6.022   3.051
 2053SOL    HW2 7059   0.257   5.893   3.060
 2054SOL     OW 7060   2.972   3.820   3.087
 2054SOL    HW1 7061   2.968   3.861   3.178
 2054SOL    HW2 7062   3.051   3.858   3.038
 2055SOL     OW 7063   3.425   2.441   5.611
 2055SOL    HW1 7064   3.469   2.397   5.689
 2055SOL    HW2 7065   3.365   2.515   5.644
 2056SOL     OW 7066   3.918   4.863   1.329
 2056SOL    HW1 7067   3.824   4.871   1.363
 2056SOL    HW2 7068   3.921   4.889   1.232
 2057SOL     OW 7069   5.102   2.913   4.525
 2057SOL    HW1 7070   5.016   2.961   4.517
 2057SOL    HW2 7071   5.149   2.943   4.609
 2058SOL     OW 7072   6.982   0.008   3.075
 2058SOL    HW1 7073   6.900   0.052   3.113
 2058SOL    HW2 7074   7.002   6.947   3.127
 2059SOL     OW 7075   1.223   0.905   5.218
 2059SOL    HW1 7076   1.145   0.847   5.241
 2059SOL    HW2 7077   1.307   0.861   5.248
 2060SOL     OW 7078   1.516   2.856   0.100
 2060SOL    HW1 7079   1.480   2.946   0.077
 2060SOL    HW2 7080   1.597   2.837   0.045
 2061SOL     OW 7081   2.031   2.676   2.604
 2061SOL    HW1 7082   2.128   2.655   2.587
 2061SOL    HW2 7083   1.991   2.713   2.520
 2062SOL     OW 7084   0.341   4.994   5.114
 2062SOL    HW1 7085   0.354   4.988   5.213
 2062SOL    HW2 7086   0.388   4.919   5.069
 2063SOL     OW 7087   1.237   1.519   4.724
 2063SOL    HW1 7088   1.160   1.565   4.767
 2063SOL    HW2 7089   1.265   1.441   4.780
 2064SOL     OW 7090   0.951   3.378   3.713
 2064SOL    HW1 7091   0.949   3.282   3.742
 2064SOL    HW2 7092   0.979   3.436   3.790
 2065SOL     OW 7093   4.071   3.688   5.529
 2065SOL    HW1 7094   4.127   3.619   5.482
 2065SOL    HW2 7095   4.087   3.681   5.628
 2066SOL     OW 7096   1.001   3.299   5.938
 2066SOL    HW1 7097   0.963   3.386   5.907
 2066SOL    HW2 7098   1.100   3.298   5.921
 2067SOL     OW 7099   6.465   5.364   1.474
 2067SOL    HW1 7100   6.462   5.349   1.572
 2067SOL    HW2 7101   6.452   5.461   1.455
 2068SOL     OW 7102   4.237   0.724   5.149
 2068SOL    HW1 7103   4.306   0.776   5.199
 2068SOL    HW2 7104   4.281   0.672   5.076
 2069SOL     OW 7105   0.084   1.279   3.515
 2069SOL    HW1 7106   0.167   1.328   3.488
 2069SOL    HW2 7107   0.013   1.295   3.447
 2070SOL     OW 7108   1.077   4.805   1.072
 2070SOL    HW1 7109   1.092   4.904   1.063
 2070SOL    HW2 7110   1.005   4.788   1.139
 2071SOL     OW 7111   0.144   1.804   5.591
 2071SOL    HW1 7112   0.186   1.757   5.513
 2071SOL    HW2 7113   0.045   1.805   5.578
 2072SOL     OW 7114   5.038   4.212   5.614
 2072SOL    HW1 7115   5.035   4.310   5.633
 2072SOL    HW2 7116   5.120   4.172   5.655
 2073SOL     OW 7117   2.810   5.152   6.817
 2073SOL    HW1 7118   2.856   5.226   6.769
 2073SOL    HW2 7119   2.859   5.066   6.801
 2074SOL     OW 7120   1.327   4.549   6.073
 2074SOL    HW1 7121   1.309   4.451   6.081
 2074SOL    HW2 7122   1.329   4.575   5.977
 2075SOL     OW 7123   6.173   2.723   1.376
 2075SOL    HW1 7124   6.084   2.704   1.335
 2075SOL    HW2 7125   6.245   2.704   1.309
 2076SOL     OW 7126   6.222   6.571   4.746
 2076SOL    HW1 7127   6.247   6.474   4.745
 2076SOL    HW2 7128   6.196   6.597   4.839
 2077SOL     OW 7129   6.249   4.919   1.350
 2077SOL    HW1 7130   6.300   4.842   1.387
 2077SOL    HW2 7131   6.159   4.888   1.320
 2078SOL     OW 7132   0.801   2.995   5.468
 2078SOL    HW1 7133   0.803   3.081   5.416
 2078SOL    HW2 7134   0.711   2.953   5.458
 2079SOL     OW 7135   5.208   1.066   2.371
 2079SOL    HW1 7136   5.275   1.031   2.306
 2079SOL    HW2 7137   5.128   1.100   2.321
 2080SOL     OW 7138   2.690   3.272   6.186
 2080SOL    HW1 7139   2.646   3.338   6.125
 2080SOL    HW2 7140   2.785   3.298   6.201
 2081SOL     OW 7141   6.068   5.684   2.207
 2081SOL    HW1 7142   6.010   5.738   2.268
 2081SOL    HW2 7143   6.116   5.744   2.143
 2082SOL     OW 7144   6.433   6.178   4.494
 2082SOL    HW1 7145   6.462   6.269   4.464
 2082SOL    HW2 7146   6.438   6.114   4.417
 2083SOL     OW 7147   0.286   6.676   3.690
 2083SOL    HW1 7148   0.189   6.691   3.706
 2083SOL    HW2 7149   0.324   6.622   3.765
 2084SOL     OW 7150   6.121   2.496   0.273
 2084SOL    HW1 7151   6.145   2.399   0.280
 2084SOL    HW2 7152   6.127   2.538   0.364
 2085SOL     OW 7153   5.817   5.622   1.131
 2085SOL    HW1 7154   5.801   5.679   1.051
 2085SOL    HW2 7155   5.874   5.544   1.105
 2086SOL     OW 7156   4.723   1.131   0.069
 2086SOL    HW1 7157   4.797   1.198   0.065
 2086SOL    HW2 7158   4.707   1.093   7.000
 2087SOL     OW 7159   3.876   1.470   6.766
 2087SOL    HW1 7160   3.949   1.538   6.774
 2087SOL    HW2 7161   3.871   1.417   6.850
 2088SOL     OW 7162   0.924   5.567   5.859
 2088SOL    HW1 7163   0.931   5.603   5.952
 2088SOL    HW2 7164   0.830   5.576   5.826
 2089SOL     OW 7165   2.504   3.188   6.938
 2089SOL    HW1 7166   2.599   3.178   6.967
 2089SOL    HW2 7167   2.501   3.204   6.839
 2090SOL     OW 7168   5.192   2.855   5.739
 2090SOL    HW1 7169   5.218   2.761   5.764
 2090SOL    HW2 7170   5.119   2.886   5.800
 2091SOL     OW 7171   5.482   6.633   1.281
 2091SOL    HW1 7172   5.451   6.702   1.215
 2091SOL    HW2 7173   5.567   6.664   1.323
 2092SOL     OW 7174   3.926   3.630   1.273
 2092SOL    HW1 7175   3.951   3.534   1.284
 2092SOL    HW2 7176   3.850   3.651   1.335
 2093SOL     OW 7177   4.505   1.102   1.259
 2093SOL    HW1 7178   4.480   1.198   1.265
 2093SOL    HW2 7179   4.432   1.051   1.212
 2094SOL     OW 7180   5.489   1.979   6.384
 2094SOL    HW1 7181   5.426   2.003   6.459
 2094SOL    HW2 7182   5.445   1.999   6.297
 2095SOL     OW 7183   5.027   5.815   3.955
 2095SOL    HW1 7184   5.044   5.780   3.863
 2095SOL    HW2 7185   5.115   5.835   3.999
 2096SOL     OW 7186   3.960   6.699   1.604
 2096SOL    HW1 7187   3.920   6.776   1.556
 2096SOL    HW2 7188   3.890   6.629   1.619
 2097SOL     OW 7189   0.883   5.901   6.162
 2097SOL    HW1 7190   0.821   5.975   6.188
 2097SOL    HW2 7191   0.934   5.927   6.079
 2098SOL     OW 7192   2.905   5.787   3.441
 2098SOL    HW1 7193   2.857   5.750   3.520
 2098SOL    HW2 7194   2.842   5.795   3.364
 2099SOL     OW 7195   4.615   1.524   6.546
 2099SOL    HW1 7196   4.602   1.529   6.447
 2099SOL    HW2 7197   4.572   1.603   6.590
 2100SOL     OW 7198   5.235   6.839   1.819
 2100SOL    HW1 7199   5.290   6.829   1.902
 2100SOL    HW2 7200   5.281   6.899   1.755
 2101SOL     OW 7201   0.509   0.490   2.795
 2101SOL    HW1 7202   0.597   0.487   2.842
 2101SOL    HW2 7203   0.436   0.465   2.859
 2102SOL     OW 7204   4.347   2.457   0.916
 2102SOL    HW1 7205   4.339   2.553   0.942
 2102SOL    HW2 7206   4.261   2.410   0.937
 2103SOL     OW 7207   2.177   6.434   0.164
 2103SOL    HW1 7208   2.166   6.486   0.249
 2103SOL    HW2 7209   2.108   6.463   0.098
 2104SOL     OW 7210   1.736   4.314   3.511
 2104SOL    HW1 7211   1.672   4.247   3.548
 2104SOL    HW2 7212   1.685   4.391   3.472
 2105SOL     OW 7213   5.198   6.177   5.133
 2105SOL    HW1 7214   5.268   6.248   5.132
 2105SOL    HW2 7215   5.219   6.109   5.063
 2106SOL     OW 7216   4.347   3.000   1.087
 2106SOL    HW1 7217   4.415   3.066   1.120
 2106SOL    HW2 7218   4.350   2.918   1.143
 2107SOL     OW 7219   5.274   4.637   5.114
 2107SOL    HW1 7220   5.262   4.720   5.167
 2107SOL    HW2 7221   5.370   4.609   5.115
 2108SOL     OW 7222   4.600   0.299   5.218
 2108SOL    HW1 7223   4.536   0.260   5.151
 2108SOL    HW2 7224   4.550   0.326   5.300
 2109SOL     OW 7225   2.764   6.082   1.785
 2109SOL    HW1 7226   2.781   6.046   1.876
 2109SOL    HW2 7227   2.688   6.031   1.743
 2110SOL     OW 7228   3.474   6.451   6.924
 2110SOL    HW1 7229   3.530   6.369   6.935
 2110SOL    HW2 7230   3.379   6.430   6.947
 2111SOL     OW 7231   1.526   2.345   6.033
 2111SOL    HW1 7232   1.436   2.386   6.019
 2111SOL    HW2 7233   1.589   2.413   6.069
 2112SOL     OW 7234   1.214   0.752   0.178
 2112SOL    HW1 7235   1.312   0.741   0.160
 2112SOL    HW2 7236   1.165   0.670   0.149
 2113SOL     OW 7237   6.751   0.960   4.357
 2113SOL    HW1 7238   6.689   1.023   4.310
 2113SOL    HW2 7239   6.729   0.866   4.331
 2114SOL     OW 7240   1.577   1.413   6.206
 2114SOL    HW1 7241   1.614   1.495   6.251
 2114SOL    HW2 7242   1.653   1.360   6.168
 2115SOL     OW 7243   6.323   6.097   3.133
 2115SOL    HW1 7244   6.243   6.156   3.146
 2115SOL    HW2 7245   6.368   6.082   3.221
 2116SOL     OW 7246   1.623   2.035   6.955
 2116SOL    HW1 7247   1.642   2.122   7.000
 2116SOL    HW2 7248   1.708   1.983   6.946
 2117SOL     OW 7249   6.301   1.788   2.682
 2117SOL    HW1 7250   6.318   1.747   2.771
 2117SOL    HW2 7251   6.306   1.717   2.611
 2118SOL     OW 7252   6.822   2.507   2.911
 2118SOL    HW1 7253   6.769   2.508   2.996
 2118SOL    HW2 7254   6.920   2.510   2.932
 2119SOL     OW 7255   1.143   1.527   0.748
 2119SOL    HW1 7256   1.106   1.509   0.656
 2119SOL    HW2 7257   1.072   1.569   0.804
 2120SOL     OW 7258   5.922   1.402   1.035
 2120SOL    HW1 7259   5.824   1.419   1.037
 2120SOL    HW2 7260   5.963   1.456   0.961
 2121SOL     OW 7261   1.842   0.516   6.857
 2121SOL    HW1 7262   1.783   0.437   6.872
 2121SOL    HW2 7263   1.930   0.486   6.819
 2122SOL     OW 7264   6.231   0.843   4.486
 2122SOL    HW1 7265   6.236   0.943   4.479
 2122SOL    HW2 7266   6.209   0.805   4.396
 2123SOL     OW 7267   1.457   5.132   2.807
 2123SOL    HW1 7268   1.498   5.049   2.769
 2123SOL    HW2 7269   1.506   5.158   2.891
 2124SOL     OW 7270   4.061   3.825   6.537
 2124SOL    HW1 7271   4.030   3.748   6.482
 2124SOL    HW2 7272   4.134   3.796   6.599
 2125SOL     OW 7273   1.766   5.982   4.373
 2125SOL    HW1 7274   1.852   5.953   4.414
 2125SOL    HW2 7275   1.702   6.009   4.445
 2126SOL     OW 7276   2.551   4.048   6.814
 2126SOL    HW1 7277   2.635   3.995   6.807
 2126SOL    HW2 7278   2.492   4.010   6.885
 2127SOL     OW 7279   0.944   2.506   4.495
 2127SOL    HW1 7280   1.021   2.547   4.447
 2127SOL    HW2 7281   0.862   2.511   4.438
 2128SOL     OW 7282   5.122   3.275   1.788
 2128SOL    HW1 7283   5.146   3.186   1.750
 2128SOL    HW2 7284   5.048   3.264   1.855
 2129SOL     OW 7285   5.476   4.220   4.529
 2129SOL    HW1 7286   5.400   4.281   4.509
 2129SOL    HW2 7287   5.444   4.144   4.585
 2130SOL     OW 7288   3.244   0.975   1.222
 2130SOL    HW1 7289   3.164   1.035   1.228
 2130SOL    HW2 7290   3.214   0.880   1.218
 2131SOL     OW 7291   5.271   0.574   5.276
 2131SOL    HW1 7292   5.231   0.598   5.187
 2131SOL    HW2 7293   5.203   0.590   5.348
 2132SOL     OW 7294   2.415   2.224   0.088
 2132SOL    HW1 7295   2.460   2.312   0.100
 2132SOL    HW2 7296   2.367   2.222   0.000
 2133SOL     OW 7297   3.174   2.388   1.735
 2133SOL    HW1 7298   3.166   2.305   1.791
 2133SOL    HW2 7299   3.084   2.430   1.726
 2134SOL     OW 7300   2.192   6.315   5.368
 2134SOL    HW1 7301   2.224   6.410   5.364
 2134SOL    HW2 7302   2.243   6.265   5.437
 2135SOL     OW 7303   0.781   6.361   4.319
 2135SOL    HW1 7304   0.851   6.320   4.377
 2135SOL    HW2 7305   0.707   6.397   4.375
 2136SOL     OW 7306   1.240   4.546   3.720
 2136SOL    HW1 7307   1.219   4.582   3.629
 2136SOL    HW2 7308   1.161   4.557   3.780
 2137SOL     OW 7309   1.505   1.183   4.819
 2137SOL    HW1 7310   1.425   1.234   4.851
 2137SOL    HW2 7311   1.574   1.248   4.785
 2138SOL     OW 7312   1.168   2.586   6.128
 2138SOL    HW1 7313   1.228   2.659   6.096
 2138SOL    HW2 7314   1.196   2.558   6.220
 2139SOL     OW 7315   2.227   0.693   4.494
 2139SOL    HW1 7316   2.186   0.783   4.511
 2139SOL    HW2 7317   2.220   0.637   4.576
 2140SOL     OW 7318   1.618   5.952   3.755
 2140SOL    HW1 7319   1.633   6.048   3.782
 2140SOL    HW2 7320   1.540   5.947   3.693
 2141SOL     OW 7321   6.895   1.398   0.285
 2141SOL    HW1 7322   6.940   1.318   0.245
 2141SOL    HW2 7323   6.833   1.438   0.218
 2142SOL     OW 7324   2.873   1.526   3.554
 2142SOL    HW1 7325   2.904   1.438   3.588
 2142SOL    HW2 7326   2.929   1.553   3.475
 2143SOL     OW 7327   3.912   6.222   6.312
 2143SOL    HW1 7328   3.917   6.205   6.411
 2143SOL    HW2 7329   3.834   6.281   6.293
 2144SOL     OW 7330   0.108   0.832   2.317
 2144SOL    HW1 7331   0.154   0.920   2.332
 2144SOL    HW2 7332   0.163   0.776   2.255
 2145SOL     OW 7333   3.992   5.492   3.101
 2145SOL    HW1 7334   4.073   5.443   3.069
 2145SOL    HW2 7335   4.015   5.588   3.117
 2146SOL     OW 7336   3.623   2.553   1.001
 2146SOL    HW1 7337   3.532   2.511   1.001
 2146SOL    HW2 7338   3.662   2.547   0.909
 2147SOL     OW 7339   7.002   0.850   5.067
 2147SOL    HW1 7340   6.920   0.833   5.121
 2147SOL    HW2 7341   0.045   0.903   5.121
 2148SOL     OW 7342   5.128   2.860   2.740
 2148SOL    HW1 7343   5.203   2.855   2.806
 2148SOL    HW2 7344   5.057   2.922   2.775
 2149SOL     OW 7345   3.713   0.641   2.947
 2149SOL    HW1 7346   3.660   0.594   2.876
 2149SOL    HW2 7347   3.793   0.685   2.905
 2150SOL     OW 7348   3.857   1.300   1.927
 2150SOL    HW1 7349   3.838   1.335   2.018
 2150SOL    HW2 7350   3.904   1.370   1.873
 2151SOL     OW 7351   3.645   2.957   5.798
 2151SOL    HW1 7352   3.580   2.961   5.722
 2151SOL    HW2 7353   3.626   3.031   5.862
 2152SOL     OW 7354   5.982   5.948   1.764
 2152SOL    HW1 7355   5.913   6.015   1.736
 2152SOL    HW2 7356   5.938   5.868   1.805
 2153SOL     OW 7357   4.848   2.380   2.566
 2153SOL    HW1 7358   4.776   2.444   2.593
 2153SOL    HW2 7359   4.899   2.418   2.489
 2154SOL     OW 7360   4.306   5.950   5.083
 2154SOL    HW1 7361   4.333   5.902   5.166
 2154SOL    HW2 7362   4.385   5.999   5.044
 2155SOL     OW 7363   5.854   3.932   6.552
 2155SOL    HW1 7364   5.894   3.920   6.643
 2155SOL    HW2 7365   5.897   4.011   6.507
 2156SOL     OW 7366   0.595   0.859   1.692
 2156SOL    HW1 7367   0.542   0.937   1.723
 2156SOL    HW2 7368   0.534   0.782   1.672
 2157SOL     OW 7369   6.924   1.074   4.551
 2157SOL    HW1 7370   6.855   1.044   4.486
 2157SOL    HW2 7371   6.992   1.003   4.563
 2158SOL     OW 7372   4.528   6.456   2.507
 2158SOL    HW1 7373   4.560   6.539   2.553
 2158SOL    HW2 7374   4.543   6.466   2.408
 2159SOL     OW 7375   1.877   6.558   5.079
 2159SOL    HW1 7376   1.788   6.571   5.123
 2159SOL    HW2 7377   1.939   6.631   5.107
 2160SOL     OW 7378   2.897   3.060   0.870
 2160SOL    HW1 7379   2.836   3.126   0.914
 2160SOL    HW2 7380   2.875   2.968   0.902
 2161SOL     OW 7381   4.552   2.118   3.837
 2161SOL    HW1 7382   4.548   2.195   3.774
 2161SOL    HW2 7383   4.601   2.042   3.794
 2162SOL     OW 7384   1.525   1.358   6.924
 2162SOL    HW1 7385   1.594   1.287   6.938
 2162SOL    HW2 7386   1.549   1.413   6.844
 2163SOL     OW 7387   3.004   2.098   0.720
 2163SOL    HW1 7388   2.969   2.183   0.681
 2163SOL    HW2 7389   3.071   2.057   0.658
 2164SOL     OW 7390   0.837   0.393   1.684
 2164SOL    HW1 7391   0.786   0.456   1.624
 2164SOL    HW2 7392   0.875   0.319   1.629
 2165SOL     OW 7393   3.102   6.872   1.692
 2165SOL    HW1 7394   3.081   6.775   1.704
 2165SOL    HW2 7395   3.077   6.922   1.775
 2166SOL     OW 7396   6.190   2.526   6.379
 2166SOL    HW1 7397   6.172   2.508   6.282
 2166SOL    HW2 7398   6.203   2.624   6.393
 2167SOL     OW 7399   2.763   0.382   1.841
 2167SOL    HW1 7400   2.796   0.334   1.760
 2167SOL    HW2 7401   2.663   0.384   1.841
 2168SOL     OW 7402   5.711   5.746   4.707
 2168SOL    HW1 7403   5.778   5.801   4.756
 2168SOL    HW2 7404   5.624   5.795   4.702
 2169SOL     OW 7405   6.068   2.056   5.085
 2169SOL    HW1 7406   6.131   2.034   5.159
 2169SOL    HW2 7407   5.974   2.044   5.117
 2170SOL     OW 7408   5.710   5.142   4.252
 2170SOL    HW1 7409   5.648   5.215   4.223
 2170SOL    HW2 7410   5.761   5.108   4.172
 2171SOL     OW 7411   6.515   2.893   0.647
 2171SOL    HW1 7412   6.604   2.916   0.609
 2171SOL    HW2 7413   6.445   2.897   0.576
 2172SOL     OW 7414   2.382   0.517   0.840
 2172SOL    HW1 7415   2.465   0.571   0.840
 2172SOL    HW2 7416   2.399   0.429   0.884
 2173SOL     OW 7417   5.047   1.590   4.916
 2173SOL    HW1 7418   5.089   1.534   4.844
 2173SOL    HW2 7419   5.001   1.530   4.982
 2174SOL     OW 7420   1.465   5.159   4.595
 2174SOL    HW1 7421   1.519   5.243   4.584
 2174SOL    HW2 7422   1.378   5.182   4.637
 2175SOL     OW 7423   1.924   6.313   5.286
 2175SOL    HW1 7424   2.024   6.318   5.290
 2175SOL    HW2 7425   1.890   6.383   5.223
 2176SOL     OW 7426   2.061   2.563   2.282
 2176SOL    HW1 7427   2.044   2.616   2.200
 2176SOL    HW2 7428   2.018   2.473   2.274
 2177SOL     OW 7429   6.847   1.062   2.351
 2177SOL    HW1 7430   6.843   1.017   2.262
 2177SOL    HW2 7431   6.863   1.160   2.338
 2178SOL     OW 7432   0.983   5.396   0.786
 2178SOL    HW1 7433   0.971   5.480   0.734
 2178SOL    HW2 7434   0.895   5.348   0.793
 2179SOL     OW 7435   1.274   4.476   4.023
 2179SOL    HW1 7436   1.287   4.530   3.939
 2179SOL    HW2 7437   1.315   4.386   4.011
 2180SOL     OW 7438   4.025   3.301   1.831
 2180SOL    HW1 7439   4.015   3.357   1.749
 2180SOL    HW2 7440   3.943   3.245   1.843
 2181SOL     OW 7441   4.221   6.579   0.925
 2181SOL    HW1 7442   4.235   6.622   0.836
 2181SOL    HW2 7443   4.134   6.609   0.963
 2182SOL     OW 7444   5.349   1.786   0.582
 2182SOL    HW1 7445   5.441   1.821   0.564
 2182SOL    HW2 7446   5.294   1.858   0.623
 2183SOL     OW 7447   2.571   2.570   0.743
 2183SOL    HW1 7448   2.508   2.524   0.680
 2183SOL    HW2 7449   2.634   2.627   0.690
 2184SOL     OW 7450   4.194   2.964   5.887
 2184SOL    HW1 7451   4.251   2.887   5.857
 2184SOL    HW2 7452   4.160   3.013   5.806
 2185SOL     OW 7453   0.931   0.702   1.368
 2185SOL    HW1 7454   0.952   0.789   1.412
 2185SOL    HW2 7455   0.937   0.713   1.269
 2186SOL     OW 7456   0.031   4.948   2.471
 2186SOL    HW1 7457   0.091   4.980   2.544
 2186SOL    HW2 7458   0.080   4.880   2.415
 2187SOL     OW 7459   6.910   1.576   6.322
 2187SOL    HW1 7460   6.996   1.617   6.291
 2187SOL    HW2 7461   6.903   1.483   6.286
 2188SOL     OW 7462   5.265   1.037   3.369
 2188SOL    HW1 7463   5.253   1.112   3.434
 2188SOL    HW2 7464   5.357   1.041   3.330
 2189SOL     OW 7465   3.023   6.955   6.885
 2189SOL    HW1 7466   2.967   6.971   6.967
 2189SOL    HW2 7467   3.033   0.019   6.835
 2190SOL     OW 7468   5.132   1.943   1.196
 2190SOL    HW1 7469   5.034   1.949   1.215
 2190SOL    HW2 7470   5.169   1.861   1.239
 2191SOL     OW 7471   3.168   1.799   7.019
 2191SOL    HW1 7472   3.128   1.707   7.018
 2191SOL    HW2 7473   3.266   1.793   0.016
 2192SOL     OW 7474   3.957   5.323   3.426
 2192SOL    HW1 7475   3.979   5.273   3.510
 2192SOL    HW2 7476   3.968   5.421   3.442
 2193SOL     OW 7477   6.900   5.320   5.705
 2193SOL    HW1 7478   6.846   5.272   5.635
 2193SOL    HW2 7479   6.850   5.320   5.791
 2194SOL     OW 7480   3.324   6.989   1.284
 2194SOL    HW1 7481   3.259   6.995   1.208
 2194SOL    HW2 7482   3.275   7.001   1.371
 2195SOL     OW 7483   1.125   4.766   2.528
 2195SOL    HW1 7484   1.081   4.680   2.504
 2195SOL    HW2 7485   1.223   4.759   2.508
 2196SOL     OW 7486   4.649   2.890   6.758
 2196SOL    HW1 7487   4.697   2.850   6.680
 2196SOL    HW2 7488   4.672   2.987   6.765
 2197SOL     OW 7489   4.409   4.243   0.103
 2197SOL    HW1 7490   4.326   4.287   0.137
 2197SOL    HW2 7491   4.401   4.230   0.004
 2198SOL     OW 7492   6.361   4.420   0.689
 2198SOL    HW1 7493   6.382   4.392   0.595
 2198SOL    HW2 7494   6.402   4.510   0.706
 2199SOL     OW 7495   4.453   0.202   2.056
 2199SOL    HW1 7496   4.493   0.218   1.966
 2199SOL    HW2 7497   4.375   0.263   2.069
 2200SOL     OW 7498   2.158   6.996   4.388
 2200SOL    HW1 7499   2.203   6.913   4.418
 2200SOL    HW2 7500   2.067   6.974   4.351
 2201SOL     OW 7501   4.817   3.928   3.185
 2201SOL    HW1 7502   4.741   3.902   3.244
 2201SOL    HW2 7503   4.807   4.024   3.159
 2202SOL     OW 7504   5.044   6.071   3.705
 2202SOL    HW1 7505   5.043   5.972   3.715
 2202SOL    HW2 7506   4.963   6.110   3.748
 2203SOL     OW 7507   3.642   2.054   2.850
 2203SOL    HW1 7508   3.646   1.998   2.767
 2203SOL    HW2 7509   3.560   2.112   2.846
 2204SOL     OW 7510   2.823   2.944   1.218
 2204SOL    HW1 7511   2.901   2.887   1.193
 2204SOL    HW2 7512   2.803   2.933   1.315
 2205SOL     OW 7513   1.990   0.765   1.241
 2205SOL    HW1 7514   2.012   0.671   1.212
 2205SOL    HW2 7515   1.906   0.764   1.294
 2206SOL     OW 7516   2.285   3.061   0.053
 2206SOL    HW1 7517   2.358   3.108   0.004
 2206SOL    HW2 7518   2.225   3.128   0.097
 2207SOL     OW 7519   0.541   4.604   4.447
 2207SOL    HW1 7520   0.523   4.701   4.458
 2207SOL    HW2 7521   0.459   4.552   4.472
 2208SOL     OW 7522   6.669   4.482   1.947
 2208SOL    HW1 7523   6.644   4.453   1.854
 2208SOL    HW2 7524   6.763   4.515   1.948
 2209SOL     OW 7525   1.518   6.663   1.263
 2209SOL    HW1 7526   1.532   6.701   1.171
 2209SOL    HW2 7527   1.492   6.567   1.255
 2210SOL     OW 7528   1.591   5.205   3.707
 2210SOL    HW1 7529   1.516   5.146   3.676
 2210SOL    HW2 7530   1.590   5.209   3.807
 2211SOL     OW 7531   0.087   1.350   5.340
 2211SOL    HW1 7532   0.011   1.286   5.330
 2211SOL    HW2 7533   0.077   1.401   5.425
 2212SOL     OW 7534   2.135   6.889   6.341
 2212SOL    HW1 7535   2.218   6.847   6.303
 2212SOL    HW2 7536   2.128   6.867   6.439
 2213SOL     OW 7537   3.358   1.072   3.256
 2213SOL    HW1 7538   3.400   1.112   3.338
 2213SOL    HW2 7539   3.350   1.143   3.186
 2214SOL     OW 7540   4.189   0.171   5.593
 2214SOL    HW1 7541   4.131   0.095   5.622
 2214SOL    HW2 7542   4.233   0.213   5.672
 2215SOL     OW 7543   5.730   2.684   5.225
 2215SOL    HW1 7544   5.692   2.635   5.303
 2215SOL    HW2 7545   5.701   2.639   5.140
 2216SOL     OW 7546   2.226   0.722   2.349
 2216SOL    HW1 7547   2.230   0.650   2.419
 2216SOL    HW2 7548   2.134   0.762   2.349
 2217SOL     OW 7549   4.267   0.944   1.828
 2217SOL    HW1 7550   4.223   0.900   1.907
 2217SOL    HW2 7551   4.312   1.028   1.858
 2218SOL     OW 7552   1.303   6.318   2.870
 2218SOL    HW1 7553   1.349   6.402   2.841
 2218SOL    HW2 7554   1.254   6.336   2.956
 2219SOL     OW 7555   1.217   2.184   3.069
 2219SOL    HW1 7556   1.249   2.181   2.974
 2219SOL    HW2 7557   1.264   2.258   3.118
 2220SOL     OW 7558   0.858   0.421   0.888
 2220SOL    HW1 7559   0.952   0.449   0.908
 2220SOL    HW2 7560   0.849   0.322   0.903
 2221SOL     OW 7561   0.783   1.388   6.924
 2221SOL    HW1 7562   0.878   1.417   6.915
 2221SOL    HW2 7563   0.769   1.346   7.014
 2222SOL     OW 7564   6.114   5.928   3.091
 2222SOL    HW1 7565   6.139   5.844   3.138
 2222SOL    HW2 7566   6.179   6.001   3.117
 2223SOL     OW 7567   6.223   5.773   1.377
 2223SOL    HW1 7568   6.211   5.742   1.283
 2223SOL    HW2 7569   6.164   5.852   1.394
 2224SOL     OW 7570   1.077   5.001   2.356
 2224SOL    HW1 7571   1.119   4.917   2.391
 2224SOL    HW2 7572   1.080   5.072   2.426
 2225SOL     OW 7573   0.412   4.546   1.266
 2225SOL    HW1 7574   0.413   4.643   1.288
 2225SOL    HW2 7575   0.324   4.521   1.226
 2226SOL     OW 7576   4.114   3.806   1.255
 2226SOL    HW1 7577   4.051   3.729   1.258
 2226SOL    HW2 7578   4.092   3.869   1.330
 2227SOL     OW 7579   0.377   2.908   4.623
 2227SOL    HW1 7580   0.372   2.902   4.523
 2227SOL    HW2 7581   0.294   2.870   4.663
 2228SOL     OW 7582   2.945   4.991   4.463
 2228SOL    HW1 7583   2.852   5.010   4.495
 2228SOL    HW2 7584   2.961   4.892   4.466
 2229SOL     OW 7585   5.588   0.308   3.258
 2229SOL    HW1 7586   5.652   0.241   3.296
 2229SOL    HW2 7587   5.546   0.272   3.175
 2230SOL     OW 7588   2.768   5.200   0.929
 2230SOL    HW1 7589   2.798   5.105   0.917
 2230SOL    HW2 7590   2.838   5.251   0.980
 2231SOL     OW 7591   2.494   5.569   1.019
 2231SOL    HW1 7592   2.443   5.622   0.952
 2231SOL    HW2 7593   2.505   5.475   0.987
 2232SOL     OW 7594   5.937   3.021   3.783
 2232SOL    HW1 7595   5.895   3.025   3.874
 2232SOL    HW2 7596   5.914   3.104   3.733
 2233SOL     OW 7597   2.989   2.090   6.259
 2233SOL    HW1 7598   3.015   1.994   6.249
 2233SOL    HW2 7599   2.968   2.109   6.355
 2234SOL     OW 7600   3.957   2.444   1.437
 2234SOL    HW1 7601   3.939   2.383   1.514
 2234SOL    HW2 7602   4.038   2.499   1.456
 2235SOL     OW 7603   2.441   1.443   1.057
 2235SOL    HW1 7604   2.383   1.488   0.989
 2235SOL    HW2 7605   2.501   1.377   1.011
 2236SOL     OW 7606   0.148   3.980   5.839
 2236SOL    HW1 7607   0.233   3.928   5.825
 2236SOL    HW2 7608   0.089   3.930   5.902
 2237SOL     OW 7609   6.145   2.994   4.091
 2237SOL    HW1 7610   6.080   2.972   4.019
 2237SOL    HW2 7611   6.201   3.072   4.063
 2238SOL     OW 7612   6.644   6.415   1.671
 2238SOL    HW1 7613   6.658   6.325   1.631
 2238SOL    HW2 7614   6.667   6.486   1.604
 2239SOL     OW 7615   5.162   5.562   2.750
 2239SOL    HW1 7616   5.094   5.597   2.686
 2239SOL    HW2 7617   5.168   5.463   2.741
 2240SOL     OW 7618   5.811   3.581   2.017
 2240SOL    HW1 7619   5.902   3.559   2.053
 2240SOL    HW2 7620   5.790   3.519   1.941
 2241SOL     OW 7621   0.922   0.006   2.387
 2241SOL    HW1 7622   1.001   0.046   2.341
 2241SOL    HW2 7623   0.878   6.962   2.327
 2242SOL     OW 7624   4.119   1.931   2.842
 2242SOL    HW1 7625   4.057   1.907   2.916
 2242SOL    HW2 7626   4.090   2.017   2.801
 2243SOL     OW 7627   2.947   6.117   5.666
 2243SOL    HW1 7628   3.022   6.165   5.621
 2243SOL    HW2 7629   2.861   6.165   5.648
 2244SOL     OW 7630   2.965   0.711   5.057
 2244SOL    HW1 7631   3.011   0.651   4.992
 2244SOL    HW2 7632   2.940   0.797   5.012
 2245SOL     OW 7633   0.136   2.214   2.173
 2245SOL    HW1 7634   0.131   2.311   2.195
 2245SOL    HW2 7635   0.226   2.179   2.196
 2246SOL     OW 7636   1.847   4.701   5.038
 2246SOL    HW1 7637   1.853   4.613   4.991
 2246SOL    HW2 7638   1.787   4.691   5.118
 2247SOL     OW 7639   2.149   1.448   4.985
 2247SOL    HW1 7640   2.087   1.516   4.945
 2247SOL    HW2 7641   2.230   1.495   5.022
 2248SOL     OW 7642   4.422   4.285   5.302
 2248SOL    HW1 7643   4.498   4.275   5.237
 2248SOL    HW2 7644   4.337   4.297   5.251
 2249SOL     OW 7645   3.880   5.593   4.666
 2249SOL    HW1 7646   3.845   5.519   4.723
 2249SOL    HW2 7647   3.938   5.653   4.720
 2250SOL     OW 7648   5.425   5.210   0.805
 2250SOL    HW1 7649   5.454   5.281   0.741
 2250SOL    HW2 7650   5.476   5.126   0.786
 2251SOL     OW 7651   0.090   0.563   5.904
 2251SOL    HW1 7652   7.014   0.541   5.895
 2251SOL    HW2 7653   0.104   0.618   5.986
 2252SOL     OW 7654   3.675   1.085   6.053
 2252SOL    HW1 7655   3.685   1.140   5.970
 2252SOL    HW2 7656   3.578   1.081   6.078
 2253SOL     OW 7657   1.473   2.608   6.185
 2253SOL    HW1 7658   1.430   2.674   6.246
 2253SOL    HW2 7659   1.485   2.648   6.095
 2254SOL     OW 7660   1.679   3.521   5.838
 2254SOL    HW1 7661   1.768   3.479   5.818
 2254SOL    HW2 7662   1.606   3.461   5.806
 2255SOL     OW 7663   5.265   3.374   0.610
 2255SOL    HW1 7664   5.288   3.466   0.643
 2255SOL    HW2 7665   5.201   3.381   0.534
 2256SOL     OW 7666   3.540   4.996   1.874
 2256SOL    HW1 7667   3.584   5.051   1.945
 2256SOL    HW2 7668   3.554   4.899   1.893
 2257SOL     OW 7669   2.024   3.826   4.338
 2257SOL    HW1 7670   2.074   3.875   4.409
 2257SOL    HW2 7671   2.047   3.729   4.341
 2258SOL     OW 7672   2.045   4.702   5.581
 2258SOL    HW1 7673   1.993   4.618   5.594
 2258SOL    HW2 7674   1.982   4.779   5.571
 2259SOL     OW 7675   6.724   3.096   6.486
 2259SOL    HW1 7676   6.723   3.099   6.586
 2259SOL    HW2 7677   6.631   3.110   6.451
 2260SOL     OW 7678   4.576   3.885   0.967
 2260SOL    HW1 7679   4.547   3.801   0.921
 2260SOL    HW2 7680   4.517   3.903   1.045
 2261SOL     OW 7681   3.619   6.459   4.768
 2261SOL    HW1 7682   3.698   6.418   4.814
 2261SOL    HW2 7683   3.579   6.392   4.706
 2262SOL     OW 7684   3.529   1.664   3.076
 2262SOL    HW1 7685   3.627   1.646   3.067
 2262SOL    HW2 7686   3.493   1.616   3.155
 2263SOL     OW 7687   0.015   4.275   5.507
 2263SOL    HW1 7688   0.070   4.193   5.520
 2263SOL    HW2 7689   6.979   4.263   5.426
 2264SOL     OW 7690   3.162   4.055   3.545
 2264SOL    HW1 7691   3.165   4.151   3.515
 2264SOL    HW2 7692   3.135   4.050   3.641
 2265SOL     OW 7693   0.721   0.057   3.038
 2265SOL    HW1 7694   0.653   0.008   3.093
 2265SOL    HW2 7695   0.724   0.153   3.066
 2266SOL     OW 7696   6.352   0.415   6.723
 2266SOL    HW1 7697   6.298   0.332   6.740
 2266SOL    HW2 7698   6.303   0.494   6.759
 2267SOL     OW 7699   5.507   1.871   5.640
 2267SOL    HW1 7700   5.433   1.897   5.578
 2267SOL    HW2 7701   5.587   1.844   5.588
 2268SOL     OW 7702   6.558   5.081   0.350
 2268SOL    HW1 7703   6.657   5.086   0.358
 2268SOL    HW2 7704   6.533   5.031   0.267
 2269SOL     OW 7705   0.432   5.751   3.414
 2269SOL    HW1 7706   0.525   5.757   3.376
 2269SOL    HW2 7707   0.387   5.840   3.407
 2270SOL     OW 7708   4.079   3.326   2.741
 2270SOL    HW1 7709   4.072   3.355   2.646
 2270SOL    HW2 7710   4.103   3.404   2.798
 2271SOL     OW 7711   0.563   4.032   2.721
 2271SOL    HW1 7712   0.537   4.062   2.629
 2271SOL    HW2 7713   0.631   3.959   2.714
 2272SOL     OW 7714   5.085   2.402   6.056
 2272SOL    HW1 7715   5.002   2.438   6.014
 2272SOL    HW2 7716   5.158   2.471   6.050
 2273SOL     OW 7717   0.871   0.529   3.631
 2273SOL    HW1 7718   0.840   0.610   3.581
 2273SOL    HW2 7719   0.894   0.457   3.566
 2274SOL     OW 7720   1.227   3.965   2.980
 2274SOL    HW1 7721   1.219   4.063   2.999
 2274SOL    HW2 7722   1.316   3.932   3.012
 2275SOL     OW 7723   4.609   6.598   3.205
 2275SOL    HW1 7724   4.685   6.644   3.160
 2275SOL    HW2 7725   4.600   6.632   3.298
 2276SOL     OW 7726   3.403   5.345   1.635
 2276SOL    HW1 7727   3.480   5.354   1.698
 2276SOL    HW2 7728   3.413   5.411   1.561
 2277SOL     OW 7729   3.562   3.562   1.199
 2277SOL    HW1 7730   3.544   3.464   1.208
 2277SOL    HW2 7731   3.619   3.592   1.276
 2278SOL     OW 7732   4.942   6.352   1.062
 2278SOL    HW1 7733   4.996   6.401   1.131
 2278SOL    HW2 7734   4.851   6.392   1.056
 2279SOL     OW 7735   5.241   4.051   5.347
 2279SOL    HW1 7736   5.254   3.957   5.317
 2279SOL    HW2 7737   5.243   4.055   5.447
 2280SOL     OW 7738   5.885   6.760   5.677
 2280SOL    HW1 7739   5.842   6.822   5.612
 2280SOL    HW2 7740   5.862   6.788   5.770
 2281SOL     OW 7741   3.452   2.593   0.357
 2281SOL    HW1 7742   3.519   2.552   0.295
 2281SOL    HW2 7743   3.481   2.580   0.451
 2282SOL     OW 7744   4.457   5.758   1.957
 2282SOL    HW1 7745   4.448   5.680   2.020
 2282SOL    HW2 7746   4.471   5.724   1.864
 2283SOL     OW 7747   0.294   3.925   1.933
 2283SOL    HW1 7748   0.369   3.913   1.997
 2283SOL    HW2 7749   0.242   3.840   1.927
 2284SOL     OW 7750   2.797   2.253   2.275
 2284SOL    HW1 7751   2.792   2.157   2.301
 2284SOL    HW2 7752   2.852   2.263   2.193
 2285SOL     OW 7753   1.783   3.657   6.580
 2285SOL    HW1 7754   1.708   3.712   6.542
 2285SOL    HW2 7755   1.851   3.640   6.508
 2286SOL     OW 7756   5.466   0.113   4.497
 2286SOL    HW1 7757   5.485   0.063   4.413
 2286SOL    HW2 7758   5.445   0.048   4.570
 2287SOL     OW 7759   2.378   2.269   1.202
 2287SOL    HW1 7760   2.281   2.289   1.187
 2287SOL    HW2 7761   2.387   2.187   1.258
 2288SOL     OW 7762   1.823   5.659   4.535
 2288SOL    HW1 7763   1.766   5.649   4.617
 2288SOL    HW2 7764   1.893   5.729   4.552
 2289SOL     OW 7765   4.292   1.579   0.231
 2289SOL    HW1 7766   4.315   1.671   0.199
 2289SOL    HW2 7767   4.270   1.521   0.154
 2290SOL     OW 7768   3.225   3.342   3.069
 2290SOL    HW1 7769   3.247   3.365   2.975
 2290SOL    HW2 7770   3.125   3.333   3.079
 2291SOL     OW 7771   1.220   3.107   6.600
 2291SOL    HW1 7772   1.182   3.176   6.539
 2291SOL    HW2 7773   1.306   3.072   6.562
 2292SOL     OW 7774   4.759   1.764   2.496
 2292SOL    HW1 7775   4.691   1.786   2.426
 2292SOL    HW2 7776   4.794   1.848   2.537
 2293SOL     OW 7777   0.647   0.847   0.216
 2293SOL    HW1 7778   0.584   0.847   0.139
 2293SOL    HW2 7779   0.726   0.790   0.195
 2294SOL     OW 7780   6.840   0.886   5.806
 2294SOL    HW1 7781   6.748   0.924   5.800
 2294SOL    HW2 7782   6.871   0.856   5.715
 2295SOL     OW 7783   6.209   5.922   0.927
 2295SOL    HW1 7784   6.167   5.860   0.861
 2295SOL    HW2 7785   6.304   5.895   0.943
 2296SOL     OW 7786   3.700   4.868   4.204
 2296SOL    HW1 7787   3.716   4.878   4.105
 2296SOL    HW2 7788   3.606   4.893   4.225
 2297SOL     OW 7789   5.346   3.780   5.649
 2297SOL    HW1 7790   5.319   3.777   5.746
 2297SOL    HW2 7791   5.370   3.687   5.619
 2298SOL     OW 7792   3.431   4.126   4.159
 2298SOL    HW1 7793   3.368   4.059   4.198
 2298SOL    HW2 7794   3.523   4.110   4.194
 2299SOL     OW 7795   5.440   2.924   4.188
 2299SOL    HW1 7796   5.426   2.973   4.102
 2299SOL    HW2 7797   5.459   2.989   4.262
 2300SOL     OW 7798   5.124   6.964   2.057
 2300SOL    HW1 7799   5.208   6.911   2.061
 2300SOL    HW2 7800   5.141   0.036   2.087
 2301SOL     OW 7801   3.969   2.977   5.172
 2301SOL    HW1 7802   3.974   2.895   5.228
 2301SOL    HW2 7803   4.041   3.041   5.199
 2302SOL     OW 7804   6.407   2.902   6.026
 2302SOL    HW1 7805   6.384   2.894   5.929
 2302SOL    HW2 7806   6.457   2.987   6.041
 2303SOL     OW 7807   3.075   2.608   0.175
 2303SOL    HW1 7808   3.154   2.669   0.180
 2303SOL    HW2 7809   3.047   2.598   0.079
 2304SOL     OW 7810   6.728   5.935   2.387
 2304SOL    HW1 7811   6.796   5.876   2.343
 2304SOL    HW2 7812   6.774   6.016   2.425
 2305SOL     OW 7813   2.777   0.391   4.766
 2305SOL    HW1 7814   2.788   0.310   4.709
 2305SOL    HW2 7815   2.868   0.427   4.790
 2306SOL     OW 7816   1.604   4.899   4.653
 2306SOL    HW1 7817   1.587   4.997   4.648
 2306SOL    HW2 7818   1.557   4.861   4.733
 2307SOL     OW 7819   6.331   3.096   5.447
 2307SOL    HW1 7820   6.232   3.086   5.438
 2307SOL    HW2 7821   6.353   3.126   5.540
 2308SOL     OW 7822   1.714   4.758   1.983
 2308SOL    HW1 7823   1.765   4.696   1.923
 2308SOL    HW2 7824   1.617   4.733   1.982
 2309SOL     OW 7825   2.034   0.356   4.826
 2309SOL    HW1 7826   1.971   0.299   4.773
 2309SOL    HW2 7827   2.031   0.328   4.922
 2310SOL     OW 7828   4.521   0.047   1.008
 2310SOL    HW1 7829   4.495   0.144   1.004
 2310SOL    HW2 7830   4.614   0.040   1.043
 2311SOL     OW 7831   2.405   5.039   1.103
 2311SOL    HW1 7832   2.484   4.995   1.147
 2311SOL    HW2 7833   2.352   5.089   1.171
 2312SOL     OW 7834   3.386   5.000   1.644
 2312SOL    HW1 7835   3.365   4.909   1.610
 2312SOL    HW2 7836   3.450   4.993   1.720
 2313SOL     OW 7837   5.090   5.526   1.046
 2313SOL    HW1 7838   5.055   5.435   1.066
 2313SOL    HW2 7839   5.189   5.528   1.058
 2314SOL     OW 7840   2.329   5.002   4.596
 2314SOL    HW1 7841   2.244   4.949   4.589
 2314SOL    HW2 7842   2.307   5.099   4.607
 2315SOL     OW 7843   4.498   2.564   6.369
 2315SOL    HW1 7844   4.423   2.595   6.311
 2315SOL    HW2 7845   4.473   2.574   6.465
 2316SOL     OW 7846   5.466   3.753   1.983
 2316SOL    HW1 7847   5.524   3.718   2.056
 2316SOL    HW2 7848   5.370   3.738   2.006
 2317SOL     OW 7849   0.493   6.129   3.133
 2317SOL    HW1 7850   0.418   6.064   3.124
 2317SOL    HW2 7851   0.476   6.207   3.072
 2318SOL     OW 7852   6.480   0.478   3.872
 2318SOL    HW1 7853   6.419   0.527   3.809
 2318SOL    HW2 7854   6.430   0.457   3.956
 2319SOL     OW 7855   1.051   5.496   2.522
 2319SOL    HW1 7856   0.972   5.517   2.464
 2319SOL    HW2 7857   1.020   5.441   2.600
 2320SOL     OW 7858   6.581   5.357   5.219
 2320SOL    HW1 7859   6.516   5.325   5.150
 2320SOL    HW2 7860   6.532   5.414   5.286
 2321SOL     OW 7861   3.864   4.909   4.825
 2321SOL    HW1 7862   3.915   4.841   4.878
 2321SOL    HW2 7863   3.767   4.883   4.822
 2322SOL     OW 7864   3.110   0.334   5.272
 2322SOL    HW1 7865   3.027   0.386   5.293
 2322SOL    HW2 7866   3.099   0.286   5.185
 2323SOL     OW 7867   5.143   3.740   2.011
 2323SOL    HW1 7868   5.146   3.761   1.913
 2323SOL    HW2 7869   5.080   3.665   2.027
 2324SOL     OW 7870   0.069   5.052   3.249
 2324SOL    HW1 7871   0.095   4.990   3.175
 2324SOL    HW2 7872   7.013   5.014   3.299
 2325SOL     OW 7873   0.583   2.413   0.635
 2325SOL    HW1 7874   0.620   2.365   0.556
 2325SOL    HW2 7875   0.644   2.489   0.659
 2326SOL     OW 7876   1.265   4.421   0.620
 2326SOL    HW1 7877   1.187   4.405   0.679
 2326SOL    HW2 7878   1.345   4.444   0.675
 2327SOL     OW 7879   5.432   1.823   3.906
 2327SOL    HW1 7880   5.504   1.831   3.975
 2327SOL    HW2 7881   5.441   1.897   3.839
 2328SOL     OW 7882   6.001   6.694   3.680
 2328SOL    HW1 7883   5.961   6.623   3.738
 2328SOL    HW2 7884   6.101   6.692   3.688
 2329SOL     OW 7885   6.620   5.603   3.493
 2329SOL    HW1 7886   6.689   5.628   3.425
 2329SOL    HW2 7887   6.635   5.509   3.523
 2330SOL     OW 7888   0.588   3.461   1.506
 2330SOL    HW1 7889   0.586   3.540   1.444
 2330SOL    HW2 7890   0.578   3.493   1.600
 2331SOL     OW 7891   1.030   5.084   5.831
 2331SOL    HW1 7892   0.955   5.019   5.816
 2331SOL    HW2 7893   1.115   5.044   5.798
 2332SOL     OW 7894   5.295   2.590   4.724
 2332SOL    HW1 7895   5.306   2.493   4.704
 2332SOL    HW2 7896   5.205   2.621   4.693
 2333SOL     OW 7897   2.540   4.585   3.765
 2333SOL    HW1 7898   2.603   4.644   3.715
 2333SOL    HW2 7899   2.469   4.552   3.703
 2334SOL     OW 7900   3.043   0.186   0.585
 2334SOL    HW1 7901   3.021   0.281   0.564
 2334SOL    HW2 7902   3.084   0.143   0.504
 2335SOL     OW 7903   4.633   5.351   4.232
 2335SOL    HW1 7904   4.647   5.450   4.230
 2335SOL    HW2 7905   4.569   5.327   4.305
 2336SOL     OW 7906   4.259   2.337   5.688
 2336SOL    HW1 7907   4.204   2.392   5.626
 2336SOL    HW2 7908   4.208   2.255   5.716
 2337SOL     OW 7909   6.176   0.194   4.058
 2337SOL    HW1 7910   6.155   0.151   4.145
 2337SOL    HW2 7911   6.111   0.268   4.040
 2338SOL     OW 7912   1.150   0.340   6.221
 2338SOL    HW1 7913   1.206   0.285   6.283
 2338SOL    HW2 7914   1.053   0.320   6.237
 2339SOL     OW 7915   4.336   4.847   6.221
 2339SOL    HW1 7916   4.325   4.910   6.297
 2339SOL    HW2 7917   4.410   4.784   6.240
 2340SOL     OW 7918   4.150   5.035   2.967
 2340SOL    HW1 7919   4.121   4.948   3.006
 2340SOL    HW2 7920   4.094   5.055   2.886
 2341SOL     OW 7921   5.855   4.787   6.045
 2341SOL    HW1 7922   5.853   4.880   6.083
 2341SOL    HW2 7923   5.949   4.761   6.026
 2342SOL     OW 7924   6.663   0.227   5.560
 2342SOL    HW1 7925   6.661   0.212   5.659
 2342SOL    HW2 7926   6.752   0.264   5.534
 2343SOL     OW 7927   1.096   0.015   0.650
 2343SOL    HW1 7928   1.132   7.015   0.741
 2343SOL    HW2 7929   1.015   0.072   0.659
 2344SOL     OW 7930   2.567   1.519   2.993
 2344SOL    HW1 7931   2.497   1.478   2.935
 2344SOL    HW2 7932   2.652   1.467   2.985
 2345SOL     OW 7933   1.327   1.460   3.490
 2345SOL    HW1 7934   1.373   1.545   3.464
 2345SOL    HW2 7935   1.308   1.461   3.588
 2346SOL     OW 7936   5.118   3.169   5.332
 2346SOL    HW1 7937   5.075   3.087   5.370
 2346SOL    HW2 7938   5.160   3.221   5.405
 2347SOL     OW 7939   1.366   3.680   0.948
 2347SOL    HW1 7940   1.374   3.676   0.848
 2347SOL    HW2 7941   1.437   3.623   0.989
 2348SOL     OW 7942   2.562   5.628   1.710
 2348SOL    HW1 7943   2.559   5.575   1.625
 2348SOL    HW2 7944   2.596   5.720   1.691
 2349SOL     OW 7945   4.108   4.654   6.197
 2349SOL    HW1 7946   4.107   4.596   6.279
 2349SOL    HW2 7947   4.192   4.710   6.198
 2350SOL     OW 7948   2.123   5.636   5.411
 2350SOL    HW1 7949   2.212   5.591   5.398
 2350SOL    HW2 7950   2.101   5.689   5.329
 2351SOL     OW 7951   2.358   5.211   3.108
 2351SOL    HW1 7952   2.274   5.261   3.086
 2351SOL    HW2 7953   2.341   5.151   3.186
 2352SOL     OW 7954   6.310   4.025   1.728
 2352SOL    HW1 7955   6.352   3.985   1.647
 2352SOL    HW2 7956   6.211   4.017   1.722
 2353SOL     OW 7957   2.785   3.848   6.560
 2353SOL    HW1 7958   2.699   3.833   6.511
 2353SOL    HW2 7959   2.856   3.790   6.521
 2354SOL     OW 7960   4.046   2.383   1.762
 2354SOL    HW1 7961   3.949   2.357   1.752
 2354SOL    HW2 7962   4.091   2.319   1.824
 2355SOL     OW 7963   6.762   1.514   1.520
 2355SOL    HW1 7964   6.791   1.595   1.468
 2355SOL    HW2 7965   6.841   1.477   1.570
 2356SOL     OW 7966   2.808   5.282   3.629
 2356SOL    HW1 7967   2.812   5.336   3.545
 2356SOL    HW2 7968   2.758   5.198   3.613
 2357SOL     OW 7969   6.972   4.335   1.224
 2357SOL    HW1 7970   6.945   4.246   1.261
 2357SOL    HW2 7971   6.950   4.338   1.127
 2358SOL     OW 7972   3.515   1.795   5.206
 2358SOL    HW1 7973   3.488   1.859   5.278
 2358SOL    HW2 7974   3.521   1.703   5.243
 2359SOL     OW 7975   1.635   1.798   5.887
 2359SOL    HW1 7976   1.639   1.698   5.879
 2359SOL    HW2 7977   1.667   1.825   5.977
 2360SOL     OW 7978   3.498   4.971   0.015
 2360SOL    HW1 7979   3.430   5.010   6.974
 2360SOL    HW2 7980   3.580   5.029   0.015
 2361SOL     OW 7981   3.693   5.611   1.627
 2361SOL    HW1 7982   3.741   5.527   1.655
 2361SOL    HW2 7983   3.706   5.681   1.697
 2362SOL     OW 7984   3.603   5.090   3.405
 2362SOL    HW1 7985   3.659   5.140   3.339
 2362SOL    HW2 7986   3.662   5.057   3.479
 2363SOL     OW 7987   2.055   3.888   0.345
 2363SOL    HW1 7988   1.969   3.939   0.351
 2363SOL    HW2 7989   2.112   3.926   0.272
 2364SOL     OW 7990   3.683   1.198   2.675
 2364SOL    HW1 7991   3.738   1.141   2.736
 2364SOL    HW2 7992   3.741   1.239   2.605
 2365SOL     OW 7993   4.948   4.633   3.195
 2365SOL    HW1 7994   4.903   4.687   3.123
 2365SOL    HW2 7995   5.045   4.626   3.175
 2366SOL     OW 7996   2.769   4.742   5.318
 2366SOL    HW1 7997   2.807   4.657   5.281
 2366SOL    HW2 7998   2.725   4.794   5.244
 2367SOL     OW 7999   5.780   5.108   5.900
 2367SOL    HW1 8000   5.869   5.144   5.926
 2367SOL    HW2 8001   5.743   5.051   5.974
 2368SOL     OW 8002   6.159   6.811   4.618
 2368SOL    HW1 8003   6.199   6.720   4.627
 2368SOL    HW2 8004   6.079   6.818   4.677
 2369SOL     OW 8005   3.385   1.917   4.163
 2369SOL    HW1 8006   3.405   1.823   4.191
 2369SOL    HW2 8007   3.287   1.927   4.149
 2370SOL     OW 8008   5.540   2.519   1.826
 2370SOL    HW1 8009   5.625   2.473   1.850
 2370SOL    HW2 8010   5.524   2.511   1.728
 2371SOL     OW 8011   0.850   6.305   2.174
 2371SOL    HW1 8012   0.886   6.277   2.263
 2371SOL    HW2 8013   0.913   6.276   2.102
 2372SOL     OW 8014   6.254   6.685   6.645
 2372SOL    HW1 8015   6.196   6.675   6.727
 2372SOL    HW2 8016   6.324   6.754   6.662
 2373SOL     OW 8017   6.583   5.137   6.569
 2373SOL    HW1 8018   6.658   5.186   6.613
 2373SOL    HW2 8019   6.500   5.193   6.572
 2374SOL     OW 8020   5.718   6.391   2.473
 2374SOL    HW1 8021   5.712   6.410   2.571
 2374SOL    HW2 8022   5.801   6.432   2.436
 2375SOL     OW 8023   1.602   0.609   4.355
 2375SOL    HW1 8024   1.625   0.545   4.429
 2375SOL    HW2 8025   1.530   0.569   4.298
 2376SOL     OW 8026   5.168   2.068   2.827
 2376SOL    HW1 8027   5.264   2.042   2.826
 2376SOL    HW2 8028   5.122   2.021   2.903
 2377SOL     OW 8029   4.754   3.986   5.836
 2377SOL    HW1 8030   4.808   4.007   5.917
 2377SOL    HW2 8031   4.748   3.886   5.825
 2378SOL     OW 8032   0.186   1.299   0.292
 2378SOL    HW1 8033   0.112   1.263   0.236
 2378SOL    HW2 8034   0.271   1.253   0.269
 2379SOL     OW 8035   6.909   5.589   2.475
 2379SOL    HW1 8036   6.896   5.501   2.431
 2379SOL    HW2 8037   6.822   5.621   2.513
 2380SOL     OW 8038   5.024   5.540   6.014
 2380SOL    HW1 8039   5.122   5.521   6.019
 2380SOL    HW2 8040   5.008   5.620   5.957
 2381SOL     OW 8041   2.302   4.579   4.324
 2381SOL    HW1 8042   2.208   4.563   4.353
 2381SOL    HW2 8043   2.364   4.530   4.385
 2382SOL     OW 8044   6.873   5.765   2.772
 2382SOL    HW1 8045   6.958   5.760   2.719
 2382SOL    HW2 8046   6.796   5.782   2.711
 2383SOL     OW 8047   5.028   4.483   5.720
 2383SOL    HW1 8048   5.113   4.534   5.704
 2383SOL    HW2 8049   4.950   4.536   5.686
 2384SOL     OW 8050   7.017   1.628   3.163
 2384SOL    HW1 8051   0.074   1.599   3.110
 2384SOL    HW2 8052   6.951   1.675   3.104
 2385SOL     OW 8053   0.632   1.435   0.878
 2385SOL    HW1 8054   0.675   1.467   0.793
 2385SOL    HW2 8055   0.559   1.498   0.904
 2386SOL     OW 8056   5.900   5.879   4.856
 2386SOL    HW1 8057   5.972   5.828   4.902
 2386SOL    HW2 8058   5.929   5.974   4.844
 2387SOL     OW 8059   0.809   1.555   3.779
 2387SOL    HW1 8060   0.868   1.541   3.858
 2387SOL    HW2 8061   0.861   1.594   3.704
 2388SOL     OW 8062   0.553   2.851   5.432
 2388SOL    HW1 8063   0.532   2.777   5.496
 2388SOL    HW2 8064   0.473   2.910   5.422
 2389SOL     OW 8065   4.019   4.945   3.487
 2389SOL    HW1 8066   4.030   4.898   3.399
 2389SOL    HW2 8067   4.109   4.966   3.525
 2390SOL     OW 8068   4.730   2.804   6.010
 2390SOL    HW1 8069   4.825   2.814   5.979
 2390SOL    HW2 8070   4.726   2.739   6.085
 2391SOL     OW 8071   3.311   4.070   6.119
 2391SOL    HW1 8072   3.365   4.149   6.091
 2391SOL    HW2 8073   3.234   4.058   6.057
 2392SOL     OW 8074   4.292   4.150   5.516
 2392SOL    HW1 8075   4.278   4.201   5.601
 2392SOL    HW2 8076   4.323   4.213   5.445
 2393SOL     OW 8077   4.627   4.297   1.273
 2393SOL    HW1 8078   4.564   4.345   1.213
 2393SOL    HW2 8079   4.719   4.334   1.261
 2394SOL     OW 8080   0.573   2.219   3.671
 2394SOL    HW1 8081   0.519   2.161   3.611
 2394SOL    HW2 8082   0.579   2.176   3.762
 2395SOL     OW 8083   1.136   2.701   4.336
 2395SOL    HW1 8084   1.199   2.627   4.312
 2395SOL    HW2 8085   1.188   2.781   4.367
 2396SOL     OW 8086   0.705   0.448   5.897
 2396SOL    HW1 8087   0.729   0.537   5.860
 2396SOL    HW2 8088   0.608   0.430   5.881
 2397SOL     OW 8089   0.213   3.673   4.844
 2397SOL    HW1 8090   0.293   3.614   4.854
 2397SOL    HW2 8091   0.174   3.693   4.934
 2398SOL     OW 8092   3.519   6.564   3.916
 2398SOL    HW1 8093   3.528   6.477   3.867
 2398SOL    HW2 8094   3.422   6.581   3.936
 2399SOL     OW 8095   3.454   2.116   3.472
 2399SOL    HW1 8096   3.549   2.113   3.503
 2399SOL    HW2 8097   3.420   2.210   3.476
 2400SOL     OW 8098   1.603   4.142   0.537
 2400SOL    HW1 8099   1.552   4.129   0.622
 2400SOL    HW2 8100   1.586   4.234   0.502
 2401SOL     OW 8101   1.245   0.168   6.440
 2401SOL    HW1 8102   1.227   0.165   6.538
 2401SOL    HW2 8103   1.344   0.176   6.424
 2402SOL     OW 8104   1.160   4.324   2.290
 2402SOL    HW1 8105   1.201   4.335   2.380
 2402SOL    HW2 8106   1.121   4.233   2.282
 2403SOL     OW 8107   3.954   3.820   4.349
 2403SOL    HW1 8108   3.855   3.807   4.338
 2403SOL    HW2 8109   3.974   3.916   4.366
 2404SOL     OW 8110   6.293   1.158   1.053
 2404SOL    HW1 8111   6.203   1.118   1.038
 2404SOL    HW2 8112   6.338   1.112   1.130
 2405SOL     OW 8113   1.742   3.410   0.731
 2405SOL    HW1 8114   1.841   3.401   0.734
 2405SOL    HW2 8115   1.704   3.383   0.820
 2406SOL     OW 8116   2.467   6.336   4.483
 2406SOL    HW1 8117   2.556   6.377   4.466
 2406SOL    HW2 8118   2.414   6.334   4.398
 2407SOL     OW 8119   2.615   1.122   3.220
 2407SOL    HW1 8120   2.533   1.064   3.223
 2407SOL    HW2 8121   2.696   1.065   3.213
 2408SOL     OW 8122   3.169   6.247   5.619
 2408SOL    HW1 8123   3.142   6.342   5.602
 2408SOL    HW2 8124   3.224   6.242   5.702
 2409SOL     OW 8125   1.248   3.345   0.182
 2409SOL    HW1 8126   1.249   3.362   0.281
 2409SOL    HW2 8127   1.271   3.429   0.133
 2410SOL     OW 8128   0.452   2.662   4.426
 2410SOL    HW1 8129   0.404   2.647   4.340
 2410SOL    HW2 8130   0.525   2.729   4.413
 2411SOL     OW 8131   3.369   2.144   0.037
 2411SOL    HW1 8132   3.361   2.085   0.117
 2411SOL    HW2 8133   3.401   2.234   0.065
 2412SOL     OW 8134   3.231   1.606   5.680
 2412SOL    HW1 8135   3.164   1.546   5.635
 2412SOL    HW2 8136   3.187   1.693   5.704
 2413SOL     OW 8137   0.339   3.259   0.365
 2413SOL    HW1 8138   0.378   3.214   0.445
 2413SOL    HW2 8139   0.379   3.219   0.282
 2414SOL     OW 8140   6.575   1.722   4.828
 2414SOL    HW1 8141   6.643   1.755   4.893
 2414SOL    HW2 8142   6.531   1.800   4.783
 2415SOL     OW 8143   2.635   4.928   6.505
 2415SOL    HW1 8144   2.685   4.847   6.534
 2415SOL    HW2 8145   2.606   4.980   6.586
 2416SOL     OW 8146   0.171   3.385   2.772
 2416SOL    HW1 8147   0.239   3.318   2.744
 2416SOL    HW2 8148   0.080   3.343   2.772
 2417SOL     OW 8149   3.081   2.695   1.799
 2417SOL    HW1 8150   3.155   2.689   1.866
 2417SOL    HW2 8151   3.005   2.638   1.830
 2418SOL     OW 8152   4.966   4.041   6.851
 2418SOL    HW1 8153   4.890   4.085   6.803
 2418SOL    HW2 8154   4.941   3.946   6.872
 2419SOL     OW 8155   2.751   0.572   3.443
 2419SOL    HW1 8156   2.671   0.606   3.394
 2419SOL    HW2 8157   2.722   0.509   3.514
 2420SOL     OW 8158   1.384   4.149   2.775
 2420SOL    HW1 8159   1.348   4.189   2.859
 2420SOL    HW2 8160   1.338   4.063   2.755
 2421SOL     OW 8161   3.153   6.961   3.197
 2421SOL    HW1 8162   3.181   0.015   3.138
 2421SOL    HW2 8163   3.235   6.916   3.234
 2422SOL     OW 8164   4.403   5.512   1.058
 2422SOL    HW1 8165   4.335   5.443   1.031
 2422SOL    HW2 8166   4.356   5.594   1.090
 2423SOL     OW 8167   2.251   5.665   2.829
 2423SOL    HW1 8168   2.314   5.597   2.793
 2423SOL    HW2 8169   2.299   5.753   2.838
 2424SOL     OW 8170   5.143   6.903   6.501
 2424SOL    HW1 8171   5.139   7.002   6.509
 2424SOL    HW2 8172   5.236   6.874   6.479
 2425SOL     OW 8173   4.821   5.763   4.456
 2425SOL    HW1 8174   4.785   5.674   4.483
 2425SOL    HW2 8175   4.845   5.815   4.538
 2426SOL     OW 8176   1.816   2.756   5.557
 2426SOL    HW1 8177   1.850   2.812   5.481
 2426SOL    HW2 8178   1.716   2.758   5.557
 2427SOL     OW 8179   5.539   0.656   0.601
 2427SOL    HW1 8180   5.559   0.753   0.586
 2427SOL    HW2 8181   5.524   0.639   0.698
 2428SOL     OW 8182   0.786   1.134   3.414
 2428SOL    HW1 8183   0.856   1.205   3.401
 2428SOL    HW2 8184   0.813   1.075   3.490
 2429SOL     OW 8185   5.403   4.784   1.283
 2429SOL    HW1 8186   5.436   4.854   1.345
 2429SOL    HW2 8187   5.359   4.711   1.336
 2430SOL     OW 8188   6.055   0.864   6.531
 2430SOL    HW1 8189   6.090   0.794   6.594
 2430SOL    HW2 8190   5.997   0.821   6.462
 2431SOL     OW 8191   0.683   3.221   1.806
 2431SOL    HW1 8192   0.589   3.214   1.775
 2431SOL    HW2 8193   0.744   3.182   1.738
 2432SOL     OW 8194   2.359   5.159   1.908
 2432SOL    HW1 8195   2.430   5.197   1.849
 2432SOL    HW2 8196   2.397   5.086   1.964
 2433SOL     OW 8197   6.944   3.937   5.436
 2433SOL    HW1 8198   7.010   3.871   5.400
 2433SOL    HW2 8199   6.851   3.905   5.419
 2434SOL     OW 8200   4.248   0.351   2.163
 2434SOL    HW1 8201   4.254   0.451   2.163
 2434SOL    HW2 8202   4.214   0.320   2.252
 2435SOL     OW 8203   6.170   0.120   6.960
 2435SOL    HW1 8204   6.167   0.207   7.010
 2435SOL    HW2 8205   6.099   0.120   6.890
 2436SOL     OW 8206   1.242   2.135   1.858
 2436SOL    HW1 8207   1.251   2.235   1.857
 2436SOL    HW2 8208   1.158   2.108   1.812
 2437SOL     OW 8209   0.017   4.233   3.222
 2437SOL    HW1 8210   0.063   4.303   3.169
 2437SOL    HW2 8211   7.005   4.161   3.161
 2438SOL     OW 8212   3.688   1.354   4.580
 2438SOL    HW1 8213   3.655   1.447   4.591
 2438SOL    HW2 8214   3.661   1.299   4.659
 2439SOL     OW 8215   1.367   6.061   1.572
 2439SOL    HW1 8216   1.363   6.157   1.546
 2439SOL    HW2 8217   1.401   6.053   1.666
 2440SOL     OW 8218   5.733   1.190   5.266
 2440SOL    HW1 8219   5.684   1.114   5.308
 2440SOL    HW2 8220   5.793   1.233   5.334
 2441SOL     OW 8221   6.196   0.341   0.280
 2441SOL    HW1 8222   6.294   0.337   0.301
 2441SOL    HW2 8223   6.183   0.369   0.185
 2442SOL     OW 8224   5.551   2.982   1.325
 2442SOL    HW1 8225   5.530   3.000   1.422
 2442SOL    HW2 8226   5.522   2.890   1.301
 2443SOL     OW 8227   1.311   3.042   2.168
 2443SOL    HW1 8228   1.310   3.111   2.241
 2443SOL    HW2 8229   1.406   3.017   2.147
 2444SOL     OW 8230   3.266   5.648   2.333
 2444SOL    HW1 8231   3.211   5.698   2.266
 2444SOL    HW2 8232   3.271   5.700   2.418
 2445SOL     OW 8233   0.513   2.654   1.755
 2445SOL    HW1 8234   0.571   2.735   1.761
 2445SOL    HW2 8235   0.556   2.579   1.805
 2446SOL     OW 8236   1.477   5.414   1.691
 2446SOL    HW1 8237   1.423   5.492   1.723
 2446SOL    HW2 8238   1.443   5.330   1.734
 2447SOL     OW 8239   2.188   6.799   6.906
 2447SOL    HW1 8240   2.263   6.735   6.925
 2447SOL    HW2 8241   2.204   6.843   6.818
 2448SOL     OW 8242   5.395   1.410   4.600
 2448SOL    HW1 8243   5.492   1.395   4.579
 2448SOL    HW2 8244   5.345   1.324   4.592
 2449SOL     OW 8245   1.327   4.199   1.967
 2449SOL    HW1 8246   1.233   4.164   1.964
 2449SOL    HW2 8247   1.378   4.152   2.040
 2450SOL     OW 8248   1.220   6.680   6.018
 2450SOL    HW1 8249   1.277   6.705   6.097
 2450SOL    HW2 8250   1.165   6.600   6.042
 2451SOL     OW 8251   0.913   6.174   5.371
 2451SOL    HW1 8252   0.922   6.239   5.295
 2451SOL    HW2 8253   0.832   6.117   5.356
 2452SOL     OW 8254   2.045   2.417   3.510
 2452SOL    HW1 8255   2.049   2.321   3.537
 2452SOL    HW2 8256   2.025   2.423   3.412
 2453SOL     OW 8257   0.343   0.943   6.094
 2453SOL    HW1 8258   0.388   1.023   6.134
 2453SOL    HW2 8259   0.344   0.868   6.160
 2454SOL     OW 8260   3.566   5.641   0.944
 2454SOL    HW1 8261   3.659   5.625   0.978
 2454SOL    HW2 8262   3.552   5.739   0.931
 2455SOL     OW 8263   4.142   2.644   0.561
 2455SOL    HW1 8264   4.212   2.697   0.609
 2455SOL    HW2 8265   4.137   2.552   0.600
 2456SOL     OW 8266   0.828   3.666   6.780
 2456SOL    HW1 8267   0.731   3.641   6.775
 2456SOL    HW2 8268   0.840   3.740   6.847
 2457SOL     OW 8269   5.034   2.196   4.753
 2457SOL    HW1 8270   5.129   2.167   4.755
 2457SOL    HW2 8271   4.997   2.195   4.846
 2458SOL     OW 8272   0.802   0.542   2.331
 2458SOL    HW1 8273   0.842   0.522   2.242
 2458SOL    HW2 8274   0.746   0.465   2.362
 2459SOL     OW 8275   2.718   0.133   0.034
 2459SOL    HW1 8276   2.647   0.077   0.076
 2459SOL    HW2 8277   2.807   0.089   0.045
 2460SOL     OW 8278   1.438   0.943   4.604
 2460SOL    HW1 8279   1.498   1.023   4.603
 2460SOL    HW2 8280   1.369   0.952   4.531
 2461SOL     OW 8281   4.439   7.012   3.799
 2461SOL    HW1 8282   4.340   7.019   3.796
 2461SOL    HW2 8283   4.467   6.920   3.771
 2462SOL     OW 8284   0.187   4.156   0.290
 2462SOL    HW1 8285   0.121   4.119   0.355
 2462SOL    HW2 8286   0.260   4.203   0.339
 2463SOL     OW 8287   0.202   0.581   0.276
 2463SOL    HW1 8288   0.217   0.518   0.199
 2463SOL    HW2 8289   0.184   0.528   0.359
 2464SOL     OW 8290   0.732   2.835   3.719
 2464SOL    HW1 8291   0.777   2.904   3.663
 2464SOL    HW2 8292   0.787   2.752   3.721
 2465SOL     OW 8293   0.144   6.680   5.952
 2465SOL    HW1 8294   0.156   6.639   6.042
 2465SOL    HW2 8295   0.234   6.700   5.912
 2466SOL     OW 8296   0.384   2.025   1.953
 2466SOL    HW1 8297   0.448   2.087   1.908
 2466SOL    HW2 8298   0.291   2.044   1.922
 2467SOL     OW 8299   6.033   2.406   5.358
 2467SOL    HW1 8300   5.941   2.397   5.320
 2467SOL    HW2 8301   6.080   2.484   5.316
 2468SOL     OW 8302   3.274   6.517   5.361
 2468SOL    HW1 8303   3.369   6.506   5.334
 2468SOL    HW2 8304   3.269   6.562   5.450
 2469SOL     OW 8305   3.615   1.999   5.982
 2469SOL    HW1 8306   3.550   2.068   5.952
 2469SOL    HW2 8307   3.620   1.925   5.915
 2470SOL     OW 8308   2.917   4.379   6.312
 2470SOL    HW1 8309   2.934   4.477   6.306
 2470SOL    HW2 8310   2.881   4.356   6.403
 2471SOL     OW 8311   2.812   6.040   2.349
 2471SOL    HW1 8312   2.738   6.044   2.416
 2471SOL    HW2 8313   2.775   6.054   2.257
 2472SOL     OW 8314   4.467   1.603   3.536
 2472SOL    HW1 8315   4.528   1.682   3.528
 2472SOL    HW2 8316   4.396   1.609   3.465
 2473SOL     OW 8317   0.570   4.028   5.058
 2473SOL    HW1 8318   0.541   3.934   5.041
 2473SOL    HW2 8319   0.580   4.042   5.157
 2474SOL     OW 8320   1.488   6.206   1.847
 2474SOL    HW1 8321   1.439   6.221   1.933
 2474SOL    HW2 8322   1.572   6.155   1.865
 2475SOL     OW 8323   5.207   0.897   1.173
 2475SOL    HW1 8324   5.132   0.959   1.150
 2475SOL    HW2 8325   5.241   0.854   1.089
 2476SOL     OW 8326   5.471   0.790   0.046
 2476SOL    HW1 8327   5.569   0.803   0.064
 2476SOL    HW2 8328   5.426   0.880   0.044
 2477SOL     OW 8329   3.733   0.117   3.393
 2477SOL    HW1 8330   3.773   0.075   3.312
 2477SOL    HW2 8331   3.754   0.061   3.473
 2478SOL     OW 8332   4.239   6.879   4.553
 2478SOL    HW1 8333   4.177   6.948   4.591
 2478SOL    HW2 8334   4.218   6.864   4.457
 2479SOL     OW 8335   5.925   3.114   0.026
 2479SOL    HW1 8336   5.959   3.063   0.105
 2479SOL    HW2 8337   5.826   3.123   0.034
 2480SOL     OW 8338   3.378   2.560   1.662
 2480SOL    HW1 8339   3.304   2.616   1.623
 2480SOL    HW2 8340   3.339   2.480   1.707
 2481SOL     OW 8341   3.296   0.350   1.090
 2481SOL    HW1 8342   3.351   0.402   1.024
 2481SOL    HW2 8343   3.217   0.309   1.044
 2482SOL     OW 8344   5.918   3.050   6.414
 2482SOL    HW1 8345   5.934   2.969   6.471
 2482SOL    HW2 8346   5.839   3.100   6.449
 2483SOL     OW 8347   1.177   2.601   0.710
 2483SOL    HW1 8348   1.125   2.600   0.624
 2483SOL    HW2 8349   1.136   2.668   0.772
 2484SOL     OW 8350   4.976   1.537   1.251
 2484SOL    HW1 8351   4.918   1.558   1.171
 2484SOL    HW2 8352   4.968   1.440   1.273
 2485SOL     OW 8353   6.370   2.309   6.064
 2485SOL    HW1 8354   6.369   2.234   6.129
 2485SOL    HW2 8355   6.427   2.284   5.985
 2486SOL     OW 8356   6.877   4.201   5.276
 2486SOL    HW1 8357   6.845   4.109   5.256
 2486SOL    HW2 8358   6.940   4.231   5.204
 2487SOL     OW 8359   4.964   5.827   6.947
 2487SOL    HW1 8360   4.963   5.838   0.024
 2487SOL    HW2 8361   4.981   5.916   6.904
 2488SOL     OW 8362   6.763   3.821   1.228
 2488SOL    HW1 8363   6.752   3.854   1.322
 2488SOL    HW2 8364   6.672   3.803   1.189
 2489SOL     OW 8365   0.349   6.426   4.228
 2489SOL    HW1 8366   0.266   6.376   4.252
 2489SOL    HW2 8367   0.365   6.499   4.295
 2490SOL     OW 8368   2.556   6.101   2.478
 2490SOL    HW1 8369   2.540   6.113   2.576
 2490SOL    HW2 8370   2.480   6.050   2.437
 2491SOL     OW 8371   3.785   4.603   1.502
 2491SOL    HW1 8372   3.879   4.569   1.505
 2491SOL    HW2 8373   3.748   4.591   1.409
 2492SOL     OW 8374   0.262   4.541   1.510
 2492SOL    HW1 8375   0.350   4.540   1.463
 2492SOL    HW2 8376   0.191   4.572   1.448
 2493SOL     OW 8377   6.619   6.664   1.537
 2493SOL    HW1 8378   6.540   6.613   1.571
 2493SOL    HW2 8379   6.598   6.701   1.447
 2494SOL     OW 8380   6.191   3.430   1.957
 2494SOL    HW1 8381   6.282   3.434   1.999
 2494SOL    HW2 8382   6.155   3.523   1.949
 2495SOL     OW 8383   6.372   5.089   4.308
 2495SOL    HW1 8384   6.429   5.016   4.347
 2495SOL    HW2 8385   6.341   5.063   4.217
 2496SOL     OW 8386   6.332   5.146   6.363
 2496SOL    HW1 8387   6.410   5.087   6.383
 2496SOL    HW2 8388   6.337   5.228   6.420
 2497SOL     OW 8389   0.401   0.211   2.167
 2497SOL    HW1 8390   0.333   0.275   2.203
 2497SOL    HW2 8391   0.443   0.162   2.243
 2498SOL     OW 8392   1.915   3.402   5.841
 2498SOL    HW1 8393   1.903   3.309   5.878
 2498SOL    HW2 8394   2.011   3.429   5.851
 2499SOL     OW 8395   0.071   3.054   1.662
 2499SOL    HW1 8396   0.133   2.982   1.634
 2499SOL    HW2 8397   0.116   3.113   1.730
 2500SOL     OW 8398   4.010   4.174   0.015
 2500SOL    HW1 8399   3.920   4.130   0.007
 2500SOL    HW2 8400   4.068   4.120   0.076
 2501SOL     OW 8401   5.957   5.656   0.198
 2501SOL    HW1 8402   5.876   5.630   0.250
 2501SOL    HW2 8403   5.932   5.720   0.125
 2502SOL     OW 8404   2.991   5.202   4.091
 2502SOL    HW1 8405   2.922   5.216   4.163
 2502SOL    HW2 8406   2.947   5.163   4.011
 2503SOL     OW 8407   2.285   6.345   5.920
 2503SOL    HW1 8408   2.228   6.303   5.849
 2503SOL    HW2 8409   2.332   6.274   5.971
 2504SOL     OW 8410   3.147   5.581   2.757
 2504SOL    HW1 8411   3.070   5.622   2.709
 2504SOL    HW2 8412   3.213   5.653   2.782
 2505SOL     OW 8413   6.949   5.611   3.002
 2505SOL    HW1 8414   6.884   5.540   3.029
 2505SOL    HW2 8415   6.940   5.629   2.904
 2506SOL     OW 8416   5.082   5.759   5.820
 2506SOL    HW1 8417   5.067   5.730   5.725
 2506SOL    HW2 8418   5.180   5.758   5.840
 2507SOL     OW 8419   6.873   3.515   0.290
 2507SOL    HW1 8420   6.961   3.530   0.247
 2507SOL    HW2 8421   6.850   3.417   0.286
 2508SOL     OW 8422   4.324   1.815   3.735
 2508SOL    HW1 8423   4.266   1.863   3.801
 2508SOL    HW2 8424   4.318   1.861   3.646
 2509SOL     OW 8425   6.979   3.656   5.588
 2509SOL    HW1 8426   6.913   3.693   5.653
 2509SOL    HW2 8427   6.946   3.670   5.494
 2510SOL     OW 8428   3.362   4.106   2.005
 2510SOL    HW1 8429   3.449   4.149   1.980
 2510SOL    HW2 8430   3.290   4.138   1.943
 2511SOL     OW 8431   2.084   0.773   5.094
 2511SOL    HW1 8432   2.170   0.724   5.079
 2511SOL    HW2 8433   2.068   0.836   5.017
 2512SOL     OW 8434   3.745   5.019   4.481
 2512SOL    HW1 8435   3.810   4.981   4.546
 2512SOL    HW2 8436   3.757   4.976   4.392
 2513SOL     OW 8437   2.205   6.038   6.237
 2513SOL    HW1 8438   2.247   6.024   6.327
 2513SOL    HW2 8439   2.184   5.949   6.196
 2514SOL     OW 8440   1.023   2.937   3.287
 2514SOL    HW1 8441   1.080   3.007   3.330
 2514SOL    HW2 8442   1.077   2.853   3.276
 2515SOL     OW 8443   1.751   1.394   1.781
 2515SOL    HW1 8444   1.845   1.427   1.773
 2515SOL    HW2 8445   1.695   1.463   1.828
 2516SOL     OW 8446   5.513   1.596   3.559
 2516SOL    HW1 8447   5.461   1.517   3.524
 2516SOL    HW2 8448   5.606   1.567   3.582
 2517SOL     OW 8449   1.317   1.229   4.427
 2517SOL    HW1 8450   1.315   1.270   4.336
 2517SOL    HW2 8451   1.373   1.287   4.488
 2518SOL     OW 8452   2.788   4.221   1.259
 2518SOL    HW1 8453   2.882   4.202   1.285
 2518SOL    HW2 8454   2.743   4.137   1.231
 2519SOL     OW 8455   1.910   1.403   0.805
 2519SOL    HW1 8456   1.976   1.351   0.859
 2519SOL    HW2 8457   1.849   1.453   0.865
 2520SOL     OW 8458   3.569   2.242   1.207
 2520SOL    HW1 8459   3.507   2.208   1.278
 2520SOL    HW2 8460   3.609   2.329   1.237
 2521SOL     OW 8461   4.773   1.506   5.330
 2521SOL    HW1 8462   4.728   1.577   5.276
 2521SOL    HW2 8463   4.824   1.548   5.406
 2522SOL     OW 8464   0.547   1.984   5.529
 2522SOL    HW1 8465   0.639   1.955   5.500
 2522SOL    HW2 8466   0.507   1.913   5.586
 2523SOL     OW 8467   1.630   4.728   6.995
 2523SOL    HW1 8468   1.660   4.783   0.051
 2523SOL    HW2 8469   1.533   4.705   7.005
 2524SOL     OW 8470   1.450   6.755   4.062
 2524SOL    HW1 8471   1.388   6.729   4.136
 2524SOL    HW2 8472   1.528   6.692   4.059
 2525SOL     OW 8473   6.743   2.219   4.024
 2525SOL    HW1 8474   6.781   2.133   3.988
 2525SOL    HW2 8475   6.679   2.198   4.097
 2526SOL     OW 8476   1.257   6.494   0.577
 2526SOL    HW1 8477   1.261   6.400   0.541
 2526SOL    HW2 8478   1.329   6.548   0.533
 2527SOL     OW 8479   5.323   5.380   6.506
 2527SOL    HW1 8480   5.300   5.302   6.447
 2527SOL    HW2 8481   5.359   5.346   6.593
 2528SOL     OW 8482   4.762   5.086   6.613
 2528SOL    HW1 8483   4.771   5.111   6.516
 2528SOL    HW2 8484   4.666   5.073   6.635
 2529SOL     OW 8485   0.544   0.186   6.067
 2529SOL    HW1 8486   0.541   0.174   6.166
 2529SOL    HW2 8487   0.631   0.227   6.041
 2530SOL     OW 8488   2.462   5.737   5.586
 2530SOL    HW1 8489   2.414   5.781   5.510
 2530SOL    HW2 8490   2.550   5.702   5.554
 2531SOL     OW 8491   6.225   5.339   6.181
 2531SOL    HW1 8492   6.255   5.270   6.247
 2531SOL    HW2 8493   6.162   5.403   6.225
 2532SOL     OW 8494   0.515   0.079   1.126
 2532SOL    HW1 8495   0.480   0.081   1.032
 2532SOL    HW2 8496   0.508   0.170   1.166
 2533SOL     OW 8497   5.363   0.657   3.060
 2533SOL    HW1 8498   5.311   0.639   2.977
 2533SOL    HW2 8499   5.460   0.640   3.042
 2534SOL     OW 8500   4.443   1.998   2.018
 2534SOL    HW1 8501   4.349   1.962   2.017
 2534SOL    HW2 8502   4.484   1.983   1.928
 2535SOL     OW 8503   3.541   2.590   6.433
 2535SOL    HW1 8504   3.507   2.684   6.428
 2535SOL    HW2 8505   3.641   2.590   6.427
 2536SOL     OW 8506   1.400   0.535   6.729
 2536SOL    HW1 8507   1.462   0.471   6.774
 2536SOL    HW2 8508   1.378   0.609   6.793
 2537SOL     OW 8509   4.202   1.238   0.287
 2537SOL    HW1 8510   4.210   1.272   0.193
 2537SOL    HW2 8511   4.143   1.158   0.289
 2538SOL     OW 8512   0.139   3.567   4.254
 2538SOL    HW1 8513   0.168   3.510   4.330
 2538SOL    HW2 8514   0.107   3.656   4.288
 2539SOL     OW 8515   5.279   1.397   4.924
 2539SOL    HW1 8516   5.200   1.361   4.875
 2539SOL    HW2 8517   5.346   1.433   4.859
 2540SOL     OW 8518   3.483   1.268   2.349
 2540SOL    HW1 8519   3.517   1.362   2.359
 2540SOL    HW2 8520   3.490   1.241   2.253
 2541SOL     OW 8521   3.795   6.077   5.171
 2541SOL    HW1 8522   3.843   6.164   5.186
 2541SOL    HW2 8523   3.857   6.013   5.124
 2542SOL     OW 8524   0.978   4.745   6.928
 2542SOL    HW1 8525   0.940   4.796   6.850
 2542SOL    HW2 8526   1.077   4.756   6.930
 2543SOL     OW 8527   1.552   1.611   4.422
 2543SOL    HW1 8528   1.572   1.643   4.330
 2543SOL    HW2 8529   1.560   1.687   4.487
 2544SOL     OW 8530   1.035   5.543   0.435
 2544SOL    HW1 8531   1.054   5.450   0.468
 2544SOL    HW2 8532   1.008   5.600   0.513
 2545SOL     OW 8533   2.051   6.138   3.124
 2545SOL    HW1 8534   1.994   6.104   3.049
 2545SOL    HW2 8535   2.008   6.219   3.165
 2546SOL     OW 8536   6.234   2.022   0.714
 2546SOL    HW1 8537   6.273   2.078   0.641
 2546SOL    HW2 8538   6.307   1.991   0.775
 2547SOL     OW 8539   0.106   3.992   5.132
 2547SOL    HW1 8540   0.108   4.080   5.084
 2547SOL    HW2 8541   0.020   3.945   5.113
 2548SOL     OW 8542   0.429   6.615   3.986
 2548SOL    HW1 8543   0.452   6.532   3.936
 2548SOL    HW2 8544   0.489   6.623   4.066
 2549SOL     OW 8545   0.497   1.138   1.553
 2549SOL    HW1 8546   0.528   1.149   1.459
 2549SOL    HW2 8547   0.431   1.063   1.559
 2550SOL     OW 8548   6.066   6.366   0.637
 2550SOL    HW1 8549   6.018   6.414   0.710
 2550SOL    HW2 8550   6.093   6.275   0.670
 2551SOL     OW 8551   1.743   4.096   6.378
 2551SOL    HW1 8552   1.663   4.037   6.372
 2551SOL    HW2 8553   1.713   4.192   6.379
 2552SOL     OW 8554   2.599   5.321   3.029
 2552SOL    HW1 8555   2.514   5.296   3.074
 2552SOL    HW2 8556   2.646   5.238   2.998
 2553SOL     OW 8557   3.979   3.671   6.348
 2553SOL    HW1 8558   4.047   3.666   6.275
 2553SOL    HW2 8559   3.897   3.620   6.322
 2554SOL     OW 8560   1.232   1.758   0.531
 2554SOL    HW1 8561   1.186   1.670   0.538
 2554SOL    HW2 8562   1.251   1.793   0.623
 2555SOL     OW 8563   5.682   2.476   6.134
 2555SOL    HW1 8564   5.711   2.432   6.219
 2555SOL    HW2 8565   5.595   2.436   6.104
 2556SOL     OW 8566   3.608   5.906   0.943
 2556SOL    HW1 8567   3.674   5.959   0.997
 2556SOL    HW2 8568   3.543   5.969   0.900
 2557SOL     OW 8569   1.966   3.961   6.387
 2557SOL    HW1 8570   1.899   4.027   6.422
 2557SOL    HW2 8571   1.972   3.969   6.288
 2558SOL     OW 8572   4.592   0.947   5.597
 2558SOL    HW1 8573   4.519   0.918   5.535
 2558SOL    HW2 8574   4.578   1.043   5.621
 2559SOL     OW 8575   0.394   4.662   5.147
 2559SOL    HW1 8576   0.317   4.601   5.129
 2559SOL    HW2 8577   0.443   4.680   5.062
 2560SOL     OW 8578   6.101   1.900   5.885
 2560SOL    HW1 8579   6.027   1.967   5.883
 2560SOL    HW2 8580   6.110   1.862   5.977
 2561SOL     OW 8581   2.743   5.538   4.607
 2561SOL    HW1 8582   2.689   5.459   4.635
 2561SOL    HW2 8583   2.807   5.562   4.680
 2562SOL     OW 8584   1.803   3.626   0.511
 2562SOL    HW1 8585   1.754   3.540   0.501
 2562SOL    HW2 8586   1.879   3.614   0.574
 2563SOL     OW 8587   2.514   1.235   6.976
 2563SOL    HW1 8588   2.455   1.224   6.896
 2563SOL    HW2 8589   2.580   1.308   6.960
 2564SOL     OW 8590   1.567   5.146   1.655
 2564SOL    HW1 8591   1.655   5.176   1.691
 2564SOL    HW2 8592   1.498   5.151   1.728
 2565SOL     OW 8593   1.490   0.634   1.636
 2565SOL    HW1 8594   1.399   0.645   1.676
 2565SOL    HW2 8595   1.547   0.580   1.698
 2566SOL     OW 8596   1.941   6.789   6.794
 2566SOL    HW1 8597   1.985   6.760   6.709
 2566SOL    HW2 8598   2.006   6.784   6.869
 2567SOL     OW 8599   1.657   6.408   0.562
 2567SOL    HW1 8600   1.642   6.354   0.480
 2567SOL    HW2 8601   1.672   6.347   0.640
 2568SOL     OW 8602   4.330   2.265   6.796
 2568SOL    HW1 8603   4.371   2.174   6.783
 2568SOL    HW2 8604   4.369   2.308   6.878
 2569SOL     OW 8605   3.510   0.424   3.542
 2569SOL    HW1 8606   3.468   0.504   3.499
 2569SOL    HW2 8607   3.594   0.401   3.493
 2570SOL     OW 8608   5.326   1.580   6.206
 2570SOL    HW1 8609   5.256   1.611   6.270
 2570SOL    HW2 8610   5.297   1.493   6.166
 2571SOL     OW 8611   1.308   5.097   3.659
 2571SOL    HW1 8612   1.290   5.195   3.653
 2571SOL    HW2 8613   1.227   5.050   3.693
 2572SOL     OW 8614   2.450   4.880   3.339
 2572SOL    HW1 8615   2.417   4.957   3.394
 2572SOL    HW2 8616   2.376   4.812   3.331
 2573SOL     OW 8617   0.515   0.623   1.381
 2573SOL    HW1 8618   0.538   0.637   1.285
 2573SOL    HW2 8619   0.419   0.644   1.396
 2574SOL     OW 8620   5.936   3.361   0.435
 2574SOL    HW1 8621   5.944   3.460   0.420
 2574SOL    HW2 8622   5.911   3.344   0.530
 2575SOL     OW 8623   0.017   5.516   6.708
 2575SOL    HW1 8624   0.092   5.454   6.728
 2575SOL    HW2 8625   0.040   5.573   6.629
 2576SOL     OW 8626   4.817   6.481   4.003
 2576SOL    HW1 8627   4.752   6.407   3.985
 2576SOL    HW2 8628   4.910   6.448   3.989
 2577SOL     OW 8629   2.738   4.645   2.339
 2577SOL    HW1 8630   2.782   4.734   2.325
 2577SOL    HW2 8631   2.744   4.591   2.255
 2578SOL     OW 8632   4.012   1.833   3.747
 2578SOL    HW1 8633   4.024   1.736   3.727
 2578SOL    HW2 8634   3.956   1.844   3.829
 2579SOL     OW 8635   0.475   6.781   3.513
 2579SOL    HW1 8636   0.549   6.715   3.525
 2579SOL    HW2 8637   0.403   6.763   3.580
 2580SOL     OW 8638   2.330   2.454   0.249
 2580SOL    HW1 8639   2.420   2.424   0.282
 2580SOL    HW2 8640   2.329   2.554   0.245
 2581SOL     OW 8641   2.918   0.085   5.303
 2581SOL    HW1 8642   2.893   0.014   5.237
 2581SOL    HW2 8643   2.954   0.042   5.386
 2582SOL     OW 8644   0.249   2.955   1.291
 2582SOL    HW1 8645   0.166   2.915   1.329
 2582SOL    HW2 8646   0.306   2.990   1.366
 2583SOL     OW 8647   6.195   6.714   1.362
 2583SOL    HW1 8648   6.174   6.620   1.336
 2583SOL    HW2 8649   6.146   6.777   1.302
 2584SOL     OW 8650   4.521   4.640   5.388
 2584SOL    HW1 8651   4.529   4.735   5.419
 2584SOL    HW2 8652   4.604   4.614   5.339
 2585SOL     OW 8653   3.353   4.575   6.867
 2585SOL    HW1 8654   3.374   4.557   6.771
 2585SOL    HW2 8655   3.434   4.612   6.913
 2586SOL     OW 8656   1.991   0.519   5.066
 2586SOL    HW1 8657   2.008   0.471   5.152
 2586SOL    HW2 8658   2.009   0.616   5.078
 2587SOL     OW 8659   6.689   1.526   3.548
 2587SOL    HW1 8660   6.622   1.577   3.602
 2587SOL    HW2 8661   6.657   1.519   3.453
 2588SOL     OW 8662   4.392   1.140   5.249
 2588SOL    HW1 8663   4.481   1.185   5.260
 2588SOL    HW2 8664   4.353   1.164   5.160
 2589SOL     OW 8665   1.515   6.605   0.108
 2589SOL    HW1 8666   1.599   6.659   0.103
 2589SOL    HW2 8667   1.436   6.664   0.088
 2590SOL     OW 8668   3.039   4.889   0.164
 2590SOL    HW1 8669   2.967   4.838   0.210
 2590SOL    HW2 8670   3.084   4.831   0.097
 2591SOL     OW 8671   5.753   5.434   3.853
 2591SOL    HW1 8672   5.768   5.493   3.932
 2591SOL    HW2 8673   5.757   5.488   3.769
 2592SOL     OW 8674   2.554   4.385   0.078
 2592SOL    HW1 8675   2.499   4.456   0.121
 2592SOL    HW2 8676   2.606   4.424   0.002
 2593SOL     OW 8677   3.108   4.095   0.549
 2593SOL    HW1 8678   3.197   4.098   0.596
 2593SOL    HW2 8679   3.057   4.016   0.581
 2594SOL     OW 8680   1.979   3.849   4.788
 2594SOL    HW1 8681   1.893   3.804   4.813
 2594SOL    HW2 8682   1.959   3.935   4.743
 2595SOL     OW 8683   1.604   0.585   3.480
 2595SOL    HW1 8684   1.634   0.576   3.575
 2595SOL    HW2 8685   1.584   0.495   3.442
 2596SOL     OW 8686   1.015   2.442   0.067
 2596SOL    HW1 8687   1.062   2.432   7.002
 2596SOL    HW2 8688   0.979   2.354   0.097
 2597SOL     OW 8689   6.869   6.310   6.383
 2597SOL    HW1 8690   6.843   6.246   6.455
 2597SOL    HW2 8691   6.787   6.356   6.348
 2598SOL     OW 8692   5.546   2.939   2.428
 2598SOL    HW1 8693   5.566   2.997   2.507
 2598SOL    HW2 8694   5.464   2.885   2.447
 2599SOL     OW 8695   2.390   6.480   2.061
 2599SOL    HW1 8696   2.385   6.563   2.117
 2599SOL    HW2 8697   2.322   6.484   1.989
 2600SOL     OW 8698   6.133   4.002   4.561
 2600SOL    HW1 8699   6.057   3.937   4.557
 2600SOL    HW2 8700   6.217   3.956   4.534
 2601SOL     OW 8701   0.409   2.344   3.331
 2601SOL    HW1 8702   0.478   2.407   3.365
 2601SOL    HW2 8703   0.421   2.331   3.233
 2602SOL     OW 8704   1.560   5.640   3.788
 2602SOL    HW1 8705   1.638   5.589   3.750
 2602SOL    HW2 8706   1.569   5.737   3.764
 2603SOL     OW 8707   3.355   0.430   2.890
 2603SOL    HW1 8708   3.287   0.472   2.950
 2603SOL    HW2 8709   3.346   0.331   2.894
 2604SOL     OW 8710   4.497   1.964   2.714
 2604SOL    HW1 8711   4.577   1.991   2.661
 2604SOL    HW2 8712   4.510   1.873   2.752
 2605SOL     OW 8713   1.596   3.577   1.901
 2605SOL    HW1 8714   1.512   3.560   1.849
 2605SOL    HW2 8715   1.665   3.616   1.841
 2606SOL     OW 8716   4.078   3.906   0.975
 2606SOL    HW1 8717   4.025   3.831   1.014
 2606SOL    HW2 8718   4.146   3.937   1.042
 2607SOL     OW 8719   3.029   1.848   1.113
 2607SOL    HW1 8720   3.050   1.758   1.151
 2607SOL    HW2 8721   3.009   1.912   1.187
 2608SOL     OW 8722   2.150   5.677   6.215
 2608SOL    HW1 8723   2.055   5.644   6.215
 2608SOL    HW2 8724   2.169   5.722   6.127
 2609SOL     OW 8725   0.082   0.869   1.254
 2609SOL    HW1 8726   0.098   0.968   1.253
 2609SOL    HW2 8727   0.084   0.834   1.161
 2610SOL     OW 8728   1.524   4.802   4.893
 2610SOL    HW1 8729   1.565   4.808   4.984
 2610SOL    HW2 8730   1.547   4.714   4.852
 2611SOL     OW 8731   5.691   0.149   6.601
 2611SOL    HW1 8732   5.612   0.117   6.548
 2611SOL    HW2 8733   5.667   0.154   6.698
 2612SOL     OW 8734   6.212   0.082   5.558
 2612SOL    HW1 8735   6.260   0.164   5.525
 2612SOL    HW2 8736   6.199   0.088   5.657
 2613SOL     OW 8737   1.048   5.894   0.253
 2613SOL    HW1 8738   1.133   5.841   0.241
 2613SOL    HW2 8739   1.071   5.988   0.277
 2614SOL     OW 8740   6.921   1.444   6.849
 2614SOL    HW1 8741   6.932   1.482   6.941
 2614SOL    HW2 8742   6.910   1.519   6.783
 2615SOL     OW 8743   1.044   3.221   0.727
 2615SOL    HW1 8744   1.136   3.189   0.705
 2615SOL    HW2 8745   0.978   3.171   0.671
 2616SOL     OW 8746   1.686   0.159   5.317
 2616SOL    HW1 8747   1.690   0.099   5.238
 2616SOL    HW2 8748   1.685   0.254   5.286
 2617SOL     OW 8749   5.450   0.205   1.236
 2617SOL    HW1 8750   5.519   0.271   1.207
 2617SOL    HW2 8751   5.412   0.233   1.324
 2618SOL     OW 8752   1.463   6.539   6.534
 2618SOL    HW1 8753   1.492   6.526   6.439
 2618SOL    HW2 8754   1.365   6.522   6.542
 2619SOL     OW 8755   4.448   1.247   2.328
 2619SOL    HW1 8756   4.543   1.218   2.331
 2619SOL    HW2 8757   4.443   1.344   2.308
 2620SOL     OW 8758   6.401   0.220   1.262
 2620SOL    HW1 8759   6.347   0.303   1.243
 2620SOL    HW2 8760   6.496   0.237   1.238
 2621SOL     OW 8761   1.809   6.219   1.924
 2621SOL    HW1 8762   1.813   6.143   1.860
 2621SOL    HW2 8763   1.849   6.192   2.011
 2622SOL     OW 8764   3.517   3.362   6.211
 2622SOL    HW1 8765   3.525   3.291   6.282
 2622SOL    HW2 8766   3.564   3.332   6.128
 2623SOL     OW 8767   0.667   6.808   3.238
 2623SOL    HW1 8768   0.737   6.743   3.269
 2623SOL    HW2 8769   0.656   6.880   3.307
 2624SOL     OW 8770   7.011   2.027   4.591
 2624SOL    HW1 8771   6.939   2.064   4.532
 2624SOL    HW2 8772   6.984   1.937   4.625
 2625SOL     OW 8773   1.870   5.437   6.481
 2625SOL    HW1 8774   1.835   5.423   6.573
 2625SOL    HW2 8775   1.851   5.356   6.425
 2626SOL     OW 8776   6.960   5.079   6.584
 2626SOL    HW1 8777   6.869   5.038   6.579
 2626SOL    HW2 8778   6.989   5.083   6.680
 2627SOL     OW 8779   2.172   6.801   5.509
 2627SOL    HW1 8780   2.182   6.892   5.470
 2627SOL    HW2 8781   2.111   6.805   5.588
 2628SOL     OW 8782   0.610   4.877   2.123
 2628SOL    HW1 8783   0.706   4.860   2.101
 2628SOL    HW2 8784   0.596   4.975   2.141
 2629SOL     OW 8785   3.288   3.859   3.253
 2629SOL    HW1 8786   3.189   3.856   3.267
 2629SOL    HW2 8787   3.318   3.955   3.254
 2630SOL     OW 8788   3.852   0.591   3.714
 2630SOL    HW1 8789   3.777   0.526   3.727
 2630SOL    HW2 8790   3.907   0.595   3.797
 2631SOL     OW 8791   6.141   0.667   0.180
 2631SOL    HW1 8792   6.116   0.681   0.276
 2631SOL    HW2 8793   6.115   0.575   0.151
 2632SOL     OW 8794   5.420   3.912   2.282
 2632SOL    HW1 8795   5.452   4.003   2.255
 2632SOL    HW2 8796   5.320   3.909   2.276
 2633SOL     OW 8797   0.053   2.985   5.723
 2633SOL    HW1 8798   7.018   2.909   5.693
 2633SOL    HW2 8799   0.042   3.062   5.660
 2634SOL     OW 8800   6.982   1.270   5.934
 2634SOL    HW1 8801   0.059   1.285   5.928
 2634SOL    HW2 8802   6.959   1.185   5.887
 2635SOL     OW 8803   5.601   5.054   3.564
 2635SOL    HW1 8804   5.588   5.151   3.543
 2635SOL    HW2 8805   5.513   5.012   3.584
 2636SOL     OW 8806   3.896   5.611   5.208
 2636SOL    HW1 8807   3.866   5.588   5.302
 2636SOL    HW2 8808   3.845   5.553   5.143
 2637SOL     OW 8809   0.627   1.919   3.586
 2637SOL    HW1 8810   0.554   1.972   3.544
 2637SOL    HW2 8811   0.621   1.824   3.556
 2638SOL     OW 8812   1.017   6.305   4.454
 2638SOL    HW1 8813   1.028   6.344   4.545
 2638SOL    HW2 8814   1.069   6.360   4.388
 2639SOL     OW 8815   4.192   4.743   5.337
 2639SOL    HW1 8816   4.229   4.826   5.380
 2639SOL    HW2 8817   4.121   4.769   5.271
 2640SOL     OW 8818   1.297   6.744   4.336
 2640SOL    HW1 8819   1.248   6.831   4.346
 2640SOL    HW2 8820   1.381   6.747   4.390
 2641SOL     OW 8821   5.710   3.158   6.550
 2641SOL    HW1 8822   5.718   3.240   6.606
 2641SOL    HW2 8823   5.623   3.158   6.502
 2642SOL     OW 8824   6.095   1.336   3.602
 2642SOL    HW1 8825   6.017   1.306   3.656
 2642SOL    HW2 8826   6.101   1.435   3.603
 2643SOL     OW 8827   2.437   4.833   3.880
 2643SOL    HW1 8828   2.484   4.766   3.821
 2643SOL    HW2 8829   2.390   4.784   3.953
 2644SOL     OW 8830   4.823   4.843   4.477
 2644SOL    HW1 8831   4.866   4.924   4.437
 2644SOL    HW2 8832   4.763   4.800   4.409
 2645SOL     OW 8833   5.062   5.437   3.071
 2645SOL    HW1 8834   5.091   5.532   3.056
 2645SOL    HW2 8835   5.142   5.377   3.073
 2646SOL     OW 8836   0.616   2.873   6.841
 2646SOL    HW1 8837   0.647   2.901   6.751
 2646SOL    HW2 8838   0.653   2.782   6.862
 2647SOL     OW 8839   5.016   0.648   1.485
 2647SOL    HW1 8840   5.036   0.626   1.581
 2647SOL    HW2 8841   5.081   0.600   1.426
 2648SOL     OW 8842   0.896   0.326   6.535
 2648SOL    HW1 8843   0.891   0.312   6.436
 2648SOL    HW2 8844   0.857   0.247   6.581
 2649SOL     OW 8845   5.029   2.268   2.067
 2649SOL    HW1 8846   5.029   2.181   2.017
 2649SOL    HW2 8847   4.939   2.282   2.109
 2650SOL     OW 8848   2.724   6.434   4.429
 2650SOL    HW1 8849   2.815   6.397   4.448
 2650SOL    HW2 8850   2.708   6.436   4.330
 2651SOL     OW 8851   4.163   2.251   4.371
 2651SOL    HW1 8852   4.080   2.255   4.316
 2651SOL    HW2 8853   4.233   2.310   4.331
 2652SOL     OW 8854   5.014   4.195   5.284
 2652SOL    HW1 8855   5.094   4.137   5.291
 2652SOL    HW2 8856   4.985   4.226   5.374
 2653SOL     OW 8857   2.343   5.528   0.404
 2653SOL    HW1 8858   2.249   5.497   0.420
 2653SOL    HW2 8859   2.407   5.472   0.456
 2654SOL     OW 8860   6.674   1.232   7.009
 2654SOL    HW1 8861   6.684   1.227   6.910
 2654SOL    HW2 8862   6.685   1.327   0.017
 2655SOL     OW 8863   4.552   6.116   2.391
 2655SOL    HW1 8864   4.500   6.192   2.431
 2655SOL    HW2 8865   4.506   6.030   2.412
 2656SOL     OW 8866   3.731   6.286   2.610
 2656SOL    HW1 8867   3.633   6.290   2.631
 2656SOL    HW2 8868   3.783   6.270   2.694
 2657SOL     OW 8869   0.529   4.099   0.484
 2657SOL    HW1 8870   0.598   4.084   0.412
 2657SOL    HW2 8871   0.471   4.018   0.492
 2658SOL     OW 8872   3.582   5.136   6.724
 2658SOL    HW1 8873   3.512   5.088   6.671
 2658SOL    HW2 8874   3.538   5.199   6.788
 2659SOL     OW 8875   0.243   2.227   5.005
 2659SOL    HW1 8876   0.255   2.159   4.933
 2659SOL    HW2 8877   0.201   2.309   4.967
 2660SOL     OW 8878   0.346   1.951   2.290
 2660SOL    HW1 8879   0.251   1.947   2.324
 2660SOL    HW2 8880   0.367   2.045   2.264
 2661SOL     OW 8881   2.180   1.351   0.959
 2661SOL    HW1 8882   2.227   1.342   1.046
 2661SOL    HW2 8883   2.170   1.261   0.916
 2662SOL     OW 8884   2.600   0.767   2.005
 2662SOL    HW1 8885   2.596   0.809   1.915
 2662SOL    HW2 8886   2.537   0.690   2.009
 2663SOL     OW 8887   4.170   6.259   0.329
 2663SOL    HW1 8888   4.163   6.341   0.385
 2663SOL    HW2 8889   4.240   6.198   0.366
 2664SOL     OW 8890   4.343   3.933   5.670
 2664SOL    HW1 8891   4.251   3.963   5.694
 2664SOL    HW2 8892   4.386   4.003   5.611
 2665SOL     OW 8893   1.850   4.053   4.625
 2665SOL    HW1 8894   1.751   4.046   4.634
 2665SOL    HW2 8895   1.876   4.042   4.529
 2666SOL     OW 8896   2.134   3.780   2.373
 2666SOL    HW1 8897   2.036   3.770   2.355
 2666SOL    HW2 8898   2.179   3.819   2.292
 2667SOL     OW 8899   6.724   3.195   4.849
 2667SOL    HW1 8900   6.766   3.223   4.935
 2667SOL    HW2 8901   6.754   3.103   4.825
 2668SOL     OW 8902   6.190   0.570   3.790
 2668SOL    HW1 8903   6.128   0.516   3.848
 2668SOL    HW2 8904   6.137   0.638   3.740
 2669SOL     OW 8905   2.500   0.621   6.800
 2669SOL    HW1 8906   2.481   0.645   6.705
 2669SOL    HW2 8907   2.418   0.584   6.842
 2670SOL     OW 8908   0.130   6.835   6.970
 2670SOL    HW1 8909   0.186   6.812   6.891
 2670SOL    HW2 8910   0.046   6.880   6.940
 2671SOL     OW 8911   5.155   4.288   6.044
 2671SOL    HW1 8912   5.228   4.220   6.051
 2671SOL    HW2 8913   5.164   4.354   6.118
 2672SOL     OW 8914   3.470   0.803   1.809
 2672SOL    HW1 8915   3.451   0.891   1.765
 2672SOL    HW2 8916   3.554   0.765   1.771
 2673SOL     OW 8917   4.105   0.370   2.628
 2673SOL    HW1 8918   4.085   0.369   2.530
 2673SOL    HW2 8919   4.021   0.348   2.679
 2674SOL     OW 8920   0.345   5.098   2.386
 2674SOL    HW1 8921   0.262   5.077   2.438
 2674SOL    HW2 8922   0.393   5.013   2.365
 2675SOL     OW 8923   5.622   0.592   4.066
 2675SOL    HW1 8924   5.597   0.688   4.056
 2675SOL    HW2 8925   5.580   0.555   4.149
 2676SOL     OW 8926   3.975   3.747   3.111
 2676SOL    HW1 8927   3.951   3.841   3.088
 2676SOL    HW2 8928   4.007   3.743   3.206
 2677SOL     OW 8929   2.639   4.825   0.990
 2677SOL    HW1 8930   2.724   4.815   0.939
 2677SOL    HW2 8931   2.563   4.788   0.936
 2678SOL     OW 8932   3.993   1.885   3.107
 2678SOL    HW1 8933   3.945   1.802   3.081
 2678SOL    HW2 8934   4.065   1.864   3.173
 2679SOL     OW 8935   2.173   3.750   3.467
 2679SOL    HW1 8936   2.114   3.743   3.386
 2679SOL    HW2 8937   2.245   3.817   3.450
 2680SOL     OW 8938   6.226   1.585   0.065
 2680SOL    HW1 8939   6.302   1.600   0.002
 2680SOL    HW2 8940   6.210   1.668   0.119
 2681SOL     OW 8941   2.041   1.694   4.933
 2681SOL    HW1 8942   2.112   1.756   4.899
 2681SOL    HW2 8943   1.951   1.732   4.911
 2682SOL     OW 8944   3.973   4.016   1.751
 2682SOL    HW1 8945   4.040   3.949   1.783
 2682SOL    HW2 8946   3.881   3.984   1.770
 2683SOL     OW 8947   2.496   4.553   2.040
 2683SOL    HW1 8948   2.589   4.583   2.062
 2683SOL    HW2 8949   2.460   4.499   2.116
 2684SOL     OW 8950   6.520   6.528   3.802
 2684SOL    HW1 8951   6.516   6.585   3.884
 2684SOL    HW2 8952   6.504   6.584   3.721
 2685SOL     OW 8953   1.191   5.815   5.622
 2685SOL    HW1 8954   1.278   5.861   5.638
 2685SOL    HW2 8955   1.203   5.717   5.633
 2686SOL     OW 8956   0.279   1.351   5.166
 2686SOL    HW1 8957   0.316   1.440   5.142
 2686SOL    HW2 8958   0.201   1.363   5.227
 2687SOL     OW 8959   4.171   1.956   1.513
 2687SOL    HW1 8960   4.220   1.927   1.595
 2687SOL    HW2 8961   4.073   1.935   1.524
 2688SOL     OW 8962   3.837   2.961   6.042
 2688SOL    HW1 8963   3.904   3.035   6.044
 2688SOL    HW2 8964   3.864   2.893   5.974
 2689SOL     OW 8965   1.443   4.129   3.222
 2689SOL    HW1 8966   1.495   4.104   3.304
 2689SOL    HW2 8967   1.491   4.201   3.173
 2690SOL     OW 8968   3.818   1.406   5.463
 2690SOL    HW1 8969   3.891   1.464   5.499
 2690SOL    HW2 8970   3.855   1.314   5.445
 2691SOL     OW 8971   6.398   3.943   4.534
 2691SOL    HW1 8972   6.442   3.910   4.450
 2691SOL    HW2 8973   6.427   3.886   4.611
 2692SOL     OW 8974   2.386   5.901   2.313
 2692SOL    HW1 8975   2.301   5.847   2.318
 2692SOL    HW2 8976   2.401   5.929   2.218
 2693SOL     OW 8977   1.717   5.696   2.506
 2693SOL    HW1 8978   1.710   5.602   2.472
 2693SOL    HW2 8979   1.755   5.695   2.598
 2694SOL     OW 8980   2.840   0.583   2.616
 2694SOL    HW1 8981   2.764   0.645   2.637
 2694SOL    HW2 8982   2.872   0.599   2.522
 2695SOL     OW 8983   0.005   5.767   3.199
 2695SOL    HW1 8984   6.999   5.720   3.115
 2695SOL    HW2 8985   0.012   5.865   3.182
 2696SOL     OW 8986   5.397   4.834   6.014
 2696SOL    HW1 8987   5.442   4.796   6.095
 2696SOL    HW2 8988   5.308   4.871   6.039
 2697SOL     OW 8989   4.215   2.642   6.656
 2697SOL    HW1 8990   4.216   2.637   6.756
 2697SOL    HW2 8991   4.279   2.574   6.619
 2698SOL     OW 8992   1.639   4.683   6.013
 2698SOL    HW1 8993   1.577   4.654   5.940
 2698SOL    HW2 8994   1.733   4.680   5.980
 2699SOL     OW 8995   2.691   6.329   1.705
 2699SOL    HW1 8996   2.734   6.247   1.742
 2699SOL    HW2 8997   2.614   6.356   1.763
 2700SOL     OW 8998   3.565   1.836   1.652
 2700SOL    HW1 8999   3.608   1.765   1.596
 2700SOL    HW2 9000   3.471   1.810   1.673
 2701SOL     OW 9001   5.385   3.000   5.000
 2701SOL    HW1 9002   5.337   3.060   5.065
 2701SOL    HW2 9003   5.478   2.985   5.032
 2702SOL     OW 9004   2.768   1.036   4.358
 2702SOL    HW1 9005   2.718   0.985   4.428
 2702SOL    HW2 9006   2.737   1.009   4.267
 2703SOL     OW 9007   1.921   6.891   2.730
 2703SOL    HW1 9008   2.005   6.864   2.776
 2703SOL    HW2 9009   1.922   6.990   2.713
 2704SOL     OW 9010   5.372   0.748   3.812
 2704SOL    HW1 9011   5.278   0.727   3.838
 2704SOL    HW2 9012   5.432   0.672   3.839
 2705SOL     OW 9013   0.193   0.813   5.610
 2705SOL    HW1 9014   0.196   0.909   5.581
 2705SOL    HW2 9015   0.175   0.809   5.708
 2706SOL     OW 9016   7.020   3.506   3.745
 2706SOL    HW1 9017   6.985   3.434   3.685
 2706SOL    HW2 9018   7.011   3.479   3.840
 2707SOL     OW 9019   4.161   1.258   3.257
 2707SOL    HW1 9020   4.152   1.352   3.222
 2707SOL    HW2 9021   4.254   1.243   3.289
 2708SOL     OW 9022   5.916   3.528   6.197
 2708SOL    HW1 9023   5.880   3.445   6.155
 2708SOL    HW2 9024   5.871   3.608   6.158
 2709SOL     OW 9025   4.897   1.650   5.533
 2709SOL    HW1 9026   4.978   1.618   5.582
 2709SOL    HW2 9027   4.832   1.690   5.599
 2710SOL     OW 9028   0.964   2.634   4.096
 2710SOL    HW1 9029   0.993   2.545   4.060
 2710SOL    HW2 9030   0.995   2.644   4.190
 2711SOL     OW 9031   3.400   1.039   1.674
 2711SOL    HW1 9032   3.320   1.045   1.614
 2711SOL    HW2 9033   3.483   1.060   1.622
 2712SOL     OW 9034   3.655   6.054   1.932
 2712SOL    HW1 9035   3.657   6.016   2.025
 2712SOL    HW2 9036   3.574   6.019   1.884
 2713SOL     OW 9037   3.744   4.939   5.881
 2713SOL    HW1 9038   3.791   4.936   5.969
 2713SOL    HW2 9039   3.710   5.032   5.866
 2714SOL     OW 9040   3.212   4.667   6.369
 2714SOL    HW1 9041   3.295   4.633   6.324
 2714SOL    HW2 9042   3.237   4.708   6.457
 2715SOL     OW 9043   4.069   0.898   7.002
 2715SOL    HW1 9044   4.048   0.815   0.031
 2715SOL    HW2 9045   4.013   0.974   0.013
 2716SOL     OW 9046   3.862   1.350   2.984
 2716SOL    HW1 9047   3.808   1.267   2.995
 2716SOL    HW2 9048   3.959   1.327   2.976
 2717SOL     OW 9049   0.510   0.992   2.429
 2717SOL    HW1 9050   0.549   0.900   2.430
 2717SOL    HW2 9051   0.502   1.026   2.523
 2718SOL     OW 9052   6.995   0.927   6.015
 2718SOL    HW1 9053   6.936   0.912   5.936
 2718SOL    HW2 9054   0.068   0.939   5.984
 2719SOL     OW 9055   1.800   4.554   2.673
 2719SOL    HW1 9056   1.729   4.492   2.707
 2719SOL    HW2 9057   1.761   4.612   2.601
 2720SOL     OW 9058   2.260   6.369   6.571
 2720SOL    HW1 9059   2.298   6.366   6.664
 2720SOL    HW2 9060   2.240   6.463   6.546
 2721SOL     OW 9061   3.126   6.234   2.034
 2721SOL    HW1 9062   3.060   6.273   2.097
 2721SOL    HW2 9063   3.185   6.306   1.998
 2722SOL     OW 9064   4.370   6.022   6.858
 2722SOL    HW1 9065   4.426   6.044   6.938
 2722SOL    HW2 9066   4.417   5.954   6.802
 2723SOL     OW 9067   3.329   6.411   6.256
 2723SOL    HW1 9068   3.327   6.479   6.183
 2723SOL    HW2 9069   3.313   6.320   6.217
 2724SOL     OW 9070   0.754   6.575   0.994
 2724SOL    HW1 9071   0.673   6.620   1.033
 2724SOL    HW2 9072   0.766   6.486   1.039
 2725SOL     OW 9073   6.242   3.610   5.127
 2725SOL    HW1 9074   6.183   3.685   5.155
 2725SOL    HW2 9075   6.198   3.523   5.148
 2726SOL     OW 9076   5.870   2.026   2.415
 2726SOL    HW1 9077   5.832   2.090   2.347
 2726SOL    HW2 9078   5.930   1.961   2.369
 2727SOL     OW 9079   1.296   5.354   3.880
 2727SOL    HW1 9080   1.275   5.383   3.787
 2727SOL    HW2 9081   1.212   5.351   3.934
 2728SOL     OW 9082   5.149   5.219   5.510
 2728SOL    HW1 9083   5.179   5.272   5.430
 2728SOL    HW2 9084   5.224   5.213   5.576
 2729SOL     OW 9085   5.477   0.009   6.251
 2729SOL    HW1 9086   5.556   0.021   6.191
 2729SOL    HW2 9087   5.506   6.988   6.337
 2730SOL     OW 9088   1.145   5.919   2.197
 2730SOL    HW1 9089   1.125   5.845   2.132
 2730SOL    HW2 9090   1.131   5.885   2.290
 2731SOL     OW 9091   3.573   4.135   3.899
 2731SOL    HW1 9092   3.650   4.071   3.909
 2731SOL    HW2 9093   3.551   4.174   3.988
 2732SOL     OW 9094   5.601   0.691   1.958
 2732SOL    HW1 9095   5.536   0.648   2.021
 2732SOL    HW2 9096   5.559   0.772   1.918
 2733SOL     OW 9097   1.312   6.866   6.655
 2733SOL    HW1 9098   1.278   6.914   6.574
 2733SOL    HW2 9099   1.403   6.828   6.635
 2734SOL     OW 9100   3.021   6.389   2.438
 2734SOL    HW1 9101   3.108   6.341   2.450
 2734SOL    HW2 9102   2.990   6.377   2.344
 2735SOL     OW 9103   0.662   1.684   2.171
 2735SOL    HW1 9104   0.615   1.738   2.101
 2735SOL    HW2 9105   0.630   1.711   2.261
 2736SOL     OW 9106   5.599   4.461   2.742
 2736SOL    HW1 9107   5.508   4.450   2.782
 2736SOL    HW2 9108   5.606   4.406   2.659
 2737SOL     OW 9109   2.645   0.888   5.168
 2737SOL    HW1 9110   2.725   0.945   5.183
 2737SOL    HW2 9111   2.662   0.826   5.091
 2738SOL     OW 9112   5.094   6.362   1.619
 2738SOL    HW1 9113   5.061   6.375   1.712
 2738SOL    HW2 9114   5.024   6.393   1.554
 2739SOL     OW 9115   6.598   5.778   1.615
 2739SOL    HW1 9116   6.661   5.749   1.687
 2739SOL    HW2 9117   6.650   5.811   1.537
 2740SOL     OW 9118   6.718   5.798   3.678
 2740SOL    HW1 9119   6.635   5.762   3.637
 2740SOL    HW2 9120   6.797   5.748   3.641
 2741SOL     OW 9121   1.220   1.214   5.711
 2741SOL    HW1 9122   1.120   1.221   5.709
 2741SOL    HW2 9123   1.258   1.269   5.637
 2742SOL     OW 9124   3.119   5.891   1.710
 2742SOL    HW1 9125   3.160   5.977   1.741
 2742SOL    HW2 9126   3.070   5.848   1.786
 2743SOL     OW 9127   5.748   3.273   2.532
 2743SOL    HW1 9128   5.682   3.321   2.474
 2743SOL    HW2 9129   5.815   3.227   2.475
 2744SOL     OW 9130   3.148   3.783   2.682
 2744SOL    HW1 9131   3.147   3.872   2.636
 2744SOL    HW2 9132   3.056   3.762   2.715
 2745SOL     OW 9133   0.642   6.499   0.444
 2745SOL    HW1 9134   0.702   6.561   0.394
 2745SOL    HW2 9135   0.642   6.409   0.400
 2746SOL     OW 9136   1.034   1.292   3.617
 2746SOL    HW1 9137   0.981   1.374   3.598
 2746SOL    HW2 9138   1.067   1.253   3.531
 2747SOL     OW 9139   3.837   5.242   0.846
 2747SOL    HW1 9140   3.899   5.226   0.769
 2747SOL    HW2 9141   3.789   5.328   0.834
 2748SOL     OW 9142   3.893   6.417   0.879
 2748SOL    HW1 9143   3.818   6.463   0.833
 2748SOL    HW2 9144   3.885   6.431   0.978
 2749SOL     OW 9145   3.608   2.894   0.175
 2749SOL    HW1 9146   3.591   2.876   0.272
 2749SOL    HW2 9147   3.523   2.920   0.130
 2750SOL     OW 9148   2.785   5.858   2.018
 2750SOL    HW1 9149   2.792   5.766   2.056
 2750SOL    HW2 9150   2.717   5.910   2.069
 2751SOL     OW 9151   6.061   4.074   1.058
 2751SOL    HW1 9152   6.152   4.087   1.020
 2751SOL    HW2 9153   5.995   4.065   0.984
 2752SOL     OW 9154   4.341   5.289   0.141
 2752SOL    HW1 9155   4.302   5.206   0.101
 2752SOL    HW2 9156   4.421   5.317   0.088
 2753SOL     OW 9157   6.353   5.908   5.454
 2753SOL    HW1 9158   6.306   5.908   5.542
 2753SOL    HW2 9159   6.313   5.838   5.394
 2754SOL     OW 9160   1.100   6.807   6.258
 2754SOL    HW1 9161   1.019   6.749   6.250
 2754SOL    HW2 9162   1.115   6.855   6.171
 2755SOL     OW 9163   2.793   0.302   2.605
 2755SOL    HW1 9164   2.887   0.274   2.622
 2755SOL    HW2 9165   2.782   0.399   2.630
 2756SOL     OW 9166   4.619   6.301   0.691
 2756SOL    HW1 9167   4.664   6.273   0.607
 2756SOL    HW2 9168   4.525   6.329   0.671
 2757SOL     OW 9169   0.428   5.482   1.381
 2757SOL    HW1 9170   0.505   5.422   1.400
 2757SOL    HW2 9171   0.423   5.553   1.452
 2758SOL     OW 9172   4.800   0.620   6.041
 2758SOL    HW1 9173   4.757   0.577   5.962
 2758SOL    HW2 9174   4.872   0.561   6.077
 2759SOL     OW 9175   5.205   5.562   4.356
 2759SOL    HW1 9176   5.265   5.556   4.436
 2759SOL    HW2 9177   5.146   5.482   4.353
 2760SOL     OW 9178   2.647   5.531   3.250
 2760SOL    HW1 9179   2.591   5.455   3.216
 2760SOL    HW2 9180   2.724   5.494   3.301
 2761SOL     OW 9181   2.102   5.867   3.085
 2761SOL    HW1 9182   2.165   5.824   3.150
 2761SOL    HW2 9183   2.114   5.966   3.088
 2762SOL     OW 9184   1.030   6.448   4.678
 2762SOL    HW1 9185   1.073   6.432   4.767
 2762SOL    HW2 9186   1.057   6.538   4.643
 2763SOL     OW 9187   5.509   1.880   1.887
 2763SOL    HW1 9188   5.519   1.839   1.796
 2763SOL    HW2 9189   5.458   1.966   1.879
 2764SOL     OW 9190   6.265   1.141   2.121
 2764SOL    HW1 9191   6.171   1.148   2.087
 2764SOL    HW2 9192   6.276   1.055   2.169
 2765SOL     OW 9193   5.748   1.588   1.632
 2765SOL    HW1 9194   5.807   1.520   1.587
 2765SOL    HW2 9195   5.804   1.657   1.677
 2766SOL     OW 9196   6.023   0.899   2.599
 2766SOL    HW1 9197   5.931   0.867   2.620
 2766SOL    HW2 9198   6.021   0.954   2.515
 2767SOL     OW 9199   5.492   4.728   6.247
 2767SOL    HW1 9200   5.495   4.716   6.346
 2767SOL    HW2 9201   5.568   4.679   6.205
 2768SOL     OW 9202   6.024   1.336   6.643
 2768SOL    HW1 9203   6.010   1.240   6.670
 2768SOL    HW2 9204   6.120   1.349   6.618
 2769SOL     OW 9205   1.007   3.877   1.314
 2769SOL    HW1 9206   1.009   3.896   1.412
 2769SOL    HW2 9207   1.028   3.961   1.263
 2770SOL     OW 9208   0.118   5.835   1.332
 2770SOL    HW1 9209   0.097   5.808   1.238
 2770SOL    HW2 9210   0.157   5.927   1.332
 2771SOL     OW 9211   5.085   1.055   1.675
 2771SOL    HW1 9212   5.021   1.074   1.602
 2771SOL    HW2 9213   5.152   0.987   1.644
 2772SOL     OW 9214   3.262   2.804   5.760
 2772SOL    HW1 9215   3.229   2.881   5.705
 2772SOL    HW2 9216   3.228   2.719   5.721
 2773SOL     OW 9217   3.691   3.666   6.527
 2773SOL    HW1 9218   3.702   3.687   6.430
 2773SOL    HW2 9219   3.682   3.751   6.579
 2774SOL     OW 9220   5.856   3.592   2.937
 2774SOL    HW1 9221   5.953   3.576   2.921
 2774SOL    HW2 9222   5.802   3.534   2.876
 2775SOL     OW 9223   0.359   6.149   1.730
 2775SOL    HW1 9224   0.306   6.075   1.771
 2775SOL    HW2 9225   0.313   6.182   1.648
 2776SOL     OW 9226   2.954   5.688   6.285
 2776SOL    HW1 9227   2.947   5.761   6.218
 2776SOL    HW2 9228   2.977   5.602   6.239
 2777SOL     OW 9229   3.401   1.272   2.723
 2777SOL    HW1 9230   3.396   1.183   2.768
 2777SOL    HW2 9231   3.479   1.273   2.661
 2778SOL     OW 9232   2.243   1.929   5.567
 2778SOL    HW1 9233   2.267   1.835   5.590
 2778SOL    HW2 9234   2.325   1.979   5.538
 2779SOL     OW 9235   5.994   1.082   6.729
 2779SOL    HW1 9236   5.999   1.008   6.797
 2779SOL    HW2 9237   5.970   1.044   6.640
 2780SOL     OW 9238   5.110   5.290   6.831
 2780SOL    HW1 9239   5.028   5.289   6.773
 2780SOL    HW2 9240   5.095   5.231   6.910
 2781SOL     OW 9241   5.197   4.636   0.583
 2781SOL    HW1 9242   5.122   4.606   0.641
 2781SOL    HW2 9243   5.204   4.576   0.503
 2782SOL     OW 9244   2.853   2.617   6.284
 2782SOL    HW1 9245   2.794   2.685   6.328
 2782SOL    HW2 9246   2.805   2.577   6.206
 2783SOL     OW 9247   0.417   4.853   5.350
 2783SOL    HW1 9248   0.489   4.818   5.410
 2783SOL    HW2 9249   0.390   4.781   5.285
 2784SOL     OW 9250   1.996   1.609   2.073
 2784SOL    HW1 9251   1.963   1.697   2.038
 2784SOL    HW2 9252   2.086   1.589   2.034
 2785SOL     OW 9253   6.258   1.006   1.323
 2785SOL    HW1 9254   6.358   1.010   1.325
 2785SOL    HW2 9255   6.223   0.998   1.416
 2786SOL     OW 9256   3.870   6.688   1.222
 2786SOL    HW1 9257   3.920   6.682   1.136
 2786SOL    HW2 9258   3.843   6.596   1.251
 2787SOL     OW 9259   2.653   2.568   6.117
 2787SOL    HW1 9260   2.571   2.589   6.064
 2787SOL    HW2 9261   2.661   2.469   6.129
 2788SOL     OW 9262   1.100   3.661   0.745
 2788SOL    HW1 9263   1.047   3.597   0.801
 2788SOL    HW2 9264   1.100   3.751   0.788
 2789SOL     OW 9265   0.545   2.175   4.194
 2789SOL    HW1 9266   0.598   2.231   4.130
 2789SOL    HW2 9267   0.563   2.206   4.288
 2790SOL     OW 9268   3.827   5.293   3.189
 2790SOL    HW1 9269   3.881   5.357   3.134
 2790SOL    HW2 9270   3.861   5.292   3.283
 2791SOL     OW 9271   1.650   2.985   4.135
 2791SOL    HW1 9272   1.555   2.960   4.120
 2791SOL    HW2 9273   1.656   3.083   4.157
 2792SOL     OW 9274   1.212   2.132   5.764
 2792SOL    HW1 9275   1.258   2.065   5.823
 2792SOL    HW2 9276   1.274   2.208   5.744
 2793SOL     OW 9277   4.894   1.187   3.230
 2793SOL    HW1 9278   4.803   1.147   3.244
 2793SOL    HW2 9279   4.929   1.221   3.317
 2794SOL     OW 9280   0.842   0.813   0.901
 2794SOL    HW1 9281   0.777   0.880   0.864
 2794SOL    HW2 9282   0.910   0.790   0.831
 2795SOL     OW 9283   2.721   4.264   1.553
 2795SOL    HW1 9284   2.711   4.300   1.460
 2795SOL    HW2 9285   2.641   4.290   1.607
 2796SOL     OW 9286   5.441   3.793   2.541
 2796SOL    HW1 9287   5.409   3.829   2.454
 2796SOL    HW2 9288   5.457   3.868   2.605
 2797SOL     OW 9289   4.505   4.575   4.873
 2797SOL    HW1 9290   4.439   4.580   4.947
 2797SOL    HW2 9291   4.546   4.483   4.871
 2798SOL     OW 9292   1.122   3.863   4.351
 2798SOL    HW1 9293   1.212   3.903   4.332
 2798SOL    HW2 9294   1.076   3.916   4.421
 2799SOL     OW 9295   6.290   4.829   5.811
 2799SOL    HW1 9296   6.304   4.863   5.904
 2799SOL    HW2 9297   6.210   4.769   5.809
 2800SOL     OW 9298   3.064   3.987   6.942
 2800SOL    HW1 9299   3.117   3.973   6.858
 2800SOL    HW2 9300   3.016   4.075   6.936
 2801SOL     OW 9301   5.292   5.577   2.211
 2801SOL    HW1 9302   5.214   5.568   2.273
 2801SOL    HW2 9303   5.272   5.648   2.143
 2802SOL     OW 9304   4.741   1.194   6.070
 2802SOL    HW1 9305   4.807   1.261   6.104
 2802SOL    HW2 9306   4.742   1.113   6.128
 2803SOL     OW 9307   2.819   6.269   6.501
 2803SOL    HW1 9308   2.883   6.287   6.427
 2803SOL    HW2 9309   2.752   6.343   6.507
 2804SOL     OW 9310   6.961   4.577   3.423
 2804SOL    HW1 9311   6.891   4.539   3.362
 2804SOL    HW2 9312   6.926   4.659   3.467
 2805SOL     OW 9313   5.580   3.595   6.783
 2805SOL    HW1 9314   5.584   3.495   6.783
 2805SOL    HW2 9315   5.486   3.624   6.796
 2806SOL     OW 9316   6.235   5.741   3.826
 2806SOL    HW1 9317   6.266   5.698   3.911
 2806SOL    HW2 9318   6.312   5.748   3.762
 2807SOL     OW 9319   4.656   5.302   3.370
 2807SOL    HW1 9320   4.735   5.359   3.346
 2807SOL    HW2 9321   4.684   5.233   3.437
 2808SOL     OW 9322   5.334   0.360   4.483
 2808SOL    HW1 9323   5.380   0.274   4.459
 2808SOL    HW2 9324   5.261   0.342   4.549
 2809SOL     OW 9325   5.370   2.822   0.485
 2809SOL    HW1 9326   5.461   2.791   0.514
 2809SOL    HW2 9327   5.320   2.745   0.445
 2810SOL     OW 9328   2.173   0.060   5.441
 2810SOL    HW1 9329   2.075   0.081   5.444
 2810SOL    HW2 9330   2.207   0.076   5.349
 2811SOL     OW 9331   0.008   1.126   3.724
 2811SOL    HW1 9332   0.019   1.196   3.653
 2811SOL    HW2 9333   0.089   1.068   3.726
 2812SOL     OW 9334   4.838   3.868   2.394
 2812SOL    HW1 9335   4.786   3.940   2.441
 2812SOL    HW2 9336   4.854   3.792   2.457
 2813SOL     OW 9337   5.854   1.184   6.447
 2813SOL    HW1 9338   5.822   1.252   6.381
 2813SOL    HW2 9339   5.911   1.228   6.516
 2814SOL     OW 9340   4.704   4.037   5.193
 2814SOL    HW1 9341   4.710   4.024   5.292
 2814SOL    HW2 9342   4.684   4.134   5.174
 2815SOL     OW 9343   0.048   0.720   4.845
 2815SOL    HW1 9344   7.014   0.639   4.862
 2815SOL    HW2 9345   0.045   0.781   4.924
 2816SOL     OW 9346   5.672   0.042   3.254
 2816SOL    HW1 9347   5.690   7.007   3.334
 2816SOL    HW2 9348   5.758   0.064   3.208
 2817SOL     OW 9349   0.948   2.106   1.732
 2817SOL    HW1 9350   0.941   2.184   1.670
 2817SOL    HW2 9351   0.912   2.024   1.686
 2818SOL     OW 9352   0.107   4.537   5.085
 2818SOL    HW1 9353   0.074   4.518   5.178
 2818SOL    HW2 9354   0.105   4.636   5.069
 2819SOL     OW 9355   6.861   3.024   0.938
 2819SOL    HW1 9356   6.959   3.016   0.923
 2819SOL    HW2 9357   6.842   3.099   1.001
 2820SOL     OW 9358   6.458   3.228   4.221
 2820SOL    HW1 9359   6.508   3.215   4.307
 2820SOL    HW2 9360   6.401   3.310   4.228
 2821SOL     OW 9361   1.168   4.113   4.533
 2821SOL    HW1 9362   1.144   4.110   4.436
 2821SOL    HW2 9363   1.262   4.146   4.543
 2822SOL     OW 9364   4.693   1.663   6.930
 2822SOL    HW1 9365   4.604   1.704   6.948
 2822SOL    HW2 9366   4.691   1.566   6.956
 2823SOL     OW 9367   1.595   6.689   3.360
 2823SOL    HW1 9368   1.613   6.751   3.284
 2823SOL    HW2 9369   1.607   6.595   3.330
 2824SOL     OW 9370   3.402   1.463   5.156
 2824SOL    HW1 9371   3.480   1.474   5.217
 2824SOL    HW2 9372   3.422   1.504   5.067
 2825SOL     OW 9373   6.485   5.603   1.095
 2825SOL    HW1 9374   6.566   5.593   1.153
 2825SOL    HW2 9375   6.480   5.696   1.060
 2826SOL     OW 9376   4.783   2.183   4.271
 2826SOL    HW1 9377   4.863   2.152   4.219
 2826SOL    HW2 9378   4.814   2.226   4.356
 2827SOL     OW 9379   5.716   0.552   5.566
 2827SOL    HW1 9380   5.660   0.506   5.636
 2827SOL    HW2 9381   5.656   0.603   5.505
 2828SOL     OW 9382   3.607   1.518   5.361
 2828SOL    HW1 9383   3.571   1.574   5.436
 2828SOL    HW2 9384   3.689   1.471   5.391
 2829SOL     OW 9385   2.277   6.643   6.530
 2829SOL    HW1 9386   2.316   6.665   6.619
 2829SOL    HW2 9387   2.350   6.629   6.463
 2830SOL     OW 9388   3.618   3.845   0.106
 2830SOL    HW1 9389   3.525   3.865   0.075
 2830SOL    HW2 9390   3.626   3.748   0.127
 2831SOL     OW 9391   5.787   6.206   4.592
 2831SOL    HW1 9392   5.851   6.168   4.659
 2831SOL    HW2 9393   5.702   6.154   4.593
 2832SOL     OW 9394   0.341   0.984   1.815
 2832SOL    HW1 9395   0.292   0.976   1.728
 2832SOL    HW2 9396   0.379   0.895   1.840
 2833SOL     OW 9397   6.077   2.832   2.255
 2833SOL    HW1 9398   6.044   2.900   2.320
 2833SOL    HW2 9399   6.036   2.848   2.165
 2834SOL     OW 9400   3.629   1.047   5.396
 2834SOL    HW1 9401   3.529   1.052   5.388
 2834SOL    HW2 9402   3.661   1.121   5.455
 2835SOL     OW 9403   0.094   6.269   2.628
 2835SOL    HW1 9404   0.016   6.314   2.672
 2835SOL    HW2 9405   0.103   6.302   2.534
 2836SOL     OW 9406   6.806   0.838   1.198
 2836SOL    HW1 9407   6.790   0.741   1.180
 2836SOL    HW2 9408   6.904   0.853   1.216
 2837SOL     OW 9409   5.381   3.830   3.753
 2837SOL    HW1 9410   5.394   3.731   3.762
 2837SOL    HW2 9411   5.326   3.849   3.672
 2838SOL     OW 9412   3.569   5.176   2.660
 2838SOL    HW1 9413   3.584   5.085   2.699
 2838SOL    HW2 9414   3.588   5.246   2.729
 2839SOL     OW 9415   5.428   2.091   1.413
 2839SOL    HW1 9416   5.334   2.079   1.445
 2839SOL    HW2 9417   5.490   2.094   1.491
 2840SOL     OW 9418   6.661   1.667   5.175
 2840SOL    HW1 9419   6.637   1.570   5.178
 2840SOL    HW2 9420   6.761   1.677   5.174
 2841SOL     OW 9421   0.820   6.624   1.320
 2841SOL    HW1 9422   0.769   6.693   1.371
 2841SOL    HW2 9423   0.829   6.541   1.375
 2842SOL     OW 9424   6.935   3.606   2.789
 2842SOL    HW1 9425   6.916   3.518   2.746
 2842SOL    HW2 9426   0.010   3.628   2.777
 2843SOL     OW 9427   4.369   1.203   4.712
 2843SOL    HW1 9428   4.356   1.115   4.665
 2843SOL    HW2 9429   4.383   1.275   4.645
 2844SOL     OW 9430   6.802   4.379   6.311
 2844SOL    HW1 9431   6.731   4.313   6.336
 2844SOL    HW2 9432   6.890   4.332   6.301
 2845SOL     OW 9433   0.430   4.672   5.700
 2845SOL    HW1 9434   0.377   4.591   5.673
 2845SOL    HW2 9435   0.398   4.704   5.789
 2846SOL     OW 9436   5.110   1.740   6.434
 2846SOL    HW1 9437   5.202   1.704   6.452
 2846SOL    HW2 9438   5.098   1.826   6.483
 2847SOL     OW 9439   5.733   4.468   4.425
 2847SOL    HW1 9440   5.823   4.491   4.388
 2847SOL    HW2 9441   5.662   4.521   4.379
 2848SOL     OW 9442   0.871   5.634   4.597
 2848SOL    HW1 9443   0.944   5.635   4.665
 2848SOL    HW2 9444   0.808   5.710   4.613
 2849SOL     OW 9445   2.941   2.292   1.279
 2849SOL    HW1 9446   3.023   2.314   1.332
 2849SOL    HW2 9447   2.962   2.219   1.214
 2850SOL     OW 9448   3.484   0.860   0.153
 2850SOL    HW1 9449   3.472   0.800   0.233
 2850SOL    HW2 9450   3.580   0.861   0.127
 2851SOL     OW 9451   1.267   4.290   6.118
 2851SOL    HW1 9452   1.288   4.246   6.205
 2851SOL    HW2 9453   1.177   4.261   6.087
 2852SOL     OW 9454   0.108   3.198   6.743
 2852SOL    HW1 9455   0.148   3.216   6.652
 2852SOL    HW2 9456   0.125   3.277   6.802
 2853SOL     OW 9457   3.655   3.766   0.867
 2853SOL    HW1 9458   3.586   3.694   0.876
 2853SOL    HW2 9459   3.618   3.852   0.904
 2854SOL     OW 9460   2.238   1.410   3.654
 2854SOL    HW1 9461   2.168   1.370   3.595
 2854SOL    HW2 9462   2.327   1.404   3.609
 2855SOL     OW 9463   2.656   1.057   4.770
 2855SOL    HW1 9464   2.623   1.146   4.802
 2855SOL    HW2 9465   2.688   1.003   4.848
 2856SOL     OW 9466   2.269   2.794   5.212
 2856SOL    HW1 9467   2.288   2.860   5.139
 2856SOL    HW2 9468   2.328   2.815   5.291
 2857SOL     OW 9469   3.112   3.453   1.900
 2857SOL    HW1 9470   3.128   3.371   1.955
 2857SOL    HW2 9471   3.131   3.431   1.804
 2858SOL     OW 9472   0.177   3.654   2.769
 2858SOL    HW1 9473   0.272   3.683   2.776
 2858SOL    HW2 9474   0.173   3.554   2.763
 2859SOL     OW 9475   5.817   0.143   0.583
 2859SOL    HW1 9476   5.729   0.141   0.536
 2859SOL    HW2 9477   5.887   0.103   0.523
 2860SOL     OW 9478   3.975   1.520   2.180
 2860SOL    HW1 9479   3.888   1.491   2.138
 2860SOL    HW2 9480   4.023   1.440   2.215
 2861SOL     OW 9481   3.714   5.627   5.993
 2861SOL    HW1 9482   3.632   5.570   6.002
 2861SOL    HW2 9483   3.794   5.577   6.025
 2862SOL     OW 9484   5.838   1.427   4.200
 2862SOL    HW1 9485   5.784   1.496   4.246
 2862SOL    HW2 9486   5.814   1.425   4.103
 2863SOL     OW 9487   6.847   2.136   6.791
 2863SOL    HW1 9488   6.935   2.099   6.762
 2863SOL    HW2 9489   6.817   2.206   6.726
 2864SOL     OW 9490   3.577   1.490   0.162
 2864SOL    HW1 9491   3.554   1.433   0.241
 2864SOL    HW2 9492   3.632   1.569   0.192
 2865SOL     OW 9493   4.639   4.290   5.114
 2865SOL    HW1 9494   4.729   4.333   5.115
 2865SOL    HW2 9495   4.596   4.306   5.025
 2866SOL     OW 9496   0.345   6.575   6.560
 2866SOL    HW1 9497   0.414   6.503   6.554
 2866SOL    HW2 9498   0.269   6.554   6.498
 2867SOL     OW 9499   6.739   4.125   4.022
 2867SOL    HW1 9500   6.718   4.047   3.963
 2867SOL    HW2 9501   6.833   4.156   4.004
 2868SOL     OW 9502   1.731   3.958   5.456
 2868SOL    HW1 9503   1.782   4.022   5.399
 2868SOL    HW2 9504   1.642   3.939   5.413
 2869SOL     OW 9505   6.024   1.058   2.352
 2869SOL    HW1 9506   6.110   1.017   2.323
 2869SOL    HW2 9507   6.041   1.151   2.383
 2870SOL     OW 9508   5.668   2.380   2.608
 2870SOL    HW1 9509   5.712   2.296   2.640
 2870SOL    HW2 9510   5.715   2.413   2.526
 2871SOL     OW 9511   1.512   1.941   6.443
 2871SOL    HW1 9512   1.480   1.943   6.538
 2871SOL    HW2 9513   1.447   1.992   6.385
 2872SOL     OW 9514   2.504   0.173   3.687
 2872SOL    HW1 9515   2.493   0.074   3.676
 2872SOL    HW2 9516   2.418   0.219   3.665
 2873SOL     OW 9517   0.642   5.311   1.449
 2873SOL    HW1 9518   0.612   5.336   1.541
 2873SOL    HW2 9519   0.657   5.212   1.446
 2874SOL     OW 9520   5.949   2.375   2.867
 2874SOL    HW1 9521   5.960   2.388   2.769
 2874SOL    HW2 9522   5.881   2.439   2.902
 2875SOL     OW 9523   3.220   4.831   6.608
 2875SOL    HW1 9524   3.276   4.912   6.591
 2875SOL    HW2 9525   3.170   4.842   6.693
 2876SOL     OW 9526   6.975   1.089   1.532
 2876SOL    HW1 9527   6.905   1.020   1.545
 2876SOL    HW2 9528   6.962   1.135   1.445
 2877SOL     OW 9529   2.856   2.707   5.676
 2877SOL    HW1 9530   2.937   2.654   5.650
 2877SOL    HW2 9531   2.858   2.725   5.774
 2878SOL     OW 9532   2.660   4.701   5.933
 2878SOL    HW1 9533   2.670   4.607   5.902
 2878SOL    HW2 9534   2.744   4.731   5.976
 2879SOL     OW 9535   5.430   4.269   0.589
 2879SOL    HW1 9536   5.469   4.177   0.579
 2879SOL    HW2 9537   5.407   4.285   0.685
 2880SOL     OW 9538   1.459   6.370   1.274
 2880SOL    HW1 9539   1.493   6.278   1.255
 2880SOL    HW2 9540   1.419   6.373   1.365
 2881SOL     OW 9541   6.887   6.547   0.936
 2881SOL    HW1 9542   6.982   6.577   0.936
 2881SOL    HW2 9543   6.852   6.545   0.842
 2882SOL     OW 9544   0.100   3.107   3.456
 2882SOL    HW1 9545   0.183   3.055   3.437
 2882SOL    HW2 9546   0.025   3.044   3.478
 2883SOL     OW 9547   3.798   6.856   2.129
 2883SOL    HW1 9548   3.829   6.816   2.215
 2883SOL    HW2 9549   3.820   6.794   2.053
 2884SOL     OW 9550   1.021   6.122   3.002
 2884SOL    HW1 9551   1.053   6.070   2.923
 2884SOL    HW2 9552   1.097   6.172   3.042
 2885SOL     OW 9553   0.782   2.783   3.388
 2885SOL    HW1 9554   0.794   2.732   3.473
 2885SOL    HW2 9555   0.869   2.824   3.360
 2886SOL     OW 9556   2.567   2.281   6.247
 2886SOL    HW1 9557   2.540   2.258   6.341
 2886SOL    HW2 9558   2.665   2.264   6.236
 2887SOL     OW 9559   1.535   0.701   5.033
 2887SOL    HW1 9560   1.534   0.783   4.975
 2887SOL    HW2 9561   1.484   0.628   4.988
 2888SOL     OW 9562   6.168   4.943   6.655
 2888SOL    HW1 9563   6.243   4.994   6.696
 2888SOL    HW2 9564   6.121   4.889   6.725
 2889SOL     OW 9565   0.372   0.121   1.687
 2889SOL    HW1 9566   0.428   0.188   1.638
 2889SOL    HW2 9567   0.281   0.118   1.647
 2890SOL     OW 9568   4.202   0.220   1.678
 2890SOL    HW1 9569   4.287   0.204   1.730
 2890SOL    HW2 9570   4.157   0.132   1.662
 2891SOL     OW 9571   2.721   4.689   3.972
 2891SOL    HW1 9572   2.777   4.648   4.044
 2891SOL    HW2 9573   2.643   4.630   3.952
 2892SOL     OW 9574   4.700   3.843   6.073
 2892SOL    HW1 9575   4.684   3.773   6.142
 2892SOL    HW2 9576   4.619   3.903   6.067
 2893SOL     OW 9577   2.581   0.187   5.245
 2893SOL    HW1 9578   2.680   0.196   5.229
 2893SOL    HW2 9579   2.532   0.253   5.188
 2894SOL     OW 9580   4.073   3.142   0.149
 2894SOL    HW1 9581   4.079   3.044   0.128
 2894SOL    HW2 9582   4.043   3.154   0.244
 2895SOL     OW 9583   3.746   3.577   6.219
 2895SOL    HW1 9584   3.792   3.554   6.133
 2895SOL    HW2 9585   3.672   3.511   6.235
 2896SOL     OW 9586   2.906   4.848   0.897
 2896SOL    HW1 9587   2.963   4.835   0.978
 2896SOL    HW2 9588   2.948   4.803   0.819
 2897SOL     OW 9589   1.990   5.951   4.133
 2897SOL    HW1 9590   1.942   6.032   4.168
 2897SOL    HW2 9591   2.064   5.979   4.072
 2898SOL     OW 9592   3.451   5.300   2.025
 2898SOL    HW1 9593   3.374   5.246   1.991
 2898SOL    HW2 9594   3.418   5.369   2.089
 2899SOL     OW 9595   6.932   6.768   0.340
 2899SOL    HW1 9596   6.904   6.677   0.370
 2899SOL    HW2 9597   6.854   6.831   0.343
 2900SOL     OW 9598   1.782   5.493   5.618
 2900SOL    HW1 9599   1.787   5.591   5.636
 2900SOL    HW2 9600   1.713   5.452   5.677
 2901SOL     OW 9601   2.744   0.921   1.770
 2901SOL    HW1 9602   2.771   0.826   1.786
 2901SOL    HW2 9603   2.644   0.927   1.769
 2902SOL     OW 9604   5.684   6.035   0.911
 2902SOL    HW1 9605   5.708   5.938   0.911
 2902SOL    HW2 9606   5.734   6.083   0.839
 2903SOL     OW 9607   1.976   1.519   1.730
 2903SOL    HW1 9608   2.068   1.552   1.747
 2903SOL    HW2 9609   1.918   1.594   1.697
 2904SOL     OW 9610   2.088   2.641   4.951
 2904SOL    HW1 9611   2.163   2.706   4.961
 2904SOL    HW2 9612   2.073   2.593   5.038
 2905SOL     OW 9613   2.173   2.377   2.000
 2905SOL    HW1 9614   2.240   2.425   1.944
 2905SOL    HW2 9615   2.081   2.393   1.964
 2906SOL     OW 9616   5.969   5.295   2.351
 2906SOL    HW1 9617   6.023   5.370   2.388
 2906SOL    HW2 9618   5.877   5.328   2.328
 2907SOL     OW 9619   6.408   1.343   3.918
 2907SOL    HW1 9620   6.449   1.256   3.890
 2907SOL    HW2 9621   6.373   1.335   4.011
 2908SOL     OW 9622   3.717   5.987   4.456
 2908SOL    HW1 9623   3.671   5.899   4.443
 2908SOL    HW2 9624   3.743   5.996   4.552
 2909SOL     OW 9625   1.237   5.728   4.641
 2909SOL    HW1 9626   1.335   5.708   4.631
 2909SOL    HW2 9627   1.219   5.820   4.607
 2910SOL     OW 9628   4.937   6.154   6.486
 2910SOL    HW1 9629   4.851   6.110   6.512
 2910SOL    HW2 9630   5.010   6.121   6.546
 2911SOL     OW 9631   1.868   4.240   3.087
 2911SOL    HW1 9632   1.910   4.276   3.170
 2911SOL    HW2 9633   1.846   4.143   3.099
 2912SOL     OW 9634   2.304   6.349   0.614
 2912SOL    HW1 9635   2.401   6.358   0.594
 2912SOL    HW2 9636   2.256   6.432   0.584
 2913SOL     OW 9637   1.479   3.828   3.033
 2913SOL    HW1 9638   1.511   3.760   3.098
 2913SOL    HW2 9639   1.557   3.869   2.986
 2914SOL     OW 9640   5.629   5.584   5.880
 2914SOL    HW1 9641   5.623   5.618   5.974
 2914SOL    HW2 9642   5.555   5.623   5.826
 2915SOL     OW 9643   4.610   1.464   3.725
 2915SOL    HW1 9644   4.598   1.534   3.655
 2915SOL    HW2 9645   4.650   1.382   3.684
 2916SOL     OW 9646   5.144   5.768   5.034
 2916SOL    HW1 9647   5.100   5.815   4.957
 2916SOL    HW2 9648   5.237   5.802   5.046
 2917SOL     OW 9649   4.599   0.399   2.280
 2917SOL    HW1 9650   4.537   0.359   2.213
 2917SOL    HW2 9651   4.616   0.495   2.257
 2918SOL     OW 9652   0.095   3.777   3.751
 2918SOL    HW1 9653   0.096   3.679   3.771
 2918SOL    HW2 9654   0.127   3.792   3.658
 2919SOL     OW 9655   6.211   5.576   0.305
 2919SOL    HW1 9656   6.262   5.540   0.226
 2919SOL    HW2 9657   6.118   5.598   0.276
 2920SOL     OW 9658   4.218   2.296   3.285
 2920SOL    HW1 9659   4.210   2.251   3.196
 2920SOL    HW2 9660   4.130   2.291   3.332
 2921SOL     OW 9661   0.016   0.389   1.780
 2921SOL    HW1 9662   0.099   0.361   1.828
 2921SOL    HW2 9663   6.973   0.312   1.778
 2922SOL     OW 9664   4.254   6.717   5.645
 2922SOL    HW1 9665   4.184   6.675   5.587
 2922SOL    HW2 9666   4.285   6.802   5.603
 2923SOL     OW 9667   6.284   4.807   2.008
 2923SOL    HW1 9668   6.195   4.798   2.053
 2923SOL    HW2 9669   6.276   4.780   1.912
 2924SOL     OW 9670   0.073   1.340   4.929
 2924SOL    HW1 9671   0.124   1.390   4.859
 2924SOL    HW2 9672   0.046   1.403   5.001
 2925SOL     OW 9673   5.373   3.505   1.575
 2925SOL    HW1 9674   5.436   3.550   1.638
 2925SOL    HW2 9675   5.280   3.511   1.610
 2926SOL     OW 9676   0.437   1.277   4.610
 2926SOL    HW1 9677   0.365   1.217   4.644
 2926SOL    HW2 9678   0.511   1.221   4.571
 2927SOL     OW 9679   0.680   2.462   2.113
 2927SOL    HW1 9680   0.779   2.464   2.096
 2927SOL    HW2 9681   0.642   2.553   2.098
 2928SOL     OW 9682   6.037   6.746   0.542
 2928SOL    HW1 9683   6.125   6.706   0.517
 2928SOL    HW2 9684   6.011   6.815   0.475
 2929SOL     OW 9685   0.625   6.802   5.802
 2929SOL    HW1 9686   0.565   6.757   5.868
 2929SOL    HW2 9687   0.580   6.883   5.765
 2930SOL     OW 9688   3.570   6.668   4.592
 2930SOL    HW1 9689   3.551   6.618   4.507
 2930SOL    HW2 9690   3.607   6.605   4.660
 2931SOL     OW 9691   4.160   6.456   5.846
 2931SOL    HW1 9692   4.207   6.544   5.846
 2931SOL    HW2 9693   4.193   6.401   5.922
 2932SOL     OW 9694   1.468   4.255   1.384
 2932SOL    HW1 9695   1.531   4.277   1.459
 2932SOL    HW2 9696   1.434   4.339   1.343
 2933SOL     OW 9697   5.130   2.018   3.381
 2933SOL    HW1 9698   5.154   1.983   3.471
 2933SOL    HW2 9699   5.211   2.018   3.322
 2934SOL     OW 9700   2.637   0.894   0.265
 2934SOL    HW1 9701   2.548   0.931   0.237
 2934SOL    HW2 9702   2.689   0.868   0.185
 2935SOL     OW 9703   6.029   2.401   1.229
 2935SOL    HW1 9704   6.113   2.350   1.212
 2935SOL    HW2 9705   5.951   2.337   1.233
 2936SOL     OW 9706   4.666   5.717   0.313
 2936SOL    HW1 9707   4.685   5.626   0.352
 2936SOL    HW2 9708   4.725   5.785   0.356
 2937SOL     OW 9709   3.084   4.526   6.916
 2937SOL    HW1 9710   3.178   4.559   6.921
 2937SOL    HW2 9711   3.041   4.539   7.005
 2938SOL     OW 9712   4.489   5.322   5.218
 2938SOL    HW1 9713   4.416   5.255   5.234
 2938SOL    HW2 9714   4.531   5.347   5.305
 2939SOL     OW 9715   6.981   6.573   5.498
 2939SOL    HW1 9716   0.021   6.514   5.445
 2939SOL    HW2 9717   6.895   6.585   5.449
 2940SOL     OW 9718   5.125   6.674   4.953
 2940SOL    HW1 9719   5.073   6.588   4.957
 2940SOL    HW2 9720   5.096   6.727   4.874
 2941SOL     OW 9721   2.029   2.133   5.580
 2941SOL    HW1 9722   2.075   2.044   5.585
 2941SOL    HW2 9723   1.931   2.119   5.568
 2942SOL     OW 9724   3.030   6.619   3.046
 2942SOL    HW1 9725   2.934   6.646   3.041
 2942SOL    HW2 9726   3.088   6.698   3.026
 2943SOL     OW 9727   6.245   3.892   3.552
 2943SOL    HW1 9728   6.204   3.981   3.535
 2943SOL    HW2 9729   6.250   3.841   3.466
 2944SOL     OW 9730   4.355   5.789   5.881
 2944SOL    HW1 9731   4.293   5.729   5.931
 2944SOL    HW2 9732   4.427   5.734   5.838
 2945SOL     OW 9733   2.980   3.280   3.186
 2945SOL    HW1 9734   2.960   3.374   3.214
 2945SOL    HW2 9735   2.972   3.220   3.266
 2946SOL     OW 9736   6.963   6.049   6.536
 2946SOL    HW1 9737   6.879   5.994   6.531
 2946SOL    HW2 9738   6.972   6.088   6.627
 2947SOL     OW 9739   6.682   4.566   0.548
 2947SOL    HW1 9740   6.753   4.592   0.613
 2947SOL    HW2 9741   6.689   4.622   0.466
 2948SOL     OW 9742   5.898   4.226   4.734
 2948SOL    HW1 9743   5.840   4.306   4.721
 2948SOL    HW2 9744   5.907   4.177   4.647
 2949SOL     OW 9745   1.480   6.611   0.469
 2949SOL    HW1 9746   1.533   6.677   0.416
 2949SOL    HW2 9747   1.538   6.568   0.538
 2950SOL     OW 9748   5.139   3.446   4.004
 2950SOL    HW1 9749   5.224   3.457   4.055
 2950SOL    HW2 9750   5.120   3.529   3.951
 2951SOL     OW 9751   0.524   1.783   1.420
 2951SOL    HW1 9752   0.512   1.744   1.511
 2951SOL    HW2 9753   0.609   1.749   1.380
 2952SOL     OW 9754   1.919   4.282   2.312
 2952SOL    HW1 9755   1.941   4.268   2.408
 2952SOL    HW2 9756   1.913   4.194   2.266
 2953SOL     OW 9757   4.630   2.471   1.918
 2953SOL    HW1 9758   4.694   2.535   1.959
 2953SOL    HW2 9759   4.587   2.416   1.990
 2954SOL     OW 9760   6.444   6.452   2.366
 2954SOL    HW1 9761   6.465   6.431   2.270
 2954SOL    HW2 9762   6.439   6.367   2.418
 2955SOL     OW 9763   0.841   3.051   0.637
 2955SOL    HW1 9764   0.792   2.998   0.707
 2955SOL    HW2 9765   0.775   3.105   0.584
 2956SOL     OW 9766   6.998   5.343   2.763
 2956SOL    HW1 9767   0.050   5.363   2.698
 2956SOL    HW2 9768   0.013   5.288   2.839
 2957SOL     OW 9769   1.262   3.452   2.185
 2957SOL    HW1 9770   1.240   3.368   2.234
 2957SOL    HW2 9771   1.178   3.494   2.151
 2958SOL     OW 9772   1.788   4.450   5.863
 2958SOL    HW1 9773   1.849   4.462   5.786
 2958SOL    HW2 9774   1.831   4.485   5.946
 2959SOL     OW 9775   4.510   5.391   6.966
 2959SOL    HW1 9776   4.575   5.431   6.901
 2959SOL    HW2 9777   4.419   5.387   6.924
 2960SOL     OW 9778   1.607   1.868   0.261
 2960SOL    HW1 9779   1.547   1.946   0.273
 2960SOL    HW2 9780   1.614   1.817   0.347
 2961SOL     OW 9781   5.816   3.703   3.911
 2961SOL    HW1 9782   5.759   3.785   3.908
 2961SOL    HW2 9783   5.760   3.624   3.886
 2962SOL     OW 9784   4.762   0.951   3.105
 2962SOL    HW1 9785   4.725   0.966   3.197
 2962SOL    HW2 9786   4.861   0.962   3.107
 2963SOL     OW 9787   2.176   1.830   4.734
 2963SOL    HW1 9788   2.138   1.921   4.751
 2963SOL    HW2 9789   2.250   1.838   4.667
 2964SOL     OW 9790   3.424   6.030   0.493
 2964SOL    HW1 9791   3.350   5.964   0.478
 2964SOL    HW2 9792   3.385   6.122   0.503
 2965SOL     OW 9793   0.340   1.936   6.311
 2965SOL    HW1 9794   0.379   2.004   6.373
 2965SOL    HW2 9795   0.409   1.909   6.244
 2966SOL     OW 9796   4.596   4.431   3.991
 2966SOL    HW1 9797   4.659   4.444   4.067
 2966SOL    HW2 9798   4.509   4.475   4.012
 2967SOL     OW 9799   6.167   2.722   4.089
 2967SOL    HW1 9800   6.216   2.809   4.095
 2967SOL    HW2 9801   6.079   2.731   4.136
 2968SOL     OW 9802   0.603   4.136   3.721
 2968SOL    HW1 9803   0.520   4.143   3.778
 2968SOL    HW2 9804   0.591   4.061   3.655
 2969SOL     OW 9805   4.715   1.713   4.779
 2969SOL    HW1 9806   4.787   1.744   4.716
 2969SOL    HW2 9807   4.694   1.617   4.761
 2970SOL     OW 9808   0.700   4.129   6.222
 2970SOL    HW1 9809   0.789   4.133   6.269
 2970SOL    HW2 9810   0.690   4.040   6.178
 2971SOL     OW 9811   4.980   2.129   2.621
 2971SOL    HW1 9812   4.983   2.211   2.565
 2971SOL    HW2 9813   5.061   2.125   2.680
 2972SOL     OW 9814   6.708   3.595   5.226
 2972SOL    HW1 9815   6.635   3.593   5.158
 2972SOL    HW2 9816   6.684   3.536   5.303
 2973SOL     OW 9817   5.145   6.314   3.646
 2973SOL    HW1 9818   5.104   6.336   3.558
 2973SOL    HW2 9819   5.111   6.225   3.677
 2974SOL     OW 9820   0.053   4.084   2.613
 2974SOL    HW1 9821   0.011   4.004   2.654
 2974SOL    HW2 9822   7.004   4.148   2.583
 2975SOL     OW 9823   6.955   0.955   5.367
 2975SOL    HW1 9824   0.026   0.927   5.391
 2975SOL    HW2 9825   6.890   0.890   5.406
 2976SOL     OW 9826   3.521   0.284   2.249
 2976SOL    HW1 9827   3.570   0.306   2.165
 2976SOL    HW2 9828   3.524   0.185   2.265
 2977SOL     OW 9829   3.179   6.262   4.037
 2977SOL    HW1 9830   3.217   6.193   3.975
 2977SOL    HW2 9831   3.111   6.317   3.988
 2978SOL     OW 9832   4.788   4.871   0.011
 2978SOL    HW1 9833   4.787   4.947   0.075
 2978SOL    HW2 9834   4.835   4.898   6.948
 2979SOL     OW 9835   3.937   0.395   3.107
 2979SOL    HW1 9836   3.972   0.314   3.154
 2979SOL    HW2 9837   4.007   0.432   3.046
 2980SOL     OW 9838   0.375   5.933   4.198
 2980SOL    HW1 9839   0.445   5.916   4.129
 2980SOL    HW2 9840   0.365   6.032   4.212
 2981SOL     OW 9841   2.245   0.957   5.568
 2981SOL    HW1 9842   2.146   0.953   5.555
 2981SOL    HW2 9843   2.270   0.913   5.654
 2982SOL     OW 9844   5.089   6.387   2.184
 2982SOL    HW1 9845   5.130   6.397   2.094
 2982SOL    HW2 9846   5.050   6.296   2.194
 2983SOL     OW 9847   6.541   0.928   3.560
 2983SOL    HW1 9848   6.557   0.830   3.568
 2983SOL    HW2 9849   6.620   0.979   3.595
 2984SOL     OW 9850   5.664   5.795   1.707
 2984SOL    HW1 9851   5.625   5.704   1.693
 2984SOL    HW2 9852   5.714   5.797   1.793
 2985SOL     OW 9853   6.088   2.340   3.101
 2985SOL    HW1 9854   6.033   2.350   3.018
 2985SOL    HW2 9855   6.182   2.320   3.077
 2986SOL     OW 9856   1.780   3.664   4.996
 2986SOL    HW1 9857   1.848   3.598   4.963
 2986SOL    HW2 9858   1.817   3.716   5.073
 2987SOL     OW 9859   4.249   2.258   4.626
 2987SOL    HW1 9860   4.209   2.283   4.538
 2987SOL    HW2 9861   4.306   2.333   4.659
 2988SOL     OW 9862   1.055   0.585   1.719
 2988SOL    HW1 9863   0.981   0.518   1.723
 2988SOL    HW2 9864   1.108   0.572   1.636
 2989SOL     OW 9865   6.896   5.025   1.344
 2989SOL    HW1 9866   6.819   5.070   1.390
 2989SOL    HW2 9867   6.864   4.943   1.298
 2990SOL     OW 9868   4.122   1.182   1.602
 2990SOL    HW1 9869   4.051   1.133   1.552
 2990SOL    HW2 9870   4.201   1.122   1.613
 2991SOL     OW 9871   6.710   3.624   0.462
 2991SOL    HW1 9872   6.756   3.568   0.393
 2991SOL    HW2 9873   6.695   3.715   0.425
 2992SOL     OW 9874   3.294   5.315   6.574
 2992SOL    HW1 9875   3.385   5.343   6.542
 2992SOL    HW2 9876   3.245   5.395   6.609
 2993SOL     OW 9877   1.525   5.468   1.423
 2993SOL    HW1 9878   1.536   5.437   1.518
 2993SOL    HW2 9879   1.432   5.503   1.410
 2994SOL     OW 9880   4.924   6.863   6.979
 2994SOL    HW1 9881   4.989   6.929   7.015
 2994SOL    HW2 9882   4.952   6.835   6.887
 2995SOL     OW 9883   1.845   1.226   6.237
 2995SOL    HW1 9884   1.817   1.150   6.295
 2995SOL    HW2 9885   1.943   1.241   6.246
 2996SOL     OW 9886   4.228   5.281   6.257
 2996SOL    HW1 9887   4.260   5.223   6.331
 2996SOL    HW2 9888   4.172   5.227   6.194
 2997SOL     OW 9889   5.774   6.665   0.460
 2997SOL    HW1 9890   5.816   6.618   0.382
 2997SOL    HW2 9891   5.844   6.682   0.530
 2998SOL     OW 9892   6.439   5.916   4.710
 2998SOL    HW1 9893   6.499   5.836   4.714
 2998SOL    HW2 9894   6.376   5.907   4.633
 2999SOL     OW 9895   3.103   0.137   3.396
 2999SOL    HW1 9896   3.125   0.069   3.326
 2999SOL    HW2 9897   3.187   0.176   3.433
 3000SOL     OW 9898   1.088   2.793   5.240
 3000SOL    HW1 9899   1.080   2.793   5.340
 3000SOL    HW2 9900   1.086   2.888   5.207
 3001SOL     OW 9901   5.072   0.140   5.673
 3001SOL    HW1 9902   4.992   0.087   5.642
 3001SOL    HW2 9903   5.095   0.113   5.766
 3002SOL     OW 9904   3.843   0.362   6.142
 3002SOL    HW1 9905   3.750   0.399   6.136
 3002SOL    HW2 9906   3.895   0.413   6.210
 3003SOL     OW 9907   2.603   6.545   6.157
 3003SOL    HW1 9908   2.537   6.549   6.081
 3003SOL    HW2 9909   2.696   6.542   6.121
 3004SOL     OW 9910   5.817   2.864   4.377
 3004SOL    HW1 9911   5.825   2.765   4.370
 3004SOL    HW2 9912   5.720   2.890   4.382
 3005SOL     OW 9913   4.312   2.737   1.209
 3005SOL    HW1 9914   4.212   2.741   1.215
 3005SOL    HW2 9915   4.341   2.643   1.196
 3006SOL     OW 9916   5.723   0.707   1.580
 3006SOL    HW1 9917   5.692   0.766   1.655
 3006SOL    HW2 9918   5.692   0.746   1.493
 3007SOL     OW 9919   5.910   5.079   3.198
 3007SOL    HW1 9920   5.851   5.159   3.188
 3007SOL    HW2 9921   5.866   5.013   3.261
 3008SOL     OW 9922   3.295   6.175   6.138
 3008SOL    HW1 9923   3.372   6.125   6.176
 3008SOL    HW2 9924   3.237   6.112   6.085
 3009SOL     OW 9925   1.379   0.227   2.991
 3009SOL    HW1 9926   1.393   0.321   3.024
 3009SOL    HW2 9927   1.282   0.203   3.003
 3010SOL     OW 9928   3.513   6.054   2.468
 3010SOL    HW1 9929   3.592   6.104   2.431
 3010SOL    HW2 9930   3.503   6.075   2.565
 3011SOL     OW 9931   5.456   0.109   0.127
 3011SOL    HW1 9932   5.529   0.043   0.108
 3011SOL    HW2 9933   5.478   0.196   0.083
 3012SOL     OW 9934   0.517   3.966   3.447
 3012SOL    HW1 9935   0.462   3.891   3.483
 3012SOL    HW2 9936   0.458   4.029   3.396
 3013SOL     OW 9937   6.220   5.044   2.573
 3013SOL    HW1 9938   6.121   5.050   2.561
 3013SOL    HW2 9939   6.240   4.974   2.642
 3014SOL     OW 9940   4.616   0.677   4.629
 3014SOL    HW1 9941   4.667   0.600   4.667
 3014SOL    HW2 9942   4.630   0.681   4.530
 3015SOL     OW 9943   3.221   2.038   0.538
 3015SOL    HW1 9944   3.313   1.999   0.536
 3015SOL    HW2 9945   3.172   2.013   0.455
 3016SOL     OW 9946   3.748   6.619   3.318
 3016SOL    HW1 9947   3.778   6.527   3.343
 3016SOL    HW2 9948   3.650   6.628   3.335
 3017SOL     OW 9949   0.308   6.098   1.117
 3017SOL    HW1 9950   0.326   6.090   1.215
 3017SOL    HW2 9951   0.352   6.021   1.069
 3018SOL     OW 9952   3.969   6.174   6.571
 3018SOL    HW1 9953   4.049   6.141   6.622
 3018SOL    HW2 9954   3.887   6.163   6.628
 3019SOL     OW 9955   3.948   6.967   1.243
 3019SOL    HW1 9956   3.920   6.872   1.258
 3019SOL    HW2 9957   3.870   0.006   1.257
 3020SOL     OW 9958   2.324   3.034   1.193
 3020SOL    HW1 9959   2.269   2.975   1.133
 3020SOL    HW2 9960   2.277   3.045   1.280
 3021SOL     OW 9961   2.214   1.976   6.816
 3021SOL    HW1 9962   2.201   2.066   6.774
 3021SOL    HW2 9963   2.229   1.908   6.744
 3022SOL     OW 9964   5.073   0.014   2.882
 3022SOL    HW1 9965   5.125   0.019   2.967
 3022SOL    HW2 9966   5.046   0.106   2.855
 3023SOL     OW 9967   5.049   6.119   2.247
 3023SOL    HW1 9968   5.036   6.066   2.163
 3023SOL    HW2 9969   4.968   6.109   2.305
 3024SOL     OW 9970   3.257   6.869   6.796
 3024SOL    HW1 9971   3.166   6.852   6.835
 3024SOL    HW2 9972   3.292   6.785   6.755
 3025SOL     OW 9973   2.364   2.557   1.401
 3025SOL    HW1 9974   2.419   2.494   1.456
 3025SOL    HW2 9975   2.408   2.571   1.312
 3026SOL     OW 9976   2.001   4.206   0.597
 3026SOL    HW1 9977   2.029   4.272   0.666
 3026SOL    HW2 9978   2.047   4.119   0.613
 3027SOL     OW 9979   1.462   1.952   3.403
 3027SOL    HW1 9980   1.550   1.937   3.358
 3027SOL    HW2 9981   1.396   1.989   3.336
 3028SOL     OW 9982   1.337   6.645   5.776
 3028SOL    HW1 9983   1.289   6.637   5.864
 3028SOL    HW2 9984   1.275   6.622   5.702
 3029SOL     OW 9985   5.418   5.829   5.123
 3029SOL    HW1 9986   5.407   5.863   5.217
 3029SOL    HW2 9987   5.512   5.800   5.109
 3030SOL     OW 9988   1.757   2.233   5.519
 3030SOL    HW1 9989   1.721   2.222   5.611
 3030SOL    HW2 9990   1.730   2.322   5.482
 3031SOL     OW 9991   0.347   4.764   6.303
 3031SOL    HW1 9992   0.306   4.792   6.390
 3031SOL    HW2 9993   0.277   4.727   6.243
 3032SOL     OW 9994   5.194   0.380   5.591
 3032SOL    HW1 9995   5.145   0.298   5.619
 3032SOL    HW2 9996   5.147   0.423   5.513
 3033SOL     OW 9997   6.196   3.655   6.597
 3033SOL    HW1 9998   6.202   3.734   6.658
 3033SOL    HW2 9999   6.285   3.612   6.589
 3034SOL     OW10000   2.886   6.673   4.825
 3034SOL    HW110001   2.941   6.591   4.810
 3034SOL    HW210002   2.808   6.673   4.763
 3035SOL     OW10003   5.665   1.017   0.082
 3035SOL    HW110004   5.709   1.097   0.122
 3035SOL    HW210005   5.734   0.948   0.060
 3036SOL     OW10006   0.977   4.358   0.045
 3036SOL    HW110007   0.894   4.372   7.012
 3036SOL    HW210008   1.054   4.337   7.006
 3037SOL     OW10009   6.673   6.912   5.037
 3037SOL    HW110010   6.621   6.978   4.982
 3037SOL    HW210011   6.684   6.827   4.985
 3038SOL     OW10012   5.255   6.719   6.003
 3038SOL    HW110013   5.253   6.819   6.004
 3038SOL    HW210014   5.192   6.683   6.072
 3039SOL     OW10015   1.254   4.570   1.181
 3039SOL    HW110016   1.181   4.614   1.130
 3039SOL    HW210017   1.282   4.629   1.257
 3040SOL     OW10018   2.768   3.109   6.952
 3040SOL    HW110019   2.793   3.021   6.911
 3040SOL    HW210020   2.802   3.112   0.025
 3041SOL     OW10021   2.213   2.079   6.144
 3041SOL    HW110022   2.116   2.088   6.170
 3041SOL    HW210023   2.221   2.086   6.045
 3042SOL     OW10024   4.516   0.462   1.926
 3042SOL    HW110025   4.481   0.538   1.872
 3042SOL    HW210026   4.611   0.444   1.900
 3043SOL     OW10027   0.544   5.459   0.662
 3043SOL    HW110028   0.612   5.532   0.659
 3043SOL    HW210029   0.501   5.449   0.572
 3044SOL     OW10030   3.418   4.514   6.249
 3044SOL    HW110031   3.475   4.450   6.300
 3044SOL    HW210032   3.384   4.469   6.166
 3045SOL     OW10033   5.499   2.439   2.945
 3045SOL    HW110034   5.485   2.470   2.851
 3045SOL    HW210035   5.488   2.340   2.949
 3046SOL     OW10036   1.969   2.753   6.014
 3046SOL    HW110037   2.040   2.749   5.944
 3046SOL    HW210038   2.006   2.796   6.097
 3047SOL     OW10039   6.398   5.268   2.609
 3047SOL    HW110040   6.396   5.272   2.709
 3047SOL    HW210041   6.360   5.180   2.579
 3048SOL     OW10042   3.144   2.947   1.631
 3048SOL    HW110043   3.243   2.944   1.616
 3048SOL    HW210044   3.119   2.881   1.702
 3049SOL     OW10045   0.438   0.515   2.242
 3049SOL    HW110046   0.451   0.614   2.241
 3049SOL    HW210047   0.348   0.493   2.281
 3050SOL     OW10048   4.478   5.931   3.997
 3050SOL    HW110049   4.449   6.014   3.948
 3050SOL    HW210050   4.576   5.917   3.982
 3051SOL     OW10051   2.542   4.738   6.884
 3051SOL    HW110052   2.590   4.698   6.806
 3051SOL    HW210053   2.453   4.771   6.855
 3052SOL     OW10054   4.441   6.906   3.102
 3052SOL    HW110055   4.502   6.981   3.128
 3052SOL    HW210056   4.491   6.820   3.107
 3053SOL     OW10057   5.685   6.662   0.074
 3053SOL    HW110058   5.662   6.584   0.015
 3053SOL    HW210059   5.768   6.640   0.125
 3054SOL     OW10060   1.070   3.193   6.813
 3054SOL    HW110061   1.098   3.156   6.901
 3054SOL    HW210062   1.129   3.158   6.741
 3055SOL     OW10063   5.792   6.336   3.366
 3055SOL    HW110064   5.717   6.397   3.341
 3055SOL    HW210065   5.851   6.381   3.434
 3056SOL     OW10066   6.787   0.701   0.919
 3056SOL    HW110067   6.798   0.793   0.882
 3056SOL    HW210068   6.803   0.702   1.018
 3057SOL     OW10069   6.079   5.285   2.835
 3057SOL    HW110070   6.017   5.310   2.760
 3057SOL    HW210071   6.041   5.315   2.922
 3058SOL     OW10072   6.480   5.319   1.735
 3058SOL    HW110073   6.566   5.269   1.747
 3058SOL    HW210074   6.421   5.304   1.813
 3059SOL     OW10075   1.945   2.173   4.544
 3059SOL    HW110076   1.899   2.131   4.466
 3059SOL    HW210077   1.898   2.147   4.628
 3060SOL     OW10078   6.803   6.405   1.295
 3060SOL    HW110079   6.712   6.419   1.334
 3060SOL    HW210080   6.843   6.494   1.272
 3061SOL     OW10081   0.304   0.385   6.337
 3061SOL    HW110082   0.303   0.361   6.434
 3061SOL    HW210083   0.388   0.350   6.295
 3062SOL     OW10084   3.285   6.397   0.431
 3062SOL    HW110085   3.371   6.351   0.408
 3062SOL    HW210086   3.252   6.363   0.519
 3063SOL     OW10087   1.960   4.684   1.183
 3063SOL    HW110088   1.945   4.779   1.154
 3063SOL    HW210089   1.979   4.683   1.281
 3064SOL     OW10090   6.265   4.240   3.711
 3064SOL    HW110091   6.300   4.186   3.788
 3064SOL    HW210092   6.188   4.193   3.669
 3065SOL     OW10093   1.625   1.146   0.026
 3065SOL    HW110094   1.587   1.071   6.995
 3065SOL    HW210095   1.560   1.174   0.097
 3066SOL     OW10096   6.052   4.681   1.574
 3066SOL    HW110097   6.023   4.771   1.540
 3066SOL    HW210098   5.977   4.639   1.625
 3067SOL     OW10099   5.125   7.011   4.302
 3067SOL    HW110100   5.147   6.914   4.299
 3067SOL    HW210101   5.147   0.025   4.393
 3068SOL     OW10102   5.988   4.694   0.857
 3068SOL    HW110103   6.052   4.770   0.843
 3068SOL    HW210104   6.039   4.611   0.878
 3069SOL     OW10105   0.589   6.004   2.415
 3069SOL    HW110106   0.580   6.047   2.504
 3069SOL    HW210107   0.593   6.074   2.344
 3070SOL     OW10108   3.711   1.155   3.788
 3070SOL    HW110109   3.809   1.175   3.789
 3070SOL    HW210110   3.693   1.081   3.723
 3071SOL     OW10111   5.279   6.937   3.414
 3071SOL    HW110112   5.310   7.017   3.465
 3071SOL    HW210113   5.254   6.965   3.321
 3072SOL     OW10114   0.499   0.119   2.394
 3072SOL    HW110115   0.467   0.199   2.444
 3072SOL    HW210116   0.470   0.036   2.441
 3073SOL     OW10117   1.174   3.696   5.230
 3073SOL    HW110118   1.246   3.629   5.211
 3073SOL    HW210119   1.129   3.721   5.144
 3074SOL     OW10120   4.492   2.874   6.182
 3074SOL    HW110121   4.552   2.813   6.129
 3074SOL    HW210122   4.418   2.821   6.222
 3075SOL     OW10123   1.702   5.944   1.367
 3075SOL    HW110124   1.716   5.918   1.463
 3075SOL    HW210125   1.718   5.865   1.308
 3076SOL     OW10126   6.634   0.435   4.886
 3076SOL    HW110127   6.678   0.459   4.973
 3076SOL    HW210128   6.703   0.414   4.817
 3077SOL     OW10129   4.749   5.048   3.873
 3077SOL    HW110130   4.773   5.136   3.914
 3077SOL    HW210131   4.827   5.014   3.821
 3078SOL     OW10132   1.560   3.945   1.835
 3078SOL    HW110133   1.626   3.872   1.850
 3078SOL    HW210134   1.552   3.963   1.737
 3079SOL     OW10135   6.957   1.922   5.176
 3079SOL    HW110136   7.011   2.005   5.162
 3079SOL    HW210137   7.018   1.846   5.201
 3080SOL     OW10138   6.429   4.688   0.659
 3080SOL    HW110139   6.507   4.651   0.607
 3080SOL    HW210140   6.434   4.788   0.658
 3081SOL     OW10141   0.205   5.252   5.308
 3081SOL    HW110142   0.140   5.223   5.379
 3081SOL    HW210143   0.155   5.299   5.235
 3082SOL     OW10144   2.990   6.927   2.648
 3082SOL    HW110145   2.935   6.906   2.567
 3082SOL    HW210146   3.086   6.932   2.623
 3083SOL     OW10147   3.269   0.177   1.970
 3083SOL    HW110148   3.196   0.139   1.911
 3083SOL    HW210149   3.257   0.143   2.063
 3084SOL     OW10150   5.133   5.933   4.635
 3084SOL    HW110151   5.214   5.892   4.593
 3084SOL    HW210152   5.063   5.863   4.647
 3085SOL     OW10153   0.780   5.596   2.406
 3085SOL    HW110154   0.684   5.581   2.431
 3085SOL    HW210155   0.802   5.693   2.413
 3086SOL     OW10156   4.289   0.994   3.690
 3086SOL    HW110157   4.302   1.092   3.675
 3086SOL    HW210158   4.300   0.945   3.604
 3087SOL     OW10159   6.705   3.914   3.017
 3087SOL    HW110160   6.675   3.939   3.109
 3087SOL    HW210161   6.714   3.814   3.012
 3088SOL     OW10162   2.843   4.900   6.204
 3088SOL    HW110163   2.855   4.938   6.112
 3088SOL    HW210164   2.746   4.903   6.229
 3089SOL     OW10165   1.806   2.798   0.467
 3089SOL    HW110166   1.770   2.880   0.423
 3089SOL    HW210167   1.891   2.770   0.421
 3090SOL     OW10168   1.266   1.780   1.321
 3090SOL    HW110169   1.225   1.804   1.409
 3090SOL    HW210170   1.348   1.836   1.307
 3091SOL     OW10171   3.070   6.807   0.523
 3091SOL    HW110172   3.121   6.731   0.564
 3091SOL    HW210173   3.134   6.869   0.478
 3092SOL     OW10174   5.760   6.836   1.119
 3092SOL    HW110175   5.802   6.892   1.048
 3092SOL    HW210176   5.684   6.886   1.161
 3093SOL     OW10177   5.088   5.421   4.892
 3093SOL    HW110178   5.068   5.354   4.964
 3093SOL    HW210179   5.187   5.431   4.881
 3094SOL     OW10180   2.780   5.858   6.089
 3094SOL    HW110181   2.763   5.760   6.099
 3094SOL    HW210182   2.780   5.882   5.992
 3095SOL     OW10183   2.961   4.907   4.904
 3095SOL    HW110184   2.931   4.822   4.949
 3095SOL    HW210185   3.061   4.910   4.904
 3096SOL     OW10186   0.654   0.881   5.904
 3096SOL    HW110187   0.685   0.818   5.833
 3096SOL    HW210188   0.732   0.931   5.940
 3097SOL     OW10189   1.429   3.083   6.996
 3097SOL    HW110190   1.332   3.079   7.018
 3097SOL    HW210191   1.468   3.168   0.010
 3098SOL     OW10192   2.837   2.308   0.595
 3098SOL    HW110193   2.856   2.362   0.513
 3098SOL    HW210194   2.743   2.273   0.590
 3099SOL     OW10195   0.517   5.675   5.664
 3099SOL    HW110196   0.593   5.611   5.662
 3099SOL    HW210197   0.503   5.713   5.572
 3100SOL     OW10198   0.144   6.883   6.661
 3100SOL    HW110199   0.139   6.976   6.696
 3100SOL    HW210200   0.232   6.842   6.686
 3101SOL     OW10201   4.437   0.049   0.404
 3101SOL    HW110202   4.456   0.022   0.499
 3101SOL    HW210203   4.522   0.072   0.358
 3102SOL     OW10204   1.870   4.294   1.249
 3102SOL    HW110205   1.808   4.263   1.177
 3102SOL    HW210206   1.959   4.316   1.210
 3103SOL     OW10207   3.962   2.937   1.867
 3103SOL    HW110208   3.953   2.857   1.808
 3103SOL    HW210209   4.058   2.960   1.877
 3104SOL     OW10210   6.275   5.839   4.474
 3104SOL    HW110211   6.199   5.899   4.450
 3104SOL    HW210212   6.359   5.872   4.430
 3105SOL     OW10213   5.876   6.244   4.324
 3105SOL    HW110214   5.939   6.322   4.323
 3105SOL    HW210215   5.841   6.229   4.416
 3106SOL     OW10216   6.898   2.449   3.619
 3106SOL    HW110217   6.934   2.530   3.665
 3106SOL    HW210218   6.966   2.376   3.621
 3107SOL     OW10219   2.901   0.548   3.982
 3107SOL    HW110220   2.960   0.484   3.932
 3107SOL    HW210221   2.818   0.566   3.929
 3108SOL     OW10222   2.939   1.184   3.239
 3108SOL    HW110223   2.915   1.117   3.169
 3108SOL    HW210224   2.988   1.260   3.197
 3109SOL     OW10225   4.477   5.521   2.884
 3109SOL    HW110226   4.525   5.490   2.966
 3109SOL    HW210227   4.535   5.508   2.804
 3110SOL     OW10228   1.090   2.816   2.580
 3110SOL    HW110229   1.090   2.718   2.559
 3110SOL    HW210230   1.095   2.868   2.495
 3111SOL     OW10231   6.969   5.286   3.723
 3111SOL    HW110232   6.990   5.350   3.650
 3111SOL    HW210233   0.028   5.274   3.781
 3112SOL     OW10234   4.515   4.344   6.263
 3112SOL    HW110235   4.550   4.256   6.232
 3112SOL    HW210236   4.583   4.387   6.323
 3113SOL     OW10237   2.831   6.721   3.668
 3113SOL    HW110238   2.739   6.746   3.698
 3113SOL    HW210239   2.828   6.689   3.573
 3114SOL     OW10240   6.561   5.189   0.703
 3114SOL    HW110241   6.470   5.218   0.673
 3114SOL    HW210242   6.553   5.106   0.759
 3115SOL     OW10243   2.915   3.731   1.080
 3115SOL    HW110244   3.002   3.682   1.080
 3115SOL    HW210245   2.866   3.713   1.165
 3116SOL     OW10246   6.588   2.384   0.427
 3116SOL    HW110247   6.608   2.287   0.418
 3116SOL    HW210248   6.614   2.416   0.518
 3117SOL     OW10249   3.923   3.295   5.366
 3117SOL    HW110250   3.863   3.218   5.386
 3117SOL    HW210251   3.897   3.373   5.422
 3118SOL     OW10252   6.501   3.803   1.103
 3118SOL    HW110253   6.417   3.844   1.139
 3118SOL    HW210254   6.485   3.707   1.082
 3119SOL     OW10255   1.991   4.073   5.596
 3119SOL    HW110256   2.041   3.989   5.576
 3119SOL    HW210257   2.045   4.132   5.656
 3120SOL     OW10258   2.930   5.450   4.968
 3120SOL    HW110259   2.999   5.514   5.002
 3120SOL    HW210260   2.942   5.438   4.870
 3121SOL     OW10261   6.306   0.291   2.287
 3121SOL    HW110262   6.368   0.326   2.357
 3121SOL    HW210263   6.350   0.216   2.238
 3122SOL     OW10264   3.195   5.377   0.030
 3122SOL    HW110265   3.165   5.439   6.980
 3122SOL    HW210266   3.142   5.293   0.027
 3123SOL     OW10267   3.241   6.365   3.573
 3123SOL    HW110268   3.231   6.266   3.563
 3123SOL    HW210269   3.338   6.389   3.570
 3124SOL     OW10270   4.050   0.921   5.632
 3124SOL    HW110271   4.073   0.887   5.541
 3124SOL    HW210272   4.012   1.013   5.625
 3125SOL     OW10273   0.083   1.758   5.924
 3125SOL    HW110274   0.123   1.679   5.876
 3125SOL    HW210275   0.001   1.788   5.875
 3126SOL     OW10276   4.839   6.355   0.207
 3126SOL    HW110277   4.927   6.381   0.245
 3126SOL    HW210278   4.782   6.437   0.194
 3127SOL     OW10279   0.737   1.710   4.144
 3127SOL    HW110280   0.695   1.787   4.193
 3127SOL    HW210281   0.667   1.641   4.125
 3128SOL     OW10282   1.814   1.406   1.335
 3128SOL    HW110283   1.869   1.323   1.345
 3128SOL    HW210284   1.751   1.413   1.412
 3129SOL     OW10285   0.431   3.320   5.087
 3129SOL    HW110286   0.486   3.265   5.149
 3129SOL    HW210287   0.366   3.261   5.038
 3130SOL     OW10288   1.897   5.125   2.440
 3130SOL    HW110289   1.871   5.172   2.525
 3130SOL    HW210290   1.910   5.193   2.367
 3131SOL     OW10291   7.008   3.742   3.160
 3131SOL    HW110292   7.008   3.821   3.099
 3131SOL    HW210293   0.056   3.677   3.131
 3132SOL     OW10294   5.843   5.788   5.716
 3132SOL    HW110295   5.890   5.873   5.692
 3132SOL    HW210296   5.762   5.808   5.771
 3133SOL     OW10297   2.813   1.898   3.048
 3133SOL    HW110298   2.862   1.984   3.062
 3133SOL    HW210299   2.873   1.831   3.004
 3134SOL     OW10300   4.923   3.113   2.220
 3134SOL    HW110301   4.900   3.083   2.312
 3134SOL    HW210302   4.865   3.066   2.154
 3135SOL     OW10303   3.335   1.872   3.058
 3135SOL    HW110304   3.331   1.920   3.146
 3135SOL    HW210305   3.400   1.797   3.064
 3136SOL     OW10306   5.715   6.128   5.577
 3136SOL    HW110307   5.763   6.103   5.661
 3136SOL    HW210308   5.757   6.081   5.499
 3137SOL     OW10309   5.446   2.079   3.772
 3137SOL    HW110310   5.426   2.143   3.845
 3137SOL    HW210311   5.461   2.129   3.686
 3138SOL     OW10312   5.567   1.240   4.992
 3138SOL    HW110313   5.620   1.200   5.067
 3138SOL    HW210314   5.628   1.294   4.934
 3139SOL     OW10315   5.133   5.982   5.515
 3139SOL    HW110316   5.092   6.053   5.572
 3139SOL    HW210317   5.228   6.005   5.494
 3140SOL     OW10318   6.514   6.021   6.713
 3140SOL    HW110319   6.477   5.950   6.772
 3140SOL    HW210320   6.451   6.099   6.711
 3141SOL     OW10321   1.198   5.343   0.113
 3141SOL    HW110322   1.103   5.360   0.085
 3141SOL    HW210323   1.212   5.379   0.205
 3142SOL     OW10324   4.382   6.399   6.545
 3142SOL    HW110325   4.401   6.379   6.641
 3142SOL    HW210326   4.303   6.345   6.515
 3143SOL     OW10327   6.364   1.387   0.899
 3143SOL    HW110328   6.422   1.399   0.980
 3143SOL    HW210329   6.329   1.294   0.896
 3144SOL     OW10330   2.053   2.999   6.568
 3144SOL    HW110331   2.016   2.989   6.660
 3144SOL    HW210332   1.992   3.057   6.514
 3145SOL     OW10333   3.305   5.977   3.164
 3145SOL    HW110334   3.236   5.905   3.171
 3145SOL    HW210335   3.392   5.944   3.202
 3146SOL     OW10336   1.320   0.263   3.323
 3146SOL    HW110337   1.303   0.165   3.315
 3146SOL    HW210338   1.240   0.308   3.362
 3147SOL     OW10339   4.777   4.030   0.334
 3147SOL    HW110340   4.770   4.050   0.431
 3147SOL    HW210341   4.858   3.973   0.317
 3148SOL     OW10342   3.079   5.307   4.482
 3148SOL    HW110343   3.138   5.266   4.551
 3148SOL    HW210344   3.133   5.326   4.400
 3149SOL     OW10345   3.482   6.827   5.924
 3149SOL    HW110346   3.464   6.750   5.984
 3149SOL    HW210347   3.559   6.880   5.960
 3150SOL     OW10348   5.511   6.921   4.912
 3150SOL    HW110349   5.468   7.002   4.872
 3150SOL    HW210350   5.517   6.932   5.011
 3151SOL     OW10351   4.399   1.394   5.906
 3151SOL    HW110352   4.448   1.308   5.916
 3151SOL    HW210353   4.304   1.382   5.934
 3152SOL     OW10354   1.799   5.907   0.776
 3152SOL    HW110355   1.748   5.973   0.832
 3152SOL    HW210356   1.770   5.917   0.680
 3153SOL     OW10357   0.160   4.390   2.233
 3153SOL    HW110358   0.075   4.356   2.273
 3153SOL    HW210359   0.197   4.463   2.292
 3154SOL     OW10360   6.152   2.437   6.128
 3154SOL    HW110361   6.244   2.416   6.094
 3154SOL    HW210362   6.099   2.353   6.136
 3155SOL     OW10363   5.503   5.642   0.811
 3155SOL    HW110364   5.527   5.604   0.721
 3155SOL    HW210365   5.480   5.567   0.874
 3156SOL     OW10366   3.425   3.705   3.739
 3156SOL    HW110367   3.388   3.768   3.806
 3156SOL    HW210368   3.416   3.744   3.647
 3157SOL     OW10369   2.047   3.649   4.568
 3157SOL    HW110370   2.058   3.567   4.623
 3157SOL    HW210371   2.053   3.730   4.627
 3158SOL     OW10372   4.959   6.410   0.581
 3158SOL    HW110373   4.995   6.319   0.561
 3158SOL    HW210374   4.891   6.435   0.512
 3159SOL     OW10375   5.099   4.915   0.663
 3159SOL    HW110376   5.155   4.839   0.631
 3159SOL    HW210377   5.017   4.880   0.706
 3160SOL     OW10378   5.579   3.924   6.891
 3160SOL    HW110379   5.569   3.960   6.984
 3160SOL    HW210380   5.652   3.856   6.890
 3161SOL     OW10381   0.934   2.101   3.003
 3161SOL    HW110382   1.028   2.127   2.982
 3161SOL    HW210383   0.874   2.130   2.929
 3162SOL     OW10384   0.387   6.257   6.353
 3162SOL    HW110385   0.310   6.232   6.412
 3162SOL    HW210386   0.352   6.300   6.270
 3163SOL     OW10387   2.795   3.707   5.999
 3163SOL    HW110388   2.747   3.794   6.005
 3163SOL    HW210389   2.889   3.723   5.968
 3164SOL     OW10390   5.538   5.515   6.871
 3164SOL    HW110391   5.508   5.545   6.961
 3164SOL    HW210392   5.537   5.593   6.808
 3165SOL     OW10393   6.835   1.856   1.639
 3165SOL    HW110394   6.889   1.786   1.593
 3165SOL    HW210395   6.887   1.893   1.716
 3166SOL     OW10396   5.195   2.883   6.153
 3166SOL    HW110397   5.277   2.910   6.203
 3166SOL    HW210398   5.114   2.924   6.197
 3167SOL     OW10399   1.372   4.774   2.174
 3167SOL    HW110400   1.322   4.701   2.128
 3167SOL    HW210401   1.364   4.859   2.122
 3168SOL     OW10402   5.705   3.455   1.263
 3168SOL    HW110403   5.623   3.514   1.265
 3168SOL    HW210404   5.781   3.506   1.221
 3169SOL     OW10405   1.552   2.119   5.695
 3169SOL    HW110406   1.505   2.037   5.660
 3169SOL    HW210407   1.493   2.199   5.682
 3170SOL     OW10408   4.280   0.892   6.489
 3170SOL    HW110409   4.191   0.896   6.443
 3170SOL    HW210410   4.287   0.968   6.554
 3171SOL     OW10411   5.970   6.685   3.244
 3171SOL    HW110412   5.978   6.749   3.167
 3171SOL    HW210413   5.928   6.732   3.322
 3172SOL     OW10414   6.058   0.461   5.231
 3172SOL    HW110415   6.139   0.425   5.186
 3172SOL    HW210416   5.976   0.439   5.177
 3173SOL     OW10417   2.124   0.847   1.494
 3173SOL    HW110418   2.093   0.835   1.399
 3173SOL    HW210419   2.214   0.891   1.494
 3174SOL     OW10420   2.095   3.052   6.102
 3174SOL    HW110421   2.068   2.974   6.159
 3174SOL    HW210422   2.183   3.088   6.135
 3175SOL     OW10423   0.745   6.772   0.335
 3175SOL    HW110424   0.717   6.851   0.390
 3175SOL    HW210425   0.677   6.755   0.264
 3176SOL     OW10426   0.530   5.006   6.899
 3176SOL    HW110427   0.607   5.070   6.888
 3176SOL    HW210428   0.523   4.980   6.995
 3177SOL     OW10429   6.165   6.837   5.918
 3177SOL    HW110430   6.162   6.935   5.897
 3177SOL    HW210431   6.197   6.786   5.838
 3178SOL     OW10432   1.307   3.144   1.571
 3178SOL    HW110433   1.353   3.061   1.603
 3178SOL    HW210434   1.276   3.197   1.650
 3179SOL     OW10435   2.067   1.660   2.988
 3179SOL    HW110436   1.998   1.592   2.964
 3179SOL    HW210437   2.141   1.658   2.920
 3180SOL     OW10438   6.156   0.649   6.238
 3180SOL    HW110439   6.155   0.749   6.248
 3180SOL    HW210440   6.070   0.611   6.272
 3181SOL     OW10441   0.440   1.349   2.987
 3181SOL    HW110442   0.529   1.304   2.986
 3181SOL    HW210443   0.439   1.423   2.920
 3182SOL     OW10444   1.619   4.582   5.456
 3182SOL    HW110445   1.702   4.596   5.402
 3182SOL    HW210446   1.550   4.535   5.401
 3183SOL     OW10447   3.803   3.542   1.734
 3183SOL    HW110448   3.898   3.572   1.740
 3183SOL    HW210449   3.758   3.555   1.823
 3184SOL     OW10450   2.355   1.351   2.436
 3184SOL    HW110451   2.374   1.261   2.396
 3184SOL    HW210452   2.269   1.347   2.487
 3185SOL     OW10453   6.993   6.490   5.773
 3185SOL    HW110454   0.010   6.560   5.834
 3185SOL    HW210455   6.954   6.535   5.692
 3186SOL     OW10456   3.070   0.618   1.923
 3186SOL    HW110457   3.046   0.700   1.871
 3186SOL    HW210458   3.169   0.611   1.932
 3187SOL     OW10459   3.177   4.259   0.108
 3187SOL    HW110460   3.078   4.256   0.089
 3187SOL    HW210461   3.227   4.231   0.026
 3188SOL     OW10462   4.073   6.441   3.457
 3188SOL    HW110463   3.982   6.437   3.414
 3188SOL    HW210464   4.136   6.384   3.405
 3189SOL     OW10465   1.643   6.783   2.022
 3189SOL    HW110466   1.569   6.774   2.088
 3189SOL    HW210467   1.629   6.719   1.946
 3190SOL     OW10468   0.534   6.402   2.066
 3190SOL    HW110469   0.537   6.317   2.119
 3190SOL    HW210470   0.556   6.479   2.126
 3191SOL     OW10471   3.738   0.903   1.001
 3191SOL    HW110472   3.674   0.826   0.999
 3191SOL    HW210473   3.724   0.959   0.919
 3192SOL     OW10474   0.084   3.167   3.113
 3192SOL    HW110475   0.104   3.224   3.193
 3192SOL    HW210476   0.069   3.073   3.142
 3193SOL     OW10477   4.388   3.957   6.533
 3193SOL    HW110478   4.383   3.859   6.550
 3193SOL    HW210479   4.314   3.984   6.472
 3194SOL     OW10480   0.391   3.487   5.760
 3194SOL    HW110481   0.330   3.507   5.683
 3194SOL    HW210482   0.365   3.399   5.800
 3195SOL     OW10483   0.649   3.625   3.547
 3195SOL    HW110484   0.556   3.656   3.569
 3195SOL    HW210485   0.683   3.566   3.620
 3196SOL     OW10486   0.128   0.001   5.728
 3196SOL    HW110487   0.064   7.012   5.653
 3196SOL    HW210488   0.148   0.098   5.742
 3197SOL     OW10489   1.133   4.178   4.249
 3197SOL    HW110490   1.157   4.130   4.164
 3197SOL    HW210491   1.160   4.274   4.241
 3198SOL     OW10492   7.017   1.190   0.121
 3198SOL    HW110493   0.053   1.203   0.041
 3198SOL    HW210494   6.940   1.131   0.097
 3199SOL     OW10495   3.907   1.749   2.430
 3199SOL    HW110496   3.956   1.666   2.456
 3199SOL    HW210497   3.948   1.828   2.475
 3200SOL     OW10498   6.844   2.241   1.320
 3200SOL    HW110499   6.920   2.273   1.376
 3200SOL    HW210500   6.793   2.171   1.369
 3201SOL     OW10501   4.962   4.348   3.011
 3201SOL    HW110502   4.929   4.367   2.919
 3201SOL    HW210503   5.033   4.414   3.035
 3202SOL     OW10504   2.328   5.530   1.404
 3202SOL    HW110505   2.260   5.554   1.335
 3202SOL    HW210506   2.282   5.515   1.492
 3203SOL     OW10507   6.300   0.341   1.796
 3203SOL    HW110508   6.246   0.423   1.815
 3203SOL    HW210509   6.319   0.335   1.698
 3204SOL     OW10510   6.209   5.482   1.955
 3204SOL    HW110511   6.267   5.561   1.939
 3204SOL    HW210512   6.255   5.399   1.921
 3205SOL     OW10513   1.178   4.044   3.353
 3205SOL    HW110514   1.268   4.052   3.309
 3205SOL    HW210515   1.145   3.950   3.345
 3206SOL     OW10516   1.178   7.015   0.051
 3206SOL    HW110517   1.263   0.029   0.092
 3206SOL    HW210518   1.127   6.964   0.119
 3207SOL     OW10519   0.184   0.826   3.926
 3207SOL    HW110520   0.120   0.861   3.994
 3207SOL    HW210521   0.244   0.758   3.968
 3208SOL     OW10522   6.050   6.956   5.026
 3208SOL    HW110523   5.974   6.969   5.090
 3208SOL    HW210524   6.031   7.006   4.942
 3209SOL     OW10525   2.113   0.565   3.173
 3209SOL    HW110526   2.148   0.570   3.266
 3209SOL    HW210527   2.013   0.564   3.174
 3210SOL     OW10528   0.121   4.766   2.701
 3210SOL    HW110529   0.068   4.846   2.728
 3210SOL    HW210530   0.062   4.702   2.652
 3211SOL     OW10531   1.448   4.060   2.173
 3211SOL    HW110532   1.440   3.961   2.184
 3211SOL    HW210533   1.436   4.105   2.261
 3212SOL     OW10534   4.886   2.522   5.932
 3212SOL    HW110535   4.794   2.513   5.969
 3212SOL    HW210536   4.882   2.540   5.834
 3213SOL     OW10537   5.699   6.137   1.595
 3213SOL    HW110538   5.780   6.100   1.550
 3213SOL    HW210539   5.723   6.166   1.688
 3214SOL     OW10540   3.995   4.998   6.381
 3214SOL    HW110541   3.956   5.002   6.473
 3214SOL    HW210542   4.084   5.043   6.380
 3215SOL     OW10543   6.287   1.121   0.053
 3215SOL    HW110544   6.318   1.030   0.079
 3215SOL    HW210545   6.318   1.142   6.982
 3216SOL     OW10546   5.670   6.760   4.579
 3216SOL    HW110547   5.595   6.744   4.516
 3216SOL    HW210548   5.690   6.676   4.630
 3217SOL     OW10549   0.030   3.615   1.450
 3217SOL    HW110550   0.130   3.608   1.457
 3217SOL    HW210551   7.011   3.596   1.539
 3218SOL     OW10552   2.883   0.681   2.368
 3218SOL    HW110553   2.855   0.652   2.276
 3218SOL    HW210554   2.930   0.769   2.362
 3219SOL     OW10555   6.704   0.134   4.009
 3219SOL    HW110556   6.619   0.107   3.965
 3219SOL    HW210557   6.685   0.203   4.078
 3220SOL     OW10558   6.066   3.083   5.285
 3220SOL    HW110559   5.990   3.111   5.343
 3220SOL    HW210560   6.041   3.094   5.189
 3221SOL     OW10561   3.916   0.137   2.728
 3221SOL    HW110562   3.894   0.042   2.706
 3221SOL    HW210563   3.860   0.198   2.672
 3222SOL     OW10564   5.775   3.484   3.186
 3222SOL    HW110565   5.809   3.525   3.101
 3222SOL    HW210566   5.692   3.432   3.167
 3223SOL     OW10567   2.315   4.907   5.202
 3223SOL    HW110568   2.361   4.933   5.287
 3223SOL    HW210569   2.310   4.807   5.197
 3224SOL     OW10570   4.400   5.871   0.238
 3224SOL    HW110571   4.481   5.822   0.205
 3224SOL    HW210572   4.386   5.848   0.334
 3225SOL     OW10573   2.490   2.608   1.168
 3225SOL    HW110574   2.507   2.704   1.149
 3225SOL    HW210575   2.540   2.552   1.102
 3226SOL     OW10576   0.629   0.565   4.221
 3226SOL    HW110577   0.647   0.506   4.142
 3226SOL    HW210578   0.545   0.535   4.267
 3227SOL     OW10579   2.714   0.810   5.439
 3227SOL    HW110580   2.771   0.869   5.496
 3227SOL    HW210581   2.702   0.852   5.349
 3228SOL     OW10582   4.882   3.119   4.832
 3228SOL    HW110583   4.932   3.171   4.902
 3228SOL    HW210584   4.790   3.098   4.866
 3229SOL     OW10585   3.786   2.132   4.896
 3229SOL    HW110586   3.772   2.033   4.893
 3229SOL    HW210587   3.879   2.154   4.865
 3230SOL     OW10588   0.783   0.748   3.522
 3230SOL    HW110589   0.857   0.766   3.458
 3230SOL    HW210590   0.752   0.834   3.563
 3231SOL     OW10591   6.002   5.204   0.871
 3231SOL    HW110592   5.943   5.150   0.812
 3231SOL    HW210593   6.028   5.149   0.951
 3232SOL     OW10594   2.111   4.921   3.583
 3232SOL    HW110595   2.117   4.916   3.483
 3232SOL    HW210596   2.032   4.976   3.609
 3233SOL     OW10597   1.124   4.124   1.216
 3233SOL    HW110598   1.185   4.129   1.136
 3233SOL    HW210599   1.158   4.184   1.288
 3234SOL     OW10600   6.842   1.489   4.360
 3234SOL    HW110601   6.894   1.536   4.290
 3234SOL    HW210602   6.813   1.554   4.430
 3235SOL     OW10603   5.628   0.569   3.166
 3235SOL    HW110604   5.654   0.630   3.241
 3235SOL    HW210605   5.606   0.479   3.203
 3236SOL     OW10606   0.495   2.805   2.362
 3236SOL    HW110607   0.594   2.813   2.373
 3236SOL    HW210608   0.472   2.711   2.335
 3237SOL     OW10609   3.312   6.550   4.359
 3237SOL    HW110610   3.218   6.552   4.326
 3237SOL    HW210611   3.353   6.461   4.337
 3238SOL     OW10612   6.417   6.894   6.821
 3238SOL    HW110613   6.466   6.808   6.810
 3238SOL    HW210614   6.461   6.949   6.891
 3239SOL     OW10615   0.419   6.658   5.927
 3239SOL    HW110616   0.466   6.583   5.880
 3239SOL    HW210617   0.438   6.652   6.025
 3240SOL     OW10618   0.452   0.903   4.836
 3240SOL    HW110619   0.547   0.874   4.850
 3240SOL    HW210620   0.450   0.985   4.778
 3241SOL     OW10621   4.801   1.146   5.126
 3241SOL    HW110622   4.876   1.185   5.073
 3241SOL    HW210623   4.720   1.137   5.067
 3242SOL     OW10624   3.236   6.283   0.654
 3242SOL    HW110625   3.201   6.194   0.682
 3242SOL    HW210626   3.176   6.355   0.689
 3243SOL     OW10627   3.053   5.695   0.556
 3243SOL    HW110628   3.149   5.666   0.555
 3243SOL    HW210629   3.016   5.689   0.463
 3244SOL     OW10630   2.450   6.105   5.975
 3244SOL    HW110631   2.448   6.016   6.021
 3244SOL    HW210632   2.495   6.172   6.035
 3245SOL     OW10633   3.321   1.969   5.933
 3245SOL    HW110634   3.382   1.898   5.967
 3245SOL    HW210635   3.310   2.039   6.003
 3246SOL     OW10636   5.103   6.558   3.799
 3246SOL    HW110637   5.185   6.614   3.787
 3246SOL    HW210638   5.104   6.483   3.732
 3247SOL     OW10639   0.243   1.637   4.324
 3247SOL    HW110640   0.303   1.711   4.353
 3247SOL    HW210641   0.239   1.567   4.396
 3248SOL     OW10642   6.202   4.115   2.128
 3248SOL    HW110643   6.232   4.196   2.078
 3248SOL    HW210644   6.103   4.105   2.120
 3249SOL     OW10645   2.818   4.276   5.308
 3249SOL    HW110646   2.833   4.363   5.261
 3249SOL    HW210647   2.722   4.251   5.302
 3250SOL     OW10648   4.065   5.986   1.774
 3250SOL    HW110649   4.068   5.888   1.788
 3250SOL    HW210650   4.087   6.033   1.859
 3251SOL     OW10651   3.027   1.239   3.497
 3251SOL    HW110652   2.975   1.209   3.417
 3251SOL    HW210653   3.106   1.293   3.467
 3252SOL     OW10654   3.071   2.157   3.320
 3252SOL    HW110655   3.064   2.125   3.225
 3252SOL    HW210656   2.980   2.183   3.353
 3253SOL     OW10657   4.485   3.612   0.907
 3253SOL    HW110658   4.503   3.564   0.822
 3253SOL    HW210659   4.391   3.646   0.907
 3254SOL     OW10660   5.328   4.725   2.434
 3254SOL    HW110661   5.417   4.687   2.457
 3254SOL    HW210662   5.295   4.683   2.349
 3255SOL     OW10663   4.384   4.743   0.582
 3255SOL    HW110664   4.482   4.748   0.567
 3255SOL    HW210665   4.348   4.658   0.543
 3256SOL     OW10666   6.410   6.537   6.002
 3256SOL    HW110667   6.396   6.500   5.910
 3256SOL    HW210668   6.322   6.547   6.048
 3257SOL     OW10669   2.596   1.999   0.962
 3257SOL    HW110670   2.505   1.977   0.996
 3257SOL    HW210671   2.644   1.914   0.940
 3258SOL     OW10672   5.555   6.576   1.707
 3258SOL    HW110673   5.568   6.640   1.631
 3258SOL    HW210674   5.512   6.492   1.673
 3259SOL     OW10675   5.736   6.577   3.126
 3259SOL    HW110676   5.828   6.595   3.160
 3259SOL    HW210677   5.670   6.592   3.200
 3260SOL     OW10678   1.493   3.196   0.293
 3260SOL    HW110679   1.398   3.170   0.311
 3260SOL    HW210680   1.497   3.256   0.214
 3261SOL     OW10681   4.590   0.393   3.425
 3261SOL    HW110682   4.525   0.468   3.421
 3261SOL    HW210683   4.550   0.316   3.474
 3262SOL     OW10684   3.530   1.392   3.677
 3262SOL    HW110685   3.578   1.314   3.718
 3262SOL    HW210686   3.550   1.475   3.729
 3263SOL     OW10687   3.350   5.412   2.240
 3263SOL    HW110688   3.356   5.359   2.325
 3263SOL    HW210689   3.323   5.506   2.261
 3264SOL     OW10690   4.865   4.736   6.178
 3264SOL    HW110691   4.885   4.639   6.192
 3264SOL    HW210692   4.850   4.781   6.266
 3265SOL     OW10693   4.680   0.835   6.321
 3265SOL    HW110694   4.654   0.850   6.225
 3265SOL    HW210695   4.646   0.746   6.352
 3266SOL     OW10696   0.501   1.467   6.366
 3266SOL    HW110697   0.465   1.487   6.275
 3266SOL    HW210698   0.535   1.373   6.368
 3267SOL     OW10699   4.710   2.465   1.172
 3267SOL    HW110700   4.769   2.545   1.158
 3267SOL    HW210701   4.741   2.390   1.114
 3268SOL     OW10702   1.196   4.446   6.515
 3268SOL    HW110703   1.139   4.526   6.496
 3268SOL    HW210704   1.140   4.364   6.511
 3269SOL     OW10705   5.100   3.465   0.407
 3269SOL    HW110706   5.120   3.429   0.316
 3269SOL    HW210707   5.062   3.557   0.399
 3270SOL     OW10708   0.369   5.797   4.480
 3270SOL    HW110709   0.406   5.705   4.495
 3270SOL    HW210710   0.401   5.832   4.392
 3271SOL     OW10711   5.813   1.704   1.115
 3271SOL    HW110712   5.822   1.785   1.057
 3271SOL    HW210713   5.889   1.701   1.179
 3272SOL     OW10714   5.135   6.754   0.347
 3272SOL    HW110715   5.146   6.690   0.423
 3272SOL    HW210716   5.196   6.728   0.272
 3273SOL     OW10717   0.104   6.973   2.833
 3273SOL    HW110718   0.068   0.003   2.910
 3273SOL    HW210719   0.172   6.907   2.866
 3274SOL     OW10720   3.606   1.733   6.819
 3274SOL    HW110721   3.515   1.773   6.832
 3274SOL    HW210722   3.596   1.634   6.804
 3275SOL     OW10723   3.859   0.653   0.024
 3275SOL    HW110724   3.828   0.649   6.951
 3275SOL    HW210725   3.956   0.630   0.029
 3276SOL     OW10726   2.712   6.557   0.128
 3276SOL    HW110727   2.659   6.535   0.046
 3276SOL    HW210728   2.770   6.479   0.152
 3277SOL     OW10729   0.151   6.298   5.822
 3277SOL    HW110730   0.238   6.274   5.779
 3277SOL    HW210731   0.110   6.375   5.774
 3278SOL     OW10732   1.681   1.296   0.653
 3278SOL    HW110733   1.656   1.341   0.567
 3278SOL    HW210734   1.708   1.365   0.720
 3279SOL     OW10735   1.895   6.824   1.036
 3279SOL    HW110736   1.970   6.878   0.999
 3279SOL    HW210737   1.883   6.846   1.133
 3280SOL     OW10738   1.952   5.488   4.934
 3280SOL    HW110739   1.907   5.542   5.005
 3280SOL    HW210740   1.883   5.456   4.868
 3281SOL     OW10741   2.587   6.133   0.305
 3281SOL    HW110742   2.508   6.074   0.323
 3281SOL    HW210743   2.566   6.196   0.230
 3282SOL     OW10744   2.122   5.865   2.429
 3282SOL    HW110745   2.047   5.891   2.368
 3282SOL    HW210746   2.084   5.823   2.512
 3283SOL     OW10747   2.029   0.205   3.867
 3283SOL    HW110748   1.948   0.245   3.824
 3283SOL    HW210749   2.099   0.276   3.877
 3284SOL     OW10750   0.472   4.085   5.863
 3284SOL    HW110751   0.523   4.155   5.912
 3284SOL    HW210752   0.437   4.123   5.777
 3285SOL     OW10753   6.924   2.250   4.757
 3285SOL    HW110754   6.936   2.167   4.703
 3285SOL    HW210755   6.881   2.321   4.700
 3286SOL     OW10756   3.794   4.944   5.616
 3286SOL    HW110757   3.709   4.953   5.564
 3286SOL    HW210758   3.771   4.928   5.713
 3287SOL     OW10759   0.471   5.047   1.690
 3287SOL    HW110760   0.378   5.068   1.660
 3287SOL    HW210761   0.491   5.098   1.774
 3288SOL     OW10762   1.665   6.481   6.940
 3288SOL    HW110763   1.602   6.508   7.013
 3288SOL    HW210764   1.629   6.512   6.852
 3289SOL     OW10765   1.264   5.435   4.456
 3289SOL    HW110766   1.254   5.526   4.496
 3289SOL    HW210767   1.355   5.426   4.415
 3290SOL     OW10768   6.867   5.758   2.233
 3290SOL    HW110769   6.896   5.688   2.297
 3290SOL    HW210770   6.792   5.723   2.176
 3291SOL     OW10771   2.244   0.155   1.948
 3291SOL    HW110772   2.268   0.233   2.006
 3291SOL    HW210773   2.301   0.076   1.972
 3292SOL     OW10774   0.734   5.524   5.629
 3292SOL    HW110775   0.754   5.438   5.675
 3292SOL    HW210776   0.802   5.542   5.559
 3293SOL     OW10777   6.302   0.330   3.102
 3293SOL    HW110778   6.244   0.341   3.022
 3293SOL    HW210779   6.323   0.233   3.115
 3294SOL     OW10780   0.940   0.292   6.937
 3294SOL    HW110781   0.888   0.364   6.893
 3294SOL    HW210782   0.910   0.203   6.903
 3295SOL     OW10783   1.412   2.332   6.321
 3295SOL    HW110784   1.382   2.426   6.334
 3295SOL    HW210785   1.472   2.326   6.241
 3296SOL     OW10786   0.850   6.572   1.958
 3296SOL    HW110787   0.889   6.636   1.890
 3296SOL    HW210788   0.877   6.601   2.049
 3297SOL     OW10789   3.114   1.831   5.804
 3297SOL    HW110790   3.117   1.882   5.719
 3297SOL    HW210791   3.184   1.866   5.867
 3298SOL     OW10792   5.909   3.481   3.420
 3298SOL    HW110793   5.838   3.517   3.360
 3298SOL    HW210794   5.993   3.468   3.368
 3299SOL     OW10795   0.672   0.805   4.960
 3299SOL    HW110796   0.743   0.826   4.893
 3299SOL    HW210797   0.673   0.707   4.980
 3300SOL     OW10798   6.585   0.078   4.568
 3300SOL    HW110799   6.598   0.152   4.502
 3300SOL    HW210800   6.491   0.079   4.602
 3301SOL     OW10801   0.576   3.950   3.183
 3301SOL    HW110802   0.578   3.962   3.282
 3301SOL    HW210803   0.662   3.908   3.153
 3302SOL     OW10804   0.897   5.013   4.274
 3302SOL    HW110805   0.977   4.987   4.220
 3302SOL    HW210806   0.922   5.020   4.370
 3303SOL     OW10807   3.108   3.981   3.807
 3303SOL    HW110808   3.043   3.906   3.793
 3303SOL    HW210809   3.201   3.943   3.814
 3304SOL     OW10810   1.122   0.026   3.264
 3304SOL    HW110811   1.061   7.017   3.338
 3304SOL    HW210812   1.068   0.045   3.182
 3305SOL     OW10813   1.186   1.395   1.611
 3305SOL    HW110814   1.171   1.419   1.515
 3305SOL    HW210815   1.104   1.353   1.648
 3306SOL     OW10816   0.943   3.290   2.664
 3306SOL    HW110817   0.923   3.194   2.641
 3306SOL    HW210818   0.862   3.330   2.708
 3307SOL     OW10819   0.839   6.399   0.754
 3307SOL    HW110820   0.837   6.455   0.837
 3307SOL    HW210821   0.747   6.365   0.735
 3308SOL     OW10822   5.425   6.425   0.944
 3308SOL    HW110823   5.329   6.420   0.918
 3308SOL    HW210824   5.447   6.350   1.006
 3309SOL     OW10825   1.495   5.554   2.256
 3309SOL    HW110826   1.418   5.523   2.312
 3309SOL    HW210827   1.478   5.648   2.227
 3310SOL     OW10828   1.321   6.995   2.017
 3310SOL    HW110829   1.372   6.953   1.941
 3310SOL    HW210830   1.270   0.052   1.982
 3311SOL     OW10831   3.576   6.268   1.231
 3311SOL    HW110832   3.608   6.175   1.249
 3311SOL    HW210833   3.655   6.329   1.222
 3312SOL     OW10834   2.146   3.502   6.692
 3312SOL    HW110835   2.169   3.441   6.768
 3312SOL    HW210836   2.079   3.457   6.633
 3313SOL     OW10837   6.518   5.976   5.109
 3313SOL    HW110838   6.613   5.982   5.078
 3313SOL    HW210839   6.513   5.915   5.189
 3314SOL     OW10840   0.611   3.487   6.648
 3314SOL    HW110841   0.537   3.554   6.655
 3314SOL    HW210842   0.573   3.395   6.650
 3315SOL     OW10843   6.724   3.634   3.016
 3315SOL    HW110844   6.798   3.620   2.949
 3315SOL    HW210845   6.743   3.580   3.098
 3316SOL     OW10846   4.685   0.971   0.692
 3316SOL    HW110847   4.629   0.893   0.662
 3316SOL    HW210848   4.706   1.029   0.614
 3317SOL     OW10849   4.826   2.548   1.735
 3317SOL    HW110850   4.737   2.510   1.762
 3317SOL    HW210851   4.899   2.485   1.763
 3318SOL     OW10852   2.215   5.248   5.161
 3318SOL    HW110853   2.254   5.173   5.108
 3318SOL    HW210854   2.144   5.213   5.222
 3319SOL     OW10855   0.013   6.425   6.163
 3319SOL    HW110856   7.016   6.357   6.234
 3319SOL    HW210857   0.013   6.516   6.203
 3320SOL     OW10858   0.500   1.710   5.597
 3320SOL    HW110859   0.424   1.671   5.649
 3320SOL    HW210860   0.515   1.655   5.515
 3321SOL     OW10861   3.363   3.378   4.143
 3321SOL    HW110862   3.336   3.288   4.109
 3321SOL    HW210863   3.442   3.411   4.092
 3322SOL     OW10864   4.832   2.393   0.930
 3322SOL    HW110865   4.810   2.296   0.941
 3322SOL    HW210866   4.931   2.404   0.931
 3323SOL     OW10867   2.602   4.816   0.104
 3323SOL    HW110868   2.553   4.903   0.111
 3323SOL    HW210869   2.614   4.792   0.008
 3324SOL     OW10870   0.237   3.138   1.073
 3324SOL    HW110871   0.184   3.117   0.991
 3324SOL    HW210872   0.228   3.063   1.139
 3325SOL     OW10873   1.933   3.149   0.460
 3325SOL    HW110874   2.017   3.108   0.426
 3325SOL    HW210875   1.856   3.114   0.406
 3326SOL     OW10876   6.416   0.822   2.036
 3326SOL    HW110877   6.372   0.827   1.946
 3326SOL    HW210878   6.347   0.816   2.107
 3327SOL     OW10879   3.347   6.700   1.996
 3327SOL    HW110880   3.343   6.601   2.009
 3327SOL    HW210881   3.262   6.732   1.955
 3328SOL     OW10882   4.808   0.576   3.364
 3328SOL    HW110883   4.718   0.533   3.358
 3328SOL    HW210884   4.860   0.533   3.438
 3329SOL     OW10885   5.738   0.734   5.803
 3329SOL    HW110886   5.827   0.776   5.823
 3329SOL    HW210887   5.746   0.677   5.721
 3330SOL     OW10888   6.407   5.541   3.329
 3330SOL    HW110889   6.345   5.483   3.381
 3330SOL    HW210890   6.483   5.571   3.388
 3331SOL     OW10891   1.833   3.359   2.834
 3331SOL    HW110892   1.812   3.433   2.770
 3331SOL    HW210893   1.904   3.301   2.796
 3332SOL     OW10894   3.497   4.704   0.892
 3332SOL    HW110895   3.539   4.702   0.802
 3332SOL    HW210896   3.560   4.745   0.958
 3333SOL     OW10897   2.523   3.157   1.632
 3333SOL    HW110898   2.591   3.225   1.606
 3333SOL    HW210899   2.569   3.076   1.667
 3334SOL     OW10900   2.349   1.811   1.811
 3334SOL    HW110901   2.392   1.734   1.857
 3334SOL    HW210902   2.410   1.890   1.812
 3335SOL     OW10903   3.516   4.110   5.286
 3335SOL    HW110904   3.438   4.065   5.241
 3335SOL    HW210905   3.579   4.040   5.319
 3336SOL     OW10906   4.705   5.531   4.563
 3336SOL    HW110907   4.614   5.490   4.559
 3336SOL    HW210908   4.749   5.505   4.648
 3337SOL     OW10909   3.047   3.174   2.384
 3337SOL    HW110910   2.992   3.192   2.465
 3337SOL    HW210911   3.011   3.227   2.306
 3338SOL     OW10912   2.808   2.787   1.604
 3338SOL    HW110913   2.737   2.764   1.537
 3338SOL    HW210914   2.883   2.722   1.597
 3339SOL     OW10915   1.604   0.352   6.776
 3339SOL    HW110916   1.636   0.391   6.690
 3339SOL    HW210917   1.635   0.257   6.783
 3340SOL     OW10918   4.038   0.987   4.621
 3340SOL    HW110919   3.975   0.927   4.670
 3340SOL    HW210920   4.010   1.082   4.634
 3341SOL     OW10921   1.183   4.237   2.604
 3341SOL    HW110922   1.268   4.207   2.645
 3341SOL    HW210923   1.108   4.227   2.670
 3342SOL     OW10924   6.483   0.744   2.682
 3342SOL    HW110925   6.567   0.715   2.636
 3342SOL    HW210926   6.462   0.679   2.756
 3343SOL     OW10927   4.651   5.115   0.186
 3343SOL    HW110928   4.736   5.162   0.164
 3343SOL    HW210929   4.611   5.077   0.103
 3344SOL     OW10930   0.240   3.199   2.234
 3344SOL    HW110931   0.177   3.226   2.308
 3344SOL    HW210932   0.334   3.221   2.261
 3345SOL     OW10933   5.712   5.414   0.177
 3345SOL    HW110934   5.632   5.447   0.128
 3345SOL    HW210935   5.733   5.476   0.254
 3346SOL     OW10936   1.913   1.191   7.005
 3346SOL    HW110937   1.819   1.168   0.009
 3346SOL    HW210938   1.927   1.168   6.909
 3347SOL     OW10939   0.202   3.490   5.550
 3347SOL    HW110940   0.123   3.541   5.585
 3347SOL    HW210941   0.199   3.490   5.450
 3348SOL     OW10942   3.404   4.340   5.995
 3348SOL    HW110943   3.317   4.332   5.947
 3348SOL    HW210944   3.467   4.396   5.942
 3349SOL     OW10945   1.891   5.803   2.941
 3349SOL    HW110946   1.978   5.830   2.984
 3349SOL    HW210947   1.837   5.750   3.006
 3350SOL     OW10948   1.527   4.969   4.184
 3350SOL    HW110949   1.573   4.881   4.169
 3350SOL    HW210950   1.482   4.968   4.273
 3351SOL     OW10951   5.539   1.121   1.599
 3351SOL    HW110952   5.593   1.186   1.546
 3351SOL    HW210953   5.458   1.167   1.635
 3352SOL     OW10954   5.822   1.465   6.856
 3352SOL    HW110955   5.884   1.480   6.779
 3352SOL    HW210956   5.863   1.398   6.918
 3353SOL     OW10957   3.787   0.126   0.142
 3353SOL    HW110958   3.771   0.185   0.063
 3353SOL    HW210959   3.812   0.181   0.221
 3354SOL     OW10960   2.971   3.801   6.353
 3354SOL    HW110961   3.070   3.813   6.356
 3354SOL    HW210962   2.928   3.888   6.326
 3355SOL     OW10963   1.426   0.237   5.193
 3355SOL    HW110964   1.485   0.157   5.180
 3355SOL    HW210965   1.479   0.311   5.235
 3356SOL     OW10966   1.729   0.615   6.183
 3356SOL    HW110967   1.697   0.537   6.237
 3356SOL    HW210968   1.650   0.663   6.144
 3357SOL     OW10969   3.502   2.878   2.457
 3357SOL    HW110970   3.413   2.897   2.498
 3357SOL    HW210971   3.490   2.829   2.371
 3358SOL     OW10972   6.995   0.820   1.875
 3358SOL    HW110973   6.935   0.783   1.804
 3358SOL    HW210974   0.010   0.908   1.845
 3359SOL     OW10975   0.769   6.740   4.908
 3359SOL    HW110976   0.692   6.679   4.887
 3359SOL    HW210977   0.733   6.824   4.949
 3360SOL     OW10978   2.514   4.460   4.127
 3360SOL    HW110979   2.463   4.417   4.053
 3360SOL    HW210980   2.450   4.503   4.191
 3361SOL     OW10981   6.678   0.229   5.845
 3361SOL    HW110982   6.682   0.129   5.847
 3361SOL    HW210983   6.735   0.266   5.917
 3362SOL     OW10984   3.443   0.404   4.290
 3362SOL    HW110985   3.344   0.417   4.286
 3362SOL    HW210986   3.489   0.490   4.268
 3363SOL     OW10987   5.890   4.105   0.089
 3363SOL    HW110988   5.853   4.046   0.018
 3363SOL    HW210989   5.848   4.196   0.082
 3364SOL     OW10990   1.606   3.921   3.429
 3364SOL    HW110991   1.672   3.866   3.480
 3364SOL    HW210992   1.569   3.993   3.489
 3365SOL     OW10993   1.411   3.761   3.352
 3365SOL    HW110994   1.327   3.777   3.405
 3365SOL    HW210995   1.487   3.809   3.395
 3366SOL     OW10996   5.618   3.408   4.844
 3366SOL    HW110997   5.634   3.385   4.940
 3366SOL    HW210998   5.690   3.368   4.787
 3367SOL     OW10999   2.876   3.552   3.948
 3367SOL    HW111000   2.889   3.457   3.922
 3367SOL    HW211001   2.856   3.558   4.046
 3368SOL     OW11002   2.224   0.504   2.543
 3368SOL    HW111003   2.238   0.415   2.500
 3368SOL    HW211004   2.126   0.527   2.542
 3369SOL     OW11005   5.203   2.354   1.380
 3369SOL    HW111006   5.269   2.421   1.415
 3369SOL    HW211007   5.207   2.272   1.437
 3370SOL     OW11008   0.861   5.839   2.704
 3370SOL    HW111009   0.771   5.818   2.743
 3370SOL    HW211010   0.915   5.754   2.699
 3371SOL     OW11011   2.345   2.570   1.898
 3371SOL    HW111012   2.444   2.562   1.915
 3371SOL    HW211013   2.325   2.660   1.861
 3372SOL     OW11014   6.256   4.028   2.896
 3372SOL    HW111015   6.354   4.028   2.875
 3372SOL    HW211016   6.234   3.949   2.953
 3373SOL     OW11017   0.436   3.722   1.637
 3373SOL    HW111018   0.343   3.747   1.664
 3373SOL    HW211019   0.502   3.781   1.685
 3374SOL     OW11020   0.596   6.662   4.218
 3374SOL    HW111021   0.603   6.606   4.301
 3374SOL    HW211022   0.687   6.672   4.178
 3375SOL     OW11023   0.445   5.765   6.114
 3375SOL    HW111024   0.417   5.836   6.051
 3375SOL    HW211025   0.470   5.806   6.202
 3376SOL     OW11026   3.521   2.921   4.087
 3376SOL    HW111027   3.489   2.943   4.179
 3376SOL    HW211028   3.465   2.971   4.020
 3377SOL     OW11029   6.732   5.041   4.114
 3377SOL    HW111030   6.670   5.018   4.189
 3377SOL    HW211031   6.693   5.116   4.061
 3378SOL     OW11032   1.908   6.415   0.847
 3378SOL    HW111033   1.942   6.321   0.839
 3378SOL    HW211034   1.809   6.414   0.863
 3379SOL     OW11035   6.228   3.907   4.120
 3379SOL    HW111036   6.161   3.866   4.058
 3379SOL    HW211037   6.320   3.879   4.094
 3380SOL     OW11038   2.484   4.337   0.516
 3380SOL    HW111039   2.412   4.286   0.468
 3380SOL    HW211040   2.478   4.318   0.614
 3381SOL     OW11041   2.439   3.642   5.789
 3381SOL    HW111042   2.465   3.561   5.736
 3381SOL    HW211043   2.341   3.658   5.781
 3382SOL     OW11044   6.465   3.769   0.172
 3382SOL    HW111045   6.431   3.743   0.263
 3382SOL    HW211046   6.389   3.799   0.115
 3383SOL     OW11047   4.254   5.117   0.510
 3383SOL    HW111048   4.156   5.121   0.492
 3383SOL    HW211049   4.299   5.072   0.433
 3384SOL     OW11050   2.644   3.158   6.459
 3384SOL    HW111051   2.726   3.153   6.516
 3384SOL    HW211052   2.665   3.211   6.376
 3385SOL     OW11053   6.487   2.523   4.203
 3385SOL    HW111054   6.410   2.541   4.141
 3385SOL    HW211055   6.534   2.440   4.175
 3386SOL     OW11056   0.119   5.999   4.943
 3386SOL    HW111057   0.070   6.038   4.865
 3386SOL    HW211058   0.212   6.035   4.945
 3387SOL     OW11059   6.117   1.102   2.846
 3387SOL    HW111060   6.174   1.026   2.878
 3387SOL    HW211061   6.044   1.067   2.788
 3388SOL     OW11062   7.014   3.759   1.200
 3388SOL    HW111063   6.925   3.802   1.213
 3388SOL    HW211064   0.015   3.705   1.281
 3389SOL     OW11065   5.620   5.717   6.517
 3389SOL    HW111066   5.590   5.625   6.492
 3389SOL    HW211067   5.594   5.782   6.445
 3390SOL     OW11068   3.112   5.118   6.660
 3390SOL    HW111069   3.162   5.202   6.641
 3390SOL    HW211070   3.107   5.063   6.577
 3391SOL     OW11071   5.281   4.106   4.254
 3391SOL    HW111072   5.252   4.043   4.183
 3391SOL    HW211073   5.226   4.092   4.336
 3392SOL     OW11074   4.646   6.614   5.852
 3392SOL    HW111075   4.726   6.555   5.863
 3392SOL    HW211076   4.632   6.667   5.936
 3393SOL     OW11077   3.859   5.905   0.822
 3393SOL    HW111078   3.759   5.899   0.834
 3393SOL    HW211079   3.904   5.884   0.909
 3394SOL     OW11080   2.537   5.653   1.280
 3394SOL    HW111081   2.457   5.655   1.340
 3394SOL    HW211082   2.515   5.599   1.199
 3395SOL     OW11083   2.107   6.706   3.204
 3395SOL    HW111084   2.064   6.660   3.127
 3395SOL    HW211085   2.038   6.759   3.254
 3396SOL     OW11086   4.259   0.333   4.343
 3396SOL    HW111087   4.252   0.252   4.285
 3396SOL    HW211088   4.259   0.415   4.285
 3397SOL     OW11089   2.490   5.568   6.616
 3397SOL    HW111090   2.440   5.482   6.627
 3397SOL    HW211091   2.440   5.627   6.552
 3398SOL     OW11092   6.700   1.922   5.289
 3398SOL    HW111093   6.781   1.945   5.235
 3398SOL    HW211094   6.658   1.839   5.252
 3399SOL     OW11095   6.484   6.085   2.112
 3399SOL    HW111096   6.475   6.017   2.185
 3399SOL    HW211097   6.515   6.172   2.151
 3400SOL     OW11098   4.189   3.066   5.623
 3400SOL    HW111099   4.094   3.034   5.617
 3400SOL    HW211100   4.244   3.019   5.555
 3401SOL     OW11101   6.869   3.899   5.073
 3401SOL    HW111102   6.832   3.916   5.165
 3401SOL    HW211103   6.829   3.815   5.037
 3402SOL     OW11104   6.868   3.746   0.922
 3402SOL    HW111105   6.816   3.723   0.840
 3402SOL    HW211106   6.930   3.822   0.903
 3403SOL     OW11107   5.428   0.145   6.546
 3403SOL    HW111108   5.421   0.126   6.448
 3403SOL    HW211109   5.337   0.162   6.583
 3404SOL     OW11110   5.253   4.399   4.400
 3404SOL    HW111111   5.281   4.495   4.394
 3404SOL    HW211112   5.222   4.368   4.310
 3405SOL     OW11113   4.799   6.107   0.149
 3405SOL    HW111114   4.807   6.194   0.196
 3405SOL    HW211115   4.853   6.037   0.196
 3406SOL     OW11116   3.127   5.703   1.502
 3406SOL    HW111117   3.031   5.679   1.489
 3406SOL    HW211118   3.137   5.758   1.584
 3407SOL     OW11119   0.993   4.109   6.236
 3407SOL    HW111120   1.050   4.140   6.312
 3407SOL    HW211121   1.010   4.166   6.156
 3408SOL     OW11122   4.808   0.471   3.837
 3408SOL    HW111123   4.764   0.397   3.887
 3408SOL    HW211124   4.894   0.439   3.798
 3409SOL     OW11125   3.885   0.594   0.507
 3409SOL    HW111126   3.849   0.577   0.598
 3409SOL    HW211127   3.829   0.546   0.439
 3410SOL     OW11128   6.652   0.362   3.158
 3410SOL    HW111129   6.555   0.388   3.153
 3410SOL    HW211130   6.699   0.393   3.076
 3411SOL     OW11131   6.209   3.141   5.972
 3411SOL    HW111132   6.258   3.167   6.055
 3411SOL    HW211133   6.172   3.049   5.982
 3412SOL     OW11134   5.572   3.401   2.365
 3412SOL    HW111135   5.500   3.446   2.419
 3412SOL    HW211136   5.529   3.345   2.294
 3413SOL     OW11137   6.404   1.576   0.699
 3413SOL    HW111138   6.503   1.587   0.692
 3413SOL    HW211139   6.382   1.512   0.773
 3414SOL     OW11140   3.310   3.536   1.590
 3414SOL    HW111141   3.300   3.623   1.639
 3414SOL    HW211142   3.257   3.465   1.636
 3415SOL     OW11143   2.327   1.706   5.737
 3415SOL    HW111144   2.339   1.607   5.723
 3415SOL    HW211145   2.333   1.727   5.834
 3416SOL     OW11146   6.890   6.813   6.899
 3416SOL    HW111147   6.863   6.756   6.976
 3416SOL    HW211148   6.842   6.783   6.817
 3417SOL     OW11149   6.316   6.772   3.091
 3417SOL    HW111150   6.259   6.790   3.011
 3417SOL    HW211151   6.292   6.837   3.164
 3418SOL     OW11152   4.368   5.396   0.396
 3418SOL    HW111153   4.357   5.319   0.458
 3418SOL    HW211154   4.371   5.363   0.301
 3419SOL     OW11155   2.289   5.186   5.553
 3419SOL    HW111156   2.298   5.281   5.523
 3419SOL    HW211157   2.319   5.177   5.647
 3420SOL     OW11158   4.530   1.878   1.721
 3420SOL    HW111159   4.433   1.857   1.735
 3420SOL    HW211160   4.564   1.827   1.642
 3421SOL     OW11161   0.440   1.845   5.013
 3421SOL    HW111162   0.539   1.857   5.011
 3421SOL    HW211163   0.395   1.932   4.991
 3422SOL     OW11164   2.590   6.818   0.824
 3422SOL    HW111165   2.522   6.757   0.864
 3422SOL    HW211166   2.545   6.876   0.755
 3423SOL     OW11167   2.279   4.701   5.747
 3423SOL    HW111168   2.220   4.717   5.668
 3423SOL    HW211169   2.374   4.723   5.723
 3424SOL     OW11170   5.470   1.088   2.018
 3424SOL    HW111171   5.429   1.019   1.959
 3424SOL    HW211172   5.443   1.179   1.987
 3425SOL     OW11173   6.568   3.247   6.263
 3425SOL    HW111174   6.488   3.254   6.204
 3425SOL    HW211175   6.629   3.325   6.246
 3426SOL     OW11176   6.171   3.826   0.065
 3426SOL    HW111177   6.131   3.872   0.144
 3426SOL    HW211178   6.136   3.732   0.060
 3427SOL     OW11179   1.174   2.403   0.273
 3427SOL    HW111180   1.149   2.308   0.291
 3427SOL    HW211181   1.113   2.441   0.204
 3428SOL     OW11182   4.625   6.910   4.844
 3428SOL    HW111183   4.525   6.906   4.851
 3428SOL    HW211184   4.660   6.819   4.822
 3429SOL     OW11185   4.557   6.660   0.635
 3429SOL    HW111186   4.627   6.630   0.700
 3429SOL    HW211187   4.500   6.581   0.609
 3430SOL     OW11188   2.852   4.041   6.251
 3430SOL    HW111189   2.756   4.031   6.224
 3430SOL    HW211190   2.886   4.130   6.220
 3431SOL     OW11191   0.692   4.352   2.705
 3431SOL    HW111192   0.734   4.271   2.745
 3431SOL    HW211193   0.617   4.325   2.645
 3432SOL     OW11194   0.376   4.979   0.365
 3432SOL    HW111195   0.337   5.070   0.372
 3432SOL    HW211196   0.431   4.972   0.282
 3433SOL     OW11197   2.219   1.039   6.798
 3433SOL    HW111198   2.315   1.060   6.780
 3433SOL    HW211199   2.162   1.114   6.765
 3434SOL     OW11200   3.661   2.586   1.761
 3434SOL    HW111201   3.564   2.601   1.745
 3434SOL    HW211202   3.675   2.493   1.796
 3435SOL     OW11203   1.422   1.940   1.591
 3435SOL    HW111204   1.406   1.862   1.651
 3435SOL    HW211205   1.365   2.017   1.620
 3436SOL     OW11206   3.613   6.876   6.556
 3436SOL    HW111207   3.604   6.890   6.457
 3436SOL    HW211208   3.588   6.960   6.604
 3437SOL     OW11209   1.174   0.340   6.839
 3437SOL    HW111210   1.208   0.246   6.837
 3437SOL    HW211211   1.082   0.342   6.878
 3438SOL     OW11212   2.480   3.811   0.906
 3438SOL    HW111213   2.415   3.807   0.830
 3438SOL    HW211214   2.508   3.906   0.921
 3439SOL     OW11215   2.855   5.929   0.977
 3439SOL    HW111216   2.796   5.950   1.055
 3439SOL    HW211217   2.880   5.832   0.980
 3440SOL     OW11218   3.596   3.678   5.349
 3440SOL    HW111219   3.521   3.637   5.296
 3440SOL    HW211220   3.563   3.760   5.396
 3441SOL     OW11221   6.413   5.153   5.620
 3441SOL    HW111222   6.384   5.110   5.534
 3441SOL    HW211223   6.355   5.121   5.695
 3442SOL     OW11224   1.838   3.160   1.553
 3442SOL    HW111225   1.780   3.193   1.479
 3442SOL    HW211226   1.785   3.152   1.637
 3443SOL     OW11227   0.222   5.925   1.927
 3443SOL    HW111228   0.128   5.908   1.956
 3443SOL    HW211229   0.272   5.838   1.923
 3444SOL     OW11230   6.681   3.912   5.281
 3444SOL    HW111231   6.620   3.984   5.315
 3444SOL    HW211232   6.634   3.824   5.285
 3445SOL     OW11233   6.260   4.666   4.358
 3445SOL    HW111234   6.167   4.656   4.393
 3445SOL    HW211235   6.257   4.698   4.263
 3446SOL     OW11236   4.344   1.077   1.028
 3446SOL    HW111237   4.324   0.982   1.002
 3446SOL    HW211238   4.426   1.108   0.979
 3447SOL     OW11239   5.798   0.966   6.261
 3447SOL    HW111240   5.797   1.030   6.339
 3447SOL    HW211241   5.722   0.986   6.200
 3448SOL     OW11242   1.411   4.491   5.283
 3448SOL    HW111243   1.456   4.472   5.195
 3448SOL    HW211244   1.379   4.585   5.283
 3449SOL     OW11245   0.649   4.639   5.255
 3449SOL    HW111246   0.636   4.635   5.354
 3449SOL    HW211247   0.563   4.667   5.211
 3450SOL     OW11248   2.481   0.413   1.527
 3450SOL    HW111249   2.530   0.327   1.538
 3450SOL    HW211250   2.411   0.403   1.457
 3451SOL     OW11251   1.776   2.132   1.098
 3451SOL    HW111252   1.819   2.210   1.054
 3451SOL    HW211253   1.677   2.134   1.081
 3452SOL     OW11254   4.640   1.257   5.362
 3452SOL    HW111255   4.684   1.199   5.294
 3452SOL    HW211256   4.678   1.349   5.357
 3453SOL     OW11257   3.953   6.488   6.686
 3453SOL    HW111258   3.867   6.438   6.673
 3453SOL    HW211259   3.995   6.507   6.598
 3454SOL     OW11260   0.458   2.951   1.472
 3454SOL    HW111261   0.444   2.914   1.564
 3454SOL    HW211262   0.517   3.032   1.477
 3455SOL     OW11263   0.481   3.627   5.969
 3455SOL    HW111264   0.453   3.584   5.883
 3455SOL    HW211265   0.524   3.559   6.028
 3456SOL     OW11266   5.046   5.804   3.378
 3456SOL    HW111267   5.110   5.738   3.419
 3456SOL    HW211268   5.090   5.893   3.370
 3457SOL     OW11269   3.530   4.148   6.382
 3457SOL    HW111270   3.505   4.088   6.458
 3457SOL    HW211271   3.551   4.092   6.302
 3458SOL     OW11272   3.870   1.380   2.529
 3458SOL    HW111273   3.908   1.439   2.599
 3458SOL    HW211274   3.795   1.428   2.482
 3459SOL     OW11275   5.694   5.647   2.263
 3459SOL    HW111276   5.622   5.612   2.323
 3459SOL    HW211277   5.768   5.685   2.317
 3460SOL     OW11278   3.549   1.905   4.601
 3460SOL    HW111279   3.495   1.933   4.680
 3460SOL    HW211280   3.554   1.981   4.535
 3461SOL     OW11281   5.254   5.165   4.647
 3461SOL    HW111282   5.197   5.118   4.715
 3461SOL    HW211283   5.350   5.158   4.674
 3462SOL     OW11284   0.783   3.655   6.320
 3462SOL    HW111285   0.865   3.706   6.293
 3462SOL    HW211286   0.725   3.714   6.376
 3463SOL     OW11287   5.778   4.351   0.080
 3463SOL    HW111288   5.695   4.373   0.029
 3463SOL    HW211289   5.835   4.432   0.087
 3464SOL     OW11290   0.200   4.417   4.034
 3464SOL    HW111291   0.154   4.504   4.018
 3464SOL    HW211292   0.236   4.382   3.947
 3465SOL     OW11293   0.800   2.079   2.761
 3465SOL    HW111294   0.849   1.993   2.744
 3465SOL    HW211295   0.711   2.076   2.715
 3466SOL     OW11296   0.375   3.231   4.686
 3466SOL    HW111297   0.321   3.242   4.769
 3466SOL    HW211298   0.394   3.134   4.671
 3467SOL     OW11299   1.780   2.241   5.811
 3467SOL    HW111300   1.701   2.181   5.821
 3467SOL    HW211301   1.772   2.318   5.874
 3468SOL     OW11302   4.196   5.971   2.243
 3468SOL    HW111303   4.131   5.966   2.318
 3468SOL    HW211304   4.182   5.893   2.182
 3469SOL     OW11305   5.505   3.619   1.342
 3469SOL    HW111306   5.435   3.576   1.399
 3469SOL    HW211307   5.462   3.691   1.287
 3470SOL     OW11308   0.123   5.756   0.702
 3470SOL    HW111309   0.195   5.803   0.753
 3470SOL    HW211310   0.136   5.657   0.710
 3471SOL     OW11311   4.398   0.520   4.729
 3471SOL    HW111312   4.498   0.529   4.725
 3471SOL    HW211313   4.370   0.438   4.680
 3472SOL     OW11314   4.047   1.123   5.035
 3472SOL    HW111315   4.113   1.051   5.013
 3472SOL    HW211316   3.982   1.089   5.104
 3473SOL     OW11317   4.180   6.556   4.241
 3473SOL    HW111318   4.171   6.655   4.249
 3473SOL    HW211319   4.089   6.513   4.245
 3474SOL     OW11320   5.205   4.369   1.107
 3474SOL    HW111321   5.153   4.442   1.062
 3474SOL    HW211322   5.202   4.382   1.206
 3475SOL     OW11323   1.409   6.240   4.754
 3475SOL    HW111324   1.418   6.159   4.811
 3475SOL    HW211325   1.378   6.214   4.663
 3476SOL     OW11326   4.736   1.705   5.041
 3476SOL    HW111327   4.741   1.795   5.085
 3476SOL    HW211328   4.750   1.714   4.943
 3477SOL     OW11329   4.279   5.562   1.689
 3477SOL    HW111330   4.368   5.603   1.668
 3477SOL    HW211331   4.235   5.533   1.604
 3478SOL     OW11332   4.260   4.564   6.932
 3478SOL    HW111333   4.281   4.652   6.890
 3478SOL    HW211334   4.285   4.490   6.870
 3479SOL     OW11335   1.688   0.248   1.487
 3479SOL    HW111336   1.612   0.216   1.544
 3479SOL    HW211337   1.662   0.243   1.390
 3480SOL     OW11338   0.927   0.221   4.198
 3480SOL    HW111339   0.864   0.232   4.274
 3480SOL    HW211340   0.887   0.260   4.115
 3481SOL     OW11341   2.277   6.357   6.854
 3481SOL    HW111342   2.366   6.311   6.847
 3481SOL    HW211343   2.286   6.436   6.915
 3482SOL     OW11344   0.811   2.307   1.601
 3482SOL    HW111345   0.793   2.404   1.584
 3482SOL    HW211346   0.727   2.261   1.627
 3483SOL     OW11347   4.264   1.925   1.072
 3483SOL    HW111348   4.270   1.843   1.015
 3483SOL    HW211349   4.317   1.999   1.030
 3484SOL     OW11350   3.351   2.921   3.631
 3484SOL    HW111351   3.308   2.835   3.657
 3484SOL    HW211352   3.359   2.926   3.532
 3485SOL     OW11353   6.729   1.607   4.586
 3485SOL    HW111354   6.744   1.533   4.652
 3485SOL    HW211355   6.631   1.623   4.574
 3486SOL     OW11356   5.176   1.237   2.595
 3486SOL    HW111357   5.142   1.173   2.526
 3486SOL    HW211358   5.162   1.200   2.686
 3487SOL     OW11359   0.591   0.946   0.488
 3487SOL    HW111360   0.624   0.915   0.399
 3487SOL    HW211361   0.583   1.045   0.488
 3488SOL     OW11362   6.061   3.674   4.032
 3488SOL    HW111363   6.016   3.685   4.121
 3488SOL    HW211364   5.991   3.667   3.960
 3489SOL     OW11365   1.957   5.733   0.446
 3489SOL    HW111366   2.050   5.735   0.483
 3489SOL    HW211367   1.961   5.738   0.346
 3490SOL     OW11368   4.827   2.677   0.841
 3490SOL    HW111369   4.802   2.581   0.855
 3490SOL    HW211370   4.845   2.720   0.929
 3491SOL     OW11371   0.799   2.627   5.542
 3491SOL    HW111372   0.731   2.663   5.606
 3491SOL    HW211373   0.799   2.528   5.546
 3492SOL     OW11374   5.494   5.099   6.942
 3492SOL    HW111375   5.452   5.185   6.913
 3492SOL    HW211376   5.581   5.118   6.987
 3493SOL     OW11377   0.212   5.062   1.643
 3493SOL    HW111378   0.181   5.005   1.567
 3493SOL    HW211379   0.183   5.021   1.729
 3494SOL     OW11380   2.895   6.365   1.380
 3494SOL    HW111381   2.842   6.282   1.368
 3494SOL    HW211382   2.954   6.380   1.301
 3495SOL     OW11383   5.764   4.625   0.365
 3495SOL    HW111384   5.689   4.571   0.401
 3495SOL    HW211385   5.759   4.627   0.265
 3496SOL     OW11386   0.550   4.674   0.725
 3496SOL    HW111387   0.493   4.699   0.803
 3496SOL    HW211388   0.504   4.700   0.640
 3497SOL     OW11389   4.436   6.495   4.211
 3497SOL    HW111390   4.342   6.525   4.229
 3497SOL    HW211391   4.496   6.575   4.207
 3498SOL     OW11392   1.241   1.740   1.028
 3498SOL    HW111393   1.211   1.780   1.114
 3498SOL    HW211394   1.326   1.689   1.042
 3499SOL     OW11395   6.701   3.808   4.565
 3499SOL    HW111396   6.677   3.816   4.469
 3499SOL    HW211397   6.773   3.873   4.587
 3500SOL     OW11398   6.691   3.381   0.845
 3500SOL    HW111399   6.612   3.323   0.864
 3500SOL    HW211400   6.738   3.403   0.930
 3501SOL     OW11401   1.050   4.177   3.889
 3501SOL    HW111402   0.968   4.197   3.835
 3501SOL    HW211403   1.126   4.157   3.828
 3502SOL     OW11404   1.481   4.585   1.932
 3502SOL    HW111405   1.528   4.535   2.004
 3502SOL    HW211406   1.386   4.602   1.960
 3503SOL     OW11407   3.500   6.389   3.539
 3503SOL    HW111408   3.582   6.362   3.588
 3503SOL    HW211409   3.521   6.466   3.479
 3504SOL     OW11410   2.043   2.965   2.622
 3504SOL    HW111411   2.096   2.965   2.537
 3504SOL    HW211412   2.047   2.874   2.663
 3505SOL     OW11413   4.277   6.523   5.014
 3505SOL    HW111414   4.341   6.448   5.033
 3505SOL    HW211415   4.238   6.511   4.923
 3506SOL     OW11416   5.698   4.940   2.071
 3506SOL    HW111417   5.623   4.940   2.005
 3506SOL    HW211418   5.715   4.846   2.102
 3507SOL     OW11419   0.469   0.630   6.590
 3507SOL    HW111420   0.564   0.662   6.584
 3507SOL    HW211421   0.407   0.708   6.592
 3508SOL     OW11422   5.978   3.876   6.799
 3508SOL    HW111423   6.078   3.886   6.806
 3508SOL    HW211424   5.951   3.792   6.845
 3509SOL     OW11425   6.150   0.630   0.695
 3509SOL    HW111426   6.207   0.684   0.757
 3509SOL    HW211427   6.197   0.545   0.671
 3510SOL     OW11428   2.268   2.655   2.435
 3510SOL    HW111429   2.339   2.654   2.364
 3510SOL    HW211430   2.183   2.619   2.398
 3511SOL     OW11431   0.393   0.677   5.465
 3511SOL    HW111432   0.329   0.723   5.527
 3511SOL    HW211433   0.400   0.580   5.489
 3512SOL     OW11434   3.342   2.667   0.841
 3512SOL    HW111435   3.269   2.708   0.896
 3512SOL    HW211436   3.329   2.691   0.745
 3513SOL     OW11437   5.084   4.646   1.060
 3513SOL    HW111438   5.094   4.715   0.988
 3513SOL    HW211439   5.141   4.673   1.138
 3514SOL     OW11440   1.694   6.886   1.659
 3514SOL    HW111441   1.657   6.878   1.567
 3514SOL    HW211442   1.676   6.803   1.710
 3515SOL     OW11443   3.807   5.894   3.253
 3515SOL    HW111444   3.836   5.871   3.160
 3515SOL    HW211445   3.886   5.920   3.308
 3516SOL     OW11446   2.643   0.925   0.804
 3516SOL    HW111447   2.664   0.896   0.711
 3516SOL    HW211448   2.701   1.002   0.829
 3517SOL     OW11449   0.886   0.280   6.267
 3517SOL    HW111450   0.793   0.317   6.265
 3517SOL    HW211451   0.890   0.196   6.212
 3518SOL     OW11452   4.507   3.667   5.899
 3518SOL    HW111453   4.599   3.702   5.884
 3518SOL    HW211454   4.472   3.700   5.987
 3519SOL     OW11455   3.039   6.187   0.380
 3519SOL    HW111456   2.991   6.222   0.461
 3519SOL    HW211457   3.128   6.152   0.406
 3520SOL     OW11458   3.721   5.086   1.028
 3520SOL    HW111459   3.774   5.161   0.989
 3520SOL    HW211460   3.646   5.123   1.083
 3521SOL     OW11461   5.667   1.859   5.981
 3521SOL    HW111462   5.589   1.898   6.030
 3521SOL    HW211463   5.634   1.794   5.913
 3522SOL     OW11464   2.723   6.817   1.567
 3522SOL    HW111465   2.786   6.740   1.559
 3522SOL    HW211466   2.668   6.806   1.650
 3523SOL     OW11467   2.212   4.566   5.382
 3523SOL    HW111468   2.251   4.567   5.290
 3523SOL    HW211469   2.158   4.649   5.397
 3524SOL     OW11470   2.428   0.556   1.746
 3524SOL    HW111471   2.337   0.592   1.725
 3524SOL    HW211472   2.464   0.507   1.667
 3525SOL     OW11473   1.844   3.618   2.997
 3525SOL    HW111474   1.815   3.632   3.091
 3525SOL    HW211475   1.819   3.525   2.967
 3526SOL     OW11476   3.344   0.177   3.498
 3526SOL    HW111477   3.382   0.145   3.412
 3526SOL    HW211478   3.387   0.264   3.524
 3527SOL     OW11479   5.746   2.701   6.010
 3527SOL    HW111480   5.700   2.615   6.031
 3527SOL    HW211481   5.841   2.698   6.043
 3528SOL     OW11482   1.057   6.911   4.412
 3528SOL    HW111483   0.959   6.922   4.399
 3528SOL    HW211484   1.106   6.947   4.332
 3529SOL     OW11485   3.509   5.970   6.939
 3529SOL    HW111486   3.551   5.982   0.007
 3529SOL    HW211487   3.462   5.881   6.935
 3530SOL     OW11488   1.381   5.953   2.848
 3530SOL    HW111489   1.358   6.029   2.788
 3530SOL    HW211490   1.439   5.888   2.799
 3531SOL     OW11491   4.961   4.701   6.635
 3531SOL    HW111492   5.036   4.751   6.591
 3531SOL    HW211493   4.990   4.607   6.652
 3532SOL     OW11494   2.110   6.540   0.419
 3532SOL    HW111495   2.020   6.512   0.386
 3532SOL    HW211496   2.107   6.636   0.446
 3533SOL     OW11497   1.087   1.615   3.905
 3533SOL    HW111498   1.113   1.605   4.001
 3533SOL    HW211499   1.107   1.708   3.874
 3534SOL     OW11500   5.024   0.364   5.358
 3534SOL    HW111501   5.034   0.371   5.259
 3534SOL    HW211502   4.937   0.321   5.381
 3535SOL     OW11503   4.403   6.343   6.837
 3535SOL    HW111504   4.345   6.271   6.875
 3535SOL    HW211505   4.490   6.345   6.888
 3536SOL     OW11506   0.897   4.164   2.808
 3536SOL    HW111507   0.896   4.069   2.838
 3536SOL    HW211508   0.909   4.224   2.888
 3537SOL     OW11509   2.749   3.972   1.147
 3537SOL    HW111510   2.731   3.885   1.192
 3537SOL    HW211511   2.848   3.986   1.139
 3538SOL     OW11512   3.667   0.969   3.579
 3538SOL    HW111513   3.568   0.958   3.575
 3538SOL    HW211514   3.711   0.881   3.565
 3539SOL     OW11515   4.985   6.499   6.761
 3539SOL    HW111516   5.018   6.593   6.749
 3539SOL    HW211517   5.040   6.438   6.704
 3540SOL     OW11518   2.427   4.152   6.187
 3540SOL    HW111519   2.328   4.143   6.202
 3540SOL    HW211520   2.463   4.226   6.244
 3541SOL     OW11521   2.040   2.763   1.743
 3541SOL    HW111522   2.011   2.669   1.730
 3541SOL    HW211523   2.101   2.790   1.669
 3542SOL     OW11524   6.218   1.470   6.791
 3542SOL    HW111525   6.152   1.433   6.855
 3542SOL    HW211526   6.288   1.402   6.771
 3543SOL     OW11527   0.614   2.513   4.113
 3543SOL    HW111528   0.641   2.604   4.080
 3543SOL    HW211529   0.641   2.444   4.047
 3544SOL     OW11530   3.012   3.551   6.962
 3544SOL    HW111531   3.093   3.593   6.919
 3544SOL    HW211532   3.004   3.456   6.932
 3545SOL     OW11533   3.603   6.559   0.750
 3545SOL    HW111534   3.621   6.462   0.729
 3545SOL    HW211535   3.623   6.614   0.669
 3546SOL     OW11536   6.616   4.433   2.223
 3546SOL    HW111537   6.639   4.425   2.126
 3546SOL    HW211538   6.700   4.442   2.276
 3547SOL     OW11539   1.449   4.160   4.695
 3547SOL    HW111540   1.431   4.062   4.691
 3547SOL    HW211541   1.441   4.191   4.790
 3548SOL     OW11542   5.613   0.482   6.091
 3548SOL    HW111543   5.706   0.494   6.056
 3548SOL    HW211544   5.599   0.544   6.169
 3549SOL     OW11545   2.780   6.959   6.550
 3549SOL    HW111546   2.724   7.016   6.609
 3549SOL    HW211547   2.799   6.871   6.595
 3550SOL     OW11548   4.895   1.007   5.568
 3550SOL    HW111549   4.806   0.998   5.613
 3550SOL    HW211550   4.894   0.956   5.482
 3551SOL     OW11551   5.160   1.906   4.578
 3551SOL    HW111552   5.243   1.918   4.524
 3551SOL    HW211553   5.165   1.964   4.660
 3552SOL     OW11554   6.159   6.871   3.330
 3552SOL    HW111555   6.128   6.777   3.313
 3552SOL    HW211556   6.128   6.930   3.255
 3553SOL     OW11557   5.873   5.931   6.776
 3553SOL    HW111558   5.896   5.966   6.685
 3553SOL    HW211559   5.847   5.835   6.769
 3554SOL     OW11560   5.238   4.587   6.826
 3554SOL    HW111561   5.224   4.598   6.925
 3554SOL    HW211562   5.184   4.510   6.793
 3555SOL     OW11563   3.116   2.056   5.334
 3555SOL    HW111564   3.151   2.149   5.347
 3555SOL    HW211565   3.039   2.058   5.269
 3556SOL     OW11566   5.655   0.950   0.549
 3556SOL    HW111567   5.585   0.986   0.488
 3556SOL    HW211568   5.737   0.928   0.496
 3557SOL     OW11569   5.749   6.938   1.501
 3557SOL    HW111570   5.713   0.006   1.473
 3557SOL    HW211571   5.849   6.943   1.507
 3558SOL     OW11572   3.763   5.412   2.131
 3558SOL    HW111573   3.723   5.415   2.222
 3558SOL    HW211574   3.856   5.448   2.134
 3559SOL     OW11575   4.739   6.701   6.306
 3559SOL    HW111576   4.661   6.653   6.347
 3559SOL    HW211577   4.725   6.708   6.207
 3560SOL     OW11578   1.031   5.325   4.314
 3560SOL    HW111579   1.079   5.375   4.385
 3560SOL    HW211580   1.085   5.245   4.286
 3561SOL     OW11581   4.460   3.593   5.302
 3561SOL    HW111582   4.455   3.494   5.312
 3561SOL    HW211583   4.530   3.616   5.233
 3562SOL     OW11584   2.960   1.910   0.148
 3562SOL    HW111585   3.016   1.837   0.108
 3562SOL    HW211586   2.925   1.880   0.237
 3563SOL     OW11587   6.463   2.625   6.000
 3563SOL    HW111588   6.373   2.586   6.020
 3563SOL    HW211589   6.461   2.724   6.018
 3564SOL     OW11590   6.141   3.652   2.284
 3564SOL    HW111591   6.148   3.639   2.185
 3564SOL    HW211592   6.082   3.581   2.324
 3565SOL     OW11593   4.852   5.879   5.899
 3565SOL    HW111594   4.787   5.805   5.914
 3565SOL    HW211595   4.939   5.841   5.870
 3566SOL     OW11596   1.025   0.592   4.724
 3566SOL    HW111597   0.942   0.647   4.716
 3566SOL    HW211598   1.105   0.652   4.723
 3567SOL     OW11599   6.853   3.271   6.811
 3567SOL    HW111600   6.940   3.230   6.782
 3567SOL    HW211601   6.778   3.208   6.792
 3568SOL     OW11602   6.130   4.023   6.481
 3568SOL    HW111603   6.096   3.930   6.495
 3568SOL    HW211604   6.090   4.062   6.399
 3569SOL     OW11605   1.055   0.224   3.761
 3569SOL    HW111606   1.046   0.315   3.800
 3569SOL    HW211607   0.967   0.194   3.725
 3570SOL     OW11608   5.407   1.346   3.947
 3570SOL    HW111609   5.396   1.375   4.042
 3570SOL    HW211610   5.423   1.426   3.890
 3571SOL     OW11611   6.716   0.001   5.284
 3571SOL    HW111612   6.624   0.001   5.324
 3571SOL    HW211613   6.715   6.973   5.197
 3572SOL     OW11614   6.393   6.448   5.491
 3572SOL    HW111615   6.472   6.407   5.446
 3572SOL    HW211616   6.351   6.515   5.429
 3573SOL     OW11617   0.689   2.225   2.434
 3573SOL    HW111618   0.648   2.193   2.520
 3573SOL    HW211619   0.704   2.147   2.373
 3574SOL     OW11620   6.018   3.934   0.285
 3574SOL    HW111621   6.057   3.982   0.364
 3574SOL    HW211622   5.948   3.991   0.243
 3575SOL     OW11623   6.361   5.712   1.963
 3575SOL    HW111624   6.286   5.760   2.009
 3575SOL    HW211625   6.344   5.708   1.865
 3576SOL     OW11626   0.672   1.619   6.727
 3576SOL    HW111627   0.733   1.561   6.673
 3576SOL    HW211628   0.702   1.619   6.822
 3577SOL     OW11629   2.199   3.339   6.931
 3577SOL    HW111630   2.272   3.399   6.964
 3577SOL    HW211631   2.126   3.334   6.999
 3578SOL     OW11632   3.433   4.710   1.630
 3578SOL    HW111633   3.484   4.651   1.693
 3578SOL    HW211634   3.410   4.658   1.548
 3579SOL     OW11635   1.364   4.050   5.346
 3579SOL    HW111636   1.292   3.988   5.377
 3579SOL    HW211637   1.338   4.090   5.258
 3580SOL     OW11638   6.659   2.420   1.236
 3580SOL    HW111639   6.744   2.389   1.278
 3580SOL    HW211640   6.584   2.361   1.266
 3581SOL     OW11641   5.800   1.037   3.172
 3581SOL    HW111642   5.898   1.020   3.179
 3581SOL    HW211643   5.784   1.135   3.156
 3582SOL     OW11644   7.010   0.638   5.383
 3582SOL    HW111645   0.056   0.648   5.311
 3582SOL    HW211646   0.030   0.593   5.462
 3583SOL     OW11647   2.389   5.064   0.832
 3583SOL    HW111648   2.418   4.981   0.785
 3583SOL    HW211649   2.391   5.049   0.931
 3584SOL     OW11650   5.514   6.659   5.898
 3584SOL    HW111651   5.457   6.687   5.976
 3584SOL    HW211652   5.471   6.688   5.813
 3585SOL     OW11653   2.796   5.185   4.303
 3585SOL    HW111654   2.718   5.195   4.365
 3585SOL    HW211655   2.826   5.089   4.303
 3586SOL     OW11656   0.756   1.801   6.108
 3586SOL    HW111657   0.810   1.861   6.049
 3586SOL    HW211658   0.794   1.708   6.106
 3587SOL     OW11659   3.761   0.307   6.940
 3587SOL    HW111660   3.694   0.335   6.872
 3587SOL    HW211661   3.841   0.368   6.934
 3588SOL     OW11662   2.112   1.321   5.256
 3588SOL    HW111663   2.083   1.376   5.178
 3588SOL    HW211664   2.036   1.264   5.287
 3589SOL     OW11665   2.781   0.328   5.069
 3589SOL    HW111666   2.761   0.262   4.997
 3589SOL    HW211667   2.878   0.354   5.064
 3590SOL     OW11668   1.324   5.181   6.961
 3590SOL    HW111669   1.382   5.116   7.009
 3590SOL    HW211670   1.280   5.242   0.005
 3591SOL     OW11671   5.199   2.148   5.978
 3591SOL    HW111672   5.157   2.234   6.006
 3591SOL    HW211673   5.251   2.162   5.893
 3592SOL     OW11674   5.058   2.578   2.135
 3592SOL    HW111675   5.125   2.643   2.100
 3592SOL    HW211676   5.061   2.495   2.080
 3593SOL     OW11677   0.638   4.885   3.879
 3593SOL    HW111678   0.540   4.888   3.857
 3593SOL    HW211679   0.661   4.796   3.918
 3594SOL     OW11680   3.960   1.240   4.588
 3594SOL    HW111681   3.873   1.286   4.569
 3594SOL    HW211682   4.020   1.247   4.508
 3595SOL     OW11683   2.169   6.197   5.726
 3595SOL    HW111684   2.082   6.241   5.703
 3595SOL    HW211685   2.176   6.110   5.678
 3596SOL     OW11686   0.295   3.435   3.551
 3596SOL    HW111687   0.228   3.476   3.488
 3596SOL    HW211688   0.341   3.358   3.507
 3597SOL     OW11689   3.706   6.159   3.187
 3597SOL    HW111690   3.766   6.083   3.209
 3597SOL    HW211691   3.621   6.151   3.240
 3598SOL     OW11692   1.598   0.449   0.563
 3598SOL    HW111693   1.508   0.415   0.591
 3598SOL    HW211694   1.590   0.542   0.529
 3599SOL     OW11695   6.849   1.647   3.854
 3599SOL    HW111696   6.761   1.618   3.817
 3599SOL    HW211697   6.918   1.577   3.836
 3600SOL     OW11698   6.218   0.715   1.469
 3600SOL    HW111699   6.274   0.773   1.528
 3600SOL    HW211700   6.145   0.771   1.428
 3601SOL     OW11701   6.314   3.455   5.606
 3601SOL    HW111702   6.257   3.517   5.660
 3601SOL    HW211703   6.323   3.368   5.655
 3602SOL     OW11704   2.387   1.926   0.499
 3602SOL    HW111705   2.360   1.985   0.423
 3602SOL    HW211706   2.330   1.843   0.498
 3603SOL     OW11707   4.041   4.985   4.498
 3603SOL    HW111708   4.007   4.909   4.442
 3603SOL    HW211709   4.060   5.063   4.439
 3604SOL     OW11710   0.423   3.531   3.244
 3604SOL    HW111711   0.434   3.435   3.270
 3604SOL    HW211712   0.505   3.582   3.268
 3605SOL     OW11713   6.394   2.978   6.590
 3605SOL    HW111714   6.381   2.885   6.624
 3605SOL    HW211715   6.373   3.043   6.663
 3606SOL     OW11716   1.610   4.428   4.115
 3606SOL    HW111717   1.530   4.368   4.115
 3606SOL    HW211718   1.648   4.434   4.023
 3607SOL     OW11719   4.500   6.830   0.207
 3607SOL    HW111720   4.451   6.912   0.236
 3607SOL    HW211721   4.440   6.751   0.217
 3608SOL     OW11722   0.520   2.412   2.336
 3608SOL    HW111723   0.569   2.342   2.389
 3608SOL    HW211724   0.574   2.438   2.256
 3609SOL     OW11725   6.436   0.030   5.364
 3609SOL    HW111726   6.356   0.039   5.423
 3609SOL    HW211727   6.407   0.000   5.273
 3610SOL     OW11728   1.967   6.010   5.047
 3610SOL    HW111729   1.883   6.060   5.029
 3610SOL    HW211730   1.995   5.961   4.965
 3611SOL     OW11731   3.996   5.118   5.125
 3611SOL    HW111732   4.068   5.159   5.069
 3611SOL    HW211733   4.016   5.133   5.221
 3612SOL     OW11734   1.643   6.893   1.373
 3612SOL    HW111735   1.632   6.796   1.352
 3612SOL    HW211736   1.570   6.945   1.329
 3613SOL     OW11737   5.377   5.291   6.809
 3613SOL    HW111738   5.281   5.292   6.836
 3613SOL    HW211739   5.421   5.375   6.842
 3614SOL     OW11740   4.080   3.252   3.950
 3614SOL    HW111741   4.020   3.283   3.876
 3614SOL    HW211742   4.105   3.157   3.934
 3615SOL     OW11743   6.695   6.152   6.107
 3615SOL    HW111744   6.759   6.227   6.125
 3615SOL    HW211745   6.605   6.189   6.087
 3616SOL     OW11746   6.192   0.435   4.821
 3616SOL    HW111747   6.133   0.429   4.741
 3616SOL    HW211748   6.273   0.488   4.799
 3617SOL     OW11749   6.655   0.985   0.302
 3617SOL    HW111750   6.635   0.946   0.392
 3617SOL    HW211751   6.600   1.067   0.289
 3618SOL     OW11752   2.856   0.873   5.954
 3618SOL    HW111753   2.882   0.937   6.026
 3618SOL    HW211754   2.767   0.832   5.976
 3619SOL     OW11755   5.118   3.015   4.141
 3619SOL    HW111756   5.217   3.028   4.139
 3619SOL    HW211757   5.078   3.078   4.208
 3620SOL     OW11758   6.239   1.098   4.744
 3620SOL    HW111759   6.281   1.154   4.816
 3620SOL    HW211760   6.300   1.024   4.718
 3621SOL     OW11761   1.914   3.140   5.942
 3621SOL    HW111762   1.990   3.110   5.999
 3621SOL    HW211763   1.897   3.073   5.870
 3622SOL     OW11764   0.221   2.798   0.861
 3622SOL    HW111765   0.294   2.829   0.923
 3622SOL    HW211766   0.238   2.702   0.835
 3623SOL     OW11767   6.899   5.715   4.394
 3623SOL    HW111768   6.928   5.622   4.369
 3623SOL    HW211769   6.979   5.773   4.407
 3624SOL     OW11770   1.906   0.866   1.676
 3624SOL    HW111771   1.864   0.955   1.697
 3624SOL    HW211772   1.970   0.876   1.600
 3625SOL     OW11773   0.313   2.964   4.315
 3625SOL    HW111774   0.393   3.015   4.282
 3625SOL    HW211775   0.271   2.915   4.239
 3626SOL     OW11776   2.555   3.784   5.375
 3626SOL    HW111777   2.500   3.846   5.319
 3626SOL    HW211778   2.514   3.693   5.374
 3627SOL     OW11779   3.007   3.726   3.785
 3627SOL    HW111780   2.930   3.673   3.822
 3627SOL    HW211781   3.089   3.669   3.783
 3628SOL     OW11782   3.394   5.228   2.472
 3628SOL    HW111783   3.467   5.177   2.518
 3628SOL    HW211784   3.342   5.279   2.540
 3629SOL     OW11785   6.133   2.329   5.099
 3629SOL    HW111786   6.088   2.245   5.069
 3629SOL    HW211787   6.168   2.317   5.192
 3630SOL     OW11788   5.756   1.761   4.716
 3630SOL    HW111789   5.718   1.771   4.808
 3630SOL    HW211790   5.809   1.677   4.710
 3631SOL     OW11791   2.044   1.075   4.242
 3631SOL    HW111792   1.961   1.097   4.191
 3631SOL    HW211793   2.106   1.023   4.183
 3632SOL     OW11794   4.384   0.599   6.542
 3632SOL    HW111795   4.428   0.667   6.601
 3632SOL    HW211796   4.453   0.535   6.508
 3633SOL     OW11797   2.449   2.828   5.833
 3633SOL    HW111798   2.512   2.891   5.880
 3633SOL    HW211799   2.431   2.749   5.892
 3634SOL     OW11800   2.106   5.736   5.150
 3634SOL    HW111801   2.051   5.790   5.086
 3634SOL    HW211802   2.151   5.661   5.101
 3635SOL     OW11803   2.627   1.277   4.993
 3635SOL    HW111804   2.548   1.261   4.934
 3635SOL    HW211805   2.598   1.274   5.088
 3636SOL     OW11806   1.353   5.589   6.564
 3636SOL    HW111807   1.275   5.528   6.545
 3636SOL    HW211808   1.438   5.536   6.560
 3637SOL     OW11809   5.606   1.394   2.070
 3637SOL    HW111810   5.578   1.488   2.054
 3637SOL    HW211811   5.633   1.352   1.984
 3638SOL     OW11812   6.164   5.344   4.290
 3638SOL    HW111813   6.125   5.352   4.199
 3638SOL    HW211814   6.216   5.259   4.298
 3639SOL     OW11815   2.172   5.016   0.150
 3639SOL    HW111816   2.240   5.026   0.223
 3639SOL    HW211817   2.207   5.057   0.066
 3640SOL     OW11818   3.292   5.867   1.350
 3640SOL    HW111819   3.377   5.818   1.367
 3640SOL    HW211820   3.218   5.824   1.401
 3641SOL     OW11821   2.660   0.607   5.012
 3641SOL    HW111822   2.732   0.670   4.983
 3641SOL    HW211823   2.700   0.517   5.029
 3642SOL     OW11824   5.931   0.077   3.453
 3642SOL    HW111825   5.984   0.143   3.506
 3642SOL    HW211826   5.951   7.006   3.484
 3643SOL     OW11827   2.579   4.571   5.149
 3643SOL    HW111828   2.677   4.579   5.169
 3643SOL    HW211829   2.541   4.494   5.200
 3644SOL     OW11830   7.004   1.122   0.945
 3644SOL    HW111831   7.008   1.158   1.038
 3644SOL    HW211832   0.063   1.066   0.927
 3645SOL     OW11833   3.317   0.383   3.259
 3645SOL    HW111834   3.391   0.441   3.225
 3645SOL    HW211835   3.354   0.292   3.280
 3646SOL     OW11836   7.016   4.920   4.786
 3646SOL    HW111837   0.024   4.915   4.691
 3646SOL    HW211838   6.927   4.878   4.796
 3647SOL     OW11839   2.568   2.857   1.137
 3647SOL    HW111840   2.648   2.914   1.156
 3647SOL    HW211841   2.485   2.912   1.150
 3648SOL     OW11842   2.908   6.164   2.876
 3648SOL    HW111843   2.961   6.235   2.924
 3648SOL    HW211844   2.892   6.193   2.782
 3649SOL     OW11845   3.102   3.915   1.894
 3649SOL    HW111846   3.192   3.872   1.883
 3649SOL    HW211847   3.099   4.000   1.841
 3650SOL     OW11848   6.934   6.981   1.758
 3650SOL    HW111849   6.996   6.923   1.811
 3650SOL    HW211850   6.867   6.924   1.711
 3651SOL     OW11851   1.823   5.882   2.337
 3651SOL    HW111852   1.794   5.807   2.397
 3651SOL    HW211853   1.788   5.866   2.245
 3652SOL     OW11854   4.486   5.517   3.375
 3652SOL    HW111855   4.552   5.442   3.371
 3652SOL    HW211856   4.448   5.524   3.467
 3653SOL     OW11857   0.188   2.776   4.062
 3653SOL    HW111858   0.240   2.692   4.075
 3653SOL    HW211859   0.091   2.754   4.053
 3654SOL     OW11860   1.741   6.417   1.232
 3654SOL    HW111861   1.692   6.348   1.286
 3654SOL    HW211862   1.675   6.467   1.176
 3655SOL     OW11863   1.466   0.389   4.247
 3655SOL    HW111864   1.375   0.368   4.214
 3655SOL    HW211865   1.496   0.317   4.310
 3656SOL     OW11866   2.474   2.132   2.157
 3656SOL    HW111867   2.478   2.195   2.234
 3656SOL    HW211868   2.434   2.045   2.187
 3657SOL     OW11869   3.696   6.041   1.374
 3657SOL    HW111870   3.768   6.017   1.438
 3657SOL    HW211871   3.612   5.993   1.398
 3658SOL     OW11872   1.489   5.332   6.278
 3658SOL    HW111873   1.499   5.232   6.277
 3658SOL    HW211874   1.394   5.355   6.297
 3659SOL     OW11875   1.525   4.488   6.885
 3659SOL    HW111876   1.501   4.512   6.979
 3659SOL    HW211877   1.619   4.515   6.866
 3660SOL     OW11878   4.535   5.771   1.402
 3660SOL    HW111879   4.541   5.672   1.391
 3660SOL    HW211880   4.518   5.813   1.313
 3661SOL     OW11881   4.784   1.333   0.649
 3661SOL    HW111882   4.811   1.325   0.745
 3661SOL    HW211883   4.717   1.406   0.639
 3662SOL     OW11884   3.343   6.778   5.685
 3662SOL    HW111885   3.392   6.817   5.762
 3662SOL    HW211886   3.261   6.832   5.667
 3663SOL     OW11887   1.052   3.283   6.416
 3663SOL    HW111888   0.977   3.341   6.448
 3663SOL    HW211889   1.017   3.190   6.400
 3664SOL     OW11890   4.151   1.330   0.718
 3664SOL    HW111891   4.087   1.335   0.641
 3664SOL    HW211892   4.223   1.264   0.698
 3665SOL     OW11893   1.138   6.962   6.013
 3665SOL    HW111894   1.221   7.017   6.012
 3665SOL    HW211895   1.144   6.891   5.943
 3666SOL     OW11896   0.828   5.365   4.044
 3666SOL    HW111897   0.872   5.322   4.123
 3666SOL    HW211898   0.768   5.298   4.000
 3667SOL     OW11899   6.660   1.939   6.806
 3667SOL    HW111900   6.728   2.011   6.790
 3667SOL    HW211901   6.688   1.883   6.883
 3668SOL     OW11902   1.041   6.113   2.001
 3668SOL    HW111903   1.078   6.204   2.021
 3668SOL    HW211904   1.084   6.046   2.062
 3669SOL     OW11905   6.438   3.069   3.014
 3669SOL    HW111906   6.466   3.157   3.051
 3669SOL    HW211907   6.495   2.997   3.053
 3670SOL     OW11908   1.987   5.736   5.664
 3670SOL    HW111909   1.975   5.833   5.684
 3670SOL    HW211910   2.028   5.726   5.573
 3671SOL     OW11911   0.638   0.853   2.955
 3671SOL    HW111912   0.680   0.763   2.969
 3671SOL    HW211913   0.703   0.924   2.978
 3672SOL     OW11914   0.089   0.792   0.993
 3672SOL    HW111915   0.127   0.846   0.918
 3672SOL    HW211916   0.062   0.702   0.961
 3673SOL     OW11917   5.261   0.344   6.817
 3673SOL    HW111918   5.232   0.437   6.793
 3673SOL    HW211919   5.321   0.348   6.897
 3674SOL     OW11920   1.063   6.443   1.014
 3674SOL    HW111921   0.983   6.386   1.028
 3674SOL    HW211922   1.081   6.497   1.096
 3675SOL     OW11923   1.754   2.160   5.257
 3675SOL    HW111924   1.732   2.063   5.254
 3675SOL    HW211925   1.733   2.196   5.348
 3676SOL     OW11926   2.051   5.489   3.413
 3676SOL    HW111927   1.955   5.514   3.422
 3676SOL    HW211928   2.081   5.509   3.320
 3677SOL     OW11929   6.473   6.730   4.554
 3677SOL    HW111930   6.454   6.783   4.471
 3677SOL    HW211931   6.404   6.658   4.564
 3678SOL     OW11932   1.161   1.849   3.815
 3678SOL    HW111933   1.144   1.821   3.720
 3678SOL    HW211934   1.082   1.898   3.850
 3679SOL     OW11935   0.434   0.751   1.933
 3679SOL    HW111936   0.460   0.776   2.026
 3679SOL    HW211937   0.488   0.671   1.904
 3680SOL     OW11938   6.779   3.532   4.211
 3680SOL    HW111939   6.798   3.514   4.307
 3680SOL    HW211940   6.802   3.452   4.156
 3681SOL     OW11941   6.971   6.117   5.714
 3681SOL    HW111942   7.008   6.024   5.708
 3681SOL    HW211943   0.022   6.181   5.738
 3682SOL     OW11944   0.427   1.610   6.140
 3682SOL    HW111945   0.473   1.699   6.135
 3682SOL    HW211946   0.328   1.624   6.138
 3683SOL     OW11947   5.147   6.464   4.262
 3683SOL    HW111948   5.134   6.443   4.359
 3683SOL    HW211949   5.206   6.544   4.253
 3684SOL     OW11950   1.411   3.344   0.791
 3684SOL    HW111951   1.395   3.423   0.732
 3684SOL    HW211952   1.362   3.356   0.878
 3685SOL     OW11953   6.804   6.784   6.581
 3685SOL    HW111954   6.823   6.877   6.613
 3685SOL    HW211955   6.817   6.779   6.482
 3686SOL     OW11956   6.354   4.356   1.554
 3686SOL    HW111957   6.265   4.349   1.598
 3686SOL    HW211958   6.375   4.270   1.507
 3687SOL     OW11959   3.140   0.773   0.437
 3687SOL    HW111960   3.189   0.852   0.475
 3687SOL    HW211961   3.054   0.761   0.486
 3688SOL     OW11962   0.770   3.779   0.377
 3688SOL    HW111963   0.702   3.818   0.315
 3688SOL    HW211964   0.862   3.798   0.342
 3689SOL     OW11965   2.450   0.636   3.633
 3689SOL    HW111966   2.365   0.666   3.676
 3689SOL    HW211967   2.478   0.704   3.564
 3690SOL     OW11968   6.111   6.889   5.447
 3690SOL    HW111969   6.159   6.969   5.484
 3690SOL    HW211970   6.017   6.915   5.424
 3691SOL     OW11971   3.673   2.746   6.919
 3691SOL    HW111972   3.747   2.812   6.930
 3691SOL    HW211973   3.696   2.681   6.846
 3692SOL     OW11974   1.791   0.416   5.745
 3692SOL    HW111975   1.826   0.430   5.652
 3692SOL    HW211976   1.764   0.321   5.757
 3693SOL     OW11977   2.545   1.988   2.711
 3693SOL    HW111978   2.533   1.926   2.789
 3693SOL    HW211979   2.484   2.067   2.722
 3694SOL     OW11980   1.905   6.094   2.902
 3694SOL    HW111981   1.806   6.106   2.895
 3694SOL    HW211982   1.930   6.003   2.869
 3695SOL     OW11983   1.945   2.337   2.338
 3695SOL    HW111984   1.858   2.299   2.306
 3695SOL    HW211985   1.962   2.307   2.432
 3696SOL     OW11986   3.391   6.510   5.782
 3696SOL    HW111987   3.324   6.436   5.778
 3696SOL    HW211988   3.353   6.591   5.738
 3697SOL     OW11989   6.145   0.086   4.308
 3697SOL    HW111990   6.113   7.014   4.310
 3697SOL    HW211991   6.093   0.141   4.373
 3698SOL     OW11992   2.951   0.049   5.950
 3698SOL    HW111993   2.982   0.079   6.040
 3698SOL    HW211994   2.960   0.123   5.885
 3699SOL     OW11995   0.680   3.792   2.292
 3699SOL    HW111996   0.605   3.835   2.342
 3699SOL    HW211997   0.732   3.733   2.353
 3700SOL     OW11998   0.282   6.795   4.225
 3700SOL    HW111999   0.372   6.780   4.184
 3700SOL    HW212000   0.281   6.758   4.318
 3701SOL     OW12001   6.007   0.697   3.630
 3701SOL    HW112002   6.077   0.659   3.570
 3701SOL    HW212003   5.970   0.781   3.589
 3702SOL     OW12004   3.320   0.943   6.963
 3702SOL    HW112005   3.368   0.933   0.029
 3702SOL    HW212006   3.253   1.016   6.971
 3703SOL     OW12007   4.355   4.629   6.516
 3703SOL    HW112008   4.444   4.650   6.475
 3703SOL    HW212009   4.290   4.701   6.494
 3704SOL     OW12010   1.962   0.549   2.503
 3704SOL    HW112011   1.921   0.561   2.413
 3704SOL    HW212012   1.904   0.489   2.558
 3705SOL     OW12013   5.744   1.021   4.194
 3705SOL    HW112014   5.791   0.984   4.273
 3705SOL    HW212015   5.662   1.069   4.223
 3706SOL     OW12016   1.930   2.403   3.845
 3706SOL    HW112017   1.945   2.374   3.939
 3706SOL    HW212018   2.017   2.428   3.803
 3707SOL     OW12019   4.380   2.655   5.253
 3707SOL    HW112020   4.424   2.622   5.169
 3707SOL    HW212021   4.286   2.620   5.257
 3708SOL     OW12022   5.873   0.292   6.073
 3708SOL    HW112023   5.961   0.258   6.105
 3708SOL    HW212024   5.881   0.387   6.045
 3709SOL     OW12025   4.039   0.650   6.562
 3709SOL    HW112026   4.135   0.669   6.582
 3709SOL    HW212027   3.992   0.735   6.536
 3710SOL     OW12028   0.250   4.965   0.900
 3710SOL    HW112029   0.339   4.927   0.924
 3710SOL    HW212030   0.262   5.055   0.857
 3711SOL     OW12031   6.419   4.943   2.780
 3711SOL    HW112032   6.343   4.878   2.778
 3711SOL    HW212033   6.498   4.904   2.733
 3712SOL     OW12034   2.383   6.941   0.702
 3712SOL    HW112035   2.364   6.849   0.669
 3712SOL    HW212036   2.317   7.005   0.661
 3713SOL     OW12037   3.755   5.521   5.440
 3713SOL    HW112038   3.801   5.579   5.508
 3713SOL    HW212039   3.659   5.510   5.465
 3714SOL     OW12040   3.491   0.528   4.883
 3714SOL    HW112041   3.582   0.571   4.879
 3714SOL    HW212042   3.451   0.543   4.974
 3715SOL     OW12043   5.780   3.684   5.047
 3715SOL    HW112044   5.801   3.606   5.107
 3715SOL    HW212045   5.863   3.711   4.998
 3716SOL     OW12046   0.079   0.864   4.262
 3716SOL    HW112047   0.176   0.846   4.274
 3716SOL    HW212048   0.030   0.778   4.248
 3717SOL     OW12049   5.599   0.047   0.429
 3717SOL    HW112050   5.613   6.975   0.462
 3717SOL    HW212051   5.502   0.063   0.414
 3718SOL     OW12052   0.962   5.749   0.007
 3718SOL    HW112053   0.945   5.838   6.986
 3718SOL    HW212054   0.977   5.761   0.105
 3719SOL     OW12055   3.298   5.202   5.697
 3719SOL    HW112056   3.368   5.182   5.629
 3719SOL    HW212057   3.225   5.134   5.691
 3720SOL     OW12058   6.635   2.097   5.709
 3720SOL    HW112059   6.716   2.134   5.664
 3720SOL    HW212060   6.618   2.149   5.793
 3721SOL     OW12061   5.207   3.638   0.716
 3721SOL    HW112062   5.260   3.639   0.801
 3721SOL    HW212063   5.110   3.637   0.737
 3722SOL     OW12064   6.471   5.894   2.314
 3722SOL    HW112065   6.565   5.912   2.344
 3722SOL    HW212066   6.453   5.796   2.316
 3723SOL     OW12067   4.548   1.162   0.871
 3723SOL    HW112068   4.496   1.245   0.850
 3723SOL    HW212069   4.595   1.132   0.788
 3724SOL     OW12070   1.054   5.638   6.157
 3724SOL    HW112071   1.143   5.668   6.124
 3724SOL    HW212072   0.992   5.717   6.162
 3725SOL     OW12073   0.115   6.649   0.646
 3725SOL    HW112074   0.016   6.655   0.643
 3725SOL    HW212075   0.155   6.702   0.571
 3726SOL     OW12076   5.756   3.445   1.773
 3726SOL    HW112077   5.773   3.353   1.809
 3726SOL    HW212078   5.768   3.444   1.673
 3727SOL     OW12079   2.166   3.271   5.529
 3727SOL    HW112080   2.210   3.190   5.489
 3727SOL    HW212081   2.167   3.345   5.462
 3728SOL     OW12082   1.468   3.463   6.712
 3728SOL    HW112083   1.394   3.458   6.779
 3728SOL    HW212084   1.442   3.523   6.637
 3729SOL     OW12085   0.594   2.577   3.365
 3729SOL    HW112086   0.666   2.643   3.349
 3729SOL    HW212087   0.575   2.572   3.463
 3730SOL     OW12088   2.870   0.759   0.495
 3730SOL    HW112089   2.790   0.811   0.524
 3730SOL    HW212090   2.853   0.718   0.405
 3731SOL     OW12091   3.926   6.552   6.957
 3731SOL    HW112092   3.960   6.518   6.870
 3731SOL    HW212093   3.830   6.577   6.948
 3732SOL     OW12094   2.243   3.777   5.254
 3732SOL    HW112095   2.186   3.777   5.172
 3732SOL    HW212096   2.320   3.840   5.242
 3733SOL     OW12097   2.441   3.669   1.402
 3733SOL    HW112098   2.432   3.570   1.395
 3733SOL    HW212099   2.489   3.704   1.322
 3734SOL     OW12100   5.196   0.473   2.460
 3734SOL    HW112101   5.206   0.555   2.404
 3734SOL    HW212102   5.114   0.481   2.517
 3735SOL     OW12103   3.498   1.416   2.026
 3735SOL    HW112104   3.430   1.403   1.954
 3735SOL    HW212105   3.495   1.511   2.059
 3736SOL     OW12106   5.438   1.828   0.101
 3736SOL    HW112107   5.403   1.800   0.012
 3736SOL    HW212108   5.507   1.762   0.132
 3737SOL     OW12109   4.675   6.689   3.478
 3737SOL    HW112110   4.745   6.621   3.499
 3737SOL    HW212111   4.630   6.718   3.563
 3738SOL     OW12112   6.965   6.941   3.633
 3738SOL    HW112113   7.021   6.881   3.690
 3738SOL    HW212114   6.996   0.013   3.644
 3739SOL     OW12115   0.530   4.322   2.457
 3739SOL    HW112116   0.557   4.273   2.374
 3739SOL    HW212117   0.461   4.268   2.506
 3740SOL     OW12118   5.309   0.711   0.433
 3740SOL    HW112119   5.387   0.661   0.470
 3740SOL    HW212120   5.275   0.665   0.351
 3741SOL     OW12121   3.921   2.501   6.448
 3741SOL    HW112122   3.867   2.419   6.465
 3741SOL    HW212123   3.868   2.582   6.472
 3742SOL     OW12124   3.678   3.118   5.395
 3742SOL    HW112125   3.596   3.096   5.448
 3742SOL    HW212126   3.663   3.095   5.299
 3743SOL     OW12127   0.168   5.490   6.361
 3743SOL    HW112128   0.219   5.486   6.275
 3743SOL    HW212129   0.198   5.417   6.422
 3744SOL     OW12130   0.028   6.012   2.841
 3744SOL    HW112131   0.007   5.915   2.826
 3744SOL    HW212132   0.114   6.034   2.796
 3745SOL     OW12133   4.799   5.872   2.264
 3745SOL    HW112134   4.757   5.874   2.355
 3745SOL    HW212135   4.766   5.950   2.211
 3746SOL     OW12136   4.122   1.854   2.547
 3746SOL    HW112137   4.209   1.896   2.520
 3746SOL    HW212138   4.102   1.879   2.642
 3747SOL     OW12139   2.953   0.035   0.145
 3747SOL    HW112140   2.885   0.019   0.217
 3747SOL    HW212141   3.044   0.016   0.181
 3748SOL     OW12142   5.605   1.178   2.474
 3748SOL    HW112143   5.675   1.236   2.516
 3748SOL    HW212144   5.514   1.215   2.495
 3749SOL     OW12145   1.288   6.892   5.387
 3749SOL    HW112146   1.231   6.861   5.463
 3749SOL    HW212147   1.372   6.932   5.423
 3750SOL     OW12148   0.292   4.111   0.015
 3750SOL    HW112149   0.208   4.093   6.985
 3750SOL    HW212150   0.271   4.111   0.113
 3751SOL     OW12151   1.158   3.716   2.347
 3751SOL    HW112152   1.073   3.747   2.307
 3751SOL    HW212153   1.161   3.616   2.345
 3752SOL     OW12154   5.788   0.257   6.848
 3752SOL    HW112155   5.795   0.183   6.915
 3752SOL    HW212156   5.838   0.337   6.881
 3753SOL     OW12157   6.468   0.012   3.770
 3753SOL    HW112158   6.432   0.056   3.688
 3753SOL    HW212159   6.562   7.003   3.752
 3754SOL     OW12160   2.878   1.759   0.913
 3754SOL    HW112161   2.871   1.831   0.845
 3754SOL    HW212162   2.950   1.782   0.978
 3755SOL     OW12163   2.935   4.825   3.891
 3755SOL    HW112164   3.000   4.851   3.963
 3755SOL    HW212165   2.855   4.781   3.932
 3756SOL     OW12166   2.600   6.323   6.897
 3756SOL    HW112167   2.561   6.329   6.989
 3756SOL    HW212168   2.649   6.408   6.876
 3757SOL     OW12169   6.892   4.619   1.903
 3757SOL    HW112170   6.969   4.578   1.854
 3757SOL    HW212171   6.910   4.716   1.919
 3758SOL     OW12172   1.873   0.137   4.080
 3758SOL    HW112173   1.944   0.160   4.013
 3758SOL    HW212174   1.846   0.219   4.129
 3759SOL     OW12175   5.166   0.330   4.679
 3759SOL    HW112176   5.120   0.413   4.647
 3759SOL    HW212177   5.140   0.312   4.774
 3760SOL     OW12178   0.447   0.880   3.514
 3760SOL    HW112179   0.474   0.802   3.457
 3760SOL    HW212180   0.467   0.965   3.466
 3761SOL     OW12181   5.073   1.155   4.287
 3761SOL    HW112182   5.053   1.251   4.267
 3761SOL    HW212183   5.145   1.123   4.225
 3762SOL     OW12184   6.659   2.420   3.487
 3762SOL    HW112185   6.654   2.321   3.479
 3762SOL    HW212186   6.728   2.445   3.556
 3763SOL     OW12187   0.730   4.487   0.633
 3763SOL    HW112188   0.684   4.549   0.697
 3763SOL    HW212189   0.768   4.540   0.557
 3764SOL     OW12190   2.331   0.742   2.918
 3764SOL    HW112191   2.351   0.806   2.844
 3764SOL    HW212192   2.411   0.683   2.934
 3765SOL     OW12193   5.356   3.067   2.695
 3765SOL    HW112194   5.452   3.068   2.722
 3765SOL    HW212195   5.330   2.973   2.672
 3766SOL     OW12196   0.952   3.930   2.932
 3766SOL    HW112197   0.925   3.940   3.027
 3766SOL    HW212198   1.051   3.942   2.924
 3767SOL     OW12199   1.195   5.232   6.002
 3767SOL    HW112200   1.110   5.215   5.952
 3767SOL    HW212201   1.252   5.150   6.000
 3768SOL     OW12202   0.616   6.757   2.967
 3768SOL    HW112203   0.667   6.811   2.901
 3768SOL    HW212204   0.638   6.788   3.060
 3769SOL     OW12205   5.523   5.181   4.714
 3769SOL    HW112206   5.596   5.198   4.781
 3769SOL    HW212207   5.555   5.114   4.647
 3770SOL     OW12208   1.829   1.108   1.200
 3770SOL    HW112209   1.861   1.033   1.141
 3770SOL    HW212210   1.908   1.149   1.247
 3771SOL     OW12211   6.601   5.077   6.118
 3771SOL    HW112212   6.694   5.087   6.082
 3771SOL    HW212213   6.605   5.042   6.211
 3772SOL     OW12214   1.713   6.213   0.751
 3772SOL    HW112215   1.672   6.183   0.837
 3772SOL    HW212216   1.810   6.191   0.750
 3773SOL     OW12217   5.274   4.960   6.808
 3773SOL    HW112218   5.325   5.030   6.858
 3773SOL    HW212219   5.335   4.885   6.783
 3774SOL     OW12220   6.684   5.195   1.892
 3774SOL    HW112221   6.756   5.217   1.826
 3774SOL    HW212222   6.709   5.230   1.982
 3775SOL     OW12223   4.875   4.868   4.988
 3775SOL    HW112224   4.798   4.831   5.040
 3775SOL    HW212225   4.848   4.881   4.892
 3776SOL     OW12226   3.571   2.688   5.761
 3776SOL    HW112227   3.618   2.773   5.787
 3776SOL    HW212228   3.472   2.704   5.762
 3777SOL     OW12229   2.814   5.867   4.287
 3777SOL    HW112230   2.734   5.808   4.302
 3777SOL    HW212231   2.868   5.830   4.212
 3778SOL     OW12232   3.622   5.551   6.303
 3778SOL    HW112233   3.563   5.582   6.229
 3778SOL    HW212234   3.645   5.628   6.362
 3779SOL     OW12235   6.831   4.457   0.144
 3779SOL    HW112236   6.905   4.451   0.078
 3779SOL    HW212237   6.819   4.552   0.173
 3780SOL     OW12238   5.112   4.059   1.345
 3780SOL    HW112239   5.034   4.112   1.378
 3780SOL    HW212240   5.116   4.064   1.245
 3781SOL     OW12241   2.714   6.625   4.612
 3781SOL    HW112242   2.703   6.541   4.559
 3781SOL    HW212243   2.741   6.699   4.550
 3782SOL     OW12244   4.614   5.652   0.929
 3782SOL    HW112245   4.529   5.599   0.930
 3782SOL    HW212246   4.680   5.611   0.993
 3783SOL     OW12247   5.046   5.787   4.268
 3783SOL    HW112248   5.103   5.706   4.282
 3783SOL    HW212249   4.989   5.802   4.349
 3784SOL     OW12250   6.228   1.929   4.419
 3784SOL    HW112251   6.192   1.926   4.512
 3784SOL    HW212252   6.239   2.025   4.391
 3785SOL     OW12253   2.036   3.163   4.135
 3785SOL    HW112254   2.005   3.258   4.129
 3785SOL    HW212255   1.963   3.106   4.173
 3786SOL     OW12256   2.419   2.585   4.634
 3786SOL    HW112257   2.517   2.569   4.633
 3786SOL    HW212258   2.377   2.528   4.705
 3787SOL     OW12259   4.473   6.891   4.089
 3787SOL    HW112260   4.571   6.885   4.071
 3787SOL    HW212261   4.424   6.841   4.017
 3788SOL     OW12262   5.782   2.879   4.969
 3788SOL    HW112263   5.745   2.865   4.877
 3788SOL    HW212264   5.710   2.913   5.029
 3789SOL     OW12265   2.084   3.294   2.450
 3789SOL    HW112266   2.160   3.355   2.472
 3789SOL    HW212267   2.055   3.309   2.355
 3790SOL     OW12268   0.363   6.844   1.656
 3790SOL    HW112269   0.390   6.938   1.675
 3790SOL    HW212270   0.438   6.782   1.682
 3791SOL     OW12271   5.401   1.162   5.773
 3791SOL    HW112272   5.435   1.078   5.815
 3791SOL    HW212273   5.336   1.139   5.701
 3792SOL     OW12274   6.544   0.439   4.491
 3792SOL    HW112275   6.642   0.457   4.502
 3792SOL    HW212276   6.494   0.474   4.571
 3793SOL     OW12277   4.674   5.004   0.646
 3793SOL    HW112278   4.734   5.032   0.721
 3793SOL    HW212279   4.708   4.920   0.605
 3794SOL     OW12280   0.347   4.119   6.576
 3794SOL    HW112281   0.345   4.133   6.477
 3794SOL    HW212282   0.321   4.024   6.596
 3795SOL     OW12283   2.532   5.875   1.008
 3795SOL    HW112284   2.549   5.781   1.037
 3795SOL    HW212285   2.562   5.937   1.081
 3796SOL     OW12286   4.968   1.225   6.918
 3796SOL    HW112287   4.883   1.276   6.935
 3796SOL    HW212288   5.041   1.288   6.892
 3797SOL     OW12289   1.000   4.530   2.247
 3797SOL    HW112290   0.934   4.542   2.321
 3797SOL    HW212291   1.054   4.447   2.264
 3798SOL     OW12292   1.258   5.857   3.607
 3798SOL    HW112293   1.315   5.914   3.548
 3798SOL    HW212294   1.271   5.885   3.702
 3799SOL     OW12295   6.654   1.100   3.133
 3799SOL    HW112296   6.586   1.029   3.110
 3799SOL    HW212297   6.654   1.114   3.232
 3800SOL     OW12298   4.788   2.393   2.845
 3800SOL    HW112299   4.689   2.392   2.832
 3800SOL    HW212300   4.833   2.374   2.757
 3801SOL     OW12301   6.076   1.448   1.559
 3801SOL    HW112302   6.023   1.457   1.474
 3801SOL    HW212303   6.115   1.356   1.563
 3802SOL     OW12304   6.334   2.676   2.145
 3802SOL    HW112305   6.336   2.699   2.048
 3802SOL    HW212306   6.247   2.706   2.184
 3803SOL     OW12307   3.400   2.992   4.342
 3803SOL    HW112308   3.446   3.052   4.408
 3803SOL    HW212309   3.315   3.034   4.313
 3804SOL     OW12310   4.615   5.886   3.641
 3804SOL    HW112311   4.602   5.974   3.595
 3804SOL    HW212312   4.657   5.821   3.578
 3805SOL     OW12313   2.623   2.613   0.098
 3805SOL    HW112314   2.595   2.700   0.057
 3805SOL    HW212315   2.708   2.627   0.149
 3806SOL     OW12316   2.736   4.673   1.428
 3806SOL    HW112317   2.683   4.753   1.399
 3806SOL    HW212318   2.764   4.685   1.524
 3807SOL     OW12319   1.921   4.699   4.719
 3807SOL    HW112320   1.880   4.760   4.786
 3807SOL    HW212321   1.851   4.666   4.656
 3808SOL     OW12322   3.066   0.000   6.499
 3808SOL    HW112323   2.972   6.990   6.493
 3808SOL    HW212324   3.128   6.944   6.494
 3809SOL     OW12325   5.156   2.015   1.542
 3809SOL    HW112326   5.058   2.018   1.523
 3809SOL    HW212327   5.187   1.919   1.546
 3810SOL     OW12328   5.740   2.554   2.100
 3810SOL    HW112329   5.800   2.633   2.089
 3810SOL    HW212330   5.646   2.585   2.117
 3811SOL     OW12331   0.202   5.597   5.416
 3811SOL    HW112332   0.205   5.563   5.321
 3811SOL    HW212333   0.228   5.523   5.478
 3812SOL     OW12334   4.948   6.010   0.901
 3812SOL    HW112335   4.957   5.914   0.927
 3812SOL    HW212336   5.019   6.064   0.946
 3813SOL     OW12337   5.947   4.317   6.763
 3813SOL    HW112338   5.876   4.384   6.785
 3813SOL    HW212339   6.035   4.351   6.794
 3814SOL     OW12340   6.895   0.535   5.022
 3814SOL    HW112341   6.829   0.572   5.088
 3814SOL    HW212342   6.892   0.435   5.026
 3815SOL     OW12343   6.127   3.624   5.778
 3815SOL    HW112344   6.178   3.653   5.859
 3815SOL    HW212345   6.077   3.702   5.740
 3816SOL     OW12346   0.124   6.258   0.344
 3816SOL    HW112347   0.223   6.260   0.357
 3816SOL    HW212348   0.082   6.194   0.408
 3817SOL     OW12349   4.815   3.910   1.913
 3817SOL    HW112350   4.760   3.834   1.879
 3817SOL    HW212351   4.767   3.996   1.896
 3818SOL     OW12352   5.810   5.990   2.889
 3818SOL    HW112353   5.901   6.031   2.885
 3818SOL    HW212354   5.775   5.995   2.982
 3819SOL     OW12355   6.329   4.722   4.104
 3819SOL    HW112356   6.355   4.626   4.107
 3819SOL    HW212357   6.411   4.778   4.088
 3820SOL     OW12358   3.588   6.576   5.025
 3820SOL    HW112359   3.591   6.536   4.933
 3820SOL    HW212360   3.578   6.502   5.092
 3821SOL     OW12361   2.176   0.175   7.020
 3821SOL    HW112362   2.131   0.194   0.086
 3821SOL    HW212363   2.108   0.141   6.955
 3822SOL     OW12364   4.741   0.249   1.855
 3822SOL    HW112365   4.776   0.176   1.915
 3822SOL    HW212366   4.738   0.215   1.761
 3823SOL     OW12367   5.488   5.802   6.759
 3823SOL    HW112368   5.519   5.897   6.752
 3823SOL    HW212369   5.417   5.785   6.691
 3824SOL     OW12370   2.929   2.676   0.384
 3824SOL    HW112371   3.000   2.660   0.315
 3824SOL    HW212372   2.969   2.725   0.461
 3825SOL     OW12373   0.921   3.939   5.472
 3825SOL    HW112374   0.835   3.933   5.524
 3825SOL    HW212375   0.912   4.006   5.399
 3826SOL     OW12376   5.794   4.258   3.775
 3826SOL    HW112377   5.829   4.334   3.722
 3826SOL    HW212378   5.865   4.223   3.836
 3827SOL     OW12379   0.847   1.497   1.317
 3827SOL    HW112380   0.810   1.440   1.243
 3827SOL    HW212381   0.930   1.454   1.353
 3828SOL     OW12382   3.207   3.654   4.081
 3828SOL    HW112383   3.229   3.570   4.130
 3828SOL    HW212384   3.182   3.631   3.987
 3829SOL     OW12385   0.933   3.719   2.167
 3829SOL    HW112386   0.844   3.720   2.213
 3829SOL    HW212387   0.957   3.625   2.142
 3830SOL     OW12388   6.147   0.830   4.213
 3830SOL    HW112389   6.079   0.841   4.140
 3830SOL    HW212390   6.237   0.855   4.178
 3831SOL     OW12391   4.849   2.082   3.627
 3831SOL    HW112392   4.828   2.020   3.703
 3831SOL    HW212393   4.775   2.077   3.560
 3832SOL     OW12394   5.858   0.806   3.840
 3832SOL    HW112395   5.790   0.754   3.788
 3832SOL    HW212396   5.949   0.789   3.802
 3833SOL     OW12397   1.315   1.396   5.533
 3833SOL    HW112398   1.223   1.435   5.525
 3833SOL    HW212399   1.382   1.460   5.494
 3834SOL     OW12400   4.860   4.183   0.566
 3834SOL    HW112401   4.942   4.150   0.613
 3834SOL    HW212402   4.780   4.134   0.601
 3835SOL     OW12403   3.686   5.404   4.725
 3835SOL    HW112404   3.695   5.304   4.721
 3835SOL    HW212405   3.641   5.437   4.643
 3836SOL     OW12406   0.577   6.473   5.813
 3836SOL    HW112407   0.672   6.446   5.824
 3836SOL    HW212408   0.564   6.513   5.722
 3837SOL     OW12409   4.486   4.899   5.493
 3837SOL    HW112410   4.561   4.964   5.503
 3837SOL    HW212411   4.413   4.940   5.437
 3838SOL     OW12412   0.875   1.125   4.310
 3838SOL    HW112413   0.922   1.205   4.348
 3838SOL    HW212414   0.912   1.104   4.219
 3839SOL     OW12415   3.832   0.420   4.076
 3839SOL    HW112416   3.909   0.483   4.066
 3839SOL    HW212417   3.753   0.470   4.112
 3840SOL     OW12418   2.547   1.465   6.603
 3840SOL    HW112419   2.452   1.480   6.631
 3840SOL    HW212420   2.602   1.545   6.627
 3841SOL     OW12421   5.852   4.650   4.086
 3841SOL    HW112422   5.780   4.580   4.085
 3841SOL    HW212423   5.938   4.610   4.057
 3842SOL     OW12424   1.598   3.335   5.422
 3842SOL    HW112425   1.672   3.339   5.489
 3842SOL    HW212426   1.617   3.263   5.355
 3843SOL     OW12427   5.364   2.554   0.020
 3843SOL    HW112428   5.310   2.637   0.005
 3843SOL    HW212429   5.314   2.476   7.003
 3844SOL     OW12430   1.441   0.001   0.853
 3844SOL    HW112431   1.423   6.947   0.790
 3844SOL    HW212432   1.419   6.994   0.946
 3845SOL     OW12433   2.414   5.686   0.760
 3845SOL    HW112434   2.370   5.596   0.753
 3845SOL    HW212435   2.511   5.676   0.736
 3846SOL     OW12436   0.928   2.944   3.030
 3846SOL    HW112437   0.835   2.907   3.019
 3846SOL    HW212438   0.950   2.948   3.128
 3847SOL     OW12439   0.062   1.783   6.837
 3847SOL    HW112440   0.037   1.850   6.767
 3847SOL    HW212441   0.154   1.804   6.872
 3848SOL     OW12442   5.732   3.667   2.540
 3848SOL    HW112443   5.637   3.682   2.511
 3848SOL    HW212444   5.771   3.754   2.571
 3849SOL     OW12445   6.695   5.096   6.972
 3849SOL    HW112446   6.769   5.129   0.009
 3849SOL    HW212447   6.724   5.098   6.877
 3850SOL     OW12448   2.637   2.700   1.396
 3850SOL    HW112449   2.547   2.673   1.363
 3850SOL    HW212450   2.708   2.650   1.346
 3851SOL     OW12451   0.529   6.207   2.612
 3851SOL    HW112452   0.523   6.266   2.532
 3851SOL    HW212453   0.580   6.254   2.684
 3852SOL     OW12454   2.774   6.309   5.949
 3852SOL    HW112455   2.703   6.377   5.928
 3852SOL    HW212456   2.798   6.260   5.865
 3853SOL     OW12457   2.260   0.497   3.446
 3853SOL    HW112458   2.331   0.496   3.517
 3853SOL    HW212459   2.172   0.474   3.488
 3854SOL     OW12460   1.828   2.512   2.661
 3854SOL    HW112461   1.907   2.574   2.660
 3854SOL    HW212462   1.861   2.417   2.660
 3855SOL     OW12463   4.227   0.114   0.268
 3855SOL    HW112464   4.318   0.106   0.309
 3855SOL    HW212465   4.164   0.052   0.314
 3856SOL     OW12466   0.462   2.212   6.768
 3856SOL    HW112467   0.463   2.312   6.774
 3856SOL    HW212468   0.533   2.175   6.828
 3857SOL     OW12469   2.305   0.780   5.364
 3857SOL    HW112470   2.298   0.818   5.272
 3857SOL    HW212471   2.284   0.851   5.431
 3858SOL     OW12472   4.456   0.331   5.433
 3858SOL    HW112473   4.490   0.304   5.523
 3858SOL    HW212474   4.369   0.380   5.444
 3859SOL     OW12475   5.867   0.207   1.957
 3859SOL    HW112476   5.831   0.133   2.013
 3859SOL    HW212477   5.798   0.278   1.947
 3860SOL     OW12478   1.074   6.986   4.156
 3860SOL    HW112479   1.017   0.046   4.162
 3860SOL    HW212480   1.016   6.905   4.142
 3861SOL     OW12481   3.683   5.780   1.829
 3861SOL    HW112482   3.761   5.831   1.867
 3861SOL    HW212483   3.608   5.844   1.810
 3862SOL     OW12484   1.352   0.289   3.649
 3862SOL    HW112485   1.384   0.322   3.738
 3862SOL    HW212486   1.372   0.191   3.641
 3863SOL     OW12487   4.023   0.273   0.541
 3863SOL    HW112488   4.043   0.369   0.522
 3863SOL    HW212489   4.046   0.253   0.636
 3864SOL     OW12490   2.479   0.117   4.325
 3864SOL    HW112491   2.417   0.171   4.381
 3864SOL    HW212492   2.573   0.133   4.355
 3865SOL     OW12493   3.769   0.500   0.252
 3865SOL    HW112494   3.791   0.564   0.179
 3865SOL    HW212495   3.833   0.423   0.250
 3866SOL     OW12496   2.711   2.822   6.641
 3866SOL    HW112497   2.723   2.802   6.544
 3866SOL    HW212498   2.630   2.880   6.653
 3867SOL     OW12499   0.729   3.431   1.981
 3867SOL    HW112500   0.650   3.464   2.032
 3867SOL    HW212501   0.702   3.351   1.927
 3868SOL     OW12502   4.358   0.903   6.997
 3868SOL    HW112503   4.261   0.924   7.011
 3868SOL    HW212504   4.369   0.853   6.911
 3869SOL     OW12505   6.468   3.058   3.374
 3869SOL    HW112506   6.382   3.101   3.345
 3869SOL    HW212507   6.481   3.072   3.472
 3870SOL     OW12508   6.912   0.277   3.890
 3870SOL    HW112509   6.859   0.333   3.828
 3870SOL    HW212510   6.851   0.216   3.941
 3871SOL     OW12511   3.168   5.646   4.195
 3871SOL    HW112512   3.104   5.575   4.225
 3871SOL    HW212513   3.136   5.685   4.109
 3872SOL     OW12514   3.480   3.525   5.039
 3872SOL    HW112515   3.546   3.579   4.987
 3872SOL    HW212516   3.391   3.529   4.994
 3873SOL     OW12517   4.615   2.190   0.511
 3873SOL    HW112518   4.525   2.233   0.515
 3873SOL    HW212519   4.685   2.256   0.539
 3874SOL     OW12520   2.935   0.562   0.277
 3874SOL    HW112521   3.018   0.605   0.240
 3874SOL    HW212522   2.893   0.504   0.207
 3875SOL     OW12523   1.397   2.337   5.665
 3875SOL    HW112524   1.396   2.362   5.569
 3875SOL    HW212525   1.402   2.419   5.721
 3876SOL     OW12526   4.162   5.405   0.949
 3876SOL    HW112527   4.129   5.479   0.891
 3876SOL    HW212528   4.147   5.317   0.904
 3877SOL     OW12529   6.870   2.324   0.469
 3877SOL    HW112530   6.930   2.246   0.490
 3877SOL    HW212531   6.863   2.335   0.370
 3878SOL     OW12532   4.056   0.043   3.763
 3878SOL    HW112533   4.104   6.977   3.762
 3878SOL    HW212534   4.086   0.096   3.842
 3879SOL     OW12535   5.090   5.061   0.016
 3879SOL    HW112536   5.124   5.026   0.104
 3879SOL    HW212537   5.063   4.985   6.980
 3880SOL     OW12538   4.815   4.213   4.287
 3880SOL    HW112539   4.890   4.153   4.313
 3880SOL    HW212540   4.756   4.230   4.366
 3881SOL     OW12541   0.988   3.962   0.297
 3881SOL    HW112542   1.023   3.929   0.210
 3881SOL    HW212543   1.064   3.969   0.362
 3882SOL     OW12544   0.816   1.795   0.818
 3882SOL    HW112545   0.901   1.849   0.814
 3882SOL    HW212546   0.739   1.856   0.839
 3883SOL     OW12547   4.630   6.125   3.513
 3883SOL    HW112548   4.566   6.201   3.503
 3883SOL    HW212549   4.705   6.135   3.447
 3884SOL     OW12550   0.973   5.328   2.728
 3884SOL    HW112551   0.878   5.299   2.729
 3884SOL    HW212552   1.031   5.250   2.754
 3885SOL     OW12553   5.423   6.318   2.732
 3885SOL    HW112554   5.496   6.385   2.720
 3885SOL    HW212555   5.422   6.255   2.655
 3886SOL     OW12556   4.001   6.612   6.140
 3886SOL    HW112557   3.988   6.517   6.167
 3886SOL    HW212558   3.923   6.667   6.172
 3887SOL     OW12559   0.272   6.435   1.704
 3887SOL    HW112560   0.253   6.524   1.745
 3887SOL    HW212561   0.269   6.365   1.776
 3888SOL     OW12562   5.483   6.093   4.734
 3888SOL    HW112563   5.442   6.185   4.731
 3888SOL    HW212564   5.510   6.071   4.827
 3889SOL     OW12565   5.998   3.475   6.505
 3889SOL    HW112566   6.060   3.546   6.539
 3889SOL    HW212567   5.988   3.484   6.406
 3890SOL     OW12568   5.212   3.374   4.619
 3890SOL    HW112569   5.125   3.396   4.575
 3890SOL    HW212570   5.196   3.349   4.715
 3891SOL     OW12571   5.850   5.032   3.466
 3891SOL    HW112572   5.753   5.022   3.488
 3891SOL    HW212573   5.894   5.088   3.536
 3892SOL     OW12574   0.017   2.523   1.309
 3892SOL    HW112575   6.960   2.543   1.366
 3892SOL    HW212576   0.099   2.518   1.366
 3893SOL     OW12577   4.461   3.189   1.207
 3893SOL    HW112578   4.425   3.281   1.222
 3893SOL    HW212579   4.490   3.150   1.295
 3894SOL     OW12580   4.638   0.458   6.511
 3894SOL    HW112581   4.690   0.495   6.588
 3894SOL    HW212582   4.678   0.370   6.484
 3895SOL     OW12583   1.611   6.929   4.714
 3895SOL    HW112584   1.658   6.894   4.796
 3895SOL    HW212585   1.677   6.977   4.657
 3896SOL     OW12586   1.352   1.209   6.750
 3896SOL    HW112587   1.412   1.269   6.802
 3896SOL    HW212588   1.286   1.165   6.811
 3897SOL     OW12589   4.535   5.678   1.689
 3897SOL    HW112590   4.551   5.734   1.607
 3897SOL    HW212591   4.608   5.694   1.755
 3898SOL     OW12592   4.082   2.838   6.334
 3898SOL    HW112593   4.063   2.919   6.388
 3898SOL    HW212594   3.996   2.797   6.303
 3899SOL     OW12595   4.648   6.789   6.059
 3899SOL    HW112596   4.713   6.846   6.008
 3899SOL    HW212597   4.563   6.841   6.073
 3900SOL     OW12598   5.303   3.589   2.954
 3900SOL    HW112599   5.325   3.564   3.048
 3900SOL    HW212600   5.385   3.625   2.909
 3901SOL     OW12601   2.870   0.297   6.620
 3901SOL    HW112602   2.908   0.385   6.646
 3901SOL    HW212603   2.933   0.224   6.648
 3902SOL     OW12604   6.149   3.402   2.600
 3902SOL    HW112605   6.057   3.421   2.565
 3902SOL    HW212606   6.167   3.459   2.680
 3903SOL     OW12607   3.724   5.419   6.721
 3903SOL    HW112608   3.677   5.450   6.803
 3903SOL    HW212609   3.805   5.367   6.747
 3904SOL     OW12610   1.309   0.349   0.182
 3904SOL    HW112611   1.322   0.250   0.188
 3904SOL    HW212612   1.396   0.394   0.162
 3905SOL     OW12613   0.393   5.940   5.876
 3905SOL    HW112614   0.298   5.918   5.853
 3905SOL    HW212615   0.448   5.941   5.793
 3906SOL     OW12616   5.605   6.365   5.653
 3906SOL    HW112617   5.644   6.276   5.630
 3906SOL    HW212618   5.652   6.403   5.733
 3907SOL     OW12619   5.976   1.893   3.773
 3907SOL    HW112620   5.986   1.803   3.815
 3907SOL    HW212621   5.898   1.892   3.711
 3908SOL     OW12622   0.974   2.153   6.262
 3908SOL    HW112623   0.964   2.250   6.284
 3908SOL    HW212624   0.886   2.108   6.276
 3909SOL     OW12625   5.297   5.234   4.134
 3909SOL    HW112626   5.240   5.317   4.139
 3909SOL    HW212627   5.288   5.183   4.220
 3910SOL     OW12628   3.406   3.820   2.830
 3910SOL    HW112629   3.434   3.914   2.808
 3910SOL    HW212630   3.332   3.793   2.769
 3911SOL     OW12631   5.592   1.461   5.203
 3911SOL    HW112632   5.652   1.382   5.217
 3911SOL    HW212633   5.506   1.446   5.252
 3912SOL     OW12634   5.544   2.115   5.398
 3912SOL    HW112635   5.509   2.190   5.454
 3912SOL    HW212636   5.584   2.152   5.314
 3913SOL     OW12637   1.513   6.831   6.886
 3913SOL    HW112638   1.530   6.831   6.787
 3913SOL    HW212639   1.419   6.803   6.903
 3914SOL     OW12640   3.583   6.655   6.198
 3914SOL    HW112641   3.504   6.620   6.149
 3914SOL    HW212642   3.552   6.717   6.271
 3915SOL     OW12643   5.247   5.349   1.357
 3915SOL    HW112644   5.215   5.275   1.417
 3915SOL    HW212645   5.323   5.316   1.301
 3916SOL     OW12646   1.114   0.150   2.779
 3916SOL    HW112647   1.069   0.097   2.707
 3916SOL    HW212648   1.064   0.139   2.865
 3917SOL     OW12649   1.788   0.192   6.951
 3917SOL    HW112650   1.758   0.097   6.947
 3917SOL    HW212651   1.728   0.242   7.014
 3918SOL     OW12652   5.377   4.094   1.452
 3918SOL    HW112653   5.285   4.060   1.432
 3918SOL    HW212654   5.425   4.029   1.510
 3919SOL     OW12655   3.736   0.066   0.738
 3919SOL    HW112656   3.723   7.011   0.676
 3919SOL    HW212657   3.725   0.152   0.689
 3920SOL     OW12658   1.997   2.711   6.908
 3920SOL    HW112659   2.059   2.651   6.958
 3920SOL    HW212660   1.953   2.660   6.835
 3921SOL     OW12661   1.263   4.115   1.467
 3921SOL    HW112662   1.334   4.177   1.434
 3921SOL    HW212663   1.298   4.021   1.468
 3922SOL     OW12664   0.634   3.857   1.808
 3922SOL    HW112665   0.598   3.868   1.900
 3922SOL    HW212666   0.655   3.946   1.769
 3923SOL     OW12667   0.869   0.749   0.461
 3923SOL    HW112668   0.859   0.680   0.533
 3923SOL    HW212669   0.803   0.823   0.477
 3924SOL     OW12670   6.298   4.911   4.810
 3924SOL    HW112671   6.274   4.971   4.733
 3924SOL    HW212672   6.216   4.863   4.842
 3925SOL     OW12673   1.697   5.017   2.121
 3925SOL    HW112674   1.688   4.924   2.084
 3925SOL    HW212675   1.764   5.068   2.067
 3926SOL     OW12676   4.585   4.425   2.346
 3926SOL    HW112677   4.663   4.473   2.307
 3926SOL    HW212678   4.521   4.399   2.273
 3927SOL     OW12679   0.394   3.145   6.031
 3927SOL    HW112680   0.380   3.050   6.055
 3927SOL    HW212681   0.307   3.187   6.006
 3928SOL     OW12682   5.178   5.985   6.649
 3928SOL    HW112683   5.200   5.888   6.638
 3928SOL    HW212684   5.126   5.999   6.733
 3929SOL     OW12685   0.612   1.023   5.133
 3929SOL    HW112686   0.646   0.969   5.055
 3929SOL    HW212687   0.534   0.976   5.174
 3930SOL     OW12688   2.315   1.877   2.914
 3930SOL    HW112689   2.267   1.896   3.000
 3930SOL    HW212690   2.408   1.845   2.934
 3931SOL     OW12691   6.279   1.637   1.644
 3931SOL    HW112692   6.365   1.587   1.660
 3931SOL    HW212693   6.218   1.581   1.588
 3932SOL     OW12694   0.716   2.760   3.997
 3932SOL    HW112695   0.814   2.750   4.013
 3932SOL    HW212696   0.701   2.814   3.914
 3933SOL     OW12697   1.683   0.237   6.167
 3933SOL    HW112698   1.653   0.274   6.080
 3933SOL    HW212699   1.669   0.306   6.239
 3934SOL     OW12700   6.082   6.958   6.291
 3934SOL    HW112701   6.166   6.908   6.309
 3934SOL    HW212702   6.103   0.016   6.235
 3935SOL     OW12703   4.224   0.561   0.755
 3935SOL    HW112704   4.209   0.574   0.657
 3935SOL    HW212705   4.138   0.574   0.804
 3936SOL     OW12706   6.335   5.596   4.597
 3936SOL    HW112707   6.394   5.559   4.525
 3936SOL    HW212708   6.319   5.693   4.580
 3937SOL     OW12709   0.120   1.461   2.544
 3937SOL    HW112710   0.081   1.369   2.536
 3937SOL    HW212711   0.189   1.475   2.473
 3938SOL     OW12712   6.916   1.178   3.037
 3938SOL    HW112713   6.831   1.129   3.054
 3938SOL    HW212714   6.956   1.147   2.951
 3939SOL     OW12715   3.241   1.526   1.844
 3939SOL    HW112716   3.263   1.434   1.812
 3939SOL    HW212717   3.152   1.526   1.889
 3940SOL     OW12718   3.421   3.298   1.202
 3940SOL    HW112719   3.342   3.345   1.240
 3940SOL    HW212720   3.402   3.272   1.107
 3941SOL     OW12721   4.114   4.513   6.427
 3941SOL    HW112722   4.138   4.598   6.475
 3941SOL    HW212723   4.173   4.439   6.458
 3942SOL     OW12724   6.193   6.849   6.984
 3942SOL    HW112725   6.158   6.941   6.998
 3942SOL    HW212726   6.283   6.854   6.940
 3943SOL     OW12727   0.861   3.085   4.379
 3943SOL    HW112728   0.791   3.047   4.319
 3943SOL    HW212729   0.887   3.017   4.447
 3944SOL     OW12730   4.737   2.504   4.435
 3944SOL    HW112731   4.779   2.427   4.483
 3944SOL    HW212732   4.804   2.544   4.372
 3945SOL     OW12733   0.151   1.865   1.069
 3945SOL    HW112734   0.129   1.927   1.144
 3945SOL    HW212735   0.245   1.833   1.079
 3946SOL     OW12736   4.844   4.842   3.416
 3946SOL    HW112737   4.943   4.852   3.409
 3946SOL    HW212738   4.821   4.746   3.431
 3947SOL     OW12739   4.602   6.158   0.462
 3947SOL    HW112740   4.525   6.127   0.406
 3947SOL    HW212741   4.652   6.078   0.496
 3948SOL     OW12742   6.580   4.432   1.694
 3948SOL    HW112743   6.497   4.411   1.642
 3948SOL    HW212744   6.647   4.476   1.633
 3949SOL     OW12745   4.476   5.804   3.138
 3949SOL    HW112746   4.437   5.714   3.153
 3949SOL    HW212747   4.546   5.799   3.066
 3950SOL     OW12748   1.818   5.535   1.307
 3950SOL    HW112749   1.729   5.523   1.351
 3950SOL    HW212750   1.813   5.610   1.242
 3951SOL     OW12751   4.892   0.852   1.366
 3951SOL    HW112752   4.953   0.777   1.391
 3951SOL    HW212753   4.797   0.824   1.382
 3952SOL     OW12754   0.097   3.023   0.843
 3952SOL    HW112755   0.145   2.937   0.825
 3952SOL    HW212756   0.103   3.082   0.762
 3953SOL     OW12757   4.078   3.665   2.086
 3953SOL    HW112758   4.120   3.578   2.061
 3953SOL    HW212759   3.992   3.647   2.135
 3954SOL     OW12760   4.253   5.001   5.355
 3954SOL    HW112761   4.173   5.045   5.394
 3954SOL    HW212762   4.274   5.041   5.266
 3955SOL     OW12763   3.411   1.007   6.070
 3955SOL    HW112764   3.392   1.046   5.981
 3955SOL    HW212765   3.382   0.911   6.072
 3956SOL     OW12766   1.176   0.914   2.322
 3956SOL    HW112767   1.249   0.874   2.266
 3956SOL    HW212768   1.098   0.852   2.325
 3957SOL     OW12769   3.731   0.068   4.362
 3957SOL    HW112770   3.746   0.022   4.449
 3957SOL    HW212771   3.635   0.061   4.337
 3958SOL     OW12772   6.105   1.855   4.191
 3958SOL    HW112773   6.149   1.899   4.270
 3958SOL    HW212774   6.099   1.921   4.116
 3959SOL     OW12775   5.028   5.212   0.727
 3959SOL    HW112776   5.089   5.133   0.719
 3959SOL    HW212777   5.070   5.292   0.684
 3960SOL     OW12778   5.413   2.005   5.073
 3960SOL    HW112779   5.342   1.939   5.098
 3960SOL    HW212780   5.405   2.086   5.130
 3961SOL     OW12781   5.174   0.348   3.008
 3961SOL    HW112782   5.265   0.307   3.012
 3961SOL    HW212783   5.139   0.359   3.101
 3962SOL     OW12784   0.647   5.225   6.169
 3962SOL    HW112785   0.562   5.208   6.119
 3962SOL    HW212786   0.677   5.319   6.151
 3963SOL     OW12787   4.792   6.345   1.890
 3963SOL    HW112788   4.780   6.425   1.949
 3963SOL    HW212789   4.743   6.267   1.930
 3964SOL     OW12790   5.016   3.751   3.160
 3964SOL    HW112791   4.948   3.816   3.193
 3964SOL    HW212792   5.107   3.778   3.190
 3965SOL     OW12793   5.361   3.208   4.167
 3965SOL    HW112794   5.366   3.306   4.150
 3965SOL    HW212795   5.301   3.190   4.245
 3966SOL     OW12796   3.549   5.387   6.519
 3966SOL    HW112797   3.592   5.427   6.438
 3966SOL    HW212798   3.617   5.378   6.592
 3967SOL     OW12799   1.697   4.645   2.422
 3967SOL    HW112800   1.774   4.600   2.376
 3967SOL    HW212801   1.691   4.740   2.391
 3968SOL     OW12802   4.143   0.559   0.455
 3968SOL    HW112803   4.045   0.574   0.444
 3968SOL    HW212804   4.193   0.641   0.426
 3969SOL     OW12805   2.037   5.720   2.097
 3969SOL    HW112806   1.993   5.793   2.045
 3969SOL    HW212807   1.967   5.662   2.139
 3970SOL     OW12808   5.855   6.065   2.231
 3970SOL    HW112809   5.798   6.098   2.306
 3970SOL    HW212810   5.951   6.065   2.260
 3971SOL     OW12811   2.839   6.184   3.966
 3971SOL    HW112812   2.861   6.155   4.059
 3971SOL    HW212813   2.744   6.215   3.962
 3972SOL     OW12814   1.672   3.610   0.125
 3972SOL    HW112815   1.764   3.609   0.087
 3972SOL    HW212816   1.662   3.689   0.186
 3973SOL     OW12817   1.125   5.829   1.043
 3973SOL    HW112818   1.193   5.780   0.988
 3973SOL    HW212819   1.162   5.918   1.070
 3974SOL     OW12820   1.926   0.729   5.738
 3974SOL    HW112821   1.844   0.680   5.768
 3974SOL    HW212822   1.963   0.685   5.656
 3975SOL     OW12823   4.880   2.264   6.170
 3975SOL    HW112824   4.929   2.211   6.240
 3975SOL    HW212825   4.946   2.321   6.121
 3976SOL     OW12826   1.544   6.353   2.357
 3976SOL    HW112827   1.460   6.343   2.411
 3976SOL    HW212828   1.586   6.264   2.345
 3977SOL     OW12829   0.920   3.941   6.615
 3977SOL    HW112830   0.906   3.914   6.711
 3977SOL    HW212831   0.840   3.912   6.561
 3978SOL     OW12832   6.863   5.020   3.673
 3978SOL    HW112833   6.869   5.120   3.682
 3978SOL    HW212834   6.883   4.978   3.761
 3979SOL     OW12835   3.498   1.040   6.465
 3979SOL    HW112836   3.410   1.060   6.420
 3979SOL    HW212837   3.573   1.075   6.408
 3980SOL     OW12838   6.109   6.389   6.312
 3980SOL    HW112839   6.114   6.473   6.257
 3980SOL    HW212840   6.156   6.403   6.399
 3981SOL     OW12841   5.422   6.670   0.373
 3981SOL    HW112842   5.409   6.693   0.469
 3981SOL    HW212843   5.479   6.588   0.366
 3982SOL     OW12844   2.140   0.333   2.228
 3982SOL    HW112845   2.172   0.309   2.319
 3982SOL    HW212846   2.053   0.287   2.209
 3983SOL     OW12847   4.221   5.389   3.826
 3983SOL    HW112848   4.250   5.353   3.914
 3983SOL    HW212849   4.194   5.485   3.836
 3984SOL     OW12850   5.717   1.641   2.502
 3984SOL    HW112851   5.693   1.671   2.595
 3984SOL    HW212852   5.658   1.687   2.436
 3985SOL     OW12853   2.944   5.252   6.384
 3985SOL    HW112854   2.997   5.285   6.463
 3985SOL    HW212855   2.973   5.159   6.360
 3986SOL     OW12856   4.766   1.903   2.104
 3986SOL    HW112857   4.690   1.898   2.169
 3986SOL    HW212858   4.848   1.936   2.151
 3987SOL     OW12859   3.412   5.066   4.751
 3987SOL    HW112860   3.420   5.062   4.651
 3987SOL    HW212861   3.328   5.113   4.776
 3988SOL     OW12862   4.574   5.484   0.597
 3988SOL    HW112863   4.501   5.531   0.548
 3988SOL    HW212864   4.574   5.387   0.572
 3989SOL     OW12865   6.007   2.309   0.015
 3989SOL    HW112866   6.009   2.333   0.113
 3989SOL    HW212867   6.097   2.326   6.997
 3990SOL     OW12868   4.993   2.808   1.716
 3990SOL    HW112869   5.005   2.818   1.815
 3990SOL    HW212870   4.911   2.753   1.698
 3991SOL     OW12871   0.210   1.006   2.902
 3991SOL    HW112872   0.118   1.044   2.894
 3991SOL    HW212873   0.251   1.036   2.989
 3992SOL     OW12874   3.324   2.091   0.993
 3992SOL    HW112875   3.344   1.994   1.008
 3992SOL    HW212876   3.395   2.131   0.935
 3993SOL     OW12877   1.217   3.236   2.345
 3993SOL    HW112878   1.304   3.247   2.392
 3993SOL    HW212879   1.143   3.266   2.405
 3994SOL     OW12880   2.873   6.889   5.136
 3994SOL    HW112881   2.792   6.904   5.080
 3994SOL    HW212882   2.852   6.824   5.210
 3995SOL     OW12883   1.486   2.558   5.141
 3995SOL    HW112884   1.572   2.544   5.092
 3995SOL    HW212885   1.448   2.648   5.117
 3996SOL     OW12886   0.670   6.437   4.969
 3996SOL    HW112887   0.575   6.408   4.979
 3996SOL    HW212888   0.701   6.419   4.876
 3997SOL     OW12889   5.498   1.034   4.356
 3997SOL    HW112890   5.468   0.948   4.396
 3997SOL    HW212891   5.525   1.097   4.428
 3998SOL     OW12892   3.932   2.095   3.688
 3998SOL    HW112893   3.952   2.150   3.770
 3998SOL    HW212894   3.947   1.998   3.709
 3999SOL     OW12895   6.269   2.188   4.346
 3999SOL    HW112896   6.333   2.181   4.270
 3999SOL    HW212897   6.276   2.278   4.388
 4000SOL     OW12898   3.871   6.944   3.601
 4000SOL    HW112899   3.913   6.991   3.678
 4000SOL    HW212900   3.831   6.857   3.632
 4001SOL     OW12901   1.687   1.962   3.677
 4001SOL    HW112902   1.668   2.032   3.608
 4001SOL    HW212903   1.773   1.916   3.653
 4002SOL     OW12904   2.074   3.692   1.960
 4002SOL    HW112905   2.088   3.751   2.040
 4002SOL    HW212906   2.123   3.606   1.973
 4003SOL     OW12907   3.441   0.358   4.655
 4003SOL    HW112908   3.465   0.413   4.735
 4003SOL    HW212909   3.519   0.354   4.593
 4004SOL     OW12910   6.471   1.935   4.681
 4004SOL    HW112911   6.419   1.986   4.749
 4004SOL    HW212912   6.504   1.997   4.610
 4005SOL     OW12913   5.310   5.509   6.033
 4005SOL    HW112914   5.375   5.577   5.999
 4005SOL    HW212915   5.355   5.419   6.037
 4006SOL     OW12916   4.007   5.527   2.249
 4006SOL    HW112917   4.060   5.467   2.308
 4006SOL    HW212918   4.068   5.593   2.205
 4007SOL     OW12919   6.979   2.472   6.876
 4007SOL    HW112920   0.033   2.408   6.887
 4007SOL    HW212921   6.992   2.525   6.792
 4008SOL     OW12922   2.690   2.406   4.632
 4008SOL    HW112923   2.735   2.351   4.702
 4008SOL    HW212924   2.732   2.386   4.543
 4009SOL     OW12925   3.861   3.527   2.692
 4009SOL    HW112926   3.902   3.491   2.775
 4009SOL    HW212927   3.922   3.511   2.615
 4010SOL     OW12928   2.040   3.361   0.614
 4010SOL    HW112929   2.082   3.362   0.705
 4010SOL    HW212930   2.014   3.268   0.590
 4011SOL     OW12931   1.866   2.450   1.963
 4011SOL    HW112932   1.777   2.405   1.965
 4011SOL    HW212933   1.858   2.542   2.002
 4012SOL     OW12934   6.803   4.274   3.361
 4012SOL    HW112935   6.871   4.253   3.291
 4012SOL    HW212936   6.767   4.189   3.399
 4013SOL     OW12937   4.666   2.638   3.423
 4013SOL    HW112938   4.701   2.626   3.515
 4013SOL    HW212939   4.603   2.564   3.401
 4014SOL     OW12940   5.121   5.921   2.971
 4014SOL    HW112941   5.033   5.935   2.926
 4014SOL    HW212942   5.192   5.973   2.924
 4015SOL     OW12943   4.961   3.796   6.062
 4015SOL    HW112944   4.866   3.822   6.073
 4015SOL    HW212945   5.003   3.782   6.152
 4016SOL     OW12946   3.003   6.070   6.045
 4016SOL    HW112947   2.939   6.103   6.113
 4016SOL    HW212948   2.999   5.970   6.041
 4017SOL     OW12949   6.459   5.853   6.915
 4017SOL    HW112950   6.366   5.859   6.951
 4017SOL    HW212951   6.477   5.760   6.882
 4018SOL     OW12952   3.697   5.759   1.228
 4018SOL    HW112953   3.723   5.672   1.186
 4018SOL    HW212954   3.682   5.827   1.156
 4019SOL     OW12955   5.064   5.501   3.521
 4019SOL    HW112956   5.159   5.522   3.545
 4019SOL    HW212957   5.039   5.412   3.558
 4020SOL     OW12958   5.587   2.053   5.819
 4020SOL    HW112959   5.558   1.994   5.744
 4020SOL    HW212960   5.673   2.020   5.857
 4021SOL     OW12961   3.166   4.411   5.869
 4021SOL    HW112962   3.127   4.491   5.913
 4021SOL    HW212963   3.188   4.433   5.773
 4022SOL     OW12964   4.962   0.184   1.122
 4022SOL    HW112965   5.056   0.153   1.130
 4022SOL    HW212966   4.944   0.254   1.191
 4023SOL     OW12967   6.440   0.746   5.940
 4023SOL    HW112968   6.498   0.747   6.022
 4023SOL    HW212969   6.367   0.679   5.951
 4024SOL     OW12970   3.494   4.901   3.740
 4024SOL    HW112971   3.394   4.911   3.739
 4024SOL    HW212972   3.528   4.896   3.646
 4025SOL     OW12973   0.903   4.755   3.431
 4025SOL    HW112974   0.906   4.785   3.336
 4025SOL    HW212975   0.823   4.795   3.476
 4026SOL     OW12976   5.506   6.490   4.345
 4026SOL    HW112977   5.466   6.576   4.376
 4026SOL    HW212978   5.460   6.414   4.389
 4027SOL     OW12979   3.846   5.181   1.872
 4027SOL    HW112980   3.873   5.217   1.961
 4027SOL    HW212981   3.891   5.234   1.800
 4028SOL     OW12982   2.692   0.353   3.624
 4028SOL    HW112983   2.629   0.291   3.672
 4028SOL    HW212984   2.760   0.300   3.574
 4029SOL     OW12985   2.033   4.456   5.069
 4029SOL    HW112986   2.087   4.515   5.010
 4029SOL    HW212987   2.083   4.439   5.154
 4030SOL     OW12988   0.161   2.168   5.453
 4030SOL    HW112989   0.225   2.168   5.376
 4030SOL    HW212990   0.167   2.081   5.502
 4031SOL     OW12991   4.124   5.554   4.162
 4031SOL    HW112992   4.061   5.631   4.155
 4031SOL    HW212993   4.135   5.529   4.259
 4032SOL     OW12994   4.965   7.010   4.992
 4032SOL    HW112995   4.907   6.954   5.051
 4032SOL    HW212996   4.907   0.050   4.939
 4033SOL     OW12997   2.794   3.792   5.238
 4033SOL    HW112998   2.859   3.734   5.287
 4033SOL    HW212999   2.706   3.791   5.286
 4034SOL     OW13000   6.489   2.185   3.779
 4034SOL    HW113001   6.541   2.260   3.737
 4034SOL    HW213002   6.503   2.101   3.727
 4035SOL     OW13003   0.317   5.217   0.754
 4035SOL    HW113004   0.404   5.168   0.739
 4035SOL    HW213005   0.257   5.202   0.676
 4036SOL     OW13006   6.622   6.894   3.169
 4036SOL    HW113007   6.532   6.898   3.124
 4036SOL    HW213008   6.659   6.987   3.176
 4037SOL     OW13009   6.648   4.186   6.441
 4037SOL    HW113010   6.662   4.119   6.513
 4037SOL    HW213011   6.606   4.142   6.362
 4038SOL     OW13012   5.673   4.929   3.846
 4038SOL    HW113013   5.650   4.834   3.825
 4038SOL    HW213014   5.728   4.968   3.772
 4039SOL     OW13015   4.459   6.597   1.059
 4039SOL    HW113016   4.434   6.662   1.130
 4039SOL    HW213017   4.381   6.580   1.000
 4040SOL     OW13018   3.711   6.442   1.797
 4040SOL    HW113019   3.632   6.408   1.746
 4040SOL    HW213020   3.783   6.373   1.799
 4041SOL     OW13021   1.210   0.121   3.946
 4041SOL    HW113022   1.167   0.044   3.994
 4041SOL    HW213023   1.154   0.146   3.867
 4042SOL     OW13024   5.876   5.108   1.943
 4042SOL    HW113025   5.803   5.061   1.993
 4042SOL    HW213026   5.837   5.186   1.893
 4043SOL     OW13027   6.788   2.836   1.355
 4043SOL    HW113028   6.784   2.847   1.255
 4043SOL    HW213029   6.732   2.907   1.398
 4044SOL     OW13030   6.435   5.763   3.632
 4044SOL    HW113031   6.354   5.813   3.602
 4044SOL    HW213032   6.461   5.696   3.562
 4045SOL     OW13033   2.451   5.860   6.124
 4045SOL    HW113034   2.462   5.788   6.056
 4045SOL    HW213035   2.524   5.854   6.192
 4046SOL     OW13036   1.614   3.088   1.092
 4046SOL    HW113037   1.548   3.099   1.167
 4046SOL    HW213038   1.669   3.171   1.085
 4047SOL     OW13039   3.374   3.818   1.803
 4047SOL    HW113040   3.373   3.859   1.712
 4047SOL    HW213041   3.434   3.870   1.863
 4048SOL     OW13042   5.415   1.577   1.121
 4048SOL    HW113043   5.442   1.512   1.192
 4048SOL    HW213044   5.432   1.671   1.153
 4049SOL     OW13045   6.467   0.620   5.683
 4049SOL    HW113046   6.460   0.663   5.773
 4049SOL    HW213047   6.563   0.599   5.663
 4050SOL     OW13048   2.577   0.781   1.216
 4050SOL    HW113049   2.513   0.719   1.171
 4050SOL    HW213050   2.539   0.811   1.304
 4051SOL     OW13051   2.377   3.473   0.729
 4051SOL    HW113052   2.455   3.412   0.729
 4051SOL    HW213053   2.313   3.446   0.656
 4052SOL     OW13054   1.857   6.054   1.668
 4052SOL    HW113055   1.819   5.963   1.650
 4052SOL    HW213056   1.935   6.070   1.608
 4053SOL     OW13057   3.152   4.894   3.475
 4053SOL    HW113058   3.179   4.927   3.565
 4053SOL    HW213059   3.234   4.882   3.419
 4054SOL     OW13060   5.167   2.125   6.987
 4054SOL    HW113061   5.266   2.136   6.991
 4054SOL    HW213062   5.140   2.091   6.897
 4055SOL     OW13063   3.888   2.128   0.338
 4055SOL    HW113064   3.826   2.136   0.260
 4055SOL    HW213065   3.906   2.218   0.376
 4056SOL     OW13066   4.244   3.147   0.857
 4056SOL    HW113067   4.257   3.108   0.948
 4056SOL    HW213068   4.171   3.216   0.860
 4057SOL     OW13069   5.835   2.326   6.327
 4057SOL    HW113070   5.811   2.240   6.372
 4057SOL    HW213071   5.897   2.378   6.385
 4058SOL     OW13072   1.004   0.734   5.300
 4058SOL    HW113073   0.920   0.764   5.345
 4058SOL    HW213074   0.984   0.654   5.244
 4059SOL     OW13075   6.875   1.497   4.809
 4059SOL    HW113076   6.941   1.440   4.859
 4059SOL    HW213077   6.924   1.559   4.748
 4060SOL     OW13078   4.386   5.854   4.413
 4060SOL    HW113079   4.369   5.950   4.392
 4060SOL    HW213080   4.379   5.800   4.330
 4061SOL     OW13081   2.603   2.919   1.734
 4061SOL    HW113082   2.687   2.870   1.709
 4061SOL    HW213083   2.530   2.893   1.671
 4062SOL     OW13084   2.791   6.979   2.849
 4062SOL    HW113085   2.853   6.949   2.776
 4062SOL    HW213086   2.702   7.003   2.810
 4063SOL     OW13087   2.685   5.197   5.869
 4063SOL    HW113088   2.680   5.261   5.792
 4063SOL    HW213089   2.664   5.245   5.954
 4064SOL     OW13090   6.104   0.092   3.825
 4064SOL    HW113091   6.018   0.041   3.822
 4064SOL    HW213092   6.131   0.106   3.920
 4065SOL     OW13093   5.790   4.618   6.457
 4065SOL    HW113094   5.772   4.587   6.364
 4065SOL    HW213095   5.886   4.643   6.466
 4066SOL     OW13096   5.663   4.883   1.505
 4066SOL    HW113097   5.627   4.791   1.523
 4066SOL    HW213098   5.645   4.942   1.584
 4067SOL     OW13099   5.929   0.987   1.816
 4067SOL    HW113100   5.939   0.889   1.832
 4067SOL    HW213101   5.980   1.038   1.885
 4068SOL     OW13102   5.058   1.023   3.779
 4068SOL    HW113103   4.987   1.092   3.796
 4068SOL    HW213104   5.131   1.032   3.847
 4069SOL     OW13105   0.161   5.774   1.615
 4069SOL    HW113106   0.141   5.799   1.520
 4069SOL    HW213107   0.082   5.794   1.672
 4070SOL     OW13108   0.724   3.456   2.808
 4070SOL    HW113109   0.745   3.544   2.852
 4070SOL    HW213110   0.636   3.423   2.841
 4071SOL     OW13111   2.180   0.461   3.853
 4071SOL    HW113112   2.141   0.463   3.945
 4071SOL    HW213113   2.189   0.554   3.818
 4072SOL     OW13114   0.773   6.926   4.344
 4072SOL    HW113115   0.794   6.861   4.271
 4072SOL    HW213116   0.720   7.002   4.306
 4073SOL     OW13117   2.988   5.001   1.127
 4073SOL    HW113118   3.038   5.063   1.067
 4073SOL    HW213119   3.017   5.015   1.221
 4074SOL     OW13120   1.365   3.023   0.800
 4074SOL    HW113121   1.451   2.972   0.811
 4074SOL    HW213122   1.385   3.121   0.804
 4075SOL     OW13123   5.124   0.799   4.153
 4075SOL    HW113124   5.191   0.872   4.165
 4075SOL    HW213125   5.145   0.747   4.070
 4076SOL     OW13126   1.369   2.659   3.514
 4076SOL    HW113127   1.428   2.603   3.571
 4076SOL    HW213128   1.422   2.698   3.439
 4077SOL     OW13129   3.150   1.878   0.842
 4077SOL    HW113130   3.141   1.868   0.941
 4077SOL    HW213131   3.113   1.967   0.814
 4078SOL     OW13132   5.616   3.633   2.197
 4078SOL    HW113133   5.686   3.621   2.127
 4078SOL    HW213134   5.629   3.565   2.269
 4079SOL     OW13135   6.654   1.095   3.388
 4079SOL    HW113136   6.658   1.191   3.417
 4079SOL    HW213137   6.595   1.044   3.450
 4080SOL     OW13138   3.983   3.079   2.790
 4080SOL    HW113139   4.011   3.174   2.776
 4080SOL    HW213140   3.936   3.046   2.708
 4081SOL     OW13141   2.327   2.114   6.487
 4081SOL    HW113142   2.257   2.155   6.430
 4081SOL    HW213143   2.366   2.035   6.440
 4082SOL     OW13144   1.410   2.432   5.419
 4082SOL    HW113145   1.317   2.448   5.386
 4082SOL    HW213146   1.476   2.470   5.353
 4083SOL     OW13147   5.837   5.399   2.737
 4083SOL    HW113148   5.776   5.366   2.665
 4083SOL    HW213149   5.828   5.499   2.745
 4084SOL     OW13150   4.638   0.574   2.906
 4084SOL    HW113151   4.570   0.512   2.868
 4084SOL    HW213152   4.603   0.616   2.990
 4085SOL     OW13153   3.237   5.065   2.053
 4085SOL    HW113154   3.160   5.012   2.087
 4085SOL    HW213155   3.296   5.006   1.998
 4086SOL     OW13156   6.290   4.936   5.095
 4086SOL    HW113157   6.208   4.885   5.117
 4086SOL    HW213158   6.311   4.927   4.998
 4087SOL     OW13159   1.455   0.540   2.137
 4087SOL    HW113160   1.456   0.510   2.232
 4087SOL    HW213161   1.389   0.486   2.085
 4088SOL     OW13162   0.029   2.329   5.257
 4088SOL    HW113163   0.086   2.387   5.199
 4088SOL    HW213164   0.083   2.295   5.334
 4089SOL     OW13165   0.971   0.923   2.699
 4089SOL    HW113166   0.918   0.839   2.686
 4089SOL    HW213167   0.983   0.969   2.611
 4090SOL     OW13168   2.733   1.990   5.770
 4090SOL    HW113169   2.684   1.997   5.857
 4090SOL    HW213170   2.778   1.901   5.765
 4091SOL     OW13171   3.395   5.658   1.778
 4091SOL    HW113172   3.338   5.580   1.751
 4091SOL    HW213173   3.475   5.624   1.828
 4092SOL     OW13174   5.461   2.435   4.944
 4092SOL    HW113175   5.407   2.519   4.946
 4092SOL    HW213176   5.464   2.399   4.851
 4093SOL     OW13177   5.235   4.495   3.514
 4093SOL    HW113178   5.142   4.457   3.512
 4093SOL    HW213179   5.268   4.497   3.608
 4094SOL     OW13180   7.015   5.740   6.907
 4094SOL    HW113181   7.018   5.671   6.834
 4094SOL    HW213182   6.922   5.777   6.914
 4095SOL     OW13183   0.991   5.284   0.484
 4095SOL    HW113184   1.074   5.232   0.466
 4095SOL    HW213185   0.934   5.235   0.550
 4096SOL     OW13186   0.583   0.544   0.019
 4096SOL    HW113187   0.633   0.505   0.096
 4096SOL    HW213188   0.576   0.477   6.967
 4097SOL     OW13189   6.497   3.764   4.722
 4097SOL    HW113190   6.463   3.672   4.705
 4097SOL    HW213191   6.587   3.775   4.679
 4098SOL     OW13192   1.419   4.793   2.898
 4098SOL    HW113193   1.418   4.739   2.813
 4098SOL    HW213194   1.499   4.853   2.898
 4099SOL     OW13195   5.520   4.482   6.013
 4099SOL    HW113196   5.480   4.431   6.089
 4099SOL    HW213197   5.459   4.477   5.934
 4100SOL     OW13198   1.861   1.404   3.384
 4100SOL    HW113199   1.836   1.457   3.465
 4100SOL    HW213200   1.960   1.403   3.374
 4101SOL     OW13201   6.691   5.394   0.240
 4101SOL    HW113202   6.771   5.369   0.186
 4101SOL    HW213203   6.714   5.388   0.337
 4102SOL     OW13204   1.854   6.198   0.417
 4102SOL    HW113205   1.945   6.209   0.378
 4102SOL    HW213206   1.834   6.100   0.425
 4103SOL     OW13207   1.587   0.028   4.313
 4103SOL    HW113208   1.577   0.033   4.214
 4103SOL    HW213209   1.515   0.081   4.357
 4104SOL     OW13210   2.224   5.501   5.035
 4104SOL    HW113211   2.234   5.419   5.091
 4104SOL    HW213212   2.179   5.478   4.949
 4105SOL     OW13213   4.598   6.989   2.065
 4105SOL    HW113214   4.560   0.060   2.072
 4105SOL    HW213215   4.698   6.995   2.061
 4106SOL     OW13216   1.023   1.143   2.860
 4106SOL    HW113217   0.972   1.069   2.815
 4106SOL    HW213218   0.986   1.231   2.831
 4107SOL     OW13219   1.443   0.589   0.959
 4107SOL    HW113220   1.493   0.586   1.046
 4107SOL    HW213221   1.494   0.645   0.893
 4108SOL     OW13222   6.689   5.991   5.733
 4108SOL    HW113223   6.773   6.044   5.739
 4108SOL    HW213224   6.657   5.991   5.638
 4109SOL     OW13225   5.294   6.266   3.270
 4109SOL    HW113226   5.375   6.264   3.329
 4109SOL    HW213227   5.300   6.344   3.208
 4110SOL     OW13228   5.222   2.771   6.968
 4110SOL    HW113229   5.172   2.809   0.024
 4110SOL    HW213230   5.159   2.759   6.891
 4111SOL     OW13231   6.245   3.703   4.298
 4111SOL    HW113232   6.164   3.702   4.357
 4111SOL    HW213233   6.238   3.781   4.235
 4112SOL     OW13234   4.272   6.112   4.376
 4112SOL    HW113235   4.184   6.151   4.402
 4112SOL    HW213236   4.296   6.143   4.284
 4113SOL     OW13237   3.964   5.216   4.749
 4113SOL    HW113238   3.984   5.121   4.722
 4113SOL    HW213239   3.866   5.231   4.745
 4114SOL     OW13240   7.008   1.121   1.809
 4114SOL    HW113241   0.001   1.207   1.858
 4114SOL    HW213242   6.992   1.139   1.712
 4115SOL     OW13243   4.612   5.582   3.754
 4115SOL    HW113244   4.707   5.578   3.787
 4115SOL    HW213245   4.572   5.670   3.780
 4116SOL     OW13246   5.011   3.733   2.639
 4116SOL    HW113247   4.966   3.726   2.729
 4116SOL    HW213248   5.065   3.651   2.622
 4117SOL     OW13249   1.498   1.713   4.149
 4117SOL    HW113250   1.569   1.663   4.098
 4117SOL    HW213251   1.430   1.749   4.085
 4118SOL     OW13252   0.508   6.782   0.163
 4118SOL    HW113253   0.486   6.708   0.099
 4118SOL    HW213254   0.561   6.852   0.115
 4119SOL     OW13255   0.435   0.488   4.375
 4119SOL    HW113256   0.365   0.551   4.342
 4119SOL    HW213257   0.458   0.511   4.470
 4120SOL     OW13258   2.239   0.907   0.051
 4120SOL    HW113259   2.303   0.953   0.113
 4120SOL    HW213260   2.237   0.955   6.985
 4121SOL     OW13261   0.020   0.153   2.200
 4121SOL    HW113262   7.001   0.176   2.112
 4121SOL    HW213263   6.978   0.097   2.253
 4122SOL     OW13264   0.682   4.325   3.029
 4122SOL    HW113265   0.604   4.263   3.018
 4122SOL    HW213266   0.675   4.399   2.963
 4123SOL     OW13267   5.265   4.590   1.433
 4123SOL    HW113268   5.282   4.492   1.430
 4123SOL    HW213269   5.259   4.620   1.528
 4124SOL     OW13270   6.524   5.511   0.057
 4124SOL    HW113271   6.557   5.456   0.134
 4124SOL    HW213272   6.497   5.601   0.090
 4125SOL     OW13273   6.157   2.206   0.281
 4125SOL    HW113274   6.228   2.200   0.351
 4125SOL    HW213275   6.093   2.129   0.291
 4126SOL     OW13276   0.693   3.166   3.024
 4126SOL    HW113277   0.597   3.147   3.005
 4126SOL    HW213278   0.751   3.118   2.958
 4127SOL     OW13279   4.482   2.182   4.416
 4127SOL    HW113280   4.509   2.088   4.398
 4127SOL    HW213281   4.525   2.213   4.501
 4128SOL     OW13282   0.205   2.993   6.416
 4128SOL    HW113283   0.204   2.952   6.508
 4128SOL    HW213284   0.240   3.086   6.422
 4129SOL     OW13285   3.460   1.935   0.696
 4129SOL    HW113286   3.368   1.949   0.733
 4129SOL    HW213287   3.496   1.848   0.727
 4130SOL     OW13288   5.842   3.304   0.680
 4130SOL    HW113289   5.749   3.270   0.696
 4130SOL    HW213290   5.908   3.239   0.717
 4131SOL     OW13291   5.110   0.046   3.167
 4131SOL    HW113292   5.063   0.134   3.178
 4131SOL    HW213293   5.054   6.995   3.206
 4132SOL     OW13294   0.266   5.248   3.237
 4132SOL    HW113295   0.305   5.319   3.295
 4132SOL    HW213296   0.194   5.200   3.287
 4133SOL     OW13297   5.180   0.229   2.587
 4133SOL    HW113298   5.184   0.307   2.525
 4133SOL    HW213299   5.120   0.250   2.664
 4134SOL     OW13300   1.251   3.695   1.504
 4134SOL    HW113301   1.230   3.643   1.421
 4134SOL    HW213302   1.297   3.636   1.569
 4135SOL     OW13303   6.224   0.532   2.120
 4135SOL    HW113304   6.254   0.587   2.198
 4135SOL    HW213305   6.197   0.441   2.153
 4136SOL     OW13306   0.861   5.038   0.872
 4136SOL    HW113307   0.804   5.119   0.856
 4136SOL    HW213308   0.807   4.956   0.856
 4137SOL     OW13309   0.635   2.960   6.576
 4137SOL    HW113310   0.644   2.922   6.484
 4137SOL    HW213311   0.726   2.981   6.611
 4138SOL     OW13312   4.893   0.438   7.020
 4138SOL    HW113313   4.932   0.506   6.957
 4138SOL    HW213314   4.849   0.486   0.074
 4139SOL     OW13315   2.133   4.044   3.344
 4139SOL    HW113316   2.173   4.136   3.346
 4139SOL    HW213317   2.046   4.044   3.393
 4140SOL     OW13318   1.904   0.467   5.975
 4140SOL    HW113319   1.845   0.516   6.040
 4140SOL    HW213320   1.851   0.442   5.894
 4141SOL     OW13321   5.293   0.700   6.003
 4141SOL    HW113322   5.208   0.743   6.033
 4141SOL    HW213323   5.275   0.641   5.925
 4142SOL     OW13324   0.118   5.449   2.219
 4142SOL    HW113325   0.106   5.437   2.120
 4142SOL    HW213326   0.155   5.540   2.237
 4143SOL     OW13327   6.162   3.303   6.655
 4143SOL    HW113328   6.113   3.379   6.611
 4143SOL    HW213329   6.192   3.238   6.585
 4144SOL     OW13330   5.633   1.234   1.135
 4144SOL    HW113331   5.602   1.297   1.206
 4144SOL    HW213332   5.711   1.181   1.170
 4145SOL     OW13333   6.903   0.531   1.503
 4145SOL    HW113334   6.904   0.435   1.475
 4145SOL    HW213335   6.996   0.566   1.504
 4146SOL     OW13336   4.963   5.937   2.046
 4146SOL    HW113337   4.904   5.860   2.069
 4146SOL    HW213338   4.965   5.949   1.946
 4147SOL     OW13339   4.488   5.039   6.647
 4147SOL    HW113340   4.502   4.950   6.690
 4147SOL    HW213341   4.403   5.079   6.682
 4148SOL     OW13342   2.860   1.021   5.164
 4148SOL    HW113343   2.937   1.012   5.226
 4148SOL    HW213344   2.880   1.091   5.096
 4149SOL     OW13345   1.161   3.693   6.420
 4149SOL    HW113346   1.090   3.726   6.357
 4149SOL    HW213347   1.211   3.618   6.377
 4150SOL     OW13348   5.430   2.185   6.972
 4150SOL    HW113349   5.510   2.208   0.005
 4150SOL    HW213350   5.458   2.129   6.894
 4151SOL     OW13351   2.947   6.031   4.550
 4151SOL    HW113352   2.881   6.093   4.593
 4151SOL    HW213353   2.907   5.994   4.466
 4152SOL     OW13354   2.510   4.555   1.281
 4152SOL    HW113355   2.527   4.588   1.374
 4152SOL    HW213356   2.416   4.574   1.255
 4153SOL     OW13357   6.471   6.041   1.578
 4153SOL    HW113358   6.558   6.091   1.579
 4153SOL    HW213359   6.487   5.946   1.606
 4154SOL     OW13360   1.417   6.299   3.887
 4154SOL    HW113361   1.416   6.210   3.933
 4154SOL    HW213362   1.325   6.319   3.853
 4155SOL     OW13363   0.209   0.657   1.381
 4155SOL    HW113364   0.170   0.620   1.465
 4155SOL    HW213365   0.157   0.738   1.353
 4156SOL     OW13366   0.691   5.019   6.318
 4156SOL    HW113367   0.747   4.946   6.279
 4156SOL    HW213368   0.684   5.095   6.252
 4157SOL     OW13369   5.480   6.014   1.732
 4157SOL    HW113370   5.550   5.945   1.715
 4157SOL    HW213371   5.523   6.103   1.745
 4158SOL     OW13372   1.064   2.949   1.597
 4158SOL    HW113373   1.094   2.930   1.504
 4158SOL    HW213374   1.137   2.925   1.661
 4159SOL     OW13375   2.821   0.430   4.231
 4159SOL    HW113376   2.858   0.344   4.197
 4159SOL    HW213377   2.812   0.495   4.155
 4160SOL     OW13378   0.613   0.323   6.869
 4160SOL    HW113379   0.680   0.283   6.806
 4160SOL    HW213380   0.537   0.361   6.817
 4161SOL     OW13381   3.675   3.247   2.579
 4161SOL    HW113382   3.585   3.287   2.562
 4161SOL    HW213383   3.731   3.255   2.496
 4162SOL     OW13384   5.259   5.625   1.644
 4162SOL    HW113385   5.196   5.596   1.572
 4162SOL    HW213386   5.245   5.722   1.664
 4163SOL     OW13387   3.224   5.745   2.060
 4163SOL    HW113388   3.178   5.833   2.047
 4163SOL    HW213389   3.312   5.746   2.011
 4164SOL     OW13390   6.914   1.308   6.276
 4164SOL    HW113391   6.980   1.261   6.333
 4164SOL    HW213392   6.864   1.242   6.220
 4165SOL     OW13393   4.475   0.913   4.709
 4165SOL    HW113394   4.548   0.980   4.695
 4165SOL    HW213395   4.508   0.822   4.686
 4166SOL     OW13396   5.666   1.914   1.379
 4166SOL    HW113397   5.586   1.908   1.319
 4166SOL    HW213398   5.652   1.988   1.445
 4167SOL     OW13399   3.245   5.916   4.197
 4167SOL    HW113400   3.230   5.948   4.291
 4167SOL    HW213401   3.254   5.817   4.196
 4168SOL     OW13402   5.070   3.492   6.772
 4168SOL    HW113403   5.001   3.534   6.831
 4168SOL    HW213404   5.134   3.438   6.827
 4169SOL     OW13405   5.336   2.602   5.804
 4169SOL    HW113406   5.427   2.560   5.800
 4169SOL    HW213407   5.298   2.591   5.896
 4170SOL     OW13408   0.382   2.332   4.423
 4170SOL    HW113409   0.299   2.286   4.393
 4170SOL    HW213410   0.359   2.403   4.490
 4171SOL     OW13411   0.725   1.789   0.236
 4171SOL    HW113412   0.804   1.796   0.297
 4171SOL    HW213413   0.641   1.786   0.290
 4172SOL     OW13414   2.685   3.219   0.431
 4172SOL    HW113415   2.688   3.300   0.489
 4172SOL    HW213416   2.591   3.200   0.404
 4173SOL     OW13417   5.019   2.625   6.782
 4173SOL    HW113418   4.946   2.669   6.835
 4173SOL    HW213419   5.015   2.526   6.795
 4174SOL     OW13420   3.964   0.290   4.869
 4174SOL    HW113421   3.909   0.257   4.945
 4174SOL    HW213422   3.973   0.389   4.874
 4175SOL     OW13423   0.872   4.420   6.332
 4175SOL    HW113424   0.772   4.414   6.328
 4175SOL    HW213425   0.899   4.513   6.353
 4176SOL     OW13426   5.608   0.075   5.671
 4176SOL    HW113427   5.686   0.112   5.721
 4176SOL    HW213428   5.633   7.009   5.630
 4177SOL     OW13429   4.159   4.738   2.874
 4177SOL    HW113430   4.088   4.750   2.943
 4177SOL    HW213431   4.137   4.794   2.794
 4178SOL     OW13432   3.442   5.925   1.798
 4178SOL    HW113433   3.400   5.839   1.771
 4178SOL    HW213434   3.376   5.999   1.783
 4179SOL     OW13435   5.019   3.238   5.838
 4179SOL    HW113436   4.997   3.317   5.781
 4179SOL    HW213437   5.099   3.191   5.801
 4180SOL     OW13438   4.201   3.660   0.800
 4180SOL    HW113439   4.152   3.584   0.757
 4180SOL    HW213440   4.173   3.667   0.896
 4181SOL     OW13441   4.767   6.926   5.153
 4181SOL    HW113442   4.710   6.948   5.074
 4181SOL    HW213443   4.777   6.827   5.162
 4182SOL     OW13444   0.405   6.371   5.043
 4182SOL    HW113445   0.320   6.389   4.993
 4182SOL    HW213446   0.404   6.422   5.129
 4183SOL     OW13447   4.238   1.786   0.615
 4183SOL    HW113448   4.160   1.816   0.560
 4183SOL    HW213449   4.244   1.687   0.614
 4184SOL     OW13450   3.507   6.075   4.157
 4184SOL    HW113451   3.415   6.036   4.158
 4184SOL    HW213452   3.569   6.014   4.107
 4185SOL     OW13453   5.062   3.111   3.405
 4185SOL    HW113454   4.972   3.099   3.362
 4185SOL    HW213455   5.118   3.030   3.387
 4186SOL     OW13456   1.580   6.084   0.122
 4186SOL    HW113457   1.633   6.089   0.037
 4186SOL    HW213458   1.603   6.000   0.170
 4187SOL     OW13459   1.944   3.216   6.855
 4187SOL    HW113460   1.965   3.222   6.758
 4187SOL    HW213461   1.964   3.124   6.888
 4188SOL     OW13462   4.642   0.167   0.282
 4188SOL    HW113463   4.624   0.231   0.208
 4188SOL    HW213464   4.700   0.211   0.351
 4189SOL     OW13465   4.385   5.138   3.749
 4189SOL    HW113466   4.431   5.077   3.813
 4189SOL    HW213467   4.385   5.231   3.786
 4190SOL     OW13468   6.711   6.149   1.578
 4190SOL    HW113469   6.740   6.123   1.670
 4190SOL    HW213470   6.786   6.197   1.532
 4191SOL     OW13471   4.796   4.430   6.647
 4191SOL    HW113472   4.802   4.330   6.642
 4191SOL    HW213473   4.730   4.457   6.717
 4192SOL     OW13474   1.678   3.350   0.464
 4192SOL    HW113475   1.669   3.353   0.564
 4192SOL    HW213476   1.633   3.268   0.429
 4193SOL     OW13477   0.334   0.837   0.345
 4193SOL    HW113478   0.274   0.758   0.352
 4193SOL    HW213479   0.420   0.810   0.301
 4194SOL     OW13480   4.689   1.777   5.725
 4194SOL    HW113481   4.649   1.865   5.750
 4194SOL    HW213482   4.722   1.730   5.807
 4195SOL     OW13483   3.805   6.147   0.537
 4195SOL    HW113484   3.813   6.054   0.574
 4195SOL    HW213485   3.845   6.150   0.446
 4196SOL     OW13486   6.314   3.032   2.335
 4196SOL    HW113487   6.413   3.032   2.337
 4196SOL    HW213488   6.281   3.125   2.352
 4197SOL     OW13489   3.867   1.053   0.075
 4197SOL    HW113490   3.807   0.973   0.079
 4197SOL    HW213491   3.815   1.132   0.042
 4198SOL     OW13492   6.763   1.876   2.366
 4198SOL    HW113493   6.681   1.920   2.401
 4198SOL    HW213494   6.814   1.833   2.441
 4199SOL     OW13495   0.542   3.865   6.259
 4199SOL    HW113496   0.443   3.863   6.249
 4199SOL    HW213497   0.584   3.865   6.168
 4200SOL     OW13498   4.630   0.738   4.146
 4200SOL    HW113499   4.586   0.649   4.138
 4200SOL    HW213500   4.689   0.739   4.227
 4201SOL     OW13501   5.669   6.884   3.598
 4201SOL    HW113502   5.670   6.980   3.625
 4201SOL    HW213503   5.695   6.827   3.676
 4202SOL     OW13504   5.116   4.114   1.067
 4202SOL    HW113505   5.019   4.135   1.076
 4202SOL    HW213506   5.168   4.198   1.056
 4203SOL     OW13507   6.361   5.028   5.377
 4203SOL    HW113508   6.288   5.085   5.338
 4203SOL    HW213509   6.388   4.959   5.310
 4204SOL     OW13510   1.921   3.362   6.608
 4204SOL    HW113511   1.899   3.283   6.551
 4204SOL    HW213512   1.877   3.444   6.570
 4205SOL     OW13513   3.972   6.152   5.942
 4205SOL    HW113514   3.999   6.170   5.847
 4205SOL    HW213515   3.901   6.217   5.969
 4206SOL     OW13516   2.076   2.062   4.826
 4206SOL    HW113517   2.055   2.059   4.924
 4206SOL    HW213518   1.997   2.098   4.776
 4207SOL     OW13519   0.838   1.962   2.346
 4207SOL    HW113520   0.898   1.903   2.292
 4207SOL    HW213521   0.883   1.986   2.432
 4208SOL     OW13522   2.119   2.707   3.936
 4208SOL    HW113523   2.124   2.685   3.838
 4208SOL    HW213524   2.030   2.679   3.971
 4209SOL     OW13525   6.599   6.345   2.164
 4209SOL    HW113526   6.631   6.365   2.071
 4209SOL    HW213527   6.678   6.341   2.226
 4210SOL     OW13528   3.940   3.948   4.682
 4210SOL    HW113529   3.993   3.866   4.701
 4210SOL    HW213530   3.909   3.988   4.768
 4211SOL     OW13531   4.159   2.540   5.480
 4211SOL    HW113532   4.154   2.524   5.382
 4211SOL    HW213533   4.232   2.606   5.499
 4212SOL     OW13534   6.459   2.196   3.293
 4212SOL    HW113535   6.395   2.206   3.217
 4212SOL    HW213536   6.427   2.251   3.371
 4213SOL     OW13537   3.001   0.876   3.827
 4213SOL    HW113538   2.972   0.819   3.904
 4213SOL    HW213539   2.988   0.972   3.850
 4214SOL     OW13540   6.952   6.090   3.459
 4214SOL    HW113541   6.955   6.110   3.361
 4214SOL    HW213542   7.003   6.160   3.509
 4215SOL     OW13543   5.038   6.628   5.552
 4215SOL    HW113544   5.095   6.602   5.630
 4215SOL    HW213545   5.083   6.701   5.501
 4216SOL     OW13546   2.502   5.553   2.041
 4216SOL    HW113547   2.521   5.570   1.945
 4216SOL    HW213548   2.583   5.576   2.095
 4217SOL     OW13549   0.781   0.700   2.676
 4217SOL    HW113550   0.758   0.659   2.765
 4217SOL    HW213551   0.697   0.724   2.628
 4218SOL     OW13552   3.150   1.298   0.675
 4218SOL    HW113553   3.125   1.265   0.766
 4218SOL    HW213554   3.073   1.287   0.612
 4219SOL     OW13555   4.178   5.499   2.877
 4219SOL    HW113556   4.184   5.411   2.925
 4219SOL    HW213557   4.268   5.542   2.874
 4220SOL     OW13558   5.872   1.768   1.446
 4220SOL    HW113559   5.858   1.750   1.543
 4220SOL    HW213560   5.791   1.814   1.408
 4221SOL     OW13561   0.644   6.135   0.481
 4221SOL    HW113562   0.609   6.175   0.565
 4221SOL    HW213563   0.605   6.184   0.402
 4222SOL     OW13564   4.941   3.170   4.259
 4222SOL    HW113565   4.941   3.179   4.359
 4222SOL    HW213566   4.947   3.260   4.217
 4223SOL     OW13567   3.915   3.897   2.212
 4223SOL    HW113568   3.939   3.825   2.277
 4223SOL    HW213569   3.995   3.920   2.156
 4224SOL     OW13570   5.158   4.088   4.531
 4224SOL    HW113571   5.207   4.034   4.599
 4224SOL    HW213572   5.098   4.154   4.577
 4225SOL     OW13573   0.612   2.262   5.387
 4225SOL    HW113574   0.558   2.198   5.442
 4225SOL    HW213575   0.708   2.255   5.414
 4226SOL     OW13576   0.707   5.758   5.124
 4226SOL    HW113577   0.801   5.725   5.118
 4226SOL    HW213578   0.645   5.680   5.136
 4227SOL     OW13579   4.671   4.978   2.130
 4227SOL    HW113580   4.642   4.989   2.225
 4227SOL    HW213581   4.610   5.029   2.070
 4228SOL     OW13582   1.319   5.580   3.662
 4228SOL    HW113583   1.273   5.668   3.649
 4228SOL    HW213584   1.403   5.594   3.714
 4229SOL     OW13585   6.861   4.579   5.567
 4229SOL    HW113586   6.835   4.496   5.517
 4229SOL    HW213587   6.786   4.607   5.627
 4230SOL     OW13588   0.169   0.730   2.030
 4230SOL    HW113589   0.106   0.775   1.966
 4230SOL    HW213590   0.261   0.727   1.990
 4231SOL     OW13591   6.308   1.460   5.901
 4231SOL    HW113592   6.279   1.386   5.962
 4231SOL    HW213593   6.322   1.425   5.809
 4232SOL     OW13594   1.339   5.862   3.907
 4232SOL    HW113595   1.370   5.954   3.929
 4232SOL    HW213596   1.395   5.795   3.956
 4233SOL     OW13597   4.600   4.696   2.862
 4233SOL    HW113598   4.550   4.763   2.916
 4233SOL    HW213599   4.540   4.619   2.841
 4234SOL     OW13600   3.258   5.060   6.062
 4234SOL    HW113601   3.258   4.978   6.006
 4234SOL    HW213602   3.199   5.129   6.020
 4235SOL     OW13603   0.044   5.863   5.659
 4235SOL    HW113604   0.035   5.803   5.579
 4235SOL    HW213605   0.045   5.808   5.742
 4236SOL     OW13606   0.228   5.463   2.857
 4236SOL    HW113607   0.168   5.447   2.935
 4236SOL    HW213608   0.314   5.504   2.889
 4237SOL     OW13609   6.554   4.832   3.983
 4237SOL    HW113610   6.575   4.860   3.889
 4237SOL    HW213611   6.637   4.838   4.038
 4238SOL     OW13612   2.795   6.751   3.026
 4238SOL    HW113613   2.785   6.836   2.974
 4238SOL    HW213614   2.704   6.716   3.049
 4239SOL     OW13615   4.420   0.588   3.791
 4239SOL    HW113616   4.352   0.657   3.816
 4239SOL    HW213617   4.379   0.497   3.797
 4240SOL     OW13618   6.407   0.100   1.911
 4240SOL    HW113619   6.382   0.009   1.878
 4240SOL    HW213620   6.352   0.168   1.864
 4241SOL     OW13621   6.374   3.922   0.607
 4241SOL    HW113622   6.415   3.898   0.695
 4241SOL    HW213623   6.293   3.979   0.623
 4242SOL     OW13624   2.576   1.805   2.938
 4242SOL    HW113625   2.654   1.858   2.974
 4242SOL    HW213626   2.582   1.711   2.973
 4243SOL     OW13627   4.953   0.528   3.128
 4243SOL    HW113628   4.908   0.591   3.191
 4243SOL    HW213629   4.951   0.566   3.036
 4244SOL     OW13630   3.576   3.409   3.362
 4244SOL    HW113631   3.652   3.472   3.345
 4244SOL    HW213632   3.560   3.353   3.280
 4245SOL     OW13633   6.458   1.854   6.356
 4245SOL    HW113634   6.432   1.809   6.441
 4245SOL    HW213635   6.510   1.790   6.299
 4246SOL     OW13636   0.870   3.407   1.267
 4246SOL    HW113637   0.933   3.480   1.241
 4246SOL    HW213638   0.914   3.319   1.252
 4247SOL     OW13639   7.015   5.890   5.149
 4247SOL    HW113640   6.975   5.976   5.182
 4247SOL    HW213641   0.050   5.907   5.069
 4248SOL     OW13642   1.552   3.079   4.793
 4248SOL    HW113643   1.505   3.067   4.705
 4248SOL    HW213644   1.507   3.024   4.863
 4249SOL     OW13645   5.388   4.154   5.821
 4249SOL    HW113646   5.341   4.106   5.896
 4249SOL    HW213647   5.384   4.253   5.839
 4250SOL     OW13648   0.524   4.697   3.085
 4250SOL    HW113649   0.441   4.671   3.036
 4250SOL    HW213650   0.518   4.664   3.179
 4251SOL     OW13651   5.933   4.069   0.815
 4251SOL    HW113652   5.842   4.026   0.810
 4251SOL    HW213653   5.927   4.164   0.784
 4252SOL     OW13654   0.631   5.670   5.937
 4252SOL    HW113655   0.621   5.718   5.850
 4252SOL    HW213656   0.578   5.717   6.007
 4253SOL     OW13657   4.242   6.292   2.570
 4253SOL    HW113658   4.264   6.389   2.579
 4253SOL    HW213659   4.250   6.264   2.474
 4254SOL     OW13660   2.548   4.062   1.001
 4254SOL    HW113661   2.628   4.031   1.051
 4254SOL    HW213662   2.507   4.140   1.048
 4255SOL     OW13663   6.829   1.855   4.301
 4255SOL    HW113664   6.820   1.867   4.203
 4255SOL    HW213665   6.924   1.873   4.328
 4256SOL     OW13666   2.262   0.770   1.935
 4256SOL    HW113667   2.236   0.710   1.859
 4256SOL    HW213668   2.220   0.736   2.019
 4257SOL     OW13669   4.118   1.854   4.622
 4257SOL    HW113670   4.029   1.809   4.630
 4257SOL    HW213671   4.120   1.908   4.538
 4258SOL     OW13672   5.115   6.481   2.663
 4258SOL    HW113673   5.142   6.569   2.700
 4258SOL    HW213674   5.165   6.462   2.579
 4259SOL     OW13675   2.308   3.045   0.718
 4259SOL    HW113676   2.397   3.008   0.743
 4259SOL    HW213677   2.243   2.971   0.707
 4260SOL     OW13678   5.046   5.764   3.662
 4260SOL    HW113679   5.027   5.669   3.639
 4260SOL    HW213680   5.138   5.789   3.632
 4261SOL     OW13681   1.931   0.108   2.236
 4261SOL    HW113682   1.986   0.040   2.189
 4261SOL    HW213683   1.873   0.156   2.170
 4262SOL     OW13684   0.412   5.707   6.602
 4262SOL    HW113685   0.353   5.788   6.596
 4262SOL    HW213686   0.379   5.647   6.675
 4263SOL     OW13687   3.337   5.140   5.220
 4263SOL    HW113688   3.249   5.101   5.245
 4263SOL    HW213689   3.409   5.072   5.234
 4264SOL     OW13690   0.072   0.460   0.514
 4264SOL    HW113691   0.063   0.437   0.611
 4264SOL    HW213692   0.003   0.528   0.490
 4265SOL     OW13693   6.954   2.338   0.859
 4265SOL    HW113694   0.014   2.343   0.917
 4265SOL    HW213695   6.905   2.425   0.865
 4266SOL     OW13696   2.831   4.553   0.624
 4266SOL    HW113697   2.876   4.485   0.565
 4266SOL    HW213698   2.898   4.620   0.654
 4267SOL     OW13699   1.901   3.823   5.177
 4267SOL    HW113700   1.887   3.887   5.252
 4267SOL    HW213701   1.990   3.840   5.135
 4268SOL     OW13702   1.707   0.892   1.369
 4268SOL    HW113703   1.682   0.903   1.465
 4268SOL    HW213704   1.706   0.982   1.324
 4269SOL     OW13705   3.934   3.136   0.375
 4269SOL    HW113706   3.878   3.218   0.386
 4269SOL    HW213707   3.894   3.061   0.427
 4270SOL     OW13708   3.263   2.638   5.313
 4270SOL    HW113709   3.280   2.707   5.242
 4270SOL    HW213710   3.240   2.552   5.269
 4271SOL     OW13711   1.219   0.069   6.778
 4271SOL    HW113712   1.261   7.005   6.747
 4271SOL    HW213713   1.192   0.060   6.874
 4272SOL     OW13714   6.779   4.790   4.814
 4272SOL    HW113715   6.683   4.774   4.789
 4272SOL    HW213716   6.793   4.761   4.909
 4273SOL     OW13717   6.024   6.465   5.344
 4273SOL    HW113718   5.995   6.475   5.439
 4273SOL    HW213719   6.101   6.527   5.326
 4274SOL     OW13720   1.823   0.313   3.701
 4274SOL    HW113721   1.763   0.234   3.685
 4274SOL    HW213722   1.777   0.378   3.761
 4275SOL     OW13723   0.890   0.068   6.128
 4275SOL    HW113724   0.981   0.029   6.110
 4275SOL    HW213725   0.821   0.014   6.080
 4276SOL     OW13726   1.851   3.923   2.662
 4276SOL    HW113727   1.794   3.891   2.586
 4276SOL    HW213728   1.947   3.906   2.641
 4277SOL     OW13729   0.043   5.464   3.523
 4277SOL    HW113730   0.142   5.446   3.526
 4277SOL    HW213731   0.027   5.562   3.524
 4278SOL     OW13732   0.080   0.349   5.276
 4278SOL    HW113733   0.106   0.441   5.246
 4278SOL    HW213734   0.004   0.315   5.220
 4279SOL     OW13735   3.199   5.971   4.465
 4279SOL    HW113736   3.257   5.903   4.510
 4279SOL    HW213737   3.109   5.973   4.510
 4280SOL     OW13738   4.886   2.682   4.262
 4280SOL    HW113739   4.983   2.677   4.285
 4280SOL    HW213740   4.846   2.764   4.304
 4281SOL     OW13741   2.326   4.328   5.053
 4281SOL    HW113742   2.374   4.346   5.139
 4281SOL    HW213743   2.289   4.235   5.054
 4282SOL     OW13744   1.897   2.430   1.390
 4282SOL    HW113745   1.994   2.422   1.410
 4282SOL    HW213746   1.874   2.526   1.373
 4283SOL     OW13747   1.621   0.432   4.004
 4283SOL    HW113748   1.562   0.431   4.085
 4283SOL    HW213749   1.617   0.342   3.960
 4284SOL     OW13750   5.697   2.008   2.622
 4284SOL    HW113751   5.770   2.028   2.557
 4284SOL    HW213752   5.707   1.914   2.655
 4285SOL     OW13753   1.274   6.388   6.276
 4285SOL    HW113754   1.265   6.290   6.261
 4285SOL    HW213755   1.206   6.419   6.342
 4286SOL     OW13756   5.482   5.588   0.129
 4286SOL    HW113757   5.402   5.595   0.188
 4286SOL    HW213758   5.513   5.680   0.104
 4287SOL     OW13759   5.015   6.439   4.658
 4287SOL    HW113760   4.951   6.477   4.591
 4287SOL    HW213761   4.985   6.347   4.683
 4288SOL     OW13762   1.398   6.658   2.930
 4288SOL    HW113763   1.329   6.699   2.990
 4288SOL    HW213764   1.420   6.721   2.856
 4289SOL     OW13765   5.815   3.390   1.507
 4289SOL    HW113766   5.892   3.453   1.499
 4289SOL    HW213767   5.752   3.404   1.431
 4290SOL     OW13768   2.308   1.169   1.670
 4290SOL    HW113769   2.328   1.092   1.610
 4290SOL    HW213770   2.210   1.189   1.668
 4291SOL     OW13771   6.754   4.124   1.063
 4291SOL    HW113772   6.775   4.030   1.088
 4291SOL    HW213773   6.704   4.126   0.977
 4292SOL     OW13774   6.381   5.325   6.538
 4292SOL    HW113775   6.303   5.370   6.581
 4292SOL    HW213776   6.451   5.394   6.516
 4293SOL     OW13777   0.244   2.532   6.762
 4293SOL    HW113778   0.281   2.621   6.787
 4293SOL    HW213779   0.176   2.543   6.689
 4294SOL     OW13780   4.780   1.695   5.986
 4294SOL    HW113781   4.804   1.764   6.054
 4294SOL    HW213782   4.703   1.640   6.019
 4295SOL     OW13783   3.582   6.915   4.681
 4295SOL    HW113784   3.568   6.819   4.660
 4295SOL    HW213785   3.534   6.938   4.766
 4296SOL     OW13786   2.550   1.728   0.935
 4296SOL    HW113787   2.611   1.739   1.013
 4296SOL    HW213788   2.457   1.710   0.968
 4297SOL     OW13789   5.881   0.584   6.023
 4297SOL    HW113790   5.836   0.617   5.940
 4297SOL    HW213791   5.910   0.662   6.078
 4298SOL     OW13792   2.931   5.422   1.142
 4298SOL    HW113793   2.859   5.488   1.119
 4298SOL    HW213794   3.010   5.471   1.178
 4299SOL     OW13795   0.494   3.555   6.334
 4299SOL    HW113796   0.531   3.645   6.315
 4299SOL    HW213797   0.467   3.549   6.430
 4300SOL     OW13798   5.203   0.846   6.665
 4300SOL    HW113799   5.208   0.887   6.756
 4300SOL    HW213800   5.254   0.903   6.600
 4301SOL     OW13801   3.201   1.539   0.543
 4301SOL    HW113802   3.127   1.595   0.581
 4301SOL    HW213803   3.196   1.447   0.583
 4302SOL     OW13804   0.788   6.221   6.637
 4302SOL    HW113805   0.864   6.254   6.693
 4302SOL    HW213806   0.802   6.125   6.614
 4303SOL     OW13807   0.023   3.053   2.123
 4303SOL    HW113808   0.100   3.115   2.131
 4303SOL    HW213809   0.044   2.966   2.168
 4304SOL     OW13810   2.985   3.264   3.877
 4304SOL    HW113811   3.049   3.209   3.931
 4304SOL    HW213812   2.964   3.216   3.792
 4305SOL     OW13813   5.740   1.983   3.681
 4305SOL    HW113814   5.681   2.041   3.624
 4305SOL    HW213815   5.731   2.011   3.776
 4306SOL     OW13816   6.712   5.124   5.680
 4306SOL    HW113817   6.619   5.159   5.667
 4306SOL    HW213818   6.737   5.130   5.777
 4307SOL     OW13819   5.371   3.805   6.182
 4307SOL    HW113820   5.367   3.802   6.282
 4307SOL    HW213821   5.461   3.772   6.152
 4308SOL     OW13822   5.170   6.192   4.494
 4308SOL    HW113823   5.109   6.191   4.415
 4308SOL    HW213824   5.152   6.112   4.552
 4309SOL     OW13825   1.591   1.677   1.127
 4309SOL    HW113826   1.638   1.680   1.039
 4309SOL    HW213827   1.624   1.751   1.185
 4310SOL     OW13828   1.596   1.288   2.737
 4310SOL    HW113829   1.610   1.387   2.736
 4310SOL    HW213830   1.507   1.267   2.777
 4311SOL     OW13831   1.761   6.714   3.862
 4311SOL    HW113832   1.765   6.814   3.864
 4311SOL    HW213833   1.788   6.682   3.771
 4312SOL     OW13834   2.274   5.408   2.078
 4312SOL    HW113835   2.356   5.457   2.049
 4312SOL    HW213836   2.281   5.312   2.051
 4313SOL     OW13837   5.010   0.729   2.498
 4313SOL    HW113838   5.012   0.637   2.538
 4313SOL    HW213839   4.961   0.791   2.560
 4314SOL     OW13840   4.780   2.725   2.606
 4314SOL    HW113841   4.752   2.784   2.682
 4314SOL    HW213842   4.880   2.723   2.600
 4315SOL     OW13843   2.305   1.557   2.079
 4315SOL    HW113844   2.389   1.551   2.026
 4315SOL    HW213845   2.260   1.467   2.081
 4316SOL     OW13846   6.060   6.990   2.222
 4316SOL    HW113847   5.971   0.014   2.220
 4316SOL    HW213848   6.127   0.024   2.172
 4317SOL     OW13849   4.233   1.321   3.540
 4317SOL    HW113850   4.153   1.281   3.585
 4317SOL    HW213851   4.214   1.416   3.516
 4318SOL     OW13852   0.192   2.350   4.071
 4318SOL    HW113853   0.189   2.302   4.159
 4318SOL    HW213854   0.221   2.287   4.000
 4319SOL     OW13855   2.340   3.524   6.184
 4319SOL    HW113856   2.251   3.499   6.145
 4319SOL    HW213857   2.361   3.619   6.159
 4320SOL     OW13858   0.316   5.838   2.614
 4320SOL    HW113859   0.291   5.928   2.649
 4320SOL    HW213860   0.246   5.772   2.639
 4321SOL     OW13861   0.523   0.203   5.278
 4321SOL    HW113862   0.545   0.110   5.304
 4321SOL    HW213863   0.443   0.234   5.328
 4322SOL     OW13864   6.127   1.217   0.265
 4322SOL    HW113865   6.157   1.175   0.179
 4322SOL    HW213866   6.201   1.214   0.331
 4323SOL     OW13867   6.773   3.488   3.228
 4323SOL    HW113868   6.870   3.499   3.209
 4323SOL    HW213869   6.755   3.396   3.260
 4324SOL     OW13870   5.657   4.111   5.769
 4324SOL    HW113871   5.714   4.187   5.737
 4324SOL    HW213872   5.582   4.147   5.824
 4325SOL     OW13873   1.967   1.843   6.851
 4325SOL    HW113874   2.065   1.861   6.859
 4325SOL    HW213875   1.925   1.848   6.942
 4326SOL     OW13876   6.288   2.057   4.854
 4326SOL    HW113877   6.214   2.077   4.918
 4326SOL    HW213878   6.355   2.132   4.856
 4327SOL     OW13879   5.617   6.765   2.631
 4327SOL    HW113880   5.649   6.685   2.681
 4327SOL    HW213881   5.668   6.774   2.546
 4328SOL     OW13882   5.520   4.997   0.528
 4328SOL    HW113883   5.526   4.956   0.620
 4328SOL    HW213884   5.534   4.925   0.460
 4329SOL     OW13885   3.783   1.589   5.876
 4329SOL    HW113886   3.746   1.679   5.852
 4329SOL    HW213887   3.722   1.543   5.941
 4330SOL     OW13888   1.507   0.767   6.126
 4330SOL    HW113889   1.418   0.776   6.082
 4330SOL    HW213890   1.498   0.788   6.224
 4331SOL     OW13891   5.852   2.760   6.970
 4331SOL    HW113892   5.773   2.781   0.006
 4331SOL    HW213893   5.843   2.667   6.934
 4332SOL     OW13894   5.275   3.041   1.484
 4332SOL    HW113895   5.335   3.033   1.563
 4332SOL    HW213896   5.298   3.124   1.432
 4333SOL     OW13897   5.198   0.673   5.032
 4333SOL    HW113898   5.172   0.769   5.042
 4333SOL    HW213899   5.295   0.666   5.009
 4334SOL     OW13900   4.440   0.893   2.189
 4334SOL    HW113901   4.352   0.910   2.144
 4334SOL    HW213902   4.450   0.954   2.267
 4335SOL     OW13903   3.289   4.083   5.117
 4335SOL    HW113904   3.370   4.128   5.079
 4335SOL    HW213905   3.237   4.148   5.172
 4336SOL     OW13906   1.561   6.030   4.544
 4336SOL    HW113907   1.560   6.114   4.489
 4336SOL    HW213908   1.472   6.019   4.588
 4337SOL     OW13909   6.935   5.581   0.932
 4337SOL    HW113910   6.837   5.604   0.928
 4337SOL    HW213911   6.965   5.551   0.842
 4338SOL     OW13912   6.581   6.234   4.009
 4338SOL    HW113913   6.484   6.252   4.022
 4338SOL    HW213914   6.593   6.152   3.954
 4339SOL     OW13915   6.160   1.674   6.400
 4339SOL    HW113916   6.213   1.635   6.324
 4339SOL    HW213917   6.070   1.631   6.404
 4340SOL     OW13918   4.692   3.701   1.748
 4340SOL    HW113919   4.651   3.610   1.747
 4340SOL    HW213920   4.738   3.718   1.661
 4341SOL     OW13921   0.862   4.662   0.455
 4341SOL    HW113922   0.905   4.579   0.418
 4341SOL    HW213923   0.933   4.728   0.479
 4342SOL     OW13924   0.394   3.157   2.987
 4342SOL    HW113925   0.388   3.070   3.035
 4342SOL    HW213926   0.351   3.149   2.897
 4343SOL     OW13927   2.616   1.623   1.215
 4343SOL    HW113928   2.635   1.592   1.308
 4343SOL    HW213929   2.591   1.544   1.159
 4344SOL     OW13930   2.042   5.218   3.424
 4344SOL    HW113931   1.992   5.190   3.506
 4344SOL    HW213932   2.041   5.318   3.417
 4345SOL     OW13933   1.736   1.916   6.132
 4345SOL    HW113934   1.690   1.966   6.058
 4345SOL    HW213935   1.667   1.882   6.196
 4346SOL     OW13936   2.066   3.403   2.192
 4346SOL    HW113937   2.140   3.415   2.127
 4346SOL    HW213938   1.994   3.470   2.174
 4347SOL     OW13939   5.787   6.380   2.912
 4347SOL    HW113940   5.785   6.441   2.991
 4347SOL    HW213941   5.868   6.400   2.856
 4348SOL     OW13942   1.449   4.017   6.673
 4348SOL    HW113943   1.358   3.998   6.635
 4348SOL    HW213944   1.441   4.086   6.745
 4349SOL     OW13945   6.890   0.455   3.326
 4349SOL    HW113946   6.900   0.547   3.288
 4349SOL    HW213947   6.830   0.401   3.267
 4350SOL     OW13948   4.917   1.704   3.648
 4350SOL    HW113949   4.826   1.742   3.635
 4350SOL    HW213950   4.976   1.773   3.691
 4351SOL     OW13951   2.909   6.070   1.296
 4351SOL    HW113952   2.988   6.014   1.270
 4351SOL    HW213953   2.898   6.069   1.395
 4352SOL     OW13954   6.273   1.368   1.931
 4352SOL    HW113955   6.271   1.300   2.004
 4352SOL    HW213956   6.356   1.356   1.876
 4353SOL     OW13957   4.007   5.596   6.624
 4353SOL    HW113958   3.956   5.515   6.653
 4353SOL    HW213959   3.985   5.673   6.683
 4354SOL     OW13960   2.119   0.593   0.801
 4354SOL    HW113961   2.097   0.647   0.882
 4354SOL    HW213962   2.209   0.550   0.813
 4355SOL     OW13963   5.159   0.996   0.687
 4355SOL    HW113964   5.185   1.080   0.641
 4355SOL    HW213965   5.062   0.999   0.710
 4356SOL     OW13966   3.996   4.898   0.642
 4356SOL    HW113967   3.935   4.974   0.663
 4356SOL    HW213968   4.067   4.891   0.712
 4357SOL     OW13969   6.100   0.796   6.900
 4357SOL    HW113970   6.174   0.850   6.858
 4357SOL    HW213971   6.080   0.717   6.842
 4358SOL     OW13972   1.105   0.160   1.956
 4358SOL    HW113973   1.023   0.206   1.990
 4358SOL    HW213974   1.085   0.117   1.868
 4359SOL     OW13975   6.430   2.540   3.719
 4359SOL    HW113976   6.516   2.500   3.748
 4359SOL    HW213977   6.413   2.517   3.623
 4360SOL     OW13978   1.470   3.141   1.302
 4360SOL    HW113979   1.477   3.051   1.345
 4360SOL    HW213980   1.388   3.187   1.335
 4361SOL     OW13981   5.006   2.063   1.892
 4361SOL    HW113982   5.033   1.966   1.889
 4361SOL    HW213983   4.921   2.075   1.840
 4362SOL     OW13984   5.990   4.501   4.315
 4362SOL    HW113985   6.052   4.490   4.237
 4362SOL    HW213986   6.008   4.429   4.381
 4363SOL     OW13987   5.342   2.054   6.596
 4363SOL    HW113988   5.418   2.020   6.652
 4363SOL    HW213989   5.316   2.145   6.629
 4364SOL     OW13990   3.375   3.901   4.582
 4364SOL    HW113991   3.292   3.878   4.632
 4364SOL    HW213992   3.374   3.998   4.559
 4365SOL     OW13993   3.650   1.299   1.705
 4365SOL    HW113994   3.718   1.312   1.778
 4365SOL    HW213995   3.649   1.379   1.646
 4366SOL     OW13996   5.970   5.415   1.079
 4366SOL    HW113997   5.946   5.352   1.005
 4366SOL    HW213998   5.973   5.366   1.166
 4367SOL     OW13999   1.636   6.229   6.469
 4367SOL    HW114000   1.701   6.175   6.416
 4367SOL    HW214001   1.622   6.318   6.425
 4368SOL     OW14002   5.652   3.878   1.858
 4368SOL    HW114003   5.582   3.854   1.926
 4368SOL    HW214004   5.669   3.800   1.798
 4369SOL     OW14005   4.078   5.720   1.805
 4369SOL    HW114006   4.150   5.662   1.765
 4369SOL    HW214007   4.006   5.661   1.842
 4370SOL     OW14008   5.853   4.809   2.954
 4370SOL    HW114009   5.809   4.812   3.044
 4370SOL    HW214010   5.936   4.865   2.955
 4371SOL     OW14011   6.172   2.215   1.871
 4371SOL    HW114012   6.099   2.240   1.935
 4371SOL    HW214013   6.190   2.117   1.878
 4372SOL     OW14014   4.556   0.747   3.110
 4372SOL    HW114015   4.625   0.804   3.065
 4372SOL    HW214016   4.493   0.805   3.161
 4373SOL     OW14017   6.812   2.156   6.210
 4373SOL    HW114018   6.714   2.142   6.219
 4373SOL    HW214019   6.834   2.253   6.222
 4374SOL     OW14020   2.445   2.413   1.621
 4374SOL    HW114021   2.399   2.326   1.633
 4374SOL    HW214022   2.542   2.403   1.643
 4375SOL     OW14023   2.759   6.750   4.344
 4375SOL    HW114024   2.790   6.722   4.253
 4375SOL    HW214025   2.673   6.800   4.336
 4376SOL     OW14026   5.687   1.250   3.558
 4376SOL    HW114027   5.637   1.164   3.544
 4376SOL    HW214028   5.691   1.301   3.472
 4377SOL     OW14029   5.230   4.720   6.400
 4377SOL    HW114030   5.276   4.758   6.319
 4377SOL    HW214031   5.226   4.790   6.471
 4378SOL     OW14032   1.964   0.875   3.933
 4378SOL    HW114033   1.898   0.802   3.947
 4378SOL    HW214034   2.057   0.838   3.940
 4379SOL     OW14035   2.494   1.905   5.362
 4379SOL    HW114036   2.538   1.981   5.411
 4379SOL    HW214037   2.544   1.885   5.278
 4380SOL     OW14038   0.213   1.028   1.546
 4380SOL    HW114039   0.254   1.029   1.455
 4380SOL    HW214040   0.119   1.061   1.540
 4381SOL     OW14041   1.824   6.106   6.099
 4381SOL    HW114042   1.912   6.147   6.073
 4381SOL    HW214043   1.769   6.174   6.147
 4382SOL     OW14044   0.092   2.959   5.325
 4382SOL    HW114045   0.180   2.998   5.298
 4382SOL    HW214046   0.050   2.914   5.246
 4383SOL     OW14047   5.977   2.732   0.197
 4383SOL    HW114048   6.040   2.659   0.223
 4383SOL    HW214049   5.953   2.722   0.100
 4384SOL     OW14050   5.754   6.564   4.272
 4384SOL    HW114051   5.664   6.530   4.298
 4384SOL    HW214052   5.810   6.574   4.355
 4385SOL     OW14053   5.229   1.447   5.189
 4385SOL    HW114054   5.258   1.429   5.095
 4385SOL    HW214055   5.131   1.429   5.197
 4386SOL     OW14056   1.146   3.316   4.900
 4386SOL    HW114057   1.182   3.234   4.856
 4386SOL    HW214058   1.048   3.306   4.916
 4387SOL     OW14059   6.580   2.090   0.479
 4387SOL    HW114060   6.537   2.001   0.489
 4387SOL    HW214061   6.663   2.081   0.424
 4388SOL     OW14062   5.787   2.633   6.647
 4388SOL    HW114063   5.814   2.588   6.732
 4388SOL    HW214064   5.687   2.635   6.642
 4389SOL     OW14065   0.706   3.661   1.332
 4389SOL    HW114066   0.805   3.648   1.321
 4389SOL    HW214067   0.674   3.729   1.266
 4390SOL     OW14068   6.669   1.270   1.406
 4390SOL    HW114069   6.706   1.343   1.464
 4390SOL    HW214070   6.727   1.260   1.325
 4391SOL     OW14071   2.159   6.163   0.000
 4391SOL    HW114072   2.184   6.238   6.961
 4391SOL    HW214073   2.199   6.078   6.988
 4392SOL     OW14074   1.717   2.501   5.416
 4392SOL    HW114075   1.776   2.554   5.355
 4392SOL    HW214076   1.665   2.563   5.475
 4393SOL     OW14077   4.904   0.807   2.014
 4393SOL    HW114078   4.819   0.761   1.987
 4393SOL    HW214079   4.902   0.825   2.113
 4394SOL     OW14080   0.940   0.545   2.092
 4394SOL    HW114081   0.985   0.466   2.052
 4394SOL    HW214082   0.912   0.607   2.019
 4395SOL     OW14083   2.584   5.201   1.389
 4395SOL    HW114084   2.664   5.196   1.329
 4395SOL    HW214085   2.609   5.173   1.481
 4396SOL     OW14086   2.511   0.173   3.301
 4396SOL    HW114087   2.432   0.151   3.358
 4396SOL    HW214088   2.594   0.143   3.348
 4397SOL     OW14089   3.218   1.619   4.436
 4397SOL    HW114090   3.136   1.616   4.379
 4397SOL    HW214091   3.220   1.538   4.495
 4398SOL     OW14092   1.910   2.875   4.957
 4398SOL    HW114093   1.853   2.896   4.878
 4398SOL    HW214094   1.968   2.796   4.937
 4399SOL     OW14095   2.878   6.816   2.419
 4399SOL    HW114096   2.815   6.761   2.364
 4399SOL    HW214097   2.856   6.913   2.409
 4400SOL     OW14098   1.671   5.417   4.596
 4400SOL    HW114099   1.743   5.465   4.545
 4400SOL    HW214100   1.712   5.371   4.675
 4401SOL     OW14101   3.895   0.240   6.491
 4401SOL    HW114102   3.946   0.157   6.513
 4401SOL    HW214103   3.959   0.316   6.478
 4402SOL     OW14104   1.242   1.088   3.102
 4402SOL    HW114105   1.210   1.143   3.024
 4402SOL    HW214106   1.279   1.001   3.070
 4403SOL     OW14107   1.569   5.066   1.396
 4403SOL    HW114108   1.495   5.097   1.335
 4403SOL    HW214109   1.553   5.102   1.488
 4404SOL     OW14110   0.850   6.871   5.928
 4404SOL    HW114111   0.896   6.935   5.867
 4404SOL    HW214112   0.764   6.841   5.886
 4405SOL     OW14113   1.735   5.639   3.073
 4405SOL    HW114114   1.648   5.674   3.108
 4405SOL    HW214115   1.735   5.539   3.078
 4406SOL     OW14116   6.551   3.776   1.925
 4406SOL    HW114117   6.458   3.808   1.947
 4406SOL    HW214118   6.590   3.730   2.004
 4407SOL     OW14119   5.427   5.951   2.028
 4407SOL    HW114120   5.521   5.944   2.061
 4407SOL    HW214121   5.426   5.962   1.929
 4408SOL     OW14122   4.478   0.857   0.209
 4408SOL    HW114123   4.571   0.888   0.230
 4408SOL    HW214124   4.454   0.883   0.116
 4409SOL     OW14125   3.148   0.495   3.045
 4409SOL    HW114126   3.111   0.470   3.134
 4409SOL    HW214127   3.073   0.505   2.979
 4410SOL     OW14128   1.399   6.724   0.987
 4410SOL    HW114129   1.353   6.799   1.033
 4410SOL    HW214130   1.335   6.679   0.924
 4411SOL     OW14131   3.462   4.380   5.349
 4411SOL    HW114132   3.528   4.449   5.318
 4411SOL    HW214133   3.495   4.289   5.324
 4412SOL     OW14134   4.471   6.021   2.729
 4412SOL    HW114135   4.494   6.114   2.758
 4412SOL    HW214136   4.524   5.955   2.783
 4413SOL     OW14137   4.485   6.208   3.904
 4413SOL    HW114138   4.516   6.268   3.831
 4413SOL    HW214139   4.551   6.210   3.980
 4414SOL     OW14140   4.392   4.236   1.412
 4414SOL    HW114141   4.480   4.237   1.363
 4414SOL    HW214142   4.348   4.325   1.402
 4415SOL     OW14143   2.296   3.060   1.474
 4415SOL    HW114144   2.383   3.096   1.508
 4415SOL    HW214145   2.235   3.137   1.452
 4416SOL     OW14146   4.475   2.368   3.369
 4416SOL    HW114147   4.382   2.351   3.337
 4416SOL    HW214148   4.475   2.375   3.469
 4417SOL     OW14149   0.356   4.176   3.380
 4417SOL    HW114150   0.264   4.181   3.416
 4417SOL    HW214151   0.363   4.234   3.298
 4418SOL     OW14152   6.562   6.831   6.013
 4418SOL    HW114153   6.518   6.838   6.102
 4418SOL    HW214154   6.504   6.779   5.951
 4419SOL     OW14155   6.064   5.531   6.330
 4419SOL    HW114156   6.012   5.565   6.409
 4419SOL    HW214157   6.013   5.456   6.287
 4420SOL     OW14158   3.536   2.193   0.843
 4420SOL    HW114159   3.596   2.161   0.769
 4420SOL    HW214160   3.588   2.251   0.905
 4421SOL     OW14161   1.545   2.077   6.006
 4421SOL    HW114162   1.490   2.036   5.932
 4421SOL    HW214163   1.524   2.174   6.013
 4422SOL     OW14164   6.561   3.691   6.607
 4422SOL    HW114165   6.555   3.629   6.529
 4422SOL    HW214166   6.502   3.657   6.680
 4423SOL     OW14167   5.606   4.032   4.829
 4423SOL    HW114168   5.605   3.983   4.916
 4423SOL    HW214169   5.565   4.123   4.841
 4424SOL     OW14170   4.810   5.663   3.097
 4424SOL    HW114171   4.799   5.762   3.082
 4424SOL    HW214172   4.905   5.643   3.123
 4425SOL     OW14173   1.856   5.121   1.371
 4425SOL    HW114174   1.875   5.146   1.466
 4425SOL    HW214175   1.764   5.081   1.365
 4426SOL     OW14176   0.540   0.322   5.027
 4426SOL    HW114177   0.556   0.239   4.974
 4426SOL    HW214178   0.558   0.303   5.124
 4427SOL     OW14179   2.345   6.058   3.012
 4427SOL    HW114180   2.385   6.016   3.094
 4427SOL    HW214181   2.320   5.986   2.947
 4428SOL     OW14182   5.323   6.778   3.094
 4428SOL    HW114183   5.313   6.686   3.131
 4428SOL    HW214184   5.233   6.820   3.083
 4429SOL     OW14185   2.411   5.929   3.239
 4429SOL    HW114186   2.496   5.907   3.287
 4429SOL    HW214187   2.351   5.849   3.241
 4430SOL     OW14188   4.704   3.995   5.465
 4430SOL    HW114189   4.735   4.060   5.534
 4430SOL    HW214190   4.694   3.904   5.507
 4431SOL     OW14191   3.259   6.836   3.729
 4431SOL    HW114192   3.239   6.763   3.663
 4431SOL    HW214193   3.346   6.880   3.705
 4432SOL     OW14194   0.869   3.519   5.889
 4432SOL    HW114195   0.801   3.498   5.959
 4432SOL    HW214196   0.822   3.540   5.802
 4433SOL     OW14197   0.165   1.087   5.568
 4433SOL    HW114198   0.220   1.087   5.485
 4433SOL    HW214199   0.215   1.135   5.641
 4434SOL     OW14200   0.156   0.361   2.543
 4434SOL    HW114201   0.118   0.452   2.528
 4434SOL    HW214202   0.090   0.306   2.595
 4435SOL     OW14203   2.252   4.001   0.172
 4435SOL    HW114204   2.285   4.067   0.104
 4435SOL    HW214205   2.244   3.911   0.129
 4436SOL     OW14206   4.255   1.901   1.781
 4436SOL    HW114207   4.208   1.909   1.869
 4436SOL    HW214208   4.243   1.809   1.745
 4437SOL     OW14209   6.809   4.183   0.476
 4437SOL    HW114210   6.855   4.178   0.388
 4437SOL    HW214211   6.716   4.146   0.468
 4438SOL     OW14212   3.468   0.430   5.839
 4438SOL    HW114213   3.484   0.520   5.798
 4438SOL    HW214214   3.370   0.417   5.852
 4439SOL     OW14215   2.436   6.905   2.586
 4439SOL    HW114216   2.457   6.937   2.678
 4439SOL    HW214217   2.459   6.808   2.578
 4440SOL     OW14218   1.493   5.242   0.286
 4440SOL    HW114219   1.443   5.296   0.353
 4440SOL    HW214220   1.557   5.300   0.237
 4441SOL     OW14221   0.195   1.522   0.439
 4441SOL    HW114222   0.193   1.438   0.385
 4441SOL    HW214223   0.106   1.567   0.434
 4442SOL     OW14224   1.830   4.730   6.564
 4442SOL    HW114225   1.739   4.751   6.601
 4442SOL    HW214226   1.868   4.651   6.613
 4443SOL     OW14227   0.731   5.484   6.123
 4443SOL    HW114228   0.783   5.549   6.178
 4443SOL    HW214229   0.668   5.533   6.063
 4444SOL     OW14230   5.567   4.599   0.000
 4444SOL    HW114231   5.478   4.580   0.041
 4444SOL    HW214232   5.601   4.688   0.034
 4445SOL     OW14233   0.120   5.176   0.304
 4445SOL    HW114234   0.104   5.100   0.241
 4445SOL    HW214235   0.196   5.232   0.271
 4446SOL     OW14236   5.017   1.306   0.904
 4446SOL    HW114237   5.052   1.231   0.849
 4446SOL    HW214238   5.091   1.371   0.923
 4447SOL     OW14239   4.735   5.637   5.913
 4447SOL    HW114240   4.722   5.547   5.953
 4447SOL    HW214241   4.746   5.628   5.814
 4448SOL     OW14242   3.745   6.250   2.120
 4448SOL    HW114243   3.702   6.182   2.061
 4448SOL    HW214244   3.684   6.329   2.130
 4449SOL     OW14245   3.353   1.293   5.638
 4449SOL    HW114246   3.433   1.243   5.607
 4449SOL    HW214247   3.372   1.337   5.726
 4450SOL     OW14248   3.637   6.684   0.505
 4450SOL    HW114249   3.556   6.659   0.453
 4450SOL    HW214250   3.661   6.779   0.485
 4451SOL     OW14251   5.298   4.397   2.767
 4451SOL    HW114252   5.272   4.492   2.752
 4451SOL    HW214253   5.262   4.341   2.692
 4452SOL     OW14254   4.494   6.627   4.581
 4452SOL    HW114255   4.419   6.655   4.641
 4452SOL    HW214256   4.485   6.674   4.493
 4453SOL     OW14257   6.618   4.111   0.824
 4453SOL    HW114258   6.528   4.155   0.821
 4453SOL    HW214259   6.606   4.011   0.821
 4454SOL     OW14260   1.286   2.497   6.723
 4454SOL    HW114261   1.214   2.435   6.754
 4454SOL    HW214262   1.294   2.574   6.786
 4455SOL     OW14263   0.585   6.563   5.559
 4455SOL    HW114264   0.658   6.629   5.545
 4455SOL    HW214265   0.597   6.485   5.497
 4456SOL     OW14266   2.314   0.263   4.725
 4456SOL    HW114267   2.287   0.261   4.629
 4456SOL    HW214268   2.234   0.279   4.783
 4457SOL     OW14269   1.736   2.277   5.027
 4457SOL    HW114270   1.748   2.243   5.120
 4457SOL    HW214271   1.736   2.377   5.028
 4458SOL     OW14272   1.695   3.575   6.835
 4458SOL    HW114273   1.625   3.508   6.809
 4458SOL    HW214274   1.746   3.602   6.753
 4459SOL     OW14275   0.592   2.801   2.731
 4459SOL    HW114276   0.495   2.778   2.739
 4459SOL    HW214277   0.634   2.804   2.822
 4460SOL     OW14278   6.871   2.854   4.305
 4460SOL    HW114279   6.809   2.784   4.341
 4460SOL    HW214280   6.948   2.866   4.367
 4461SOL     OW14281   2.433   1.007   1.038
 4461SOL    HW114282   2.481   1.000   1.126
 4461SOL    HW214283   2.501   1.008   0.964
 4462SOL     OW14284   6.602   4.494   3.333
 4462SOL    HW114285   6.653   4.580   3.330
 4462SOL    HW214286   6.665   4.417   3.328
 4463SOL     OW14287   5.897   1.536   0.684
 4463SOL    HW114288   5.893   1.438   0.664
 4463SOL    HW214289   5.951   1.551   0.767
 4464SOL     OW14290   0.273   5.622   1.148
 4464SOL    HW114291   0.318   5.571   1.075
 4464SOL    HW214292   0.301   5.585   1.237
 4465SOL     OW14293   3.156   5.670   0.992
 4465SOL    HW114294   3.254   5.692   0.994
 4465SOL    HW214295   3.127   5.637   1.082
 4466SOL     OW14296   1.788   2.652   3.409
 4466SOL    HW114297   1.822   2.728   3.354
 4466SOL    HW214298   1.834   2.568   3.383
 4467SOL     OW14299   4.271   6.076   3.487
 4467SOL    HW114300   4.341   6.020   3.445
 4467SOL    HW214301   4.244   6.150   3.425
 4468SOL     OW14302   1.944   2.952   1.920
 4468SOL    HW114303   2.027   3.004   1.938
 4468SOL    HW214304   1.963   2.881   1.852
 4469SOL     OW14305   3.237   6.160   1.311
 4469SOL    HW114306   3.271   6.066   1.312
 4469SOL    HW214307   3.176   6.174   1.233
 4470SOL     OW14308   2.155   6.803   2.840
 4470SOL    HW114309   2.104   6.740   2.899
 4470SOL    HW214310   2.251   6.806   2.869
 4471SOL     OW14311   1.499   1.056   6.563
 4471SOL    HW114312   1.435   1.133   6.568
 4471SOL    HW214313   1.525   1.028   6.656
 4472SOL     OW14314   1.927   2.687   1.278
 4472SOL    HW114315   1.972   2.761   1.328
 4472SOL    HW214316   1.991   2.649   1.211
 4473SOL     OW14317   0.707   2.521   4.382
 4473SOL    HW114318   0.656   2.495   4.300
 4473SOL    HW214319   0.649   2.509   4.463
 4474SOL     OW14320   3.055   5.490   0.718
 4474SOL    HW114321   3.054   5.509   0.816
 4474SOL    HW214322   3.045   5.575   0.667
 4475SOL     OW14323   1.396   3.909   1.105
 4475SOL    HW114324   1.378   3.826   1.053
 4475SOL    HW214325   1.362   3.988   1.054
 4476SOL     OW14326   4.646   1.197   3.610
 4476SOL    HW114327   4.586   1.196   3.530
 4476SOL    HW214328   4.712   1.122   3.603
 4477SOL     OW14329   1.765   1.041   5.111
 4477SOL    HW114330   1.779   0.945   5.135
 4477SOL    HW214331   1.708   1.047   5.029
 4478SOL     OW14332   1.790   0.259   0.518
 4478SOL    HW114333   1.716   0.326   0.527
 4478SOL    HW214334   1.871   0.293   0.565
 4479SOL     OW14335   1.082   2.927   0.216
 4479SOL    HW114336   1.044   2.857   0.156
 4479SOL    HW214337   1.056   2.908   0.310
 4480SOL     OW14338   1.150   6.370   3.899
 4480SOL    HW114339   1.063   6.372   3.848
 4480SOL    HW214340   1.154   6.287   3.954
 4481SOL     OW14341   2.077   3.712   6.125
 4481SOL    HW114342   2.064   3.740   6.030
 4481SOL    HW214343   2.174   3.717   6.149
 4482SOL     OW14344   2.434   6.282   0.100
 4482SOL    HW114345   2.386   6.205   0.057
 4482SOL    HW214346   2.371   6.333   0.158
 4483SOL     OW14347   1.248   3.097   0.581
 4483SOL    HW114348   1.281   3.072   0.490
 4483SOL    HW214349   1.303   3.050   0.650
 4484SOL     OW14350   2.644   1.840   0.374
 4484SOL    HW114351   2.567   1.777   0.378
 4484SOL    HW214352   2.644   1.889   0.286
 4485SOL     OW14353   6.181   2.603   5.239
 4485SOL    HW114354   6.136   2.691   5.227
 4485SOL    HW214355   6.202   2.564   5.149
 4486SOL     OW14356   4.323   5.064   5.120
 4486SOL    HW114357   4.349   4.981   5.072
 4486SOL    HW214358   4.274   5.125   5.058
 4487SOL     OW14359   0.786   3.212   6.990
 4487SOL    HW114360   0.880   3.221   6.956
 4487SOL    HW214361   0.761   3.116   6.995
 4488SOL     OW14362   6.988   4.259   3.913
 4488SOL    HW114363   6.938   4.291   3.832
 4488SOL    HW214364   0.003   4.338   3.963
 4489SOL     OW14365   4.627   5.942   5.675
 4489SOL    HW114366   4.716   5.933   5.719
 4489SOL    HW214367   4.590   6.034   5.691
 4490SOL     OW14368   5.264   1.760   1.539
 4490SOL    HW114369   5.265   1.726   1.445
 4490SOL    HW214370   5.190   1.715   1.589
 4491SOL     OW14371   1.262   3.246   3.685
 4491SOL    HW114372   1.265   3.215   3.590
 4491SOL    HW214373   1.198   3.323   3.693
 4492SOL     OW14374   6.324   0.433   2.591
 4492SOL    HW114375   6.286   0.433   2.683
 4492SOL    HW214376   6.251   0.435   2.524
 4493SOL     OW14377   5.486   1.876   4.810
 4493SOL    HW114378   5.444   1.901   4.897
 4493SOL    HW214379   5.475   1.777   4.795
 4494SOL     OW14380   1.195   0.967   0.940
 4494SOL    HW114381   1.191   0.959   0.840
 4494SOL    HW214382   1.270   1.028   0.965
 4495SOL     OW14383   4.581   5.875   1.129
 4495SOL    HW114384   4.632   5.943   1.181
 4495SOL    HW214385   4.623   5.863   1.039
 4496SOL     OW14386   3.494   5.880   6.589
 4496SOL    HW114387   3.503   5.972   6.625
 4496SOL    HW214388   3.399   5.849   6.597
 4497SOL     OW14389   4.507   1.132   5.924
 4497SOL    HW114390   4.586   1.158   5.981
 4497SOL    HW214391   4.485   1.036   5.938
 4498SOL     OW14392   0.233   5.528   5.137
 4498SOL    HW114393   0.235   5.598   5.065
 4498SOL    HW214394   0.162   5.461   5.116
 4499SOL     OW14395   5.919   2.100   2.806
 4499SOL    HW114396   5.838   2.073   2.753
 4499SOL    HW214397   5.896   2.176   2.866
 4500SOL     OW14398   3.915   5.491   6.951
 4500SOL    HW114399   3.918   5.398   6.987
 4500SOL    HW214400   3.881   5.553   0.000
 4501SOL     OW14401   5.928   0.473   2.784
 4501SOL    HW114402   5.877   0.422   2.715
 4501SOL    HW214403   5.864   0.517   2.847
 4502SOL     OW14404   6.808   3.761   6.547
 4502SOL    HW114405   6.715   3.765   6.584
 4502SOL    HW214406   6.874   3.756   6.622
 4503SOL     OW14407   3.052   0.893   2.802
 4503SOL    HW114408   3.096   0.837   2.872
 4503SOL    HW214409   3.073   0.856   2.712
 4504SOL     OW14410   6.899   1.289   2.613
 4504SOL    HW114411   6.800   1.280   2.599
 4504SOL    HW214412   6.916   1.329   2.703
 4505SOL     OW14413   5.434   4.972   4.013
 4505SOL    HW114414   5.531   4.958   3.990
 4505SOL    HW214415   5.420   5.068   4.039
 4506SOL     OW14416   5.147   2.545   5.617
 4506SOL    HW114417   5.204   2.573   5.693
 4506SOL    HW214418   5.201   2.491   5.552
 4507SOL     OW14419   6.126   3.016   3.210
 4507SOL    HW114420   6.104   3.057   3.122
 4507SOL    HW214421   6.181   2.933   3.196
 4508SOL     OW14422   0.394   5.468   0.892
 4508SOL    HW114423   0.452   5.485   0.812
 4508SOL    HW214424   0.345   5.382   0.879
 4509SOL     OW14425   4.980   2.879   1.974
 4509SOL    HW114426   4.889   2.904   2.007
 4509SOL    HW214427   5.046   2.949   2.003
 4510SOL     OW14428   3.994   0.686   3.932
 4510SOL    HW114429   4.075   0.719   3.884
 4510SOL    HW214430   4.005   0.700   4.030
 4511SOL     OW14431   0.330   4.397   0.410
 4511SOL    HW114432   0.426   4.418   0.423
 4511SOL    HW214433   0.285   4.387   0.499
 4512SOL     OW14434   3.193   3.306   5.370
 4512SOL    HW114435   3.274   3.278   5.318
 4512SOL    HW214436   3.118   3.327   5.307
 4513SOL     OW14437   1.226   6.592   0.835
 4513SOL    HW114438   1.167   6.532   0.889
 4513SOL    HW214439   1.233   6.558   0.741
 4514SOL     OW14440   3.478   4.519   6.632
 4514SOL    HW114441   3.555   4.493   6.573
 4514SOL    HW214442   3.393   4.486   6.592
 4515SOL     OW14443   4.441   0.873   5.988
 4515SOL    HW114444   4.502   0.821   5.928
 4515SOL    HW214445   4.358   0.821   6.005
 4516SOL     OW14446   3.472   1.695   5.563
 4516SOL    HW114447   3.454   1.781   5.516
 4516SOL    HW214448   3.385   1.652   5.588
 4517SOL     OW14449   3.683   0.780   5.416
 4517SOL    HW114450   3.653   0.875   5.424
 4517SOL    HW214451   3.666   0.747   5.324
 4518SOL     OW14452   1.035   6.703   1.181
 4518SOL    HW114453   0.953   6.688   1.235
 4518SOL    HW214454   1.066   6.798   1.192
 4519SOL     OW14455   4.718   0.022   0.064
 4519SOL    HW114456   4.679   0.051   0.152
 4519SOL    HW214457   4.753   0.102   0.016
 4520SOL     OW14458   4.133   5.321   5.273
 4520SOL    HW114459   4.156   5.383   5.198
 4520SOL    HW214460   4.175   5.353   5.357
 4521SOL     OW14461   4.241   2.337   4.020
 4521SOL    HW114462   4.284   2.400   3.955
 4521SOL    HW214463   4.282   2.349   4.110
 4522SOL     OW14464   5.634   4.402   3.486
 4522SOL    HW114465   5.578   4.321   3.500
 4522SOL    HW214466   5.713   4.379   3.429
 4523SOL     OW14467   0.500   3.183   5.792
 4523SOL    HW114468   0.598   3.200   5.803
 4523SOL    HW214469   0.459   3.162   5.881
 4524SOL     OW14470   1.526   3.778   2.649
 4524SOL    HW114471   1.553   3.728   2.731
 4524SOL    HW214472   1.472   3.718   2.590
 4525SOL     OW14473   3.545   2.286   5.431
 4525SOL    HW114474   3.470   2.278   5.365
 4525SOL    HW214475   3.525   2.361   5.495
 4526SOL     OW14476   1.117   6.881   5.585
 4526SOL    HW114477   1.021   6.910   5.577
 4526SOL    HW214478   1.174   6.960   5.607
 4527SOL     OW14479   6.721   0.983   2.578
 4527SOL    HW114480   6.761   0.977   2.670
 4527SOL    HW214481   6.786   1.027   2.516
 4528SOL     OW14482   4.568   1.230   5.611
 4528SOL    HW114483   4.586   1.260   5.517
 4528SOL    HW214484   4.470   1.241   5.630
 4529SOL     OW14485   2.265   0.953   4.069
 4529SOL    HW114486   2.306   0.873   4.113
 4529SOL    HW214487   2.334   0.999   4.014
 4530SOL     OW14488   3.730   5.778   6.469
 4530SOL    HW114489   3.738   5.845   6.396
 4530SOL    HW214490   3.673   5.815   6.543
 4531SOL     OW14491   1.327   5.484   5.945
 4531SOL    HW114492   1.272   5.406   5.975
 4531SOL    HW214493   1.318   5.559   6.010
 4532SOL     OW14494   5.533   0.507   2.709
 4532SOL    HW114495   5.529   0.598   2.667
 4532SOL    HW214496   5.601   0.507   2.782
 4533SOL     OW14497   3.040   0.195   1.441
 4533SOL    HW114498   3.069   0.278   1.394
 4533SOL    HW214499   3.119   0.153   1.486
 4534SOL     OW14500   4.186   1.040   4.098
 4534SOL    HW114501   4.165   1.132   4.065
 4534SOL    HW214502   4.284   1.022   4.090
 4535SOL     OW14503   2.212   1.099   0.887
 4535SOL    HW114504   2.291   1.084   0.946
 4535SOL    HW214505   2.226   1.053   0.799
 4536SOL     OW14506   3.007   0.267   5.752
 4536SOL    HW114507   3.087   0.310   5.711
 4536SOL    HW214508   2.932   0.263   5.686
 4537SOL     OW14509   2.928   3.695   3.511
 4537SOL    HW114510   2.942   3.710   3.608
 4537SOL    HW214511   2.970   3.608   3.484
 4538SOL     OW14512   0.479   2.040   1.089
 4538SOL    HW114513   0.577   2.048   1.103
 4538SOL    HW214514   0.452   1.944   1.095
 4539SOL     OW14515   1.369   6.166   5.543
 4539SOL    HW114516   1.404   6.158   5.450
 4539SOL    HW214517   1.278   6.208   5.541
 4540SOL     OW14518   0.781   1.552   0.419
 4540SOL    HW114519   0.869   1.600   0.419
 4540SOL    HW214520   0.740   1.558   0.328
 4541SOL     OW14521   4.348   2.755   5.796
 4541SOL    HW114522   4.381   2.772   5.703
 4541SOL    HW214523   4.380   2.665   5.827
 4542SOL     OW14524   0.069   1.870   0.380
 4542SOL    HW114525   0.007   1.792   0.387
 4542SOL    HW214526   0.158   1.839   0.344
 4543SOL     OW14527   3.743   2.618   0.205
 4543SOL    HW114528   3.728   2.706   0.159
 4543SOL    HW214529   3.812   2.630   0.276
 4544SOL     OW14530   5.625   6.832   0.593
 4544SOL    HW114531   5.539   6.788   0.621
 4544SOL    HW214532   5.676   6.770   0.534
 4545SOL     OW14533   2.041   3.045   5.171
 4545SOL    HW114534   1.980   2.997   5.108
 4545SOL    HW214535   2.043   2.997   5.259
 4546SOL     OW14536   2.903   0.509   5.292
 4546SOL    HW114537   2.814   0.464   5.302
 4546SOL    HW214538   2.892   0.592   5.239
 4547SOL     OW14539   7.016   0.393   0.023
 4547SOL    HW114540   0.088   0.370   0.049
 4547SOL    HW214541   6.955   0.318   0.051
 4548SOL     OW14542   2.741   1.558   2.742
 4548SOL    HW114543   2.658   1.543   2.795
 4548SOL    HW214544   2.768   1.472   2.698
 4549SOL     OW14545   0.337   3.255   4.429
 4549SOL    HW114546   0.241   3.230   4.415
 4549SOL    HW214547   0.353   3.273   4.526
 4550SOL     OW14548   1.918   5.125   3.636
 4550SOL    HW114549   1.818   5.127   3.640
 4550SOL    HW214550   1.955   5.179   3.712
 4551SOL     OW14551   1.895   2.625   5.220
 4551SOL    HW114552   1.961   2.552   5.238
 4551SOL    HW214553   1.935   2.713   5.243
 4552SOL     OW14554   5.414   1.176   0.712
 4552SOL    HW114555   5.396   1.122   0.629
 4552SOL    HW214556   5.420   1.115   0.790
 4553SOL     OW14557   7.018   5.435   0.232
 4553SOL    HW114558   7.009   5.535   0.235
 4553SOL    HW214559   0.045   5.403   0.313
 4554SOL     OW14560   6.109   6.500   3.036
 4554SOL    HW114561   6.052   6.517   2.956
 4554SOL    HW214562   6.073   6.550   3.114
 4555SOL     OW14563   1.778   1.023   0.724
 4555SOL    HW114564   1.722   0.951   0.683
 4555SOL    HW214565   1.735   1.112   0.710
 4556SOL     OW14566   5.709   4.494   4.708
 4556SOL    HW114567   5.705   4.479   4.609
 4556SOL    HW214568   5.625   4.538   4.739
 4557SOL     OW14569   7.008   4.624   3.950
 4557SOL    HW114570   0.044   4.689   3.901
 4557SOL    HW214571   6.940   4.587   3.887
 4558SOL     OW14572   1.128   3.955   4.788
 4558SOL    HW114573   1.128   4.021   4.713
 4558SOL    HW214574   1.053   3.977   4.851
 4559SOL     OW14575   6.778   2.951   3.426
 4559SOL    HW114576   6.783   2.909   3.517
 4559SOL    HW214577   6.690   2.930   3.384
 4560SOL     OW14578   6.293   3.994   2.358
 4560SOL    HW114579   6.380   3.946   2.349
 4560SOL    HW214580   6.263   4.026   2.268
 4561SOL     OW14581   4.009   2.215   3.910
 4561SOL    HW114582   4.067   2.280   3.958
 4561SOL    HW214583   3.925   2.200   3.963
 4562SOL     OW14584   3.761   0.954   1.295
 4562SOL    HW114585   3.670   0.994   1.290
 4562SOL    HW214586   3.778   0.898   1.214
 4563SOL     OW14587   0.811   4.424   2.446
 4563SOL    HW114588   0.739   4.421   2.516
 4563SOL    HW214589   0.810   4.339   2.394
 4564SOL     OW14590   1.853   3.519   2.010
 4564SOL    HW114591   1.761   3.539   1.978
 4564SOL    HW214592   1.917   3.588   1.974
 4565SOL     OW14593   1.751   5.835   6.022
 4565SOL    HW114594   1.747   5.827   6.122
 4565SOL    HW214595   1.811   5.911   5.997
 4566SOL     OW14596   6.376   4.839   3.265
 4566SOL    HW114597   6.427   4.799   3.189
 4566SOL    HW214598   6.291   4.788   3.279
 4567SOL     OW14599   6.898   0.691   7.004
 4567SOL    HW114600   6.901   0.746   6.921
 4567SOL    HW214601   6.908   0.594   6.980
 4568SOL     OW14602   1.661   4.969   2.976
 4568SOL    HW114603   1.725   4.926   3.040
 4568SOL    HW214604   1.708   5.042   2.927
 4569SOL     OW14605   2.163   0.880   3.254
 4569SOL    HW114606   2.168   0.907   3.157
 4569SOL    HW214607   2.068   0.857   3.276
 4570SOL     OW14608   4.971   5.998   1.785
 4570SOL    HW114609   5.035   5.973   1.712
 4570SOL    HW214610   4.885   6.030   1.744
 4571SOL     OW14611   2.505   3.019   6.659
 4571SOL    HW114612   2.410   3.047   6.676
 4571SOL    HW214613   2.539   3.067   6.578
 4572SOL     OW14614   2.939   3.160   2.056
 4572SOL    HW114615   2.979   3.078   2.097
 4572SOL    HW214616   2.906   3.140   1.964
 4573SOL     OW14617   3.159   5.540   1.242
 4573SOL    HW114618   3.187   5.606   1.312
 4573SOL    HW214619   3.240   5.500   1.199
 4574SOL     OW14620   4.975   1.112   1.443
 4574SOL    HW114621   4.934   1.026   1.413
 4574SOL    HW214622   5.000   1.167   1.363
 4575SOL     OW14623   0.531   0.215   5.696
 4575SOL    HW114624   0.498   0.123   5.676
 4575SOL    HW214625   0.481   0.252   5.775
 4576SOL     OW14626   2.731   4.864   5.545
 4576SOL    HW114627   2.771   4.955   5.539
 4576SOL    HW214628   2.733   4.820   5.455
 4577SOL     OW14629   0.591   1.872   2.384
 4577SOL    HW114630   0.506   1.914   2.352
 4577SOL    HW214631   0.669   1.916   2.339
 4578SOL     OW14632   1.745   1.984   2.194
 4578SOL    HW114633   1.840   1.959   2.214
 4578SOL    HW214634   1.732   2.081   2.211
 4579SOL     OW14635   4.983   0.802   3.305
 4579SOL    HW114636   4.925   0.730   3.344
 4579SOL    HW214637   5.002   0.871   3.374
 4580SOL     OW14638   0.480   2.147   0.760
 4580SOL    HW114639   0.380   2.149   0.761
 4580SOL    HW214640   0.515   2.240   0.744
 4581SOL     OW14641   3.298   0.992   0.844
 4581SOL    HW114642   3.282   1.076   0.896
 4581SOL    HW214643   3.247   0.996   0.758
 4582SOL     OW14644   5.701   1.418   3.916
 4582SOL    HW114645   5.674   1.504   3.873
 4582SOL    HW214646   5.620   1.360   3.928
 4583SOL     OW14647   1.778   0.431   0.141
 4583SOL    HW114648   1.802   0.338   0.168
 4583SOL    HW214649   1.857   0.474   0.098
 4584SOL     OW14650   0.944   0.897   4.467
 4584SOL    HW114651   0.946   0.829   4.393
 4584SOL    HW214652   0.919   0.986   4.429
 4585SOL     OW14653   2.170   3.232   3.841
 4585SOL    HW114654   2.074   3.207   3.822
 4585SOL    HW214655   2.205   3.174   3.914
 4586SOL     OW14656   5.941   4.912   6.838
 4586SOL    HW114657   6.003   4.853   6.890
 4586SOL    HW214658   5.864   4.858   6.806
 4587SOL     OW14659   3.474   2.877   4.917
 4587SOL    HW114660   3.549   2.916   4.972
 4587SOL    HW214661   3.497   2.884   4.820
 4588SOL     OW14662   3.250   3.677   6.283
 4588SOL    HW114663   3.160   3.648   6.251
 4588SOL    HW214664   3.274   3.627   6.366
 4589SOL     OW14665   6.213   6.169   2.096
 4589SOL    HW114666   6.309   6.143   2.091
 4589SOL    HW214667   6.202   6.262   2.063
 4590SOL     OW14668   3.284   4.813   0.590
 4590SOL    HW114669   3.269   4.884   0.521
 4590SOL    HW214670   3.351   4.846   0.658
 4591SOL     OW14671   2.000   0.200   5.060
 4591SOL    HW114672   2.094   0.199   5.095
 4591SOL    HW214673   1.972   0.107   5.037
 4592SOL     OW14674   1.591   1.683   3.654
 4592SOL    HW114675   1.566   1.660   3.560
 4592SOL    HW214676   1.591   1.782   3.665
 4593SOL     OW14677   1.483   5.598   4.666
 4593SOL    HW114678   1.565   5.649   4.691
 4593SOL    HW214679   1.508   5.516   4.615
 4594SOL     OW14680   1.705   0.066   3.646
 4594SOL    HW114681   1.756   0.035   3.726
 4594SOL    HW214682   1.623   0.010   3.634
 4595SOL     OW14683   5.559   1.720   6.255
 4595SOL    HW114684   5.531   1.801   6.306
 4595SOL    HW214685   5.487   1.651   6.258
 4596SOL     OW14686   6.315   0.617   2.368
 4596SOL    HW114687   6.382   0.553   2.406
 4596SOL    HW214688   6.311   0.699   2.425
 4597SOL     OW14689   2.938   5.988   0.019
 4597SOL    HW114690   2.904   5.993   0.113
 4597SOL    HW214691   2.861   5.981   6.978
 4598SOL     OW14692   1.545   4.399   0.384
 4598SOL    HW114693   1.448   4.403   0.356
 4598SOL    HW214694   1.603   4.408   0.303
 4599SOL     OW14695   2.719   5.862   1.572
 4599SOL    HW114696   2.784   5.937   1.560
 4599SOL    HW214697   2.764   5.775   1.554
 4600SOL     OW14698   0.696   6.483   6.113
 4600SOL    HW114699   0.730   6.429   6.190
 4600SOL    HW214700   0.615   6.534   6.142
 4601SOL     OW14701   1.783   0.769   5.108
 4601SOL    HW114702   1.703   0.712   5.085
 4601SOL    HW214703   1.850   0.763   5.035
 4602SOL     OW14704   3.259   2.114   6.151
 4602SOL    HW114705   3.307   2.139   6.235
 4602SOL    HW214706   3.162   2.131   6.162
 4603SOL     OW14707   4.843   0.170   0.872
 4603SOL    HW114708   4.897   0.155   0.955
 4603SOL    HW214709   4.903   0.205   0.800
 4604SOL     OW14710   6.550   6.488   4.950
 4604SOL    HW114711   6.585   6.423   4.882
 4604SOL    HW214712   6.552   6.580   4.912
 4605SOL     OW14713   3.959   0.298   1.275
 4605SOL    HW114714   3.927   0.360   1.346
 4605SOL    HW214715   3.907   0.213   1.280
 4606SOL     OW14716   6.886   6.751   4.932
 4606SOL    HW114717   6.939   6.834   4.917
 4606SOL    HW214718   6.902   6.688   4.856
 4607SOL     OW14719   2.193   2.053   0.848
 4607SOL    HW114720   2.242   2.000   0.918
 4607SOL    HW214721   2.139   1.991   0.792
 4608SOL     OW14722   6.743   2.494   4.720
 4608SOL    HW114723   6.723   2.498   4.818
 4608SOL    HW214724   6.656   2.492   4.669
 4609SOL     OW14725   4.855   5.886   6.382
 4609SOL    HW114726   4.776   5.840   6.342
 4609SOL    HW214727   4.828   5.928   6.469
 4610SOL     OW14728   5.219   4.145   6.798
 4610SOL    HW114729   5.275   4.080   6.748
 4610SOL    HW214730   5.124   4.115   6.799
 4611SOL     OW14731   0.897   0.579   6.356
 4611SOL    HW114732   0.929   0.550   6.266
 4611SOL    HW214733   0.903   0.502   6.420
 4612SOL     OW14734   1.777   1.697   1.532
 4612SOL    HW114735   1.846   1.694   1.459
 4612SOL    HW214736   1.703   1.634   1.509
 4613SOL     OW14737   1.639   4.352   1.597
 4613SOL    HW114738   1.554   4.354   1.649
 4613SOL    HW214739   1.717   4.357   1.659
 4614SOL     OW14740   6.373   4.233   4.677
 4614SOL    HW114741   6.454   4.221   4.735
 4614SOL    HW214742   6.346   4.145   4.639
 4615SOL     OW14743   1.264   3.440   6.338
 4615SOL    HW114744   1.171   3.406   6.349
 4615SOL    HW214745   1.329   3.372   6.372
 4616SOL     OW14746   6.901   2.777   5.725
 4616SOL    HW114747   6.906   2.682   5.694
 4616SOL    HW214748   6.816   2.818   5.694
 4617SOL     OW14749   6.732   2.525   3.178
 4617SOL    HW114750   6.747   2.607   3.232
 4617SOL    HW214751   6.683   2.457   3.233
 4618SOL     OW14752   1.934   4.008   6.120
 4618SOL    HW114753   1.864   4.077   6.103
 4618SOL    HW214754   1.909   3.923   6.074
 4619SOL     OW14755   4.700   6.335   6.113
 4619SOL    HW114756   4.758   6.288   6.046
 4619SOL    HW214757   4.740   6.425   6.133
 4620SOL     OW14758   0.854   4.825   2.504
 4620SOL    HW114759   0.948   4.826   2.538
 4620SOL    HW214760   0.848   4.876   2.418
 4621SOL     OW14761   3.575   6.648   2.758
 4621SOL    HW114762   3.658   6.633   2.705
 4621SOL    HW214763   3.599   6.664   2.854
 4622SOL     OW14764   5.514   6.162   1.095
 4622SOL    HW114765   5.452   6.086   1.115
 4622SOL    HW214766   5.594   6.128   1.047
 4623SOL     OW14767   2.707   4.433   1.123
 4623SOL    HW114768   2.650   4.496   1.177
 4623SOL    HW214769   2.735   4.356   1.181
 4624SOL     OW14770   4.389   1.182   1.923
 4624SOL    HW114771   4.301   1.208   1.962
 4624SOL    HW214772   4.459   1.247   1.952
 4625SOL     OW14773   2.264   6.065   1.248
 4625SOL    HW114774   2.337   6.043   1.313
 4625SOL    HW214775   2.244   6.163   1.253
 4626SOL     OW14776   4.453   3.801   1.676
 4626SOL    HW114777   4.445   3.900   1.679
 4626SOL    HW214778   4.532   3.772   1.731
 4627SOL     OW14779   5.689   0.208   4.977
 4627SOL    HW114780   5.761   0.139   4.987
 4627SOL    HW214781   5.623   0.198   5.051
 4628SOL     OW14782   5.470   5.392   3.731
 4628SOL    HW114783   5.417   5.309   3.746
 4628SOL    HW214784   5.567   5.373   3.747
 4629SOL     OW14785   2.498   5.838   6.793
 4629SOL    HW114786   2.424   5.888   6.749
 4629SOL    HW214787   2.481   5.739   6.784
 4630SOL     OW14788   2.109   3.112   2.074
 4630SOL    HW114789   2.158   3.196   2.049
 4630SOL    HW214790   2.063   3.126   2.162
 4631SOL     OW14791   6.985   0.500   3.006
 4631SOL    HW114792   0.056   0.464   3.004
 4631SOL    HW214793   6.983   0.584   3.061
 4632SOL     OW14794   3.645   4.894   2.455
 4632SOL    HW114795   3.568   4.855   2.505
 4632SOL    HW214796   3.652   4.850   2.365
 4633SOL     OW14797   4.465   0.885   4.973
 4633SOL    HW114798   4.423   0.973   4.999
 4633SOL    HW214799   4.464   0.876   4.874
 4634SOL     OW14800   2.955   4.035   5.249
 4634SOL    HW114801   2.882   3.968   5.258
 4634SOL    HW214802   2.922   4.125   5.279
 4635SOL     OW14803   4.839   6.777   1.822
 4635SOL    HW114804   4.925   6.725   1.818
 4635SOL    HW214805   4.818   6.814   1.731
 4636SOL     OW14806   1.912   5.064   0.184
 4636SOL    HW114807   2.011   5.056   0.171
 4636SOL    HW214808   1.880   5.149   0.142
 4637SOL     OW14809   2.931   1.668   2.935
 4637SOL    HW114810   2.881   1.619   2.864
 4637SOL    HW214811   3.026   1.636   2.937
 4638SOL     OW14812   4.019   5.133   0.299
 4638SOL    HW114813   3.926   5.135   0.335
 4638SOL    HW214814   4.017   5.157   0.201
 4639SOL     OW14815   3.810   2.302   1.633
 4639SOL    HW114816   3.762   2.318   1.720
 4639SOL    HW214817   3.792   2.209   1.601
 4640SOL     OW14818   6.753   2.844   6.874
 4640SOL    HW114819   6.705   2.824   6.960
 4640SOL    HW214820   6.760   2.760   6.820
 4641SOL     OW14821   0.663   5.985   4.401
 4641SOL    HW114822   0.709   5.909   4.354
 4641SOL    HW214823   0.583   6.014   4.348
 4642SOL     OW14824   6.671   0.894   4.000
 4642SOL    HW114825   6.761   0.910   4.040
 4642SOL    HW214826   6.679   0.832   3.922
 4643SOL     OW14827   0.589   2.035   0.142
 4643SOL    HW114828   0.620   1.945   0.173
 4643SOL    HW214829   0.607   2.045   0.044
 4644SOL     OW14830   1.673   1.055   0.353
 4644SOL    HW114831   1.730   1.136   0.371
 4644SOL    HW214832   1.732   0.980   0.325
 4645SOL     OW14833   0.413   1.875   4.370
 4645SOL    HW114834   0.424   1.814   4.449
 4645SOL    HW214835   0.502   1.899   4.333
 4646SOL     OW14836   2.100   4.916   4.241
 4646SOL    HW114837   2.044   4.835   4.259
 4646SOL    HW214838   2.188   4.907   4.287
 4647SOL     OW14839   1.364   6.590   1.647
 4647SOL    HW114840   1.406   6.500   1.637
 4647SOL    HW214841   1.320   6.616   1.561
 4648SOL     OW14842   2.754   1.703   4.085
 4648SOL    HW114843   2.770   1.648   4.004
 4648SOL    HW214844   2.660   1.690   4.116
 4649SOL     OW14845   6.684   1.257   6.710
 4649SOL    HW114846   6.662   1.233   6.615
 4649SOL    HW214847   6.690   1.356   6.720
 4650SOL     OW14848   5.161   6.134   0.987
 4650SOL    HW114849   5.153   6.227   0.950
 4650SOL    HW214850   5.214   6.136   1.071
 4651SOL     OW14851   6.900   3.220   6.296
 4651SOL    HW114852   6.959   3.145   6.264
 4651SOL    HW214853   6.842   3.187   6.370
 4652SOL     OW14854   0.603   6.340   5.418
 4652SOL    HW114855   0.648   6.274   5.478
 4652SOL    HW214856   0.648   6.341   5.329
 4653SOL     OW14857   5.865   5.413   0.602
 4653SOL    HW114858   5.963   5.400   0.587
 4653SOL    HW214859   5.851   5.457   0.691
 4654SOL     OW14860   1.280   0.292   5.528
 4654SOL    HW114861   1.268   0.380   5.481
 4654SOL    HW214862   1.279   0.218   5.461
 4655SOL     OW14863   4.806   3.030   1.111
 4655SOL    HW114864   4.859   3.031   1.195
 4655SOL    HW214865   4.806   3.121   1.070
 4656SOL     OW14866   0.267   1.653   1.381
 4656SOL    HW114867   0.296   1.574   1.435
 4656SOL    HW214868   0.348   1.705   1.352
 4657SOL     OW14869   4.242   0.791   2.439
 4657SOL    HW114870   4.312   0.851   2.400
 4657SOL    HW214871   4.197   0.838   2.516
 4658SOL     OW14872   1.369   2.803   5.765
 4658SOL    HW114873   1.417   2.886   5.737
 4658SOL    HW214874   1.271   2.812   5.744
 4659SOL     OW14875   1.702   4.388   0.172
 4659SOL    HW114876   1.782   4.329   0.180
 4659SOL    HW214877   1.731   4.481   0.149
 4660SOL     OW14878   1.075   6.359   3.511
 4660SOL    HW114879   1.063   6.397   3.419
 4660SOL    HW214880   1.153   6.402   3.555
 4661SOL     OW14881   1.083   1.836   5.061
 4661SOL    HW114882   1.178   1.840   5.093
 4661SOL    HW214883   1.022   1.828   5.139
 4662SOL     OW14884   2.367   0.040   5.642
 4662SOL    HW114885   2.295   0.070   5.579
 4662SOL    HW214886   2.453   0.033   5.592
 4663SOL     OW14887   1.890   7.021   0.224
 4663SOL    HW114888   1.963   6.958   0.197
 4663SOL    HW214889   1.889   0.009   0.324
 4664SOL     OW14890   6.525   0.092   0.241
 4664SOL    HW114891   6.528   0.095   0.141
 4664SOL    HW214892   6.487   0.178   0.275
 4665SOL     OW14893   1.732   0.687   3.965
 4665SOL    HW114894   1.682   0.764   4.005
 4665SOL    HW214895   1.688   0.602   3.993
 4666SOL     OW14896   2.292   1.927   5.134
 4666SOL    HW114897   2.207   1.977   5.151
 4666SOL    HW214898   2.347   1.926   5.217
 4667SOL     OW14899   6.932   3.420   1.284
 4667SOL    HW114900   6.982   3.505   1.299
 4667SOL    HW214901   6.951   3.356   1.359
 4668SOL     OW14902   4.607   1.768   3.999
 4668SOL    HW114903   4.555   1.803   4.076
 4668SOL    HW214904   4.610   1.668   4.004
 4669SOL     OW14905   5.860   0.362   6.350
 4669SOL    HW114906   5.783   0.314   6.393
 4669SOL    HW214907   5.857   0.348   6.251
 4670SOL     OW14908   0.550   2.718   0.675
 4670SOL    HW114909   0.633   2.720   0.620
 4670SOL    HW214910   0.470   2.711   0.614
 4671SOL     OW14911   0.357   3.514   0.755
 4671SOL    HW114912   0.334   3.611   0.763
 4671SOL    HW214913   0.393   3.481   0.842
 4672SOL     OW14914   2.421   4.065   6.575
 4672SOL    HW114915   2.452   4.053   6.669
 4672SOL    HW214916   2.330   4.023   6.565
 4673SOL     OW14917   5.891   0.989   0.380
 4673SOL    HW114918   5.921   1.084   0.366
 4673SOL    HW214919   5.915   0.935   0.300
 4674SOL     OW14920   1.084   2.494   1.543
 4674SOL    HW114921   1.033   2.567   1.498
 4674SOL    HW214922   1.035   2.407   1.534
 4675SOL     OW14923   2.266   6.060   6.718
 4675SOL    HW114924   2.191   6.121   6.694
 4675SOL    HW214925   2.351   6.095   6.679
 4676SOL     OW14926   0.488   6.178   4.243
 4676SOL    HW114927   0.427   6.256   4.226
 4676SOL    HW214928   0.582   6.205   4.224
 4677SOL     OW14929   4.352   6.594   6.843
 4677SOL    HW114930   4.351   6.494   6.840
 4677SOL    HW214931   4.273   6.629   6.793
 4678SOL     OW14932   1.875   4.564   6.313
 4678SOL    HW114933   1.834   4.619   6.386
 4678SOL    HW214934   1.806   4.500   6.277
 4679SOL     OW14935   2.992   6.943   5.535
 4679SOL    HW114936   3.072   6.917   5.588
 4679SOL    HW214937   2.910   6.903   5.577
 4680SOL     OW14938   2.137   4.480   0.725
 4680SOL    HW114939   2.172   4.548   0.790
 4680SOL    HW214940   2.106   4.399   0.774
 4681SOL     OW14941   0.158   5.705   4.944
 4681SOL    HW114942   0.061   5.681   4.952
 4681SOL    HW214943   0.168   5.804   4.947
 4682SOL     OW14944   4.412   6.434   0.552
 4682SOL    HW114945   4.314   6.416   0.557
 4682SOL    HW214946   4.443   6.425   0.457
 4683SOL     OW14947   0.087   4.161   3.467
 4683SOL    HW114948   0.009   4.139   3.527
 4683SOL    HW214949   0.053   4.199   3.381
 4684SOL     OW14950   1.629   0.932   4.873
 4684SOL    HW114951   1.634   0.858   4.806
 4684SOL    HW214952   1.553   0.992   4.849
 4685SOL     OW14953   4.755   4.629   5.273
 4685SOL    HW114954   4.688   4.674   5.214
 4685SOL    HW214955   4.800   4.556   5.222
 4686SOL     OW14956   4.293   5.723   6.965
 4686SOL    HW114957   4.300   5.767   6.875
 4686SOL    HW214958   4.373   5.747   7.020
 4687SOL     OW14959   5.356   6.331   4.661
 4687SOL    HW114960   5.294   6.273   4.608
 4687SOL    HW214961   5.322   6.425   4.661
 4688SOL     OW14962   0.659   2.111   6.911
 4688SOL    HW114963   0.724   2.173   6.953
 4688SOL    HW214964   0.708   2.039   6.861
 4689SOL     OW14965   1.516   5.268   5.482
 4689SOL    HW114966   1.585   5.199   5.462
 4689SOL    HW214967   1.467   5.242   5.566
 4690SOL     OW14968   1.631   2.933   0.736
 4690SOL    HW114969   1.705   2.989   0.698
 4690SOL    HW214970   1.656   2.903   0.828
 4691SOL     OW14971   4.000   4.410   0.590
 4691SOL    HW114972   3.910   4.377   0.561
 4691SOL    HW214973   4.019   4.378   0.683
 4692SOL     OW14974   0.286   5.619   3.097
 4692SOL    HW114975   0.298   5.534   3.149
 4692SOL    HW214976   0.207   5.669   3.133
 4693SOL     OW14977   0.232   0.962   3.684
 4693SOL    HW114978   0.316   0.940   3.634
 4693SOL    HW214979   0.221   0.898   3.760
 4694SOL     OW14980   2.086   1.395   6.503
 4694SOL    HW114981   2.093   1.348   6.415
 4694SOL    HW214982   1.990   1.420   6.519
 4695SOL     OW14983   3.424   2.883   1.584
 4695SOL    HW114984   3.375   2.802   1.551
 4695SOL    HW214985   3.522   2.864   1.587
 4696SOL     OW14986   6.181   3.029   0.545
 4696SOL    HW114987   6.268   2.996   0.510
 4696SOL    HW214988   6.106   2.984   0.496
 4697SOL     OW14989   0.574   5.005   0.180
 4697SOL    HW114990   0.625   4.921   0.195
 4697SOL    HW214991   0.635   5.077   0.147
 4698SOL     OW14992   5.941   3.028   1.138
 4698SOL    HW114993   5.996   3.111   1.137
 4698SOL    HW214994   5.901   3.015   1.229
 4699SOL     OW14995   6.352   0.498   3.588
 4699SOL    HW114996   6.387   0.405   3.594
 4699SOL    HW214997   6.300   0.520   3.671
 4700SOL     OW14998   5.654   0.370   1.173
 4700SOL    HW114999   5.721   0.443   1.188
 4700SOL    HW215000   5.690   0.306   1.105
 4701SOL     OW15001   1.170   1.233   0.659
 4701SOL    HW115002   1.088   1.251   0.713
 4701SOL    HW215003   1.249   1.225   0.719
 4702SOL     OW15004   3.354   3.861   0.002
 4702SOL    HW115005   3.312   3.820   6.943
 4702SOL    HW215006   3.326   3.957   0.009
 4703SOL     OW15007   1.912   1.072   2.009
 4703SOL    HW115008   1.884   1.167   2.020
 4703SOL    HW215009   2.005   1.069   1.972
 4704SOL     OW15010   4.860   6.803   0.309
 4704SOL    HW115011   4.844   6.829   0.404
 4704SOL    HW215012   4.957   6.809   0.288
 4705SOL     OW15013   3.487   3.747   4.098
 4705SOL    HW115014   3.390   3.760   4.120
 4705SOL    HW215015   3.497   3.667   4.039
 4706SOL     OW15016   4.244   5.447   1.439
 4706SOL    HW115017   4.210   5.500   1.362
 4706SOL    HW215018   4.252   5.351   1.412
 4707SOL     OW15019   3.473   6.094   0.767
 4707SOL    HW115020   3.390   6.148   0.751
 4707SOL    HW215021   3.482   6.025   0.695
 4708SOL     OW15022   2.238   2.347   2.279
 4708SOL    HW115023   2.204   2.436   2.307
 4708SOL    HW215024   2.238   2.341   2.179
 4709SOL     OW15025   4.143   4.053   6.362
 4709SOL    HW115026   4.054   4.090   6.337
 4709SOL    HW215027   4.131   3.964   6.407
 4710SOL     OW15028   5.144   1.855   0.930
 4710SOL    HW115029   5.060   1.803   0.911
 4710SOL    HW215030   5.145   1.881   1.026
 4711SOL     OW15031   2.902   0.181   2.923
 4711SOL    HW115032   2.870   0.086   2.925
 4711SOL    HW215033   2.837   0.239   2.972
 4712SOL     OW15034   1.361   4.612   0.057
 4712SOL    HW115035   1.306   4.672   0.116
 4712SOL    HW215036   1.369   4.522   0.100
 4713SOL     OW15037   2.532   5.352   0.540
 4713SOL    HW115038   2.610   5.338   0.601
 4713SOL    HW215039   2.457   5.291   0.567
 4714SOL     OW15040   3.775   2.313   0.794
 4714SOL    HW115041   3.868   2.296   0.825
 4714SOL    HW215042   3.769   2.407   0.759
 4715SOL     OW15043   5.974   3.993   4.184
 4715SOL    HW115044   5.933   3.904   4.204
 4715SOL    HW215045   6.074   3.986   4.190
 4716SOL     OW15046   3.405   5.700   7.014
 4716SOL    HW115047   3.392   5.681   0.090
 4716SOL    HW215048   3.321   5.678   6.965
 4717SOL     OW15049   0.987   5.985   3.800
 4717SOL    HW115050   0.890   5.962   3.793
 4717SOL    HW215051   1.025   6.001   3.709
 4718SOL     OW15052   6.214   1.066   6.413
 4718SOL    HW115053   6.170   1.010   6.483
 4718SOL    HW215054   6.180   1.038   6.323
 4719SOL     OW15055   4.504   3.226   0.817
 4719SOL    HW115056   4.557   3.226   0.902
 4719SOL    HW215057   4.414   3.185   0.834
 4720SOL     OW15058   2.913   1.138   3.944
 4720SOL    HW115059   2.832   1.153   4.001
 4720SOL    HW215060   2.995   1.156   3.997
 4721SOL     OW15061   1.720   2.251   1.505
 4721SOL    HW115062   1.792   2.304   1.461
 4721SOL    HW215063   1.757   2.164   1.538
 4722SOL     OW15064   2.486   0.023   0.979
 4722SOL    HW115065   2.578   0.016   1.017
 4722SOL    HW215066   2.478   6.984   0.900
 4723SOL     OW15067   3.092   0.145   6.746
 4723SOL    HW115068   3.115   0.095   6.662
 4723SOL    HW215069   3.127   0.238   6.739
 4724SOL     OW15070   4.201   5.179   1.629
 4724SOL    HW115071   4.206   5.169   1.530
 4724SOL    HW215072   4.199   5.089   1.671
 4725SOL     OW15073   6.031   5.897   3.877
 4725SOL    HW115074   6.118   5.849   3.867
 4725SOL    HW215075   6.029   5.977   3.817
 4726SOL     OW15076   0.262   5.927   6.561
 4726SOL    HW115077   0.258   6.012   6.613
 4726SOL    HW215078   0.234   5.943   6.467
 4727SOL     OW15079   0.330   6.352   0.087
 4727SOL    HW115080   0.234   6.354   0.113
 4727SOL    HW215081   0.347   6.273   0.027
 4728SOL     OW15082   0.208   1.316   7.001
 4728SOL    HW115083   0.226   1.397   0.036
 4728SOL    HW215084   0.286   1.255   7.004
 4729SOL     OW15085   3.891   0.378   1.007
 4729SOL    HW115086   3.931   0.356   1.095
 4729SOL    HW215087   3.814   0.316   0.988
 4730SOL     OW15088   1.496   7.004   5.538
 4730SOL    HW115089   1.556   0.010   5.463
 4730SOL    HW215090   1.525   0.028   5.622
 4731SOL     OW15091   5.520   1.585   5.629
 4731SOL    HW115092   5.614   1.582   5.664
 4731SOL    HW215093   5.485   1.678   5.636
 4732SOL     OW15094   0.448   2.081   0.387
 4732SOL    HW115095   0.415   1.990   0.412
 4732SOL    HW215096   0.491   2.077   0.297
 4733SOL     OW15097   6.708   3.161   4.085
 4733SOL    HW115098   6.623   3.192   4.128
 4733SOL    HW215099   6.721   3.210   3.999
 4734SOL     OW15100   3.891   4.439   6.270
 4734SOL    HW115101   3.970   4.471   6.323
 4734SOL    HW215102   3.865   4.510   6.205
 4735SOL     OW15103   0.727   5.126   3.460
 4735SOL    HW115104   0.701   5.032   3.482
 4735SOL    HW215105   0.748   5.133   3.362
 4736SOL     OW15106   1.640   1.271   1.062
 4736SOL    HW115107   1.661   1.368   1.050
 4736SOL    HW215108   1.723   1.222   1.090
 4737SOL     OW15109   2.871   5.604   1.570
 4737SOL    HW115110   2.890   5.597   1.667
 4737SOL    HW215111   2.781   5.565   1.550
 4738SOL     OW15112   6.950   6.392   2.808
 4738SOL    HW115113   6.877   6.459   2.795
 4738SOL    HW215114   6.910   6.302   2.824
 4739SOL     OW15115   4.746   0.530   1.374
 4739SOL    HW115116   4.816   0.458   1.377
 4739SOL    HW215117   4.729   0.564   1.467
 4740SOL     OW15118   0.464   2.643   3.838
 4740SOL    HW115119   0.513   2.578   3.780
 4740SOL    HW215120   0.514   2.729   3.841
 4741SOL     OW15121   3.589   4.105   1.159
 4741SOL    HW115122   3.671   4.052   1.182
 4741SOL    HW215123   3.615   4.185   1.104
 4742SOL     OW15124   3.355   0.279   0.515
 4742SOL    HW115125   3.374   0.185   0.489
 4742SOL    HW215126   3.414   0.341   0.463
 4743SOL     OW15127   1.701   4.670   1.107
 4743SOL    HW115128   1.793   4.684   1.142
 4743SOL    HW215129   1.654   4.758   1.100
 4744SOL     OW15130   2.517   5.292   0.899
 4744SOL    HW115131   2.605   5.245   0.904
 4744SOL    HW215132   2.443   5.226   0.888
 4745SOL     OW15133   0.923   4.161   6.795
 4745SOL    HW115134   0.917   4.103   6.876
 4745SOL    HW215135   0.944   4.104   6.715
 4746SOL     OW15136   4.371   5.721   4.136
 4746SOL    HW115137   4.403   5.770   4.055
 4746SOL    HW215138   4.308   5.649   4.109
 4747SOL     OW15139   1.548   2.131   0.355
 4747SOL    HW115140   1.625   2.139   0.418
 4747SOL    HW215141   1.578   2.155   0.263
 4748SOL     OW15142   1.920   6.621   2.164
 4748SOL    HW115143   1.844   6.653   2.221
 4748SOL    HW215144   1.953   6.696   2.107
 4749SOL     OW15145   2.988   1.690   6.625
 4749SOL    HW115146   3.021   1.612   6.679
 4749SOL    HW215147   3.004   1.775   6.675
 4750SOL     OW15148   4.881   2.598   5.664
 4750SOL    HW115149   4.966   2.552   5.639
 4750SOL    HW215150   4.883   2.693   5.632
 4751SOL     OW15151   4.336   0.868   3.165
 4751SOL    HW115152   4.368   0.944   3.108
 4751SOL    HW215153   4.292   0.800   3.107
 4752SOL     OW15154   4.641   2.166   6.301
 4752SOL    HW115155   4.549   2.192   6.270
 4752SOL    HW215156   4.709   2.193   6.233
 4753SOL     OW15157   3.487   6.117   5.704
 4753SOL    HW115158   3.547   6.038   5.718
 4753SOL    HW215159   3.541   6.195   5.674
 4754SOL     OW15160   4.590   4.768   6.643
 4754SOL    HW115161   4.632   4.780   6.553
 4754SOL    HW215162   4.660   4.776   6.714
 4755SOL     OW15163   0.811   0.748   1.884
 4755SOL    HW115164   0.887   0.743   1.820
 4755SOL    HW215165   0.727   0.771   1.835
 4756SOL     OW15166   6.382   4.187   5.682
 4756SOL    HW115167   6.431   4.265   5.643
 4756SOL    HW215168   6.439   4.105   5.674
 4757SOL     OW15169   1.808   3.682   0.936
 4757SOL    HW115170   1.769   3.611   0.877
 4757SOL    HW215171   1.905   3.693   0.915
 4758SOL     OW15172   2.455   6.319   3.049
 4758SOL    HW115173   2.417   6.235   3.011
 4758SOL    HW215174   2.520   6.359   2.985
 4759SOL     OW15175   0.642   6.236   1.453
 4759SOL    HW115176   0.583   6.282   1.386
 4759SOL    HW215177   0.707   6.303   1.491
 4760SOL     OW15178   1.586   6.057   0.948
 4760SOL    HW115179   1.542   5.980   0.994
 4760SOL    HW215180   1.537   6.141   0.972
 4761SOL     OW15181   6.235   6.171   1.680
 4761SOL    HW115182   6.322   6.140   1.643
 4761SOL    HW215183   6.185   6.094   1.720
 4762SOL     OW15184   1.304   0.662   2.765
 4762SOL    HW115185   1.277   0.676   2.670
 4762SOL    HW215186   1.373   0.590   2.770
 4763SOL     OW15187   5.448   4.922   1.941
 4763SOL    HW115188   5.386   4.987   1.984
 4763SOL    HW215189   5.420   4.829   1.964
 4764SOL     OW15190   5.006   2.825   0.711
 4764SOL    HW115191   4.926   2.768   0.731
 4764SOL    HW215192   4.987   2.920   0.737
 4765SOL     OW15193   3.761   1.669   5.123
 4765SOL    HW115194   3.676   1.721   5.116
 4765SOL    HW215195   3.745   1.574   5.099
 4766SOL     OW15196   0.647   0.076   4.171
 4766SOL    HW115197   0.683   0.087   4.078
 4766SOL    HW215198   0.548   0.084   4.169
 4767SOL     OW15199   2.262   4.211   3.618
 4767SOL    HW115200   2.199   4.134   3.607
 4767SOL    HW215201   2.351   4.188   3.578
 4768SOL     OW15202   4.779   2.759   6.551
 4768SOL    HW115203   4.783   2.662   6.525
 4768SOL    HW215204   4.711   2.805   6.495
 4769SOL     OW15205   2.580   3.767   0.570
 4769SOL    HW115206   2.531   3.794   0.488
 4769SOL    HW215207   2.595   3.668   0.570
 4770SOL     OW15208   0.805   1.206   4.640
 4770SOL    HW115209   0.873   1.254   4.584
 4770SOL    HW215210   0.748   1.149   4.581
 4771SOL     OW15211   1.345   6.957   4.791
 4771SOL    HW115212   1.428   6.983   4.742
 4771SOL    HW215213   1.349   6.859   4.813
 4772SOL     OW15214   3.113   5.220   2.255
 4772SOL    HW115215   3.168   5.277   2.316
 4772SOL    HW215216   3.165   5.200   2.172
 4773SOL     OW15217   2.188   5.244   4.629
 4773SOL    HW115218   2.188   5.343   4.620
 4773SOL    HW215219   2.146   5.218   4.716
 4774SOL     OW15220   1.378   4.333   0.154
 4774SOL    HW115221   1.284   4.301   0.161
 4774SOL    HW215222   1.440   4.254   0.150
 4775SOL     OW15223   6.322   6.505   5.732
 4775SOL    HW115224   6.302   6.603   5.736
 4775SOL    HW215225   6.342   6.478   5.637
 4776SOL     OW15226   0.211   1.414   6.070
 4776SOL    HW115227   0.158   1.458   6.142
 4776SOL    HW215228   0.185   1.453   5.982
 4777SOL     OW15229   1.418   0.297   2.732
 4777SOL    HW115230   1.394   0.247   2.816
 4777SOL    HW215231   1.335   0.335   2.692
 4778SOL     OW15232   2.198   1.245   0.140
 4778SOL    HW115233   2.166   1.338   0.119
 4778SOL    HW215234   2.159   1.181   0.074
 4779SOL     OW15235   5.478   0.422   4.829
 4779SOL    HW115236   5.467   0.497   4.893
 4779SOL    HW215237   5.534   0.350   4.872
 4780SOL     OW15238   5.112   2.416   5.260
 4780SOL    HW115239   5.120   2.477   5.181
 4780SOL    HW215240   5.016   2.399   5.280
 4781SOL     OW15241   2.290   5.774   1.775
 4781SOL    HW115242   2.374   5.722   1.759
 4781SOL    HW215243   2.225   5.718   1.827
 4782SOL     OW15244   6.383   6.828   4.281
 4782SOL    HW115245   6.448   6.771   4.231
 4782SOL    HW215246   6.366   6.911   4.229
 4783SOL     OW15247   6.852   3.360   6.043
 4783SOL    HW115248   6.817   3.326   6.131
 4783SOL    HW215249   6.918   3.295   6.006
 4784SOL     OW15250   5.408   3.348   6.568
 4784SOL    HW115251   5.478   3.335   6.498
 4784SOL    HW215252   5.326   3.387   6.527
 4785SOL     OW15253   0.035   6.648   4.154
 4785SOL    HW115254   0.029   6.665   4.252
 4785SOL    HW215255   0.130   6.626   4.129
 4786SOL     OW15256   0.646   6.052   0.067
 4786SOL    HW115257   0.645   5.960   0.027
 4786SOL    HW215258   0.618   6.118   7.019
 4787SOL     OW15259   3.658   1.620   3.757
 4787SOL    HW115260   3.660   1.705   3.704
 4787SOL    HW215261   3.641   1.643   3.853
 4788SOL     OW15262   6.476   5.812   0.194
 4788SOL    HW115263   6.377   5.806   0.187
 4788SOL    HW215264   6.502   5.878   0.264
 4789SOL     OW15265   5.655   1.083   2.782
 4789SOL    HW115266   5.728   1.148   2.766
 4789SOL    HW215267   5.583   1.126   2.837
 4790SOL     OW15268   6.900   1.781   4.683
 4790SOL    HW115269   6.848   1.710   4.635
 4790SOL    HW215270   6.851   1.807   4.766
 4791SOL     OW15271   0.353   0.423   0.556
 4791SOL    HW115272   0.393   0.503   0.603
 4791SOL    HW215273   0.255   0.437   0.545
 4792SOL     OW15274   2.134   3.217   2.987
 4792SOL    HW115275   2.119   3.252   2.894
 4792SOL    HW215276   2.051   3.230   3.041
 4793SOL     OW15277   1.144   3.267   5.438
 4793SOL    HW115278   1.215   3.332   5.464
 4793SOL    HW215279   1.158   3.239   5.343
 4794SOL     OW15280   4.506   1.889   4.435
 4794SOL    HW115281   4.603   1.864   4.434
 4794SOL    HW215282   4.463   1.852   4.517
 4795SOL     OW15283   0.202   1.075   6.760
 4795SOL    HW115284   0.105   1.081   6.781
 4795SOL    HW215285   0.254   1.129   6.826
 4796SOL     OW15286   4.348   1.429   5.623
 4796SOL    HW115287   4.384   1.422   5.716
 4796SOL    HW215288   4.383   1.512   5.580
 4797SOL     OW15289   1.681   5.076   5.397
 4797SOL    HW115290   1.728   5.060   5.310
 4797SOL    HW215291   1.627   4.996   5.422
 4798SOL     OW15292   4.045   5.301   0.073
 4798SOL    HW115293   4.026   5.353   0.156
 4798SOL    HW215294   4.143   5.306   0.053
 4799SOL     OW15295   4.539   2.663   6.861
 4799SOL    HW115296   4.550   2.728   6.786
 4799SOL    HW215297   4.511   2.712   6.943
 4800SOL     OW15298   0.386   3.826   0.251
 4800SOL    HW115299   0.426   3.742   0.215
 4800SOL    HW215300   0.350   3.810   0.343
 4801SOL     OW15301   5.292   2.542   1.946
 4801SOL    HW115302   5.272   2.472   2.015
 4801SOL    HW215303   5.386   2.531   1.914
 4802SOL     OW15304   6.541   0.280   4.233
 4802SOL    HW115305   6.525   0.291   4.331
 4802SOL    HW215306   6.495   0.354   4.183
 4803SOL     OW15307   5.222   3.774   5.918
 4803SOL    HW115308   5.123   3.782   5.930
 4803SOL    HW215309   5.267   3.790   6.005
 4804SOL     OW15310   4.631   1.887   0.478
 4804SOL    HW115311   4.645   1.842   0.390
 4804SOL    HW215312   4.720   1.906   0.521
 4805SOL     OW15313   6.472   1.612   6.910
 4805SOL    HW115314   6.518   1.562   6.837
 4805SOL    HW215315   6.534   1.682   6.947
 4806SOL     OW15316   0.785   0.990   3.651
 4806SOL    HW115317   0.860   1.025   3.707
 4806SOL    HW215318   0.715   0.950   3.711
 4807SOL     OW15319   0.306   4.090   5.306
 4807SOL    HW115320   0.342   4.181   5.285
 4807SOL    HW215321   0.237   4.065   5.239
 4808SOL     OW15322   3.855   6.237   1.820
 4808SOL    HW115323   3.918   6.203   1.890
 4808SOL    HW215324   3.771   6.182   1.822
 4809SOL     OW15325   3.159   3.709   1.263
 4809SOL    HW115326   3.234   3.707   1.198
 4809SOL    HW215327   3.150   3.619   1.307
 4810SOL     OW15328   0.712   4.840   4.208
 4810SOL    HW115329   0.762   4.910   4.260
 4810SOL    HW215330   0.776   4.769   4.179
 4811SOL     OW15331   2.920   3.566   4.228
 4811SOL    HW115332   2.941   3.584   4.325
 4811SOL    HW215333   2.954   3.642   4.173
 4812SOL     OW15334   0.985   0.408   2.855
 4812SOL    HW115335   1.057   0.465   2.896
 4812SOL    HW215336   0.975   0.431   2.759
 4813SOL     OW15337   6.911   1.845   5.492
 4813SOL    HW115338   6.844   1.785   5.536
 4813SOL    HW215339   6.879   1.869   5.400
 4814SOL     OW15340   6.384   3.851   1.487
 4814SOL    HW115341   6.443   3.770   1.483
 4814SOL    HW215342   6.331   3.856   1.402
 4815SOL     OW15343   5.346   4.304   1.667
 4815SOL    HW115344   5.351   4.293   1.568
 4815SOL    HW215345   5.426   4.355   1.699
 4816SOL     OW15346   2.853   1.333   2.652
 4816SOL    HW115347   2.861   1.251   2.708
 4816SOL    HW215348   2.859   1.309   2.556
 4817SOL     OW15349   4.484   1.979   0.709
 4817SOL    HW115350   4.567   1.974   0.652
 4817SOL    HW215351   4.404   1.970   0.651
 4818SOL     OW15352   4.171   0.422   5.107
 4818SOL    HW115353   4.109   0.460   5.038
 4818SOL    HW215354   4.265   0.447   5.084
 4819SOL     OW15355   3.621   0.364   0.728
 4819SOL    HW115356   3.523   0.385   0.719
 4819SOL    HW215357   3.636   0.314   0.814
 4820SOL     OW15358   5.922   3.863   1.929
 4820SOL    HW115359   5.827   3.881   1.901
 4820SOL    HW215360   5.951   3.933   1.995
 4821SOL     OW15361   0.102   5.298   1.591
 4821SOL    HW115362   0.094   5.335   1.498
 4821SOL    HW215363   0.151   5.211   1.587
 4822SOL     OW15364   1.071   4.063   2.290
 4822SOL    HW115365   1.068   3.994   2.362
 4822SOL    HW215366   1.081   4.018   2.202
 4823SOL     OW15367   1.785   1.153   4.113
 4823SOL    HW115368   1.823   1.192   4.030
 4823SOL    HW215369   1.721   1.218   4.155
 4824SOL     OW15370   5.421   2.819   1.701
 4824SOL    HW115371   5.351   2.747   1.704
 4824SOL    HW215372   5.390   2.897   1.756
 4825SOL     OW15373   0.587   2.950   3.317
 4825SOL    HW115374   0.615   3.044   3.337
 4825SOL    HW215375   0.657   2.887   3.350
 4826SOL     OW15376   6.724   6.214   6.909
 4826SOL    HW115377   6.771   6.198   6.822
 4826SOL    HW215378   6.791   6.234   6.980
 4827SOL     OW15379   5.632   0.844   1.093
 4827SOL    HW115380   5.578   0.928   1.085
 4827SOL    HW215381   5.613   0.784   1.015
 4828SOL     OW15382   4.700   3.745   6.542
 4828SOL    HW115383   4.769   3.681   6.575
 4828SOL    HW215384   4.654   3.707   6.462
 4829SOL     OW15385   3.495   0.154   5.269
 4829SOL    HW115386   3.439   0.224   5.314
 4829SOL    HW215387   3.559   0.199   5.206
 4830SOL     OW15388   3.915   6.797   5.197
 4830SOL    HW115389   3.864   6.785   5.111
 4830SOL    HW215390   3.986   6.866   5.183
 4831SOL     OW15391   6.538   3.970   5.606
 4831SOL    HW115392   6.633   3.963   5.635
 4831SOL    HW215393   6.500   3.879   5.592
 4832SOL     OW15394   2.195   2.573   6.370
 4832SOL    HW115395   2.155   2.484   6.350
 4832SOL    HW215396   2.127   2.630   6.417
 4833SOL     OW15397   4.822   1.664   2.904
 4833SOL    HW115398   4.881   1.729   2.951
 4833SOL    HW215399   4.801   1.588   2.965
 4834SOL     OW15400   5.734   0.567   2.924
 4834SOL    HW115401   5.727   0.666   2.912
 4834SOL    HW215402   5.698   0.541   3.014
 4835SOL     OW15403   2.329   0.815   5.799
 4835SOL    HW115404   2.409   0.778   5.752
 4835SOL    HW215405   2.275   0.740   5.837
 4836SOL     OW15406   5.771   2.714   2.540
 4836SOL    HW115407   5.791   2.725   2.637
 4836SOL    HW215408   5.691   2.767   2.516
 4837SOL     OW15409   0.964   4.122   0.634
 4837SOL    HW115410   0.904   4.123   0.554
 4837SOL    HW215411   1.055   4.091   0.607
 4838SOL     OW15412   2.667   5.805   2.738
 4838SOL    HW115413   2.759   5.770   2.751
 4838SOL    HW215414   2.601   5.742   2.778
 4839SOL     OW15415   0.502   6.782   6.465
 4839SOL    HW115416   0.465   6.871   6.489
 4839SOL    HW215417   0.475   6.714   6.533
 4840SOL     OW15418   6.708   6.533   6.553
 4840SOL    HW115419   6.744   6.624   6.572
 4840SOL    HW215420   6.723   6.511   6.456
 4841SOL     OW15421   2.213   6.038   2.611
 4841SOL    HW115422   2.218   5.964   2.543
 4841SOL    HW215423   2.137   6.098   2.588
 4842SOL     OW15424   3.246   6.544   1.273
 4842SOL    HW115425   3.331   6.496   1.295
 4842SOL    HW215426   3.267   6.635   1.237
 4843SOL     OW15427   0.253   3.125   0.094
 4843SOL    HW115428   0.221   3.054   0.031
 4843SOL    HW215429   0.214   3.109   0.184
 4844SOL     OW15430   6.888   1.954   5.825
 4844SOL    HW115431   6.883   2.027   5.756
 4844SOL    HW215432   6.966   1.971   5.885
 4845SOL     OW15433   5.638   5.808   3.598
 4845SOL    HW115434   5.586   5.845   3.675
 4845SOL    HW215435   5.581   5.812   3.515
 4846SOL     OW15436   1.073   4.808   0.541
 4846SOL    HW115437   1.079   4.906   0.560
 4846SOL    HW215438   1.145   4.782   0.477
 4847SOL     OW15439   4.585   2.281   4.653
 4847SOL    HW115440   4.552   2.369   4.621
 4847SOL    HW215441   4.519   2.243   4.718
 4848SOL     OW15442   3.069   2.136   2.225
 4848SOL    HW115443   3.000   2.073   2.261
 4848SOL    HW215444   3.026   2.203   2.166
 4849SOL     OW15445   1.081   6.338   0.012
 4849SOL    HW115446   1.017   6.356   0.087
 4849SOL    HW215447   1.083   6.417   6.973
 4850SOL     OW15448   4.071   0.387   2.375
 4850SOL    HW115449   3.999   0.367   2.310
 4850SOL    HW215450   4.074   0.486   2.392
 4851SOL     OW15451   5.146   0.192   4.925
 4851SOL    HW115452   5.090   0.118   4.965
 4851SOL    HW215453   5.185   0.247   4.999
 4852SOL     OW15454   1.815   2.014   1.603
 4852SOL    HW115455   1.894   1.985   1.549
 4852SOL    HW215456   1.749   1.939   1.608
 4853SOL     OW15457   2.969   1.209   1.917
 4853SOL    HW115458   2.944   1.248   1.828
 4853SOL    HW215459   2.940   1.271   1.990
 4854SOL     OW15460   4.794   6.868   0.596
 4854SOL    HW115461   4.733   6.945   0.614
 4854SOL    HW215462   4.740   6.784   0.589
 4855SOL     OW15463   0.390   2.504   2.728
 4855SOL    HW115464   0.359   2.464   2.814
 4855SOL    HW215465   0.360   2.599   2.722
 4856SOL     OW15466   2.381   4.388   3.882
 4856SOL    HW115467   2.289   4.427   3.883
 4856SOL    HW215468   2.443   4.447   3.832
 4857SOL     OW15469   0.337   2.241   5.771
 4857SOL    HW115470   0.333   2.287   5.682
 4857SOL    HW215471   0.297   2.149   5.762
 4858SOL     OW15472   1.021   1.089   3.797
 4858SOL    HW115473   1.109   1.059   3.835
 4858SOL    HW215474   1.032   1.178   3.754
 4859SOL     OW15475   2.695   5.334   5.096
 4859SOL    HW115476   2.742   5.257   5.139
 4859SOL    HW215477   2.758   5.383   5.036
 4860SOL     OW15478   4.452   4.624   0.973
 4860SOL    HW115479   4.492   4.571   0.899
 4860SOL    HW215480   4.398   4.699   0.935
 4861SOL     OW15481   4.791   3.694   5.780
 4861SOL    HW115482   4.866   3.713   5.843
 4861SOL    HW215483   4.778   3.595   5.773
 4862SOL     OW15484   1.686   6.453   2.004
 4862SOL    HW115485   1.636   6.503   1.934
 4862SOL    HW215486   1.706   6.360   1.971
 4863SOL     OW15487   5.963   4.390   6.230
 4863SOL    HW115488   5.886   4.447   6.201
 4863SOL    HW215489   6.046   4.447   6.232
 4864SOL     OW15490   2.897   1.302   3.719
 4864SOL    HW115491   2.959   1.269   3.648
 4864SOL    HW215492   2.899   1.239   3.797
 4865SOL     OW15493   2.119   6.645   4.714
 4865SOL    HW115494   2.208   6.688   4.727
 4865SOL    HW215495   2.095   6.590   4.794
 4866SOL     OW15496   6.141   4.617   6.731
 4866SOL    HW115497   6.199   4.536   6.737
 4866SOL    HW215498   6.166   4.682   6.803
 4867SOL     OW15499   5.150   6.728   2.771
 4867SOL    HW115500   5.058   6.768   2.773
 4867SOL    HW215501   5.214   6.796   2.735
 4868SOL     OW15502   7.002   4.547   1.420
 4868SOL    HW115503   6.962   4.496   1.497
 4868SOL    HW215504   6.988   4.496   1.336
 4869SOL     OW15505   0.804   1.188   0.138
 4869SOL    HW115506   0.803   1.089   0.128
 4869SOL    HW215507   0.897   1.222   0.126
 4870SOL     OW15508   0.756   5.997   1.762
 4870SOL    HW115509   0.783   5.936   1.688
 4870SOL    HW215510   0.812   6.080   1.760
 4871SOL     OW15511   1.790   1.779   4.730
 4871SOL    HW115512   1.876   1.741   4.695
 4871SOL    HW215513   1.750   1.715   4.796
 4872SOL     OW15514   5.505   7.003   3.050
 4872SOL    HW115515   5.567   7.006   3.128
 4872SOL    HW215516   5.447   6.922   3.056
 4873SOL     OW15517   6.773   5.645   5.637
 4873SOL    HW115518   6.801   5.658   5.542
 4873SOL    HW215519   6.730   5.555   5.647
 4874SOL     OW15520   5.145   2.421   2.704
 4874SOL    HW115521   5.242   2.413   2.680
 4874SOL    HW215522   5.131   2.389   2.797
 4875SOL     OW15523   5.620   6.232   5.250
 4875SOL    HW115524   5.680   6.308   5.276
 4875SOL    HW215525   5.637   6.154   5.310
 4876SOL     OW15526   1.730   0.970   3.180
 4876SOL    HW115527   1.642   0.942   3.219
 4876SOL    HW215528   1.714   1.011   3.090
 4877SOL     OW15529   0.320   1.646   4.880
 4877SOL    HW115530   0.360   1.724   4.929
 4877SOL    HW215531   0.391   1.578   4.862
 4878SOL     OW15532   0.017   2.591   2.545
 4878SOL    HW115533   0.084   2.622   2.477
 4878SOL    HW215534   0.017   2.654   2.622
 4879SOL     OW15535   5.086   1.500   3.018
 4879SOL    HW115536   5.122   1.496   2.925
 4879SOL    HW215537   4.996   1.457   3.021
 4880SOL     OW15538   6.760   2.832   6.486
 4880SOL    HW115539   6.765   2.932   6.480
 4880SOL    HW215540   6.673   2.800   6.447
 4881SOL     OW15541   2.017   2.173   1.735
 4881SOL    HW115542   2.038   2.173   1.833
 4881SOL    HW215543   1.943   2.109   1.716
 4882SOL     OW15544   4.212   1.676   4.357
 4882SOL    HW115545   4.220   1.776   4.354
 4882SOL    HW215546   4.291   1.635   4.310
 4883SOL     OW15547   6.647   4.347   1.255
 4883SOL    HW115548   6.697   4.338   1.341
 4883SOL    HW215549   6.665   4.267   1.198
 4884SOL     OW15550   2.123   6.394   1.031
 4884SOL    HW115551   2.211   6.379   0.986
 4884SOL    HW215552   2.054   6.415   0.962
 4885SOL     OW15553   0.958   4.847   0.158
 4885SOL    HW115554   1.055   4.832   0.174
 4885SOL    HW215555   0.932   4.808   0.070
 4886SOL     OW15556   2.466   0.853   1.780
 4886SOL    HW115557   2.401   0.835   1.854
 4886SOL    HW215558   2.417   0.894   1.703
 4887SOL     OW15559   6.446   6.670   1.232
 4887SOL    HW115560   6.503   6.749   1.251
 4887SOL    HW215561   6.355   6.683   1.271
 4888SOL     OW15562   4.215   6.702   2.936
 4888SOL    HW115563   4.158   6.668   2.860
 4888SOL    HW215564   4.156   6.724   3.014
 4889SOL     OW15565   0.075   3.179   4.129
 4889SOL    HW115566   7.015   3.125   4.114
 4889SOL    HW215567   0.086   3.197   4.227
 4890SOL     OW15568   0.428   1.152   4.311
 4890SOL    HW115569   0.442   1.064   4.267
 4890SOL    HW215570   0.335   1.158   4.346
 4891SOL     OW15571   2.662   5.592   6.137
 4891SOL    HW115572   2.614   5.525   6.080
 4891SOL    HW215573   2.677   5.553   6.228
 4892SOL     OW15574   4.812   5.649   2.801
 4892SOL    HW115575   4.871   5.584   2.752
 4892SOL    HW215576   4.839   5.653   2.897
 4893SOL     OW15577   0.888   3.473   1.525
 4893SOL    HW115578   0.818   3.504   1.589
 4893SOL    HW215579   0.855   3.483   1.431
 4894SOL     OW15580   5.042   0.517   1.720
 4894SOL    HW115581   4.951   0.543   1.753
 4894SOL    HW215582   5.093   0.472   1.793
 4895SOL     OW15583   0.015   4.161   4.431
 4895SOL    HW115584   0.032   4.130   4.525
 4895SOL    HW215585   0.100   4.195   4.392
 4896SOL     OW15586   1.828   4.923   4.428
 4896SOL    HW115587   1.787   4.940   4.338
 4896SOL    HW215588   1.755   4.905   4.494
 4897SOL     OW15589   2.077   6.472   4.908
 4897SOL    HW115590   2.098   6.379   4.878
 4897SOL    HW215591   1.982   6.476   4.940
 4898SOL     OW15592   4.669   1.886   3.762
 4898SOL    HW115593   4.625   1.851   3.844
 4898SOL    HW215594   4.624   1.848   3.681
 4899SOL     OW15595   6.764   6.104   1.834
 4899SOL    HW115596   6.759   6.014   1.878
 4899SOL    HW215597   6.781   6.174   1.903
 4900SOL     OW15598   3.711   5.946   5.651
 4900SOL    HW115599   3.809   5.950   5.669
 4900SOL    HW215600   3.690   5.989   5.563
 4901SOL     OW15601   0.747   1.509   5.772
 4901SOL    HW115602   0.770   1.452   5.694
 4901SOL    HW215603   0.771   1.604   5.753
 4902SOL     OW15604   1.484   0.059   5.822
 4902SOL    HW115605   1.515   6.986   5.832
 4902SOL    HW215606   1.457   0.095   5.911
 4903SOL     OW15607   4.848   4.095   2.587
 4903SOL    HW115608   4.823   4.023   2.652
 4903SOL    HW215609   4.947   4.097   2.576
 4904SOL     OW15610   1.658   6.796   0.382
 4904SOL    HW115611   1.717   6.749   0.447
 4904SOL    HW215612   1.702   6.798   0.292
 4905SOL     OW15613   3.052   6.342   2.995
 4905SOL    HW115614   3.141   6.316   3.032
 4905SOL    HW215615   3.046   6.441   2.987
 4906SOL     OW15616   5.012   3.509   5.141
 4906SOL    HW115617   4.987   3.412   5.147
 4906SOL    HW215618   4.948   3.556   5.080
 4907SOL     OW15619   4.753   1.869   6.746
 4907SOL    HW115620   4.739   1.792   6.808
 4907SOL    HW215621   4.708   1.851   6.659
 4908SOL     OW15622   4.374   6.600   0.090
 4908SOL    HW115623   4.361   6.502   0.105
 4908SOL    HW215624   4.348   6.623   7.018
 4909SOL     OW15625   4.972   4.638   4.605
 4909SOL    HW115626   4.930   4.598   4.686
 4909SOL    HW215627   4.914   4.710   4.568
 4910SOL     OW15628   4.719   2.078   5.474
 4910SOL    HW115629   4.819   2.076   5.482
 4910SOL    HW215630   4.679   2.023   5.548
 4911SOL     OW15631   6.817   2.571   2.351
 4911SOL    HW115632   6.737   2.630   2.354
 4911SOL    HW215633   6.885   2.602   2.418
 4912SOL     OW15634   5.762   2.349   3.919
 4912SOL    HW115635   5.708   2.374   3.999
 4912SOL    HW215636   5.713   2.377   3.836
 4913SOL     OW15637   0.009   3.565   5.935
 4913SOL    HW115638   6.995   3.607   5.852
 4913SOL    HW215639   6.955   3.533   5.992
 4914SOL     OW15640   4.388   0.625   3.516
 4914SOL    HW115641   4.326   0.549   3.500
 4914SOL    HW215642   4.409   0.631   3.613
 4915SOL     OW15643   3.641   5.215   5.840
 4915SOL    HW115644   3.568   5.246   5.901
 4915SOL    HW215645   3.719   5.278   5.846
 4916SOL     OW15646   5.896   2.646   4.147
 4916SOL    HW115647   5.891   2.638   4.047
 4916SOL    HW215648   5.907   2.554   4.187
 4917SOL     OW15649   4.377   6.322   0.128
 4917SOL    HW115650   4.432   6.253   0.081
 4917SOL    HW215651   4.304   6.277   0.179
 4918SOL     OW15652   6.047   4.993   2.968
 4918SOL    HW115653   6.006   5.033   3.050
 4918SOL    HW215654   6.067   5.066   2.903
 4919SOL     OW15655   3.558   3.802   2.537
 4919SOL    HW115656   3.549   3.744   2.618
 4919SOL    HW215657   3.645   3.782   2.491
 4920SOL     OW15658   6.644   1.135   5.927
 4920SOL    HW115659   6.679   1.117   6.019
 4920SOL    HW215660   6.642   1.234   5.912
 4921SOL     OW15661   0.147   6.678   2.503
 4921SOL    HW115662   0.096   6.734   2.569
 4921SOL    HW215663   0.188   6.737   2.434
 4922SOL     OW15664   3.686   2.137   6.677
 4922SOL    HW115665   3.594   2.121   6.715
 4922SOL    HW215666   3.744   2.176   6.748
 4923SOL     OW15667   3.851   1.525   1.512
 4923SOL    HW115668   3.798   1.460   1.458
 4923SOL    HW215669   3.936   1.546   1.465
 4924SOL     OW15670   2.452   0.610   4.799
 4924SOL    HW115671   2.501   0.678   4.744
 4924SOL    HW215672   2.517   0.558   4.854
 4925SOL     OW15673   5.782   6.382   3.697
 4925SOL    HW115674   5.743   6.302   3.743
 4925SOL    HW215675   5.756   6.465   3.746
 4926SOL     OW15676   5.473   2.435   1.022
 4926SOL    HW115677   5.457   2.447   1.120
 4926SOL    HW215678   5.394   2.469   0.971
 4927SOL     OW15679   3.441   1.316   6.960
 4927SOL    HW115680   3.461   1.383   0.009
 4927SOL    HW215681   3.362   1.261   6.988
 4928SOL     OW15682   6.909   2.531   1.069
 4928SOL    HW115683   6.851   2.453   1.093
 4928SOL    HW215684   6.980   2.542   1.139
 4929SOL     OW15685   0.895   6.292   5.133
 4929SOL    HW115686   0.956   6.250   5.066
 4929SOL    HW215687   0.854   6.375   5.094
 4930SOL     OW15688   5.263   6.431   1.879
 4930SOL    HW115689   5.316   6.433   1.794
 4930SOL    HW215690   5.192   6.361   1.872
 4931SOL     OW15691   6.707   5.676   0.241
 4931SOL    HW115692   6.619   5.722   0.226
 4931SOL    HW215693   6.704   5.585   0.201
 4932SOL     OW15694   3.317   3.267   2.089
 4932SOL    HW115695   3.270   3.241   2.174
 4932SOL    HW215696   3.402   3.315   2.110
 4933SOL     OW15697   2.552   6.069   5.737
 4933SOL    HW115698   2.491   5.998   5.702
 4933SOL    HW215699   2.533   6.085   5.834
 4934SOL     OW15700   4.357   5.280   2.679
 4934SOL    HW115701   4.300   5.351   2.639
 4934SOL    HW215702   4.384   5.215   2.607
 4935SOL     OW15703   0.373   1.204   6.190
 4935SOL    HW115704   0.355   1.234   6.284
 4935SOL    HW215705   0.301   1.238   6.130
 4936SOL     OW15706   3.803   2.941   0.500
 4936SOL    HW115707   3.718   2.927   0.448
 4936SOL    HW215708   3.785   2.926   0.597
 4937SOL     OW15709   4.491   2.539   5.040
 4937SOL    HW115710   4.438   2.455   5.030
 4937SOL    HW215711   4.538   2.559   4.954
 4938SOL     OW15712   4.059   5.170   6.582
 4938SOL    HW115713   3.986   5.115   6.624
 4938SOL    HW215714   4.022   5.221   6.505
 4939SOL     OW15715   4.736   3.168   6.009
 4939SOL    HW115716   4.697   3.098   5.949
 4939SOL    HW215717   4.826   3.195   5.975
 4940SOL     OW15718   1.778   5.960   4.683
 4940SOL    HW115719   1.842   6.037   4.683
 4940SOL    HW215720   1.704   5.978   4.618
 4941SOL     OW15721   5.236   0.149   1.091
 4941SOL    HW115722   5.226   0.232   1.037
 4941SOL    HW215723   5.314   0.158   1.152
 4942SOL     OW15724   5.292   3.303   5.576
 4942SOL    HW115725   5.314   3.231   5.641
 4942SOL    HW215726   5.294   3.392   5.622
 4943SOL     OW15727   5.357   2.577   1.478
 4943SOL    HW115728   5.290   2.570   1.551
 4943SOL    HW215729   5.441   2.620   1.513
 4944SOL     OW15730   2.459   4.369   2.717
 4944SOL    HW115731   2.442   4.372   2.816
 4944SOL    HW215732   2.531   4.435   2.694
 4945SOL     OW15733   0.673   6.092   4.992
 4945SOL    HW115734   0.750   6.144   5.030
 4945SOL    HW215735   0.682   6.088   4.893
 4946SOL     OW15736   0.646   4.483   2.204
 4946SOL    HW115737   0.559   4.497   2.158
 4946SOL    HW215738   0.648   4.534   2.291
 4947SOL     OW15739   0.160   0.057   0.834
 4947SOL    HW115740   0.152   7.014   0.910
 4947SOL    HW215741   0.229   0.126   0.856
 4948SOL     OW15742   1.617   1.188   2.034
 4948SOL    HW115743   1.585   1.202   2.128
 4948SOL    HW215744   1.539   1.177   1.973
 4949SOL     OW15745   4.896   1.497   4.657
 4949SOL    HW115746   4.808   1.460   4.690
 4949SOL    HW215747   4.892   1.597   4.656
 4950SOL     OW15748   2.945   5.399   5.236
 4950SOL    HW115749   2.910   5.450   5.158
 4950SOL    HW215750   2.960   5.304   5.211
 4951SOL     OW15751   4.652   1.792   3.497
 4951SOL    HW115752   4.634   1.890   3.495
 4951SOL    HW215753   4.709   1.767   3.419
 4952SOL     OW15754   0.671   5.473   4.718
 4952SOL    HW115755   0.726   5.524   4.652
 4952SOL    HW215756   0.710   5.484   4.809
 4953SOL     OW15757   1.803   5.783   1.597
 4953SOL    HW115758   1.789   5.710   1.665
 4953SOL    HW215759   1.879   5.758   1.537
 4954SOL     OW15760   5.788   5.680   6.735
 4954SOL    HW115761   5.718   5.676   6.663
 4954SOL    HW215762   5.871   5.635   6.703
 4955SOL     OW15763   1.063   7.016   1.747
 4955SOL    HW115764   1.125   6.971   1.683
 4955SOL    HW215765   0.996   0.049   1.697
 4956SOL     OW15766   5.284   6.212   4.237
 4956SOL    HW115767   5.224   6.291   4.249
 4956SOL    HW215768   5.312   6.177   4.327
 4957SOL     OW15769   1.127   6.741   3.665
 4957SOL    HW115770   1.155   6.757   3.760
 4957SOL    HW215771   1.154   6.819   3.609
 4958SOL     OW15772   7.006   6.157   6.777
 4958SOL    HW115773   7.015   6.254   6.796
 4958SOL    HW215774   0.012   6.104   6.857
 4959SOL     OW15775   0.721   1.090   1.102
 4959SOL    HW115776   0.682   1.054   1.187
 4959SOL    HW215777   0.813   1.053   1.089
 4960SOL     OW15778   3.795   6.278   4.867
 4960SOL    HW115779   3.878   6.311   4.823
 4960SOL    HW215780   3.817   6.238   4.956
 4961SOL     OW15781   4.306   0.623   5.636
 4961SOL    HW115782   4.249   0.557   5.685
 4961SOL    HW215783   4.297   0.713   5.679
 4962SOL     OW15784   6.576   2.283   1.799
 4962SOL    HW115785   6.623   2.240   1.877
 4962SOL    HW215786   6.571   2.382   1.813
 4963SOL     OW15787   0.211   4.460   1.969
 4963SOL    HW115788   0.309   4.482   1.973
 4963SOL    HW215789   0.179   4.434   2.060
 4964SOL     OW15790   3.514   6.344   3.031
 4964SOL    HW115791   3.591   6.372   2.975
 4964SOL    HW215792   3.544   6.273   3.096
 4965SOL     OW15793   0.131   6.493   4.959
 4965SOL    HW115794   0.065   6.419   4.950
 4965SOL    HW215795   0.146   6.536   4.870
 4966SOL     OW15796   3.764   5.035   3.600
 4966SOL    HW115797   3.749   5.080   3.688
 4966SOL    HW215798   3.861   5.021   3.586
 4967SOL     OW15799   4.545   1.938   6.114
 4967SOL    HW115800   4.596   2.000   6.174
 4967SOL    HW215801   4.578   1.949   6.020
 4968SOL     OW15802   5.689   3.833   5.748
 4968SOL    HW115803   5.661   3.929   5.748
 4968SOL    HW215804   5.656   3.788   5.831
 4969SOL     OW15805   0.645   2.178   2.097
 4969SOL    HW115806   0.737   2.154   2.066
 4969SOL    HW215807   0.650   2.260   2.154
 4970SOL     OW15808   1.359   3.065   6.351
 4970SOL    HW115809   1.301   3.088   6.274
 4970SOL    HW215810   1.412   3.145   6.378
 4971SOL     OW15811   6.429   5.945   4.024
 4971SOL    HW115812   6.466   5.964   3.933
 4971SOL    HW215813   6.331   5.967   4.025
 4972SOL     OW15814   1.782   2.504   6.012
 4972SOL    HW115815   1.708   2.560   5.977
 4972SOL    HW215816   1.859   2.562   6.038
 4973SOL     OW15817   5.882   5.945   3.205
 4973SOL    HW115818   5.885   6.007   3.283
 4973SOL    HW215819   5.972   5.941   3.162
 4974SOL     OW15820   4.551   6.711   1.337
 4974SOL    HW115821   4.629   6.749   1.288
 4974SOL    HW215822   4.466   6.743   1.295
 4975SOL     OW15823   5.380   6.120   0.111
 4975SOL    HW115824   5.459   6.115   0.172
 4975SOL    HW215825   5.389   6.200   0.052
 4976SOL     OW15826   3.898   0.376   4.622
 4976SOL    HW115827   3.932   0.328   4.703
 4976SOL    HW215828   3.821   0.325   4.584
 4977SOL     OW15829   3.371   3.802   0.583
 4977SOL    HW115830   3.307   3.784   0.508
 4977SOL    HW215831   3.340   3.754   0.665
 4978SOL     OW15832   6.247   2.778   6.244
 4978SOL    HW115833   6.156   2.747   6.219
 4978SOL    HW215834   6.289   2.824   6.166
 4979SOL     OW15835   1.432   1.938   4.830
 4979SOL    HW115836   1.334   1.933   4.810
 4979SOL    HW215837   1.467   2.027   4.800
 4980SOL     OW15838   2.635   5.269   2.390
 4980SOL    HW115839   2.665   5.244   2.298
 4980SOL    HW215840   2.616   5.187   2.443
 4981SOL     OW15841   4.810   6.291   5.714
 4981SOL    HW115842   4.825   6.329   5.622
 4981SOL    HW215843   4.717   6.256   5.719
 4982SOL     OW15844   2.551   2.329   0.375
 4982SOL    HW115845   2.553   2.236   0.411
 4982SOL    HW215846   2.639   2.373   0.390
 4983SOL     OW15847   5.475   3.026   4.441
 4983SOL    HW115848   5.511   3.020   4.534
 4983SOL    HW215849   5.380   3.056   4.443
 4984SOL     OW15850   4.816   3.955   2.836
 4984SOL    HW115851   4.839   4.017   2.911
 4984SOL    HW215852   4.814   3.861   2.870
 4985SOL     OW15853   5.748   3.833   2.854
 4985SOL    HW115854   5.793   3.744   2.857
 4985SOL    HW215855   5.794   3.892   2.788
 4986SOL     OW15856   4.871   4.463   2.702
 4986SOL    HW115857   4.935   4.431   2.631
 4986SOL    HW215858   4.784   4.415   2.691
 4987SOL     OW15859   0.553   3.793   1.121
 4987SOL    HW115860   0.603   3.755   1.043
 4987SOL    HW215861   0.457   3.763   1.117
 4988SOL     OW15862   0.555   2.488   5.213
 4988SOL    HW115863   0.615   2.479   5.133
 4988SOL    HW215864   0.574   2.412   5.277
 4989SOL     OW15865   0.415   1.132   0.234
 4989SOL    HW115866   0.356   1.051   0.242
 4989SOL    HW215867   0.470   1.141   0.317
 4990SOL     OW15868   0.817   2.056   5.362
 4990SOL    HW115869   0.838   1.974   5.309
 4990SOL    HW215870   0.897   2.117   5.363
 4991SOL     OW15871   1.602   2.693   4.453
 4991SOL    HW115872   1.667   2.742   4.511
 4991SOL    HW215873   1.645   2.611   4.417
 4992SOL     OW15874   3.350   0.347   5.397
 4992SOL    HW115875   3.253   0.354   5.375
 4992SOL    HW215876   3.374   0.418   5.463
 4993SOL     OW15877   2.740   5.687   4.052
 4993SOL    HW115878   2.695   5.672   3.964
 4993SOL    HW215879   2.766   5.600   4.092
 4994SOL     OW15880   6.956   6.546   2.186
 4994SOL    HW115881   0.012   6.539   2.124
 4994SOL    HW215882   6.945   6.641   2.215
 4995SOL     OW15883   6.318   2.816   5.425
 4995SOL    HW115884   6.328   2.912   5.449
 4995SOL    HW215885   6.282   2.808   5.332
 4996SOL     OW15886   0.160   1.304   4.099
 4996SOL    HW115887   0.159   1.231   4.167
 4996SOL    HW215888   0.102   1.279   4.022
 4997SOL     OW15889   0.127   2.240   3.481
 4997SOL    HW115890   0.168   2.150   3.495
 4997SOL    HW215891   0.064   2.260   3.556
 4998SOL     OW15892   1.382   5.459   4.877
 4998SOL    HW115893   1.452   5.458   4.948
 4998SOL    HW215894   1.415   5.510   4.797
 4999SOL     OW15895   6.379   4.368   1.268
 4999SOL    HW115896   6.477   4.385   1.252
 4999SOL    HW215897   6.356   4.393   1.362
 5000SOL     OW15898   7.013   5.398   4.420
 5000SOL    HW115899   7.003   5.344   4.503
 5000SOL    HW215900   6.997   5.340   4.340
 5001SOL     OW15901   4.777   4.173   5.643
 5001SOL    HW115902   4.877   4.182   5.638
 5001SOL    HW215903   4.753   4.113   5.719
 5002SOL     OW15904   2.230   1.527   1.437
 5002SOL    HW115905   2.229   1.517   1.537
 5002SOL    HW215906   2.311   1.579   1.410
 5003SOL     OW15907   6.511   5.315   3.245
 5003SOL    HW115908   6.445   5.241   3.255
 5003SOL    HW215909   6.466   5.402   3.266
 5004SOL     OW15910   3.127   5.078   0.372
 5004SOL    HW115911   3.216   5.099   0.411
 5004SOL    HW215912   3.138   5.017   0.294
 5005SOL     OW15913   4.468   2.433   6.982
 5005SOL    HW115914   4.562   2.403   6.996
 5005SOL    HW215915   4.469   2.520   6.933
 5006SOL     OW15916   5.095   4.823   3.672
 5006SOL    HW115917   5.105   4.793   3.577
 5006SOL    HW215918   5.128   4.751   3.733
 5007SOL     OW15919   4.264   1.636   4.661
 5007SOL    HW115920   4.353   1.678   4.681
 5007SOL    HW215921   4.203   1.704   4.621
 5008SOL     OW15922   6.740   1.421   4.029
 5008SOL    HW115923   6.655   1.459   3.993
 5008SOL    HW215924   6.796   1.494   4.069
 5009SOL     OW15925   1.991   6.531   3.939
 5009SOL    HW115926   2.036   6.517   3.850
 5009SOL    HW215927   1.922   6.603   3.930
 5010SOL     OW15928   3.344   3.499   4.390
 5010SOL    HW115929   3.389   3.456   4.312
 5010SOL    HW215930   3.268   3.442   4.420
 5011SOL     OW15931   1.167   3.195   2.985
 5011SOL    HW115932   1.233   3.250   2.934
 5011SOL    HW215933   1.150   3.110   2.937
 5012SOL     OW15934   5.559   3.039   0.035
 5012SOL    HW115935   5.613   3.039   6.972
 5012SOL    HW215936   5.574   2.954   0.085
 5013SOL     OW15937   5.038   1.553   5.924
 5013SOL    HW115938   5.050   1.512   5.834
 5013SOL    HW215939   4.958   1.613   5.923
 5014SOL     OW15940   6.181   6.704   0.192
 5014SOL    HW115941   6.245   6.733   0.264
 5014SOL    HW215942   6.190   6.764   0.113
 5015SOL     OW15943   5.480   2.230   3.252
 5015SOL    HW115944   5.418   2.169   3.204
 5015SOL    HW215945   5.457   2.325   3.231
 5016SOL     OW15946   2.603   6.957   2.134
 5016SOL    HW115947   2.562   6.866   2.129
 5016SOL    HW215948   2.546   7.016   2.190
 5017SOL     OW15949   2.402   2.705   1.669
 5017SOL    HW115950   2.308   2.723   1.639
 5017SOL    HW215951   2.423   2.608   1.657
 5018SOL     OW15952   6.989   4.888   4.516
 5018SOL    HW115953   0.064   4.909   4.500
 5018SOL    HW215954   6.973   4.790   4.498
 5019SOL     OW15955   2.706   5.253   6.143
 5019SOL    HW115956   2.614   5.261   6.180
 5019SOL    HW215957   2.768   5.220   6.214
 5020SOL     OW15958   5.195   5.125   6.136
 5020SOL    HW115959   5.175   5.027   6.138
 5020SOL    HW215960   5.111   5.176   6.120
 5021SOL     OW15961   2.401   5.140   5.838
 5021SOL    HW115962   2.338   5.064   5.851
 5021SOL    HW215963   2.495   5.108   5.845
 5022SOL     OW15964   1.592   5.060   0.656
 5022SOL    HW115965   1.667   5.095   0.599
 5022SOL    HW215966   1.583   5.117   0.738
 5023SOL     OW15967   6.510   3.362   3.055
 5023SOL    HW115968   6.603   3.336   3.083
 5023SOL    HW215969   6.455   3.381   3.135
 5024SOL     OW15970   5.658   3.269   5.810
 5024SOL    HW115971   5.653   3.171   5.789
 5024SOL    HW215972   5.740   3.308   5.768
 5025SOL     OW15973   6.524   1.823   3.003
 5025SOL    HW115974   6.535   1.795   3.098
 5025SOL    HW215975   6.467   1.755   2.955
 5026SOL     OW15976   0.686   6.353   2.794
 5026SOL    HW115977   0.758   6.320   2.854
 5026SOL    HW215978   0.701   6.449   2.772
 5027SOL     OW15979   0.866   6.660   3.375
 5027SOL    HW115980   0.948   6.609   3.352
 5027SOL    HW215981   0.811   6.608   3.440
 5028SOL     OW15982   1.216   0.561   3.001
 5028SOL    HW115983   1.242   0.605   2.915
 5028SOL    HW215984   1.297   0.523   3.045
 5029SOL     OW15985   0.122   1.119   2.541
 5029SOL    HW115986   0.188   1.113   2.467
 5029SOL    HW215987   0.036   1.156   2.505
 5030SOL     OW15988   1.574   5.581   0.027
 5030SOL    HW115989   1.547   5.582   6.953
 5030SOL    HW215990   1.530   5.657   0.075
 5031SOL     OW15991   5.630   0.522   5.226
 5031SOL    HW115992   5.683   0.439   5.245
 5031SOL    HW215993   5.549   0.524   5.284
 5032SOL     OW15994   0.791   6.359   1.124
 5032SOL    HW115995   0.705   6.363   1.174
 5032SOL    HW215996   0.844   6.280   1.156
 5033SOL     OW15997   1.089   4.076   5.746
 5033SOL    HW115998   1.152   4.140   5.701
 5033SOL    HW215999   1.118   3.982   5.727
 5034SOL     OW16000   6.678   3.868   0.309
 5034SOL    HW116001   6.765   3.851   0.263
 5034SOL    HW216002   6.604   3.860   0.242
 5035SOL     OW16003   6.363   4.112   1.430
 5035SOL    HW116004   6.371   4.126   1.331
 5035SOL    HW216005   6.386   4.017   1.452
 5036SOL     OW16006   1.598   0.691   2.509
 5036SOL    HW116007   1.524   0.740   2.554
 5036SOL    HW216008   1.686   0.724   2.543
 5037SOL     OW16009   4.533   2.400   2.796
 5037SOL    HW116010   4.462   2.350   2.747
 5037SOL    HW216011   4.510   2.406   2.893
 5038SOL     OW16012   2.535   6.286   6.179
 5038SOL    HW116013   2.614   6.225   6.173
 5038SOL    HW216014   2.566   6.380   6.192
 5039SOL     OW16015   1.679   1.618   3.948
 5039SOL    HW116016   1.643   1.632   3.856
 5039SOL    HW216017   1.779   1.629   3.948
 5040SOL     OW16018   2.921   3.594   6.197
 5040SOL    HW116019   2.936   3.648   6.280
 5040SOL    HW216020   2.895   3.655   6.122
 5041SOL     OW16021   1.055   5.475   1.028
 5041SOL    HW116022   1.047   5.445   0.933
 5041SOL    HW216023   0.976   5.442   1.080
 5042SOL     OW16024   6.008   2.162   6.150
 5042SOL    HW116025   5.952   2.178   6.231
 5042SOL    HW216026   6.094   2.120   6.177
 5043SOL     OW16027   4.748   0.164   3.348
 5043SOL    HW116028   4.674   0.136   3.286
 5043SOL    HW216029   4.744   0.264   3.360
 5044SOL     OW16030   5.988   4.230   2.616
 5044SOL    HW116031   6.049   4.240   2.538
 5044SOL    HW216032   6.027   4.278   2.695
 5045SOL     OW16033   6.309   3.262   6.175
 5045SOL    HW116034   6.281   3.214   6.258
 5045SOL    HW216035   6.277   3.357   6.178
 5046SOL     OW16036   3.112   2.872   5.399
 5046SOL    HW116037   3.051   2.947   5.376
 5046SOL    HW216038   3.116   2.807   5.323
 5047SOL     OW16039   1.184   1.348   2.630
 5047SOL    HW116040   1.097   1.373   2.673
 5047SOL    HW216041   1.168   1.317   2.536
 5048SOL     OW16042   6.260   3.492   1.686
 5048SOL    HW116043   6.306   3.419   1.634
 5048SOL    HW216044   6.228   3.455   1.773
 5049SOL     OW16045   1.393   2.367   2.501
 5049SOL    HW116046   1.424   2.281   2.542
 5049SOL    HW216047   1.402   2.441   2.567
 5050SOL     OW16048   0.956   3.415   0.908
 5050SOL    HW116049   0.985   3.337   0.853
 5050SOL    HW216050   0.856   3.421   0.907
 5051SOL     OW16051   2.909   3.862   0.597
 5051SOL    HW116052   2.836   3.839   0.662
 5051SOL    HW216053   2.876   3.846   0.504
 5052SOL     OW16054   5.542   3.880   0.514
 5052SOL    HW116055   5.510   3.923   0.430
 5052SOL    HW216056   5.598   3.800   0.491
 5053SOL     OW16057   2.053   4.776   0.361
 5053SOL    HW116058   2.117   4.824   0.301
 5053SOL    HW216059   2.094   4.690   0.392
 5054SOL     OW16060   3.880   5.923   4.948
 5054SOL    HW116061   3.796   5.872   4.927
 5054SOL    HW216062   3.955   5.858   4.963
 5055SOL     OW16063   1.890   1.834   4.003
 5055SOL    HW116064   1.949   1.913   4.017
 5055SOL    HW216065   1.945   1.751   3.999
 5056SOL     OW16066   2.365   2.406   5.552
 5056SOL    HW116067   2.370   2.351   5.469
 5056SOL    HW216068   2.411   2.358   5.627
 5057SOL     OW16069   0.403   4.445   2.837
 5057SOL    HW116070   0.378   4.349   2.826
 5057SOL    HW216071   0.420   4.465   2.933
 5058SOL     OW16072   3.233   3.227   0.134
 5058SOL    HW116073   3.220   3.314   0.182
 5058SOL    HW216074   3.331   3.213   0.118
 5059SOL     OW16075   4.133   1.508   3.173
 5059SOL    HW116076   4.142   1.500   3.074
 5059SOL    HW216077   4.039   1.535   3.196
 5060SOL     OW16078   0.216   3.479   5.194
 5060SOL    HW116079   0.294   3.423   5.167
 5060SOL    HW216080   0.231   3.574   5.164
 5061SOL     OW16081   3.648   2.035   5.505
 5061SOL    HW116082   3.689   2.013   5.417
 5061SOL    HW216083   3.624   2.133   5.508
 5062SOL     OW16084   5.062   0.863   3.562
 5062SOL    HW116085   5.074   0.916   3.646
 5062SOL    HW216086   5.150   0.851   3.517
 5063SOL     OW16087   0.917   1.646   1.738
 5063SOL    HW116088   0.980   1.595   1.797
 5063SOL    HW216089   0.833   1.594   1.726
 5064SOL     OW16090   5.022   5.616   0.763
 5064SOL    HW116091   5.066   5.702   0.789
 5064SOL    HW216092   5.006   5.561   0.845
 5065SOL     OW16093   2.359   1.083   2.327
 5065SOL    HW116094   2.260   1.068   2.329
 5065SOL    HW216095   2.403   1.008   2.278
 5066SOL     OW16096   2.432   4.795   2.687
 5066SOL    HW116097   2.488   4.874   2.713
 5066SOL    HW216098   2.376   4.819   2.608
 5067SOL     OW16099   5.320   2.912   0.796
 5067SOL    HW116100   5.314   2.893   0.698
 5067SOL    HW216101   5.411   2.946   0.819
 5068SOL     OW16102   2.664   5.622   0.654
 5068SOL    HW116103   2.708   5.533   0.650
 5068SOL    HW216104   2.636   5.650   0.562
 5069SOL     OW16105   3.691   4.895   5.196
 5069SOL    HW116106   3.756   4.825   5.225
 5069SOL    HW216107   3.601   4.876   5.236
 5070SOL     OW16108   5.889   3.473   5.189
 5070SOL    HW116109   5.973   3.425   5.164
 5070SOL    HW216110   5.903   3.520   5.276
 5071SOL     OW16111   2.557   6.815   4.000
 5071SOL    HW116112   2.504   6.896   4.027
 5071SOL    HW216113   2.511   6.770   3.924
 5072SOL     OW16114   1.124   1.401   1.050
 5072SOL    HW116115   1.067   1.468   1.002
 5072SOL    HW216116   1.117   1.313   1.003
 5073SOL     OW16117   2.545   0.568   2.470
 5073SOL    HW116118   2.452   0.555   2.505
 5073SOL    HW216119   2.552   0.528   2.379
 5074SOL     OW16120   3.480   2.197   1.738
 5074SOL    HW116121   3.571   2.220   1.774
 5074SOL    HW216122   3.428   2.148   1.808
 5075SOL     OW16123   0.196   3.410   6.901
 5075SOL    HW116124   0.212   3.377   6.994
 5075SOL    HW216125   0.283   3.412   6.851
 5076SOL     OW16126   6.378   0.030   6.351
 5076SOL    HW116127   6.373   0.112   6.294
 5076SOL    HW216128   6.339   0.050   6.441
 5077SOL     OW16129   0.807   4.545   4.352
 5077SOL    HW116130   0.719   4.585   4.374
 5077SOL    HW216131   0.862   4.536   4.435
 5078SOL     OW16132   0.268   2.139   3.902
 5078SOL    HW116133   0.195   2.079   3.935
 5078SOL    HW216134   0.355   2.089   3.902
 5079SOL     OW16135   1.541   2.745   5.560
 5079SOL    HW116136   1.470   2.716   5.625
 5079SOL    HW216137   1.498   2.768   5.473
 5080SOL     OW16138   5.907   6.019   0.182
 5080SOL    HW116139   5.952   6.014   0.272
 5080SOL    HW216140   5.878   5.928   0.155
 5081SOL     OW16141   2.586   5.281   5.583
 5081SOL    HW116142   2.517   5.346   5.616
 5081SOL    HW216143   2.619   5.309   5.493
 5082SOL     OW16144   5.207   5.887   1.639
 5082SOL    HW116145   5.267   5.959   1.674
 5082SOL    HW216146   5.233   5.865   1.545
 5083SOL     OW16147   1.603   0.330   3.356
 5083SOL    HW116148   1.521   0.272   3.358
 5083SOL    HW216149   1.682   0.277   3.387
 5084SOL     OW16150   2.468   4.475   5.536
 5084SOL    HW116151   2.423   4.556   5.573
 5084SOL    HW216152   2.472   4.404   5.607
 5085SOL     OW16153   0.422   4.250   4.948
 5085SOL    HW116154   0.476   4.175   4.986
 5085SOL    HW216155   0.460   4.277   4.859
 5086SOL     OW16156   1.897   5.178   2.015
 5086SOL    HW116157   1.994   5.156   2.028
 5086SOL    HW216158   1.887   5.273   1.986
 5087SOL     OW16159   6.486   4.669   2.262
 5087SOL    HW116160   6.542   4.590   2.237
 5087SOL    HW216161   6.423   4.644   2.335
 5088SOL     OW16162   5.202   5.788   2.063
 5088SOL    HW116163   5.286   5.834   2.033
 5088SOL    HW216164   5.128   5.855   2.071
 5089SOL     OW16165   5.270   5.553   5.639
 5089SOL    HW116166   5.288   5.457   5.659
 5089SOL    HW216167   5.225   5.560   5.550
 5090SOL     OW16168   3.004   6.440   5.368
 5090SOL    HW116169   2.947   6.388   5.305
 5090SOL    HW216170   3.100   6.432   5.342
 5091SOL     OW16171   6.908   0.089   6.389
 5091SOL    HW116172   7.002   0.122   6.379
 5091SOL    HW216173   6.876   0.052   6.302
 5092SOL     OW16174   3.123   3.064   4.000
 5092SOL    HW116175   3.204   3.030   3.953
 5092SOL    HW216176   3.117   3.024   4.091
 5093SOL     OW16177   2.765   2.086   2.547
 5093SOL    HW116178   2.755   2.185   2.543
 5093SOL    HW216179   2.698   2.048   2.611
 5094SOL     OW16180   1.618   5.887   5.059
 5094SOL    HW116181   1.602   5.902   5.157
 5094SOL    HW216182   1.542   5.835   5.021
 5095SOL     OW16183   6.671   1.305   2.917
 5095SOL    HW116184   6.768   1.286   2.898
 5095SOL    HW216185   6.637   1.240   2.985
 5096SOL     OW16186   6.008   2.815   5.224
 5096SOL    HW116187   5.912   2.788   5.215
 5096SOL    HW216188   6.013   2.902   5.272
 5097SOL     OW16189   1.030   0.684   5.714
 5097SOL    HW116190   1.026   0.735   5.628
 5097SOL    HW216191   1.089   0.604   5.703
 5098SOL     OW16192   3.593   3.417   0.805
 5098SOL    HW116193   3.560   3.472   0.728
 5098SOL    HW216194   3.685   3.446   0.829
 5099SOL     OW16195   1.717   0.210   2.105
 5099SOL    HW116196   1.633   0.158   2.123
 5099SOL    HW216197   1.693   0.302   2.074
 5100SOL     OW16198   5.190   3.637   2.313
 5100SOL    HW116199   5.180   3.726   2.267
 5100SOL    HW216200   5.285   3.625   2.342
 5101SOL     OW16201   3.781   0.610   6.796
 5101SOL    HW116202   3.811   0.663   6.717
 5101SOL    HW216203   3.697   0.560   6.774
 5102SOL     OW16204   4.709   4.688   4.286
 5102SOL    HW116205   4.769   4.617   4.250
 5102SOL    HW216206   4.619   4.649   4.306
 5103SOL     OW16207   0.962   1.160   6.547
 5103SOL    HW116208   0.904   1.128   6.622
 5103SOL    HW216209   0.953   1.260   6.539
 5104SOL     OW16210   3.856   3.316   2.307
 5104SOL    HW116211   3.790   3.323   2.233
 5104SOL    HW216212   3.934   3.260   2.278
 5105SOL     OW16213   4.393   3.092   6.068
 5105SOL    HW116214   4.431   3.034   6.140
 5105SOL    HW216215   4.307   3.052   6.035
 5106SOL     OW16216   4.373   2.312   0.625
 5106SOL    HW116217   4.372   2.331   0.724
 5106SOL    HW216218   4.313   2.234   0.606
 5107SOL     OW16219   4.844   3.829   7.006
 5107SOL    HW116220   4.757   3.876   7.020
 5107SOL    HW216221   4.827   3.736   6.973
 5108SOL     OW16222   4.504   5.008   0.386
 5108SOL    HW116223   4.560   4.984   0.464
 5108SOL    HW216224   4.543   5.088   0.340
 5109SOL     OW16225   1.462   2.859   1.371
 5109SOL    HW116226   1.514   2.880   1.454
 5109SOL    HW216227   1.472   2.762   1.349
 5110SOL     OW16228   4.752   6.971   5.545
 5110SOL    HW116229   4.728   6.938   5.454
 5110SOL    HW216230   4.789   6.895   5.599
 5111SOL     OW16231   0.432   6.342   4.617
 5111SOL    HW116232   0.412   6.245   4.607
 5111SOL    HW216233   0.349   6.391   4.640
 5112SOL     OW16234   6.621   6.352   3.159
 5112SOL    HW116235   6.555   6.421   3.127
 5112SOL    HW216236   6.711   6.370   3.119
 5113SOL     OW16237   1.644   3.833   0.281
 5113SOL    HW116238   1.625   3.873   0.192
 5113SOL    HW216239   1.699   3.897   0.336
 5114SOL     OW16240   4.826   4.790   0.996
 5114SOL    HW116241   4.768   4.801   1.076
 5114SOL    HW216242   4.902   4.729   1.017
 5115SOL     OW16243   2.006   4.293   0.881
 5115SOL    HW116244   1.955   4.207   0.872
 5115SOL    HW216245   1.949   4.360   0.929
 5116SOL     OW16246   1.299   0.415   6.005
 5116SOL    HW116247   1.267   0.492   5.950
 5116SOL    HW216248   1.241   0.406   6.086
 5117SOL     OW16249   0.877   2.585   3.589
 5117SOL    HW116250   0.879   2.502   3.533
 5117SOL    HW216251   0.963   2.635   3.578
 5118SOL     OW16252   4.539   5.325   6.605
 5118SOL    HW116253   4.443   5.354   6.600
 5118SOL    HW216254   4.544   5.227   6.626
 5119SOL     OW16255   5.810   0.554   0.605
 5119SOL    HW116256   5.846   0.628   0.661
 5119SOL    HW216257   5.719   0.578   0.572
 5120SOL     OW16258   5.545   6.407   6.711
 5120SOL    HW116259   5.521   6.311   6.719
 5120SOL    HW216260   5.616   6.418   6.641
 5121SOL     OW16261   1.480   3.295   6.393
 5121SOL    HW116262   1.547   3.317   6.322
 5121SOL    HW216263   1.507   3.340   6.479
 5122SOL     OW16264   5.006   4.648   3.887
 5122SOL    HW116265   5.021   4.667   3.984
 5122SOL    HW216266   4.911   4.668   3.863
 5123SOL     OW16267   4.785   3.270   1.453
 5123SOL    HW116268   4.712   3.259   1.387
 5123SOL    HW216269   4.760   3.225   1.539
 5124SOL     OW16270   2.512   6.167   5.173
 5124SOL    HW116271   2.419   6.135   5.157
 5124SOL    HW216272   2.578   6.098   5.142
 5125SOL     OW16273   6.419   1.631   3.612
 5125SOL    HW116274   6.354   1.593   3.678
 5125SOL    HW216275   6.370   1.690   3.548
 5126SOL     OW16276   1.938   0.306   1.378
 5126SOL    HW116277   1.938   0.376   1.307
 5126SOL    HW216278   1.844   0.282   1.402
 5127SOL     OW16279   1.978   5.373   0.258
 5127SOL    HW116280   2.015   5.397   0.348
 5127SOL    HW216281   2.036   5.410   0.186
 5128SOL     OW16282   6.126   0.172   2.044
 5128SOL    HW116283   6.188   0.183   1.965
 5128SOL    HW216284   6.032   0.188   2.014
 5129SOL     OW16285   6.089   6.830   0.822
 5129SOL    HW116286   6.019   6.894   0.854
 5129SOL    HW216287   6.056   6.781   0.741
 5130SOL     OW16288   6.715   4.590   2.836
 5130SOL    HW116289   6.787   4.597   2.906
 5130SOL    HW216290   6.693   4.494   2.820
 5131SOL     OW16291   2.421   2.419   2.637
 5131SOL    HW116292   2.340   2.360   2.626
 5131SOL    HW216293   2.412   2.472   2.721
 5132SOL     OW16294   3.092   5.834   5.548
 5132SOL    HW116295   3.122   5.794   5.462
 5132SOL    HW216296   3.022   5.903   5.531
 5133SOL     OW16297   3.929   6.168   5.467
 5133SOL    HW116298   3.963   6.250   5.511
 5133SOL    HW216299   3.951   6.170   5.370
 5134SOL     OW16300   6.425   4.670   0.070
 5134SOL    HW116301   6.440   4.630   7.001
 5134SOL    HW216302   6.403   4.598   0.135
 5135SOL     OW16303   5.555   1.701   4.542
 5135SOL    HW116304   5.476   1.762   4.541
 5135SOL    HW216305   5.614   1.725   4.620
 5136SOL     OW16306   4.278   0.940   4.513
 5136SOL    HW116307   4.332   0.908   4.590
 5136SOL    HW216308   4.183   0.951   4.541
 5137SOL     OW16309   3.450   4.161   0.164
 5137SOL    HW116310   3.490   4.169   0.073
 5137SOL    HW216311   3.363   4.211   0.167
 5138SOL     OW16312   2.366   3.377   5.933
 5138SOL    HW116313   2.465   3.391   5.939
 5138SOL    HW216314   2.337   3.315   6.005
 5139SOL     OW16315   0.749   0.272   3.407
 5139SOL    HW116316   0.767   0.354   3.352
 5139SOL    HW216317   0.662   0.232   3.378
 5140SOL     OW16318   3.685   2.873   1.645
 5140SOL    HW116319   3.710   2.782   1.678
 5140SOL    HW216320   3.767   2.930   1.638
 5141SOL     OW16321   6.730   3.757   6.055
 5141SOL    HW116322   6.722   3.854   6.080
 5141SOL    HW216323   6.762   3.705   6.134
 5142SOL     OW16324   5.311   3.353   3.776
 5142SOL    HW116325   5.360   3.266   3.773
 5142SOL    HW216326   5.234   3.346   3.839
 5143SOL     OW16327   6.918   4.606   4.425
 5143SOL    HW116328   6.867   4.520   4.428
 5143SOL    HW216329   6.973   4.609   4.342
 5144SOL     OW16330   2.028   1.317   4.585
 5144SOL    HW116331   1.946   1.261   4.598
 5144SOL    HW216332   2.037   1.339   4.488
 5145SOL     OW16333   3.349   5.944   5.979
 5145SOL    HW116334   3.425   5.980   5.925
 5145SOL    HW216335   3.308   5.867   5.931
 5146SOL     OW16336   2.314   4.201   7.018
 5146SOL    HW116337   2.404   4.239   6.996
 5146SOL    HW216338   2.278   4.152   6.938
 5147SOL     OW16339   6.458   5.235   0.046
 5147SOL    HW116340   6.552   5.203   0.037
 5147SOL    HW216341   6.451   5.330   0.016
 5148SOL     OW16342   0.616   6.981   1.936
 5148SOL    HW116343   0.523   6.995   1.971
 5148SOL    HW216344   0.682   7.002   2.008
 5149SOL     OW16345   6.544   0.953   5.587
 5149SOL    HW116346   6.471   0.887   5.570
 5149SOL    HW216347   6.509   1.045   5.578
 5150SOL     OW16348   1.404   5.207   4.093
 5150SOL    HW116349   1.469   5.133   4.111
 5150SOL    HW216350   1.391   5.216   3.994
 5151SOL     OW16351   4.289   1.247   6.318
 5151SOL    HW116352   4.343   1.168   6.290
 5151SOL    HW216353   4.249   1.230   6.408
 5152SOL     OW16354   0.675   5.313   0.321
 5152SOL    HW116355   0.734   5.233   0.314
 5152SOL    HW216356   0.729   5.397   0.312
 5153SOL     OW16357   1.724   1.909   1.257
 5153SOL    HW116358   1.722   1.987   1.194
 5153SOL    HW216359   1.809   1.911   1.310
 5154SOL     OW16360   2.173   3.036   4.576
 5154SOL    HW116361   2.136   3.088   4.653
 5154SOL    HW216362   2.227   2.959   4.611
 5155SOL     OW16363   3.377   0.693   2.021
 5155SOL    HW116364   3.419   0.732   1.939
 5155SOL    HW216365   3.333   0.765   2.073
 5156SOL     OW16366   5.956   3.129   5.661
 5156SOL    HW116367   5.889   3.079   5.717
 5156SOL    HW216368   5.998   3.201   5.717
 5157SOL     OW16369   5.850   2.930   4.064
 5157SOL    HW116370   5.829   3.027   4.075
 5157SOL    HW216371   5.863   2.888   4.154
 5158SOL     OW16372   3.947   0.884   0.558
 5158SOL    HW116373   4.028   0.878   0.615
 5158SOL    HW216374   3.905   0.794   0.550
 5159SOL     OW16375   1.395   2.796   4.277
 5159SOL    HW116376   1.360   2.729   4.211
 5159SOL    HW216377   1.452   2.749   4.345
 5160SOL     OW16378   2.395   2.745   4.022
 5160SOL    HW116379   2.395   2.844   4.008
 5160SOL    HW216380   2.305   2.708   4.001
 5161SOL     OW16381   1.635   3.267   6.688
 5161SOL    HW116382   1.567   3.339   6.701
 5161SOL    HW216383   1.722   3.294   6.729
 5162SOL     OW16384   6.164   6.019   5.289
 5162SOL    HW116385   6.245   5.999   5.345
 5162SOL    HW216386   6.193   6.045   5.197
 5163SOL     OW16387   5.338   3.361   1.070
 5163SOL    HW116388   5.412   3.307   1.111
 5163SOL    HW216389   5.322   3.330   0.977
 5164SOL     OW16390   6.048   5.073   5.992
 5164SOL    HW116391   6.139   5.082   6.033
 5164SOL    HW216392   5.991   5.016   6.051
 5165SOL     OW16393   6.513   4.180   4.151
 5165SOL    HW116394   6.443   4.156   4.084
 5165SOL    HW216395   6.603   4.156   4.116
 5166SOL     OW16396   1.297   0.400   1.978
 5166SOL    HW116397   1.210   0.359   1.948
 5166SOL    HW216398   1.373   0.343   1.945
 5167SOL     OW16399   1.025   6.617   5.787
 5167SOL    HW116400   1.015   6.709   5.825
 5167SOL    HW216401   0.965   6.554   5.836
 5168SOL     OW16402   3.587   2.097   3.125
 5168SOL    HW116403   3.542   2.008   3.133
 5168SOL    HW216404   3.631   2.105   3.035
 5169SOL     OW16405   3.628   4.395   6.407
 5169SOL    HW116406   3.700   4.418   6.341
 5169SOL    HW216407   3.615   4.296   6.409
 5170SOL     OW16408   4.822   4.457   4.140
 5170SOL    HW116409   4.833   4.373   4.193
 5170SOL    HW216410   4.909   4.507   4.139
 5171SOL     OW16411   2.759   4.714   4.769
 5171SOL    HW116412   2.775   4.813   4.774
 5171SOL    HW216413   2.811   4.668   4.841
 5172SOL     OW16414   1.906   4.827   0.584
 5172SOL    HW116415   1.955   4.817   0.497
 5172SOL    HW216416   1.813   4.793   0.574
 5173SOL     OW16417   5.848   4.054   6.036
 5173SOL    HW116418   5.782   4.105   6.092
 5173SOL    HW216419   5.818   4.058   5.940
 5174SOL     OW16420   1.248   4.300   5.690
 5174SOL    HW116421   1.323   4.271   5.630
 5174SOL    HW216422   1.168   4.323   5.634
 5175SOL     OW16423   0.505   4.972   6.518
 5175SOL    HW116424   0.534   4.943   6.426
 5175SOL    HW216425   0.537   5.065   6.535
 5176SOL     OW16426   5.240   3.303   6.866
 5176SOL    HW116427   5.174   3.232   6.892
 5176SOL    HW216428   5.326   3.287   6.913
 5177SOL     OW16429   5.725   6.723   6.699
 5177SOL    HW116430   5.628   6.699   6.711
 5177SOL    HW216431   5.739   6.761   6.607
 5178SOL     OW16432   2.932   2.138   1.615
 5178SOL    HW116433   2.840   2.115   1.585
 5178SOL    HW216434   2.954   2.232   1.588
 5179SOL     OW16435   2.796   5.952   5.820
 5179SOL    HW116436   2.871   5.995   5.769
 5179SOL    HW216437   2.708   5.979   5.780
 5180SOL     OW16438   3.455   2.422   0.635
 5180SOL    HW116439   3.460   2.359   0.712
 5180SOL    HW216440   3.366   2.415   0.590
 5181SOL     OW16441   3.180   5.383   2.563
 5181SOL    HW116442   3.084   5.357   2.548
 5181SOL    HW216443   3.184   5.464   2.621
 5182SOL     OW16444   4.899   4.455   1.444
 5182SOL    HW116445   4.897   4.357   1.465
 5182SOL    HW216446   4.882   4.467   1.346
 5183SOL     OW16447   4.192   0.424   3.036
 5183SOL    HW116448   4.231   0.337   3.067
 5183SOL    HW216449   4.265   0.493   3.029
 5184SOL     OW16450   0.901   1.862   3.345
 5184SOL    HW116451   0.822   1.801   3.349
 5184SOL    HW216452   0.869   1.957   3.339
 5185SOL     OW16453   3.917   6.857   2.380
 5185SOL    HW116454   4.013   6.831   2.391
 5185SOL    HW216455   3.870   6.849   2.468
 5186SOL     OW16456   6.166   4.204   0.403
 5186SOL    HW116457   6.228   4.278   0.428
 5186SOL    HW216458   6.090   4.240   0.349
 5187SOL     OW16459   4.897   1.792   4.103
 5187SOL    HW116460   4.824   1.782   4.036
 5187SOL    HW216461   4.979   1.744   4.070
 5188SOL     OW16462   0.867   3.373   4.982
 5188SOL    HW116463   0.856   3.472   4.990
 5188SOL    HW216464   0.846   3.344   4.889
 5189SOL     OW16465   4.787   5.259   6.378
 5189SOL    HW116466   4.853   5.334   6.381
 5189SOL    HW216467   4.699   5.294   6.347
 5190SOL     OW16468   1.499   2.469   3.649
 5190SOL    HW116469   1.420   2.414   3.621
 5190SOL    HW216470   1.583   2.421   3.624
 5191SOL     OW16471   4.116   0.624   1.392
 5191SOL    HW116472   4.105   0.682   1.311
 5191SOL    HW216473   4.136   0.681   1.472
 5192SOL     OW16474   5.911   4.064   2.126
 5192SOL    HW116475   5.882   4.103   2.039
 5192SOL    HW216476   5.834   4.062   2.190
 5193SOL     OW16477   4.925   3.698   2.898
 5193SOL    HW116478   4.882   3.608   2.897
 5193SOL    HW216479   4.964   3.715   2.989
 5194SOL     OW16480   5.699   1.533   6.060
 5194SOL    HW116481   5.678   1.607   6.124
 5194SOL    HW216482   5.615   1.505   6.013
 5195SOL     OW16483   6.495   6.900   5.612
 5195SOL    HW116484   6.545   6.958   5.677
 5195SOL    HW216485   6.497   6.942   5.522
 5196SOL     OW16486   0.914   2.951   1.986
 5196SOL    HW116487   0.866   3.038   1.993
 5196SOL    HW216488   0.998   2.964   1.933
 5197SOL     OW16489   3.426   5.950   4.886
 5197SOL    HW116490   3.356   5.963   4.956
 5197SOL    HW216491   3.481   5.869   4.908
 5198SOL     OW16492   4.391   0.085   5.874
 5198SOL    HW116493   4.301   0.127   5.885
 5198SOL    HW216494   4.382   7.021   5.823
 5199SOL     OW16495   1.111   4.973   1.519
 5199SOL    HW116496   1.020   4.957   1.557
 5199SOL    HW216497   1.155   4.886   1.497
 5200SOL     OW16498   0.124   0.590   5.148
 5200SOL    HW116499   0.192   0.554   5.084
 5200SOL    HW216500   0.033   0.584   5.107
 5201SOL     OW16501   6.101   4.741   5.135
 5201SOL    HW116502   6.116   4.642   5.132
 5201SOL    HW216503   6.054   4.771   5.052
 5202SOL     OW16504   3.899   2.879   5.580
 5202SOL    HW116505   3.844   2.804   5.542
 5202SOL    HW216506   3.854   2.966   5.561
 5203SOL     OW16507   1.812   0.450   6.573
 5203SOL    HW116508   1.890   0.446   6.636
 5203SOL    HW216509   1.821   0.378   6.504
 5204SOL     OW16510   2.862   0.337   0.989
 5204SOL    HW116511   2.955   0.307   0.969
 5204SOL    HW216512   2.823   0.278   1.061
 5205SOL     OW16513   6.780   6.501   0.687
 5205SOL    HW116514   6.697   6.453   0.660
 5205SOL    HW216515   6.849   6.491   0.615
 5206SOL     OW16516   0.963   5.129   3.709
 5206SOL    HW116517   0.977   5.101   3.614
 5206SOL    HW216518   0.931   5.224   3.711
 5207SOL     OW16519   6.461   6.796   3.895
 5207SOL    HW116520   6.448   6.891   3.865
 5207SOL    HW216521   6.510   6.795   3.982
 5208SOL     OW16522   5.992   1.754   0.545
 5208SOL    HW116523   5.967   1.848   0.569
 5208SOL    HW216524   5.951   1.691   0.611
 5209SOL     OW16525   5.908   6.096   3.419
 5209SOL    HW116526   5.878   6.187   3.392
 5209SOL    HW216527   5.853   6.063   3.495
 5210SOL     OW16528   5.697   4.224   0.304
 5210SOL    HW116529   5.758   4.213   0.383
 5210SOL    HW216530   5.750   4.248   0.223
 5211SOL     OW16531   5.810   2.352   5.207
 5211SOL    HW116532   5.809   2.281   5.137
 5211SOL    HW216533   5.787   2.440   5.164
 5212SOL     OW16534   0.611   3.390   0.047
 5212SOL    HW116535   0.641   3.480   0.015
 5212SOL    HW216536   0.686   3.325   0.037
 5213SOL     OW16537   3.844   3.498   3.222
 5213SOL    HW116538   3.821   3.583   3.269
 5213SOL    HW216539   3.940   3.500   3.194
 5214SOL     OW16540   5.706   3.380   5.435
 5214SOL    HW116541   5.607   3.372   5.422
 5214SOL    HW216542   5.724   3.416   5.526
 5215SOL     OW16543   0.521   3.757   5.035
 5215SOL    HW116544   0.589   3.732   5.104
 5215SOL    HW216545   0.521   3.688   4.962
 5216SOL     OW16546   5.429   5.229   1.194
 5216SOL    HW116547   5.478   5.157   1.244
 5216SOL    HW216548   5.365   5.188   1.130
 5217SOL     OW16549   4.664   6.148   3.178
 5217SOL    HW116550   4.721   6.087   3.233
 5217SOL    HW216551   4.672   6.124   3.082
 5218SOL     OW16552   6.432   0.308   0.438
 5218SOL    HW116553   6.522   0.348   0.453
 5218SOL    HW216554   6.369   0.342   0.508
 5219SOL     OW16555   3.357   1.034   5.339
 5219SOL    HW116556   3.414   0.954   5.322
 5219SOL    HW216557   3.296   1.049   5.261
 5220SOL     OW16558   2.225   5.513   4.598
 5220SOL    HW116559   2.169   5.541   4.521
 5220SOL    HW216560   2.241   5.591   4.659
 5221SOL     OW16561   6.204   5.628   1.162
 5221SOL    HW116562   6.143   5.550   1.149
 5221SOL    HW216563   6.299   5.597   1.162
 5222SOL     OW16564   6.489   3.630   1.385
 5222SOL    HW116565   6.523   3.655   1.295
 5222SOL    HW216566   6.535   3.546   1.416
 5223SOL     OW16567   0.122   3.146   0.592
 5223SOL    HW116568   0.116   3.238   0.631
 5223SOL    HW216569   0.050   3.134   0.523
 5224SOL     OW16570   0.236   2.068   4.763
 5224SOL    HW116571   0.283   2.140   4.712
 5224SOL    HW216572   0.157   2.036   4.711
 5225SOL     OW16573   6.995   1.565   4.141
 5225SOL    HW116574   0.018   1.640   4.093
 5225SOL    HW216575   0.033   1.485   4.141
 5226SOL     OW16576   0.488   6.387   3.838
 5226SOL    HW116577   0.554   6.316   3.863
 5226SOL    HW216578   0.443   6.362   3.752
 5227SOL     OW16579   0.397   3.892   5.544
 5227SOL    HW116580   0.325   3.959   5.526
 5227SOL    HW216581   0.385   3.853   5.635
 5228SOL     OW16582   0.971   1.279   5.303
 5228SOL    HW116583   1.056   1.232   5.329
 5228SOL    HW216584   0.992   1.354   5.241
 5229SOL     OW16585   3.153   1.947   6.460
 5229SOL    HW116586   3.111   2.006   6.528
 5229SOL    HW216587   3.082   1.908   6.401
 5230SOL     OW16588   0.028   6.835   1.987
 5230SOL    HW116589   0.029   6.925   2.031
 5230SOL    HW216590   6.984   6.775   2.033
 5231SOL     OW16591   6.383   3.046   1.903
 5231SOL    HW116592   6.462   3.036   1.964
 5231SOL    HW216593   6.325   3.120   1.937
 5232SOL     OW16594   2.339   2.624   6.060
 5232SOL    HW116595   2.268   2.636   6.129
 5232SOL    HW216596   2.302   2.572   5.982
 5233SOL     OW16597   2.782   6.280   2.603
 5233SOL    HW116598   2.697   6.308   2.558
 5233SOL    HW216599   2.860   6.308   2.547
 5234SOL     OW16600   3.423   2.195   6.498
 5234SOL    HW116601   3.462   2.188   6.406
 5234SOL    HW216602   3.428   2.105   6.543
 5235SOL     OW16603   2.509   1.903   1.544
 5235SOL    HW116604   2.555   1.831   1.597
 5235SOL    HW216605   2.550   1.908   1.453
 5236SOL     OW16606   3.118   5.001   1.348
 5236SOL    HW116607   3.193   5.058   1.384
 5236SOL    HW216608   3.090   4.935   1.418
 5237SOL     OW16609   1.926   2.269   2.619
 5237SOL    HW116610   1.886   2.209   2.689
 5237SOL    HW216611   2.024   2.277   2.634
 5238SOL     OW16612   0.539   6.812   2.584
 5238SOL    HW116613   0.484   6.746   2.634
 5238SOL    HW216614   0.581   6.876   2.648
 5239SOL     OW16615   2.484   3.690   1.132
 5239SOL    HW116616   2.520   3.602   1.099
 5239SOL    HW216617   2.495   3.759   1.061
 5240SOL     OW16618   2.357   4.081   5.657
 5240SOL    HW116619   2.454   4.058   5.648
 5240SOL    HW216620   2.309   4.054   5.574
 5241SOL     OW16621   0.951   6.628   2.483
 5241SOL    HW116622   1.045   6.660   2.469
 5241SOL    HW216623   0.947   6.574   2.568
 5242SOL     OW16624   4.481   1.081   6.532
 5242SOL    HW116625   4.565   1.135   6.535
 5242SOL    HW216626   4.463   1.053   6.437
 5243SOL     OW16627   2.643   6.073   2.112
 5243SOL    HW116628   2.640   6.172   2.117
 5243SOL    HW216629   2.552   6.038   2.086
 5244SOL     OW16630   4.912   1.287   0.209
 5244SOL    HW116631   4.911   1.264   0.306
 5244SOL    HW216632   4.952   1.378   0.196
 5245SOL     OW16633   3.390   3.976   1.567
 5245SOL    HW116634   3.296   3.941   1.554
 5245SOL    HW216635   3.402   4.060   1.513
 5246SOL     OW16636   6.526   4.085   6.212
 5246SOL    HW116637   6.450   4.021   6.226
 5246SOL    HW216638   6.499   4.153   6.144
 5247SOL     OW16639   3.979   1.716   6.229
 5247SOL    HW116640   3.987   1.756   6.320
 5247SOL    HW216641   3.897   1.752   6.184
 5248SOL     OW16642   5.490   1.049   3.673
 5248SOL    HW116643   5.475   0.952   3.652
 5248SOL    HW216644   5.562   1.057   3.742
 5249SOL     OW16645   0.429   4.723   0.476
 5249SOL    HW116646   0.357   4.659   0.448
 5249SOL    HW216647   0.423   4.805   0.420
 5250SOL     OW16648   2.043   5.363   1.195
 5250SOL    HW116649   2.017   5.425   1.121
 5250SOL    HW216650   1.960   5.331   1.242
 5251SOL     OW16651   0.532   5.052   0.645
 5251SOL    HW116652   0.611   4.991   0.641
 5251SOL    HW216653   0.481   5.044   0.559
 5252SOL     OW16654   3.739   6.164   2.370
 5252SOL    HW116655   3.745   6.236   2.439
 5252SOL    HW216656   3.731   6.206   2.280
 5253SOL     OW16657   6.678   6.089   4.733
 5253SOL    HW116658   6.586   6.055   4.715
 5253SOL    HW216659   6.721   6.035   4.805
 5254SOL     OW16660   5.036   6.423   3.407
 5254SOL    HW116661   4.970   6.412   3.333
 5254SOL    HW216662   5.071   6.517   3.407
 5255SOL     OW16663   6.371   1.561   5.012
 5255SOL    HW116664   6.426   1.486   5.049
 5255SOL    HW216665   6.427   1.643   5.003
 5256SOL     OW16666   6.749   1.523   2.246
 5256SOL    HW116667   6.767   1.557   2.153
 5256SOL    HW216668   6.658   1.481   2.249
 5257SOL     OW16669   4.203   1.636   6.078
 5257SOL    HW116670   4.203   1.536   6.079
 5257SOL    HW216671   4.156   1.670   6.158
 5258SOL     OW16672   4.265   1.281   3.868
 5258SOL    HW116673   4.285   1.375   3.841
 5258SOL    HW216674   4.349   1.227   3.868
 5259SOL     OW16675   6.161   4.818   3.693
 5259SOL    HW116676   6.185   4.771   3.778
 5259SOL    HW216677   6.242   4.828   3.636
 5260SOL     OW16678   1.789   0.510   0.988
 5260SOL    HW116679   1.802   0.588   0.926
 5260SOL    HW216680   1.806   0.425   0.939
 5261SOL     OW16681   5.533   4.787   6.509
 5261SOL    HW116682   5.618   4.734   6.508
 5261SOL    HW216683   5.478   4.761   6.588
 5262SOL     OW16684   1.628   1.567   2.739
 5262SOL    HW116685   1.634   1.587   2.641
 5262SOL    HW216686   1.668   1.643   2.790
 5263SOL     OW16687   1.644   6.574   2.247
 5263SOL    HW116688   1.598   6.503   2.301
 5263SOL    HW216689   1.673   6.535   2.159
 5264SOL     OW16690   6.557   1.571   1.700
 5264SOL    HW116691   6.565   1.661   1.743
 5264SOL    HW216692   6.626   1.563   1.628
 5265SOL     OW16693   6.917   5.000   5.317
 5265SOL    HW116694   7.000   4.949   5.293
 5265SOL    HW216695   6.881   4.968   5.405
 5266SOL     OW16696   1.631   0.420   6.368
 5266SOL    HW116697   1.698   0.451   6.436
 5266SOL    HW216698   1.539   0.444   6.399
 5267SOL     OW16699   5.042   2.428   4.326
 5267SOL    HW116700   4.972   2.426   4.255
 5267SOL    HW216701   5.088   2.517   4.324
 5268SOL     OW16702   5.481   0.305   5.916
 5268SOL    HW116703   5.541   0.365   5.969
 5268SOL    HW216704   5.515   0.211   5.921
 5269SOL     OW16705   0.292   6.975   3.771
 5269SOL    HW116706   0.216   6.995   3.833
 5269SOL    HW216707   0.258   6.974   3.677
 5270SOL     OW16708   0.792   1.256   6.298
 5270SOL    HW116709   0.876   1.237   6.349
 5270SOL    HW216710   0.717   1.271   6.363
 5271SOL     OW16711   1.141   5.110   3.057
 5271SOL    HW116712   1.110   5.205   3.061
 5271SOL    HW216713   1.098   5.058   3.131
 5272SOL     OW16714   4.430   7.017   6.905
 5272SOL    HW116715   4.484   6.934   6.897
 5272SOL    HW216716   4.459   0.061   6.835
 5273SOL     OW16717   2.363   1.613   2.525
 5273SOL    HW116718   2.358   1.525   2.479
 5273SOL    HW216719   2.458   1.636   2.544
 5274SOL     OW16720   5.199   4.992   1.230
 5274SOL    HW116721   5.212   5.048   1.148
 5274SOL    HW216722   5.277   4.931   1.241
 5275SOL     OW16723   4.790   2.150   6.531
 5275SOL    HW116724   4.732   2.180   6.607
 5275SOL    HW216725   4.735   2.145   6.447
 5276SOL     OW16726   4.388   6.446   1.998
 5276SOL    HW116727   4.297   6.434   2.037
 5276SOL    HW216728   4.404   6.543   1.978
 5277SOL     OW16729   1.834   3.235   1.994
 5277SOL    HW116730   1.914   3.177   1.978
 5277SOL    HW216731   1.861   3.331   1.990
 5278SOL     OW16732   4.327   3.554   1.579
 5278SOL    HW116733   4.373   3.641   1.599
 5278SOL    HW216734   4.366   3.513   1.497
 5279SOL     OW16735   1.762   6.149   2.351
 5279SOL    HW116736   1.792   6.053   2.355
 5279SOL    HW216737   1.788   6.196   2.435
 5280SOL     OW16738   4.359   6.933   5.558
 5280SOL    HW116739   4.437   6.951   5.499
 5280SOL    HW216740   4.306   7.016   5.570
 5281SOL     OW16741   6.996   2.906   2.924
 5281SOL    HW116742   6.939   2.909   3.007
 5281SOL    HW216743   0.059   2.956   2.941
 5282SOL     OW16744   5.039   1.280   1.787
 5282SOL    HW116745   5.117   1.331   1.823
 5282SOL    HW216746   5.066   1.186   1.767
 5283SOL     OW16747   5.600   5.344   6.126
 5283SOL    HW116748   5.605   5.246   6.107
 5283SOL    HW216749   5.689   5.386   6.106
 5284SOL     OW16750   5.137   2.403   3.380
 5284SOL    HW116751   5.182   2.422   3.467
 5284SOL    HW216752   5.188   2.446   3.306
 5285SOL     OW16753   3.830   5.729   2.297
 5285SOL    HW116754   3.889   5.651   2.316
 5285SOL    HW216755   3.738   5.711   2.332
 5286SOL     OW16756   2.689   5.238   2.093
 5286SOL    HW116757   2.633   5.244   2.010
 5286SOL    HW216758   2.757   5.167   2.082
 5287SOL     OW16759   0.676   1.929   1.846
 5287SOL    HW116760   0.695   1.918   1.943
 5287SOL    HW216761   0.593   1.877   1.822
 5288SOL     OW16762   4.338   1.161   0.600
 5288SOL    HW116763   4.314   1.133   0.507
 5288SOL    HW216764   4.434   1.190   0.602
 5289SOL     OW16765   2.502   6.101   0.818
 5289SOL    HW116766   2.516   6.014   0.867
 5289SOL    HW216767   2.512   6.177   0.882
 5290SOL     OW16768   4.691   6.042   0.798
 5290SOL    HW116769   4.767   6.034   0.863
 5290SOL    HW216770   4.665   6.138   0.789
 5291SOL     OW16771   1.539   4.997   6.599
 5291SOL    HW116772   1.541   4.898   6.614
 5291SOL    HW216773   1.550   5.017   6.502
 5292SOL     OW16774   5.130   2.301   6.619
 5292SOL    HW116775   5.092   2.373   6.561
 5292SOL    HW216776   5.084   2.302   6.708
 5293SOL     OW16777   1.301   1.082   4.072
 5293SOL    HW116778   1.237   1.152   4.102
 5293SOL    HW216779   1.392   1.101   4.110
 5294SOL     OW16780   4.842   2.439   5.277
 5294SOL    HW116781   4.774   2.367   5.286
 5294SOL    HW216782   4.828   2.507   5.349
 5295SOL     OW16783   5.737   1.136   2.125
 5295SOL    HW116784   5.735   1.173   2.217
 5295SOL    HW216785   5.650   1.155   2.079
 5296SOL     OW16786   0.265   3.511   0.485
 5296SOL    HW116787   0.308   3.506   0.575
 5296SOL    HW216788   0.261   3.419   0.445
 5297SOL     OW16789   1.414   2.810   2.415
 5297SOL    HW116790   1.456   2.900   2.404
 5297SOL    HW216791   1.474   2.753   2.472
 5298SOL     OW16792   1.348   5.673   1.638
 5298SOL    HW116793   1.291   5.612   1.582
 5298SOL    HW216794   1.352   5.763   1.595
 5299SOL     OW16795   3.349   0.456   1.544
 5299SOL    HW116796   3.305   0.521   1.606
 5299SOL    HW216797   3.422   0.408   1.592
 5300SOL     OW16798   6.642   5.238   3.715
 5300SOL    HW116799   6.665   5.310   3.649
 5300SOL    HW216800   6.543   5.225   3.717
 5301SOL     OW16801   4.824   0.307   0.425
 5301SOL    HW116802   4.740   0.356   0.446
 5301SOL    HW216803   4.882   0.303   0.506
 5302SOL     OW16804   6.526   4.543   3.719
 5302SOL    HW116805   6.537   4.451   3.680
 5302SOL    HW216806   6.435   4.578   3.697
 5303SOL     OW16807   0.866   5.437   3.114
 5303SOL    HW116808   0.801   5.465   3.184
 5303SOL    HW216809   0.895   5.518   3.062
 5304SOL     OW16810   4.987   2.150   5.012
 5304SOL    HW116811   5.012   2.144   5.108
 5304SOL    HW216812   4.888   2.156   5.003
 5305SOL     OW16813   2.426   0.961   2.757
 5305SOL    HW116814   2.486   1.042   2.759
 5305SOL    HW216815   2.356   0.973   2.687
 5306SOL     OW16816   2.830   0.100   4.710
 5306SOL    HW116817   2.768   0.071   4.637
 5306SOL    HW216818   2.923   0.070   4.687
 5307SOL     OW16819   4.578   6.789   6.869
 5307SOL    HW116820   4.637   6.803   6.790
 5307SOL    HW216821   4.512   6.717   6.849
 5308SOL     OW16822   6.990   1.326   2.260
 5308SOL    HW116823   7.019   1.347   2.166
 5308SOL    HW216824   6.945   1.406   2.300
 5309SOL     OW16825   3.456   4.196   4.624
 5309SOL    HW116826   3.383   4.186   4.557
 5309SOL    HW216827   3.542   4.161   4.586
 5310SOL     OW16828   5.609   1.867   0.502
 5310SOL    HW116829   5.608   1.944   0.565
 5310SOL    HW216830   5.609   1.901   0.408
 5311SOL     OW16831   1.333   6.277   6.865
 5311SOL    HW116832   1.321   6.233   6.954
 5311SOL    HW216833   1.423   6.255   6.828
 5312SOL     OW16834   0.296   2.872   1.671
 5312SOL    HW116835   0.301   2.777   1.639
 5312SOL    HW216836   0.301   2.873   1.771
 5313SOL     OW16837   1.290   6.067   0.690
 5313SOL    HW116838   1.389   6.058   0.681
 5313SOL    HW216839   1.245   5.988   0.649
 5314SOL     OW16840   3.705   4.805   1.021
 5314SOL    HW116841   3.696   4.904   1.016
 5314SOL    HW216842   3.778   4.775   0.960
 5315SOL     OW16843   5.203   2.623   1.694
 5315SOL    HW116844   5.226   2.608   1.790
 5315SOL    HW216845   5.129   2.691   1.687
 5316SOL     OW16846   5.930   5.035   4.573
 5316SOL    HW116847   5.919   5.109   4.507
 5316SOL    HW216848   5.841   4.993   4.592
 5317SOL     OW16849   5.986   5.442   3.035
 5317SOL    HW116850   5.971   5.527   2.985
 5317SOL    HW216851   5.984   5.460   3.133
 5318SOL     OW16852   0.624   2.220   4.472
 5318SOL    HW116853   0.536   2.268   4.466
 5318SOL    HW216854   0.622   2.159   4.551
 5319SOL     OW16855   3.481   0.150   1.169
 5319SOL    HW116856   3.441   0.067   1.208
 5319SOL    HW216857   3.411   0.221   1.162
 5320SOL     OW16858   6.399   3.911   5.316
 5320SOL    HW116859   6.447   3.998   5.323
 5320SOL    HW216860   6.329   3.905   5.387
 5321SOL     OW16861   1.563   5.077   6.318
 5321SOL    HW116862   1.530   5.001   6.262
 5321SOL    HW216863   1.663   5.081   6.314
 5322SOL     OW16864   2.807   6.164   0.617
 5322SOL    HW116865   2.843   6.071   0.619
 5322SOL    HW216866   2.723   6.167   0.562
 5323SOL     OW16867   5.691   3.682   0.394
 5323SOL    HW116868   5.788   3.657   0.397
 5323SOL    HW216869   5.636   3.603   0.421
 5324SOL     OW16870   3.793   3.320   1.552
 5324SOL    HW116871   3.812   3.390   1.621
 5324SOL    HW216872   3.709   3.344   1.503
 5325SOL     OW16873   4.503   6.166   4.524
 5325SOL    HW116874   4.426   6.158   4.461
 5325SOL    HW216875   4.491   6.102   4.600
 5326SOL     OW16876   0.210   0.076   2.405
 5326SOL    HW116877   0.238   0.159   2.452
 5326SOL    HW216878   0.124   0.091   2.358
 5327SOL     OW16879   6.812   0.409   4.177
 5327SOL    HW116880   6.742   0.369   4.235
 5327SOL    HW216881   6.772   0.435   4.089
 5328SOL     OW16882   4.109   4.901   0.381
 5328SOL    HW116883   4.095   4.880   0.478
 5328SOL    HW216884   4.099   4.999   0.365
 5329SOL     OW16885   6.930   5.843   0.267
 5329SOL    HW116886   6.849   5.791   0.241
 5329SOL    HW216887   6.932   5.854   0.367
 5330SOL     OW16888   3.676   4.858   0.229
 5330SOL    HW116889   3.751   4.824   0.171
 5330SOL    HW216890   3.685   4.957   0.240
 5331SOL     OW16891   5.153   2.737   6.552
 5331SOL    HW116892   5.197   2.825   6.573
 5331SOL    HW216893   5.108   2.703   6.635
 5332SOL     OW16894   5.516   3.300   6.827
 5332SOL    HW116895   5.463   3.321   6.745
 5332SOL    HW216896   5.577   3.223   6.809
 5333SOL     OW16897   1.622   1.950   4.557
 5333SOL    HW116898   1.673   1.907   4.633
 5333SOL    HW216899   1.525   1.931   4.568
 5334SOL     OW16900   3.224   6.127   1.786
 5334SOL    HW116901   3.196   6.160   1.876
 5334SOL    HW216902   3.193   6.190   1.715
 5335SOL     OW16903   0.424   4.766   1.625
 5335SOL    HW116904   0.412   4.863   1.606
 5335SOL    HW216905   0.334   4.721   1.626
 5336SOL     OW16906   1.709   2.972   5.130
 5336SOL    HW116907   1.739   3.068   5.138
 5336SOL    HW216908   1.778   2.920   5.079
 5337SOL     OW16909   0.187   4.119   1.000
 5337SOL    HW116910   0.277   4.138   0.962
 5337SOL    HW216911   0.141   4.204   1.023
 5338SOL     OW16912   6.551   4.082   0.451
 5338SOL    HW116913   6.584   4.012   0.388
 5338SOL    HW216914   6.481   4.043   0.511
 5339SOL     OW16915   5.416   3.259   2.144
 5339SOL    HW116916   5.442   3.169   2.109
 5339SOL    HW216917   5.319   3.259   2.165
 5340SOL     OW16918   4.656   3.443   1.704
 5340SOL    HW116919   4.563   3.407   1.700
 5340SOL    HW216920   4.721   3.367   1.704
 5341SOL     OW16921   4.558   4.650   3.601
 5341SOL    HW116922   4.579   4.578   3.536
 5341SOL    HW216923   4.461   4.674   3.596
 5342SOL     OW16924   5.917   5.647   5.147
 5342SOL    HW116925   5.988   5.698   5.098
 5342SOL    HW216926   5.923   5.666   5.245
 5343SOL     OW16927   3.814   3.213   6.271
 5343SOL    HW116928   3.722   3.198   6.307
 5343SOL    HW216929   3.855   3.124   6.248
 5344SOL     OW16930   0.326   1.616   6.865
 5344SOL    HW116931   0.313   1.564   6.780
 5344SOL    HW216932   0.381   1.697   6.846
 5345SOL     OW16933   5.028   1.436   6.355
 5345SOL    HW116934   4.998   1.480   6.439
 5345SOL    HW216935   5.099   1.368   6.376
 5346SOL     OW16936   3.009   5.432   3.096
 5346SOL    HW116937   3.100   5.466   3.077
 5346SOL    HW216938   2.965   5.489   3.165
 5347SOL     OW16939   5.449   1.439   4.207
 5347SOL    HW116940   5.536   1.488   4.198
 5347SOL    HW216941   5.384   1.495   4.259
 5348SOL     OW16942   5.045   2.880   4.879
 5348SOL    HW116943   5.007   2.967   4.849
 5348SOL    HW216944   5.003   2.806   4.825
 5349SOL     OW16945   1.012   3.507   2.021
 5349SOL    HW116946   0.931   3.451   2.007
 5349SOL    HW216947   1.051   3.533   1.933
 5350SOL     OW16948   0.926   6.541   6.770
 5350SOL    HW116949   0.918   6.640   6.754
 5350SOL    HW216950   0.879   6.517   6.855
 5351SOL     OW16951   6.537   5.819   3.229
 5351SOL    HW116952   6.505   5.902   3.273
 5351SOL    HW216953   6.617   5.784   3.277
 5352SOL     OW16954   1.284   2.855   6.049
 5352SOL    HW116955   1.227   2.936   6.067
 5352SOL    HW216956   1.315   2.857   5.954
 5353SOL     OW16957   4.228   4.796   3.275
 5353SOL    HW116958   4.273   4.877   3.314
 5353SOL    HW216959   4.285   4.757   3.203
 5354SOL     OW16960   3.567   5.786   1.456
 5354SOL    HW116961   3.618   5.759   1.375
 5354SOL    HW216962   3.593   5.729   1.534
 5355SOL     OW16963   4.913   5.791   5.233
 5355SOL    HW116964   4.856   5.726   5.282
 5355SOL    HW216965   5.006   5.755   5.226
 5356SOL     OW16966   1.152   6.247   0.836
 5356SOL    HW116967   1.186   6.175   0.776
 5356SOL    HW216968   1.063   6.278   0.804
 5357SOL     OW16969   6.903   3.868   2.703
 5357SOL    HW116970   6.881   3.782   2.749
 5357SOL    HW216971   6.820   3.923   2.694
 5358SOL     OW16972   5.177   1.247   6.532
 5358SOL    HW116973   5.226   1.179   6.479
 5358SOL    HW216974   5.093   1.207   6.570
 5359SOL     OW16975   3.518   2.494   6.950
 5359SOL    HW116976   3.606   2.543   6.947
 5359SOL    HW216977   3.469   2.511   6.864
 5360SOL     OW16978   5.320   5.168   3.854
 5360SOL    HW116979   5.308   5.223   3.936
 5360SOL    HW216980   5.350   5.076   3.880
 5361SOL     OW16981   1.390   4.999   3.177
 5361SOL    HW116982   1.481   4.996   3.134
 5361SOL    HW216983   1.321   5.012   3.106
 5362SOL     OW16984   5.883   1.531   2.969
 5362SOL    HW116985   5.958   1.466   2.953
 5362SOL    HW216986   5.805   1.483   3.008
 5363SOL     OW16987   5.297   5.790   3.569
 5363SOL    HW116988   5.321   5.696   3.545
 5363SOL    HW216989   5.339   5.853   3.503
 5364SOL     OW16990   3.966   2.093   2.479
 5364SOL    HW116991   3.884   2.093   2.422
 5364SOL    HW216992   4.021   2.012   2.457
 5365SOL     OW16993   3.002   3.302   4.852
 5365SOL    HW116994   2.956   3.295   4.941
 5365SOL    HW216995   3.019   3.210   4.817
 5366SOL     OW16996   6.427   6.049   3.403
 5366SOL    HW116997   6.348   6.075   3.459
 5366SOL    HW216998   6.503   6.026   3.463
 5367SOL     OW16999   6.108   6.035   1.371
 5367SOL    HW117000   6.033   6.012   1.309
 5367SOL    HW217001   6.083   6.115   1.425
 5368SOL     OW17002   0.140   6.265   4.360
 5368SOL    HW117003   0.076   6.212   4.304
 5368SOL    HW217004   0.200   6.202   4.410
 5369SOL     OW17005   3.892   5.957   2.722
 5369SOL    HW117006   3.872   5.916   2.633
 5369SOL    HW217007   3.955   6.034   2.711
 5370SOL     OW17008   1.968   3.027   0.706
 5370SOL    HW117009   1.957   3.087   0.627
 5370SOL    HW217010   2.037   2.957   0.686
 5371SOL     OW17011   6.129   5.762   4.988
 5371SOL    HW117012   6.189   5.842   4.985
 5371SOL    HW217013   6.179   5.682   4.954
 5372SOL     OW17014   1.888   6.860   3.286
 5372SOL    HW117015   1.798   6.839   3.248
 5372SOL    HW217016   1.927   6.940   3.239
 5373SOL     OW17017   2.452   1.039   6.254
 5373SOL    HW117018   2.366   1.026   6.205
 5373SOL    HW217019   2.496   0.951   6.269
 5374SOL     OW17020   1.424   3.869   1.383
 5374SOL    HW117021   1.373   3.786   1.409
 5374SOL    HW217022   1.410   3.888   1.286
 5375SOL     OW17023   2.453   4.364   5.280
 5375SOL    HW117024   2.479   4.267   5.280
 5375SOL    HW217025   2.457   4.399   5.373
 5376SOL     OW17026   0.887   0.007   6.869
 5376SOL    HW117027   0.918   6.934   6.880
 5376SOL    HW217028   0.874   0.026   6.771
 5377SOL     OW17029   1.212   2.022   3.285
 5377SOL    HW117030   1.197   2.084   3.208
 5377SOL    HW217031   1.171   2.061   3.368
 5378SOL     OW17032   4.736   6.861   2.443
 5378SOL    HW117033   4.826   6.847   2.400
 5378SOL    HW217034   4.664   6.840   2.377
 5379SOL     OW17035   2.163   1.759   3.817
 5379SOL    HW117036   2.255   1.786   3.847
 5379SOL    HW217037   2.134   1.678   3.869
 5380SOL     OW17038   4.324   5.789   1.175
 5380SOL    HW117039   4.421   5.807   1.156
 5380SOL    HW217040   4.289   5.858   1.238
 5381SOL     OW17041   3.172   0.870   3.309
 5381SOL    HW117042   3.252   0.922   3.278
 5381SOL    HW217043   3.163   0.880   3.408
 5382SOL     OW17044   4.312   0.899   2.793
 5382SOL    HW117045   4.228   0.898   2.738
 5382SOL    HW217046   4.389   0.866   2.739
 5383SOL     OW17047   2.271   2.828   4.697
 5383SOL    HW117048   2.290   2.812   4.794
 5383SOL    HW217049   2.331   2.769   4.642
 5384SOL     OW17050   5.345   5.899   5.923
 5384SOL    HW117051   5.333   5.871   6.019
 5384SOL    HW217052   5.289   5.980   5.905
 5385SOL     OW17053   4.267   3.658   6.642
 5385SOL    HW117054   4.317   3.624   6.721
 5385SOL    HW217055   4.240   3.582   6.583
 5386SOL     OW17056   4.060   4.812   4.016
 5386SOL    HW117057   4.149   4.797   3.974
 5386SOL    HW217058   3.999   4.735   3.993
 5387SOL     OW17059   0.949   2.005   4.367
 5387SOL    HW117060   0.993   1.918   4.390
 5387SOL    HW217061   0.966   2.071   4.441
 5388SOL     OW17062   6.732   6.485   4.127
 5388SOL    HW117063   6.832   6.488   4.115
 5388SOL    HW217064   6.697   6.397   4.097
 5389SOL     OW17065   5.295   1.023   4.158
 5389SOL    HW117066   5.372   1.030   4.222
 5389SOL    HW217067   5.321   1.065   4.071
 5390SOL     OW17068   6.724   4.019   3.401
 5390SOL    HW117069   6.782   3.945   3.367
 5390SOL    HW217070   6.629   3.999   3.381
 5391SOL     OW17071   3.317   2.633   1.192
 5391SOL    HW117072   3.330   2.561   1.123
 5391SOL    HW217073   3.332   2.722   1.149
 5392SOL     OW17074   5.516   0.747   4.430
 5392SOL    HW117075   5.572   0.682   4.379
 5392SOL    HW217076   5.451   0.697   4.488
 5393SOL     OW17077   4.112   1.305   4.073
 5393SOL    HW117078   4.056   1.387   4.070
 5393SOL    HW217079   4.156   1.291   3.984
 5394SOL     OW17080   0.094   2.622   1.692
 5394SOL    HW117081   0.085   2.718   1.718
 5394SOL    HW217082   0.004   2.584   1.669
 5395SOL     OW17083   0.050   1.828   0.832
 5395SOL    HW117084   0.095   1.850   0.919
 5395SOL    HW217085   7.009   1.902   0.807
 5396SOL     OW17086   3.850   3.128   0.844
 5396SOL    HW117087   3.920   3.098   0.910
 5396SOL    HW217088   3.800   3.049   0.810
 5397SOL     OW17089   6.569   0.273   2.640
 5397SOL    HW117090   6.649   0.321   2.601
 5397SOL    HW217091   6.490   0.333   2.636
 5398SOL     OW17092   6.902   3.313   2.760
 5398SOL    HW117093   6.866   3.262   2.839
 5398SOL    HW217094   6.839   3.304   2.683
 5399SOL     OW17095   2.019   3.438   0.992
 5399SOL    HW117096   2.011   3.527   0.948
 5399SOL    HW217097   2.092   3.386   0.948
 5400SOL     OW17098   4.521   3.117   1.455
 5400SOL    HW117099   4.493   3.022   1.472
 5400SOL    HW217100   4.507   3.171   1.538
 5401SOL     OW17101   5.444   2.714   1.242
 5401SOL    HW117102   5.387   2.666   1.309
 5401SOL    HW217103   5.386   2.754   1.171
 5402SOL     OW17104   0.914   6.143   2.419
 5402SOL    HW117105   0.927   6.053   2.377
 5402SOL    HW217106   0.891   6.132   2.516
 5403SOL     OW17107   5.006   2.325   6.856
 5403SOL    HW117108   4.983   2.257   6.926
 5403SOL    HW217109   4.924   2.352   6.807
 5404SOL     OW17110   5.088   0.032   0.064
 5404SOL    HW117111   5.177   7.013   0.082
 5404SOL    HW217112   5.068   0.101   0.134
 5405SOL     OW17113   0.321   5.202   0.055
 5405SOL    HW117114   0.396   5.241   0.109
 5405SOL    HW217115   0.340   5.106   0.036
 5406SOL     OW17116   2.565   1.161   5.711
 5406SOL    HW117117   2.650   1.197   5.750
 5406SOL    HW217118   2.523   1.097   5.775
 5407SOL     OW17119   1.283   6.514   3.581
 5407SOL    HW117120   1.363   6.510   3.641
 5407SOL    HW217121   1.214   6.576   3.619
 5408SOL     OW17122   2.953   1.910   4.517
 5408SOL    HW117123   2.891   1.921   4.594
 5408SOL    HW217124   3.042   1.878   4.549
 5409SOL     OW17125   1.008   2.311   2.381
 5409SOL    HW117126   0.917   2.285   2.346
 5409SOL    HW217127   1.039   2.242   2.446
 5410SOL     OW17128   6.233   2.643   0.534
 5410SOL    HW117129   6.292   2.721   0.513
 5410SOL    HW217130   6.179   2.664   0.616
 5411SOL     OW17131   3.760   5.599   0.137
 5411SOL    HW117132   3.743   5.676   0.198
 5411SOL    HW217133   3.820   5.533   0.183
 5412SOL     OW17134   1.151   2.001   5.524
 5412SOL    HW117135   1.136   2.081   5.465
 5412SOL    HW217136   1.197   2.030   5.608
 5413SOL     OW17137   0.902   5.047   4.831
 5413SOL    HW117138   0.861   4.968   4.876
 5413SOL    HW217139   0.831   5.117   4.819
 5414SOL     OW17140   5.648   4.296   5.398
 5414SOL    HW117141   5.691   4.206   5.400
 5414SOL    HW217142   5.623   4.323   5.491
 5415SOL     OW17143   2.170   1.519   0.099
 5415SOL    HW117144   2.268   1.531   0.082
 5415SOL    HW217145   2.137   1.594   0.156
 5416SOL     OW17146   3.413   5.236   6.917
 5416SOL    HW117147   3.388   5.293   6.995
 5416SOL    HW217148   3.330   5.194   6.879
 5417SOL     OW17149   5.183   6.961   3.827
 5417SOL    HW117150   5.258   6.910   3.784
 5417SOL    HW217151   5.103   6.957   3.768
 5418SOL     OW17152   0.126   3.244   5.652
 5418SOL    HW117153   0.161   3.335   5.627
 5418SOL    HW217154   0.201   3.186   5.683
 5419SOL     OW17155   3.985   1.810   6.482
 5419SOL    HW117156   3.901   1.864   6.484
 5419SOL    HW217157   4.012   1.787   6.576
 5420SOL     OW17158   1.624   2.347   1.995
 5420SOL    HW117159   1.613   2.256   1.956
 5420SOL    HW217160   1.552   2.407   1.959
 5421SOL     OW17161   3.882   5.574   1.919
 5421SOL    HW117162   3.841   5.661   1.945
 5421SOL    HW217163   3.819   5.499   1.939
 5422SOL     OW17164   2.603   5.074   3.933
 5422SOL    HW117165   2.559   4.991   3.899
 5422SOL    HW217166   2.698   5.077   3.904
 5423SOL     OW17167   4.694   6.946   1.532
 5423SOL    HW117168   4.632   6.876   1.567
 5423SOL    HW217169   4.668   6.971   1.439
 5424SOL     OW17170   4.124   3.990   5.374
 5424SOL    HW117171   4.081   3.904   5.401
 5424SOL    HW217172   4.164   4.034   5.454
 5425SOL     OW17173   1.503   4.854   6.172
 5425SOL    HW117174   1.417   4.810   6.196
 5425SOL    HW217175   1.559   4.792   6.117
 5426SOL     OW17176   6.649   4.920   1.647
 5426SOL    HW117177   6.727   4.946   1.703
 5426SOL    HW217178   6.596   4.849   1.695
 5427SOL     OW17179   4.583   3.195   0.548
 5427SOL    HW117180   4.559   3.204   0.644
 5427SOL    HW217181   4.680   3.217   0.535
 5428SOL     OW17182   5.065   5.044   3.394
 5428SOL    HW117183   5.071   4.960   3.447
 5428SOL    HW217184   4.980   5.091   3.415
 5429SOL     OW17185   3.027   0.231   4.439
 5429SOL    HW117186   2.928   0.236   4.445
 5429SOL    HW217187   3.068   0.270   4.522
 5430SOL     OW17188   2.149   3.714   5.686
 5430SOL    HW117189   2.147   3.614   5.696
 5430SOL    HW217190   2.106   3.756   5.766
 5431SOL     OW17191   5.116   4.502   0.334
 5431SOL    HW117192   5.044   4.444   0.297
 5431SOL    HW217193   5.085   4.598   0.331
 5432SOL     OW17194   0.577   5.249   6.677
 5432SOL    HW117195   0.640   5.206   6.612
 5432SOL    HW217196   0.495   5.280   6.628
 5433SOL     OW17197   3.739   0.105   1.289
 5433SOL    HW117198   3.722   0.068   1.380
 5433SOL    HW217199   3.656   0.150   1.255
 5434SOL     OW17200   4.880   0.058   4.202
 5434SOL    HW117201   4.920   0.136   4.152
 5434SOL    HW217202   4.954   0.003   4.242
 5435SOL     OW17203   6.920   5.220   0.063
 5435SOL    HW117204   6.987   5.186   7.018
 5435SOL    HW217205   6.966   5.277   0.130
 5436SOL     OW17206   2.370   4.909   2.454
 5436SOL    HW117207   2.323   4.984   2.408
 5436SOL    HW217208   2.404   4.844   2.387
 5437SOL     OW17209   3.345   6.511   0.835
 5437SOL    HW117210   3.351   6.420   0.876
 5437SOL    HW217211   3.437   6.546   0.819
 5438SOL     OW17212   4.206   6.240   1.888
 5438SOL    HW117213   4.289   6.193   1.917
 5438SOL    HW217214   4.223   6.287   1.801
 5439SOL     OW17215   1.269   4.099   0.952
 5439SOL    HW117216   1.255   4.197   0.965
 5439SOL    HW217217   1.194   4.062   0.898
 5440SOL     OW17218   5.331   6.717   3.707
 5440SOL    HW117219   5.348   6.714   3.608
 5440SOL    HW217220   5.382   6.644   3.751
 5441SOL     OW17221   5.882   1.954   4.583
 5441SOL    HW117222   5.977   1.943   4.610
 5441SOL    HW217223   5.827   1.881   4.623
 5442SOL     OW17224   2.494   0.558   6.496
 5442SOL    HW117225   2.570   0.622   6.507
 5442SOL    HW217226   2.522   0.484   6.435
 5443SOL     OW17227   5.695   0.849   2.952
 5443SOL    HW117228   5.701   0.875   2.856
 5443SOL    HW217229   5.732   0.923   3.009
 5444SOL     OW17230   0.035   1.177   6.434
 5444SOL    HW117231   0.098   1.101   6.422
 5444SOL    HW217232   0.076   1.246   6.493
 5445SOL     OW17233   5.955   6.507   5.600
 5445SOL    HW117234   5.927   6.593   5.642
 5445SOL    HW217235   5.990   6.445   5.671
 5446SOL     OW17236   0.775   4.233   5.677
 5446SOL    HW117237   0.755   4.240   5.775
 5446SOL    HW217238   0.854   4.290   5.655
 5447SOL     OW17239   6.612   1.835   1.796
 5447SOL    HW117240   6.695   1.846   1.740
 5447SOL    HW217241   6.551   1.913   1.780
 5448SOL     OW17242   5.643   5.299   2.554
 5448SOL    HW117243   5.575   5.337   2.492
 5448SOL    HW217244   5.626   5.201   2.567
 5449SOL     OW17245   2.189   0.752   1.033
 5449SOL    HW117246   2.233   0.830   0.988
 5449SOL    HW217247   2.108   0.784   1.082
 5450SOL     OW17248   4.790   5.566   2.258
 5450SOL    HW117249   4.808   5.495   2.190
 5450SOL    HW217250   4.767   5.652   2.212
 5451SOL     OW17251   6.384   6.561   3.518
 5451SOL    HW117252   6.318   6.515   3.459
 5451SOL    HW217253   6.445   6.617   3.461
 5452SOL     OW17254   2.173   4.169   2.805
 5452SOL    HW117255   2.165   4.256   2.854
 5452SOL    HW217256   2.160   4.093   2.869
 5453SOL     OW17257   6.516   4.656   4.441
 5453SOL    HW117258   6.581   4.655   4.365
 5453SOL    HW217259   6.425   4.682   4.407
 5454SOL     OW17260   6.162   4.337   3.232
 5454SOL    HW117261   6.232   4.398   3.195
 5454SOL    HW217262   6.110   4.297   3.156
 5455SOL     OW17263   2.717   1.934   3.313
 5455SOL    HW117264   2.718   1.857   3.377
 5455SOL    HW217265   2.753   1.904   3.225
 5456SOL     OW17266   5.886   2.470   0.548
 5456SOL    HW117267   5.902   2.568   0.557
 5456SOL    HW217268   5.921   2.423   0.630
 5457SOL     OW17269   6.335   1.285   6.565
 5457SOL    HW117270   6.364   1.370   6.521
 5457SOL    HW217271   6.305   1.221   6.495
 5458SOL     OW17272   5.437   4.311   6.886
 5458SOL    HW117273   5.354   4.259   6.865
 5458SOL    HW217274   5.437   4.335   6.983
 5459SOL     OW17275   2.068   3.176   4.793
 5459SOL    HW117276   1.969   3.172   4.782
 5459SOL    HW217277   2.090   3.232   4.874
 5460SOL     OW17278   0.720   0.578   1.538
 5460SOL    HW117279   0.798   0.596   1.477
 5460SOL    HW217280   0.635   0.598   1.490
 5461SOL     OW17281   6.223   1.231   6.085
 5461SOL    HW117282   6.266   1.146   6.052
 5461SOL    HW217283   6.130   1.211   6.115
 5462SOL     OW17284   5.160   4.829   6.144
 5462SOL    HW117285   5.142   4.756   6.210
 5462SOL    HW217286   5.103   4.815   6.063
 5463SOL     OW17287   0.698   3.565   5.687
 5463SOL    HW117288   0.608   3.521   5.687
 5463SOL    HW217289   0.686   3.664   5.678
 5464SOL     OW17290   1.810   5.302   5.153
 5464SOL    HW117291   1.840   5.322   5.246
 5464SOL    HW217292   1.866   5.354   5.088
 5465SOL     OW17293   0.531   0.097   4.854
 5465SOL    HW117294   0.519   0.020   4.916
 5465SOL    HW217295   0.593   0.072   4.780
 5466SOL     OW17296   5.672   1.593   4.321
 5466SOL    HW117297   5.707   1.673   4.271
 5466SOL    HW217298   5.634   1.624   4.408
 5467SOL     OW17299   4.880   3.420   4.150
 5467SOL    HW117300   4.858   3.474   4.231
 5467SOL    HW217301   4.962   3.457   4.107
 5468SOL     OW17302   0.071   1.818   1.467
 5468SOL    HW117303   0.136   1.747   1.439
 5468SOL    HW217304   0.082   1.898   1.407
 5469SOL     OW17305   3.653   0.915   4.468
 5469SOL    HW117306   3.705   0.961   4.397
 5469SOL    HW217307   3.555   0.920   4.446
 5470SOL     OW17308   4.463   4.982   4.279
 5470SOL    HW117309   4.499   4.941   4.363
 5470SOL    HW217310   4.517   4.949   4.201
 5471SOL     OW17311   5.203   0.848   2.687
 5471SOL    HW117312   5.280   0.893   2.640
 5471SOL    HW217313   5.227   0.753   2.707
 5472SOL     OW17314   3.048   3.275   6.948
 5472SOL    HW117315   3.125   3.270   7.011
 5472SOL    HW217316   2.970   3.225   6.986
 5473SOL     OW17317   2.926   5.123   1.757
 5473SOL    HW117318   3.008   5.180   1.765
 5473SOL    HW217319   2.899   5.092   1.848
 5474SOL     OW17320   1.132   5.210   2.507
 5474SOL    HW117321   1.171   5.172   2.591
 5474SOL    HW217322   1.046   5.255   2.529
 5475SOL     OW17323   1.074   0.867   4.931
 5475SOL    HW117324   1.065   0.855   5.030
 5475SOL    HW217325   0.984   0.864   4.889
 5476SOL     OW17326   2.244   6.794   5.124
 5476SOL    HW117327   2.255   6.727   5.049
 5476SOL    HW217328   2.312   6.866   5.114
 5477SOL     OW17329   1.939   3.484   4.117
 5477SOL    HW117330   1.984   3.505   4.204
 5477SOL    HW217331   1.844   3.456   4.135
 5478SOL     OW17332   5.257   4.692   5.690
 5478SOL    HW117333   5.297   4.784   5.687
 5478SOL    HW217334   5.252   4.655   5.597
 5479SOL     OW17335   5.379   1.934   4.394
 5479SOL    HW117336   5.335   1.981   4.318
 5479SOL    HW217337   5.478   1.944   4.386
 5480SOL     OW17338   1.545   3.366   4.385
 5480SOL    HW117339   1.509   3.275   4.367
 5480SOL    HW217340   1.627   3.360   4.442
 5481SOL     OW17341   4.271   1.668   6.461
 5481SOL    HW117342   4.198   1.602   6.447
 5481SOL    HW217343   4.256   1.747   6.401
 5482SOL     OW17344   5.383   3.319   1.870
 5482SOL    HW117345   5.289   3.283   1.864
 5482SOL    HW217346   5.415   3.315   1.964
 5483SOL     OW17347   0.011   2.849   6.899
 5483SOL    HW117348   0.006   2.797   6.985
 5483SOL    HW217349   6.942   2.884   6.876
 5484SOL     OW17350   6.517   6.734   4.840
 5484SOL    HW117351   6.512   6.724   4.740
 5484SOL    HW217352   6.430   6.770   4.874
 5485SOL     OW17353   3.810   0.060   4.989
 5485SOL    HW117354   3.761   0.133   5.036
 5485SOL    HW217355   3.746   7.011   4.961
 5486SOL     OW17356   1.028   0.802   4.222
 5486SOL    HW117357   1.061   0.866   4.153
 5486SOL    HW217358   1.038   0.708   4.189
 5487SOL     OW17359   4.489   5.215   0.613
 5487SOL    HW117360   4.417   5.152   0.584
 5487SOL    HW217361   4.575   5.164   0.624
 5488SOL     OW17362   5.052   1.096   5.864
 5488SOL    HW117363   4.968   1.146   5.885
 5488SOL    HW217364   5.051   1.069   5.768
 5489SOL     OW17365   0.084   4.463   3.082
 5489SOL    HW117366   0.080   4.436   2.986
 5489SOL    HW217367   0.016   4.534   3.099
 5490SOL     OW17368   2.197   2.513   7.019
 5490SOL    HW117369   2.214   2.472   0.086
 5490SOL    HW217370   2.284   2.526   6.971
 5491SOL     OW17371   0.587   5.746   1.775
 5491SOL    HW117372   0.503   5.745   1.830
 5491SOL    HW217373   0.606   5.840   1.745
 5492SOL     OW17374   1.918   1.142   5.306
 5492SOL    HW117375   1.884   1.099   5.223
 5492SOL    HW217376   1.844   1.152   5.372
 5493SOL     OW17377   3.141   2.929   6.886
 5493SOL    HW117378   3.100   2.943   6.796
 5493SOL    HW217379   3.072   2.942   6.957
 5494SOL     OW17380   5.957   2.896   2.492
 5494SOL    HW117381   5.895   2.818   2.493
 5494SOL    HW217382   6.014   2.894   2.574
 5495SOL     OW17383   3.741   2.873   2.990
 5495SOL    HW117384   3.709   2.884   2.896
 5495SOL    HW217385   3.776   2.780   3.003
 5496SOL     OW17386   3.407   5.514   1.156
 5496SOL    HW117387   3.464   5.489   1.234
 5496SOL    HW217388   3.465   5.546   1.081
 5497SOL     OW17389   6.330   6.866   1.808
 5497SOL    HW117390   6.338   6.795   1.739
 5497SOL    HW217391   6.240   6.910   1.801
 5498SOL     OW17392   4.186   0.158   5.336
 5498SOL    HW117393   4.277   0.188   5.306
 5498SOL    HW217394   4.175   0.176   5.434
 5499SOL     OW17395   0.254   1.438   4.515
 5499SOL    HW117396   0.331   1.376   4.528
 5499SOL    HW217397   0.169   1.391   4.541
 5500SOL     OW17398   2.176   5.653   1.167
 5500SOL    HW117399   2.164   5.573   1.108
 5500SOL    HW217400   2.203   5.732   1.113
 5501SOL     OW17401   1.879   0.146   2.681
 5501SOL    HW117402   1.848   0.219   2.621
 5501SOL    HW217403   1.901   0.184   2.771
 5502SOL     OW17404   4.731   3.654   0.222
 5502SOL    HW117405   4.760   3.569   0.177
 5502SOL    HW217406   4.670   3.705   0.161
 5503SOL     OW17407   0.661   6.087   4.660
 5503SOL    HW117408   0.660   6.063   4.563
 5503SOL    HW217409   0.622   6.012   4.713
 5504SOL     OW17410   3.486   2.105   4.386
 5504SOL    HW117411   3.466   2.039   4.314
 5504SOL    HW217412   3.402   2.129   4.435
 5505SOL     OW17413   3.237   4.854   5.873
 5505SOL    HW117414   3.198   4.895   5.790
 5505SOL    HW217415   3.297   4.777   5.847
 5506SOL     OW17416   6.916   0.055   5.539
 5506SOL    HW117417   6.926   0.154   5.523
 5506SOL    HW217418   6.830   0.024   5.500
 5507SOL     OW17419   3.355   5.553   4.382
 5507SOL    HW117420   3.293   5.526   4.308
 5507SOL    HW217421   3.302   5.575   4.464
 5508SOL     OW17422   2.573   0.700   5.925
 5508SOL    HW117423   2.509   0.628   5.952
 5508SOL    HW217424   2.603   0.685   5.831
 5509SOL     OW17425   6.172   5.976   6.960
 5509SOL    HW117426   6.095   5.947   6.904
 5509SOL    HW217427   6.210   6.061   6.923
 5510SOL     OW17428   5.273   0.350   6.088
 5510SOL    HW117429   5.348   0.340   6.023
 5510SOL    HW217430   5.300   0.414   6.160
 5511SOL     OW17431   0.272   1.571   1.894
 5511SOL    HW117432   0.237   1.634   1.824
 5511SOL    HW217433   0.245   1.604   1.985
 5512SOL     OW17434   0.612   6.750   0.793
 5512SOL    HW117435   0.610   6.716   0.887
 5512SOL    HW217436   0.707   6.770   0.767
 5513SOL     OW17437   3.565   5.381   4.490
 5513SOL    HW117438   3.541   5.289   4.520
 5513SOL    HW217439   3.484   5.439   4.490
 5514SOL     OW17440   6.062   5.568   3.598
 5514SOL    HW117441   6.081   5.663   3.571
 5514SOL    HW217442   6.112   5.547   3.682
 5515SOL     OW17443   6.588   3.151   2.412
 5515SOL    HW117444   6.663   3.130   2.474
 5515SOL    HW217445   6.546   3.237   2.438
 5516SOL     OW17446   1.386   3.600   6.120
 5516SOL    HW117447   1.305   3.577   6.174
 5516SOL    HW217448   1.370   3.683   6.068
 5517SOL     OW17449   2.174   1.307   2.057
 5517SOL    HW117450   2.074   1.312   2.057
 5517SOL    HW217451   2.204   1.221   2.016
 5518SOL     OW17452   5.191   4.859   5.280
 5518SOL    HW117453   5.251   4.888   5.354
 5518SOL    HW217454   5.105   4.911   5.284
 5519SOL     OW17455   5.414   3.552   3.646
 5519SOL    HW117456   5.351   3.563   3.570
 5519SOL    HW217457   5.381   3.479   3.707
 5520SOL     OW17458   1.676   3.307   1.356
 5520SOL    HW117459   1.670   3.354   1.444
 5520SOL    HW217460   1.587   3.267   1.334
 5521SOL     OW17461   4.854   5.827   1.539
 5521SOL    HW117462   4.810   5.904   1.584
 5521SOL    HW217463   4.849   5.746   1.598
 5522SOL     OW17464   2.121   3.562   2.544
 5522SOL    HW117465   2.170   3.537   2.627
 5522SOL    HW217466   2.173   3.632   2.494
 5523SOL     OW17467   3.116   0.721   1.290
 5523SOL    HW117468   3.145   0.627   1.311
 5523SOL    HW217469   3.032   0.742   1.340
 5524SOL     OW17470   6.619   5.938   6.318
 5524SOL    HW117471   6.588   5.861   6.263
 5524SOL    HW217472   6.657   6.008   6.258
 5525SOL     OW17473   6.880   5.597   4.651
 5525SOL    HW117474   6.850   5.645   4.569
 5525SOL    HW217475   6.890   5.500   4.631
 5526SOL     OW17476   5.379   2.738   4.977
 5526SOL    HW117477   5.379   2.724   4.878
 5526SOL    HW217478   5.391   2.835   4.997
 5527SOL     OW17479   2.103   3.646   1.337
 5527SOL    HW117480   2.026   3.709   1.325
 5527SOL    HW217481   2.152   3.637   1.250
 5528SOL     OW17482   0.715   3.550   3.276
 5528SOL    HW117483   0.706   3.581   3.370
 5528SOL    HW217484   0.811   3.547   3.250
 5529SOL     OW17485   1.813   1.309   5.059
 5529SOL    HW117486   1.878   1.345   4.992
 5529SOL    HW217487   1.810   1.209   5.053
 5530SOL     OW17488   1.269   2.842   0.977
 5530SOL    HW117489   1.299   2.916   0.917
 5530SOL    HW217490   1.347   2.785   1.003
 5531SOL     OW17491   3.011   2.488   5.866
 5531SOL    HW117492   3.098   2.458   5.904
 5531SOL    HW217493   2.943   2.415   5.878
 5532SOL     OW17494   2.663   1.915   1.328
 5532SOL    HW117495   2.750   1.962   1.318
 5532SOL    HW217496   2.665   1.830   1.275
 5533SOL     OW17497   4.048   7.011   0.536
 5533SOL    HW117498   4.062   0.088   0.542
 5533SOL    HW217499   4.015   6.976   0.624
 5534SOL     OW17500   0.067   4.251   5.798
 5534SOL    HW117501   0.061   4.287   5.705
 5534SOL    HW217502   0.118   4.165   5.797
 5535SOL     OW17503   5.637   3.383   3.656
 5535SOL    HW117504   5.586   3.465   3.680
 5535SOL    HW217505   5.664   3.387   3.560
 5536SOL     OW17506   1.806   0.543   3.326
 5536SOL    HW117507   1.882   0.524   3.388
 5536SOL    HW217508   1.723   0.563   3.379
 5537SOL     OW17509   4.319   1.198   4.985
 5537SOL    HW117510   4.228   1.218   5.021
 5537SOL    HW217511   4.314   1.190   4.886
 5538SOL     OW17512   5.509   1.872   0.864
 5538SOL    HW117513   5.430   1.926   0.837
 5538SOL    HW217514   5.550   1.830   0.783
 5539SOL     OW17515   3.297   6.703   0.095
 5539SOL    HW117516   3.222   6.637   0.103
 5539SOL    HW217517   3.383   6.660   0.121
 5540SOL     OW17518   5.164   0.575   6.690
 5540SOL    HW117519   5.138   0.511   6.618
 5540SOL    HW217520   5.197   0.660   6.650
 5541SOL     OW17521   4.659   3.640   6.277
 5541SOL    HW117522   4.598   3.566   6.304
 5541SOL    HW217523   4.728   3.605   6.214
 5542SOL     OW17524   4.637   4.490   0.104
 5542SOL    HW117525   4.662   4.398   0.134
 5542SOL    HW217526   4.539   4.504   0.116
 5543SOL     OW17527   1.692   0.172   0.250
 5543SOL    HW117528   1.684   0.200   0.346
 5543SOL    HW217529   1.757   0.096   0.243
 5544SOL     OW17530   3.934   5.608   6.350
 5544SOL    HW117531   3.970   5.663   6.425
 5544SOL    HW217532   3.838   5.631   6.335
 5545SOL     OW17533   4.219   0.397   3.431
 5545SOL    HW117534   4.153   0.472   3.436
 5545SOL    HW217535   4.174   0.311   3.455
 5546SOL     OW17536   0.341   4.903   4.787
 5546SOL    HW117537   0.352   5.001   4.770
 5546SOL    HW217538   0.248   4.885   4.819
 5547SOL     OW17539   5.100   1.317   4.728
 5547SOL    HW117540   5.040   1.385   4.687
 5547SOL    HW217541   5.147   1.266   4.656
 5548SOL     OW17542   0.178   3.965   4.756
 5548SOL    HW117543   0.257   3.912   4.784
 5548SOL    HW217544   0.099   3.904   4.746
 5549SOL     OW17545   4.428   2.970   0.471
 5549SOL    HW117546   4.408   3.012   0.383
 5549SOL    HW217547   4.493   3.027   0.522
 5550SOL     OW17548   2.026   4.100   2.063
 5550SOL    HW117549   2.076   4.124   1.980
 5550SOL    HW217550   1.928   4.112   2.048
 5551SOL     OW17551   1.736   5.607   3.435
 5551SOL    HW117552   1.705   5.580   3.343
 5551SOL    HW217553   1.734   5.527   3.495
 5552SOL     OW17554   0.348   6.750   6.803
 5552SOL    HW117555   0.376   6.708   6.889
 5552SOL    HW217556   0.353   6.681   6.730
 5553SOL     OW17557   4.613   0.306   6.893
 5553SOL    HW117558   4.630   0.396   6.853
 5553SOL    HW217559   4.588   0.316   6.989
 5554SOL     OW17560   5.480   2.341   1.615
 5554SOL    HW117561   5.536   2.278   1.669
 5554SOL    HW217562   5.384   2.313   1.620
 5555SOL     OW17563   1.568   4.951   2.600
 5555SOL    HW117564   1.609   4.868   2.637
 5555SOL    HW217565   1.625   4.986   2.525
 5556SOL     OW17566   0.238   1.107   4.663
 5556SOL    HW117567   0.168   1.100   4.734
 5556SOL    HW217568   0.224   1.034   4.596
 5557SOL     OW17569   3.190   6.031   2.896
 5557SOL    HW117570   3.093   6.055   2.889
 5557SOL    HW217571   3.219   6.032   2.991
 5558SOL     OW17572   4.343   4.564   0.164
 5558SOL    HW117573   4.334   4.656   0.202
 5558SOL    HW217574   4.281   4.554   0.086
 5559SOL     OW17575   2.175   0.234   2.475
 5559SOL    HW117576   2.165   0.143   2.433
 5559SOL    HW217577   2.186   0.224   2.574
 5560SOL     OW17578   1.016   6.439   2.680
 5560SOL    HW117579   0.969   6.352   2.665
 5560SOL    HW217580   1.041   6.448   2.776
 5561SOL     OW17581   3.459   6.603   3.339
 5561SOL    HW117582   3.376   6.569   3.295
 5561SOL    HW217583   3.444   6.697   3.369
 5562SOL     OW17584   3.824   4.674   0.827
 5562SOL    HW117585   3.758   4.599   0.817
 5562SOL    HW217586   3.897   4.664   0.761
 5563SOL     OW17587   2.386   4.520   3.339
 5563SOL    HW117588   2.323   4.598   3.339
 5563SOL    HW217589   2.433   4.516   3.250
 5564SOL     OW17590   5.148   0.545   5.824
 5564SOL    HW117591   5.188   0.470   5.772
 5564SOL    HW217592   5.085   0.508   5.893
 5565SOL     OW17593   3.537   2.112   6.265
 5565SOL    HW117594   3.516   2.166   6.183
 5565SOL    HW217595   3.470   2.039   6.275
 5566SOL     OW17596   1.429   3.638   6.520
 5566SOL    HW117597   1.343   3.678   6.489
 5566SOL    HW217598   1.505   3.682   6.472
 5567SOL     OW17599   0.003   4.120   1.401
 5567SOL    HW117600   0.093   4.162   1.414
 5567SOL    HW217601   0.010   4.021   1.417
 5568SOL     OW17602   4.001   5.781   1.278
 5568SOL    HW117603   4.019   5.814   1.371
 5568SOL    HW217604   3.907   5.805   1.252
 5569SOL     OW17605   2.235   2.998   3.974
 5569SOL    HW117606   2.191   2.915   3.939
 5569SOL    HW217607   2.176   3.042   4.041
 5570SOL     OW17608   0.677   3.785   2.708
 5570SOL    HW117609   0.726   3.752   2.789
 5570SOL    HW217610   0.580   3.760   2.716
 5571SOL     OW17611   6.264   4.806   1.696
 5571SOL    HW117612   6.211   4.876   1.743
 5571SOL    HW217613   6.203   4.746   1.645
 5572SOL     OW17614   1.442   3.781   5.064
 5572SOL    HW117615   1.503   3.838   5.010
 5572SOL    HW217616   1.389   3.722   5.004
 5573SOL     OW17617   2.872   5.086   3.847
 5573SOL    HW117618   2.903   4.996   3.816
 5573SOL    HW217619   2.849   5.143   3.768
 5574SOL     OW17620   0.908   2.373   6.592
 5574SOL    HW117621   0.937   2.397   6.499
 5574SOL    HW217622   0.839   2.301   6.588
 5575SOL     OW17623   0.523   0.276   1.528
 5575SOL    HW117624   0.598   0.288   1.463
 5575SOL    HW217625   0.448   0.337   1.504
 5576SOL     OW17626   2.002   4.566   3.466
 5576SOL    HW117627   1.912   4.606   3.449
 5576SOL    HW217628   1.998   4.509   3.548
 5577SOL     OW17629   1.720   2.890   6.023
 5577SOL    HW117630   1.722   2.985   5.992
 5577SOL    HW217631   1.811   2.849   6.011
 5578SOL     OW17632   3.856   3.620   3.620
 5578SOL    HW117633   3.936   3.677   3.640
 5578SOL    HW217634   3.805   3.604   3.705
 5579SOL     OW17635   0.632   3.208   1.478
 5579SOL    HW117636   0.727   3.179   1.488
 5579SOL    HW217637   0.624   3.305   1.502
 5580SOL     OW17638   5.144   1.847   4.957
 5580SOL    HW117639   5.103   1.762   4.926
 5580SOL    HW217640   5.075   1.919   4.957
 5581SOL     OW17641   1.059   1.687   6.660
 5581SOL    HW117642   1.142   1.644   6.626
 5581SOL    HW217643   1.067   1.786   6.652
 5582SOL     OW17644   2.468   2.531   6.397
 5582SOL    HW117645   2.380   2.579   6.400
 5582SOL    HW217646   2.485   2.501   6.303
 5583SOL     OW17647   5.390   0.938   2.219
 5583SOL    HW117648   5.412   0.982   2.133
 5583SOL    HW217649   5.474   0.917   2.269
 5584SOL     OW17650   0.889   3.742   5.084
 5584SOL    HW117651   0.918   3.838   5.082
 5584SOL    HW217652   0.893   3.705   4.991
 5585SOL     OW17653   4.626   4.730   2.315
 5585SOL    HW117654   4.549   4.690   2.364
 5585SOL    HW217655   4.610   4.828   2.302
 5586SOL     OW17656   6.673   3.081   6.761
 5586SOL    HW117657   6.687   2.991   6.803
 5586SOL    HW217658   6.587   3.120   6.793
 5587SOL     OW17659   5.624   0.622   6.333
 5587SOL    HW117660   5.590   0.539   6.376
 5587SOL    HW217661   5.547   0.681   6.308
 5588SOL     OW17662   3.441   6.799   1.738
 5588SOL    HW117663   3.538   6.821   1.728
 5588SOL    HW217664   3.428   6.748   1.823
 5589SOL     OW17665   5.868   5.000   6.220
 5589SOL    HW117666   5.794   4.985   6.285
 5589SOL    HW217667   5.956   4.980   6.263
 5590SOL     OW17668   5.535   5.350   4.203
 5590SOL    HW117669   5.528   5.393   4.293
 5590SOL    HW217670   5.451   5.301   4.182
 5591SOL     OW17671   6.083   1.210   1.285
 5591SOL    HW117672   6.158   1.144   1.291
 5591SOL    HW217673   6.108   1.282   1.220
 5592SOL     OW17674   0.784   4.303   3.292
 5592SOL    HW117675   0.884   4.305   3.287
 5592SOL    HW217676   0.746   4.297   3.199
 5593SOL     OW17677   6.575   2.745   0.275
 5593SOL    HW117678   6.648   2.707   0.332
 5593SOL    HW217679   6.588   2.715   0.181
 5594SOL     OW17680   5.649   2.428   5.415
 5594SOL    HW117681   5.702   2.395   5.493
 5594SOL    HW217682   5.703   2.416   5.331
 5595SOL     OW17683   0.801   2.332   5.585
 5595SOL    HW117684   0.895   2.348   5.617
 5595SOL    HW217685   0.752   2.277   5.653
 5596SOL     OW17686   4.019   6.441   2.870
 5596SOL    HW117687   4.005   6.539   2.853
 5596SOL    HW217688   4.109   6.427   2.911
 5597SOL     OW17689   5.361   3.460   3.282
 5597SOL    HW117690   5.416   3.512   3.348
 5597SOL    HW217691   5.289   3.411   3.329
 5598SOL     OW17692   5.666   2.076   4.976
 5598SOL    HW117693   5.566   2.084   4.972
 5598SOL    HW217694   5.704   2.091   4.885
 5599SOL     OW17695   0.530   1.580   4.009
 5599SOL    HW117696   0.534   1.547   3.915
 5599SOL    HW217697   0.492   1.509   4.068
 5600SOL     OW17698   1.309   2.299   4.084
 5600SOL    HW117699   1.364   2.296   4.000
 5600SOL    HW217700   1.315   2.212   4.131
 5601SOL     OW17701   2.517   1.099   5.452
 5601SOL    HW117702   2.466   1.013   5.463
 5601SOL    HW217703   2.559   1.123   5.540
 5602SOL     OW17704   1.043   1.957   0.845
 5602SOL    HW117705   1.023   2.006   0.930
 5602SOL    HW217706   1.140   1.964   0.825
 5603SOL     OW17707   6.373   2.459   6.563
 5603SOL    HW117708   6.365   2.532   6.631
 5603SOL    HW217709   6.309   2.477   6.488
 5604SOL     OW17710   6.368   1.859   5.496
 5604SOL    HW117711   6.407   1.775   5.458
 5604SOL    HW217712   6.328   1.839   5.585
 5605SOL     OW17713   0.511   2.248   4.728
 5605SOL    HW117714   0.451   2.317   4.689
 5605SOL    HW217715   0.577   2.291   4.789
 5606SOL     OW17716   4.455   0.163   1.759
 5606SOL    HW117717   4.461   0.253   1.717
 5606SOL    HW217718   4.477   0.093   1.691
 5607SOL     OW17719   5.722   1.276   1.449
 5607SOL    HW117720   5.769   1.197   1.411
 5607SOL    HW217721   5.764   1.360   1.414
 5608SOL     OW17722   4.089   6.557   5.216
 5608SOL    HW117723   4.145   6.516   5.144
 5608SOL    HW217724   4.070   6.653   5.193
 5609SOL     OW17725   2.703   6.073   6.248
 5609SOL    HW117726   2.629   6.041   6.308
 5609SOL    HW217727   2.736   5.996   6.193
 5610SOL     OW17728   4.711   1.040   6.821
 5610SOL    HW117729   4.792   1.009   6.772
 5610SOL    HW217730   4.661   0.960   6.856
 5611SOL     OW17731   1.825   4.875   3.327
 5611SOL    HW117732   1.781   4.843   3.411
 5611SOL    HW217733   1.823   4.803   3.258
 5612SOL     OW17734   2.675   6.992   5.867
 5612SOL    HW117735   2.614   6.919   5.839
 5612SOL    HW217736   2.770   6.963   5.855
 5613SOL     OW17737   3.938   4.796   1.846
 5613SOL    HW117738   3.931   4.862   1.921
 5613SOL    HW217739   4.018   4.738   1.860
 5614SOL     OW17740   4.556   1.741   2.877
 5614SOL    HW117741   4.653   1.716   2.876
 5614SOL    HW217742   4.522   1.741   2.971
 5615SOL     OW17743   1.586   0.886   1.048
 5615SOL    HW117744   1.674   0.932   1.059
 5615SOL    HW217745   1.582   0.841   0.959
 5616SOL     OW17746   2.073   0.923   4.489
 5616SOL    HW117747   2.069   0.987   4.411
 5616SOL    HW217748   1.982   0.910   4.527
 5617SOL     OW17749   2.024   0.945   4.894
 5617SOL    HW117750   2.068   0.920   4.807
 5617SOL    HW217751   2.026   1.044   4.906
 5618SOL     OW17752   0.361   4.383   3.131
 5618SOL    HW117753   0.404   4.444   3.197
 5618SOL    HW217754   0.264   4.405   3.123
 5619SOL     OW17755   2.157   3.489   5.377
 5619SOL    HW117756   2.090   3.479   5.303
 5619SOL    HW217757   2.147   3.578   5.420
 5620SOL     OW17758   3.404   1.865   6.352
 5620SOL    HW117759   3.483   1.813   6.386
 5620SOL    HW217760   3.335   1.870   6.424
 5621SOL     OW17761   2.072   2.246   5.826
 5621SOL    HW117762   1.981   2.224   5.859
 5621SOL    HW217763   2.072   2.246   5.726
 5622SOL     OW17764   6.205   0.605   5.964
 5622SOL    HW117765   6.194   0.636   6.058
 5622SOL    HW217766   6.131   0.641   5.907
 5623SOL     OW17767   0.955   6.075   0.003
 5623SOL    HW117768   1.012   6.154   7.002
 5623SOL    HW217769   1.004   6.017   0.069
 5624SOL     OW17770   0.832   4.271   3.750
 5624SOL    HW117771   0.833   4.369   3.727
 5624SOL    HW217772   0.737   4.238   3.746
 5625SOL     OW17773   6.768   2.482   5.012
 5625SOL    HW117774   6.718   2.413   5.064
 5625SOL    HW217775   6.789   2.560   5.071
 5626SOL     OW17776   4.047   6.961   4.837
 5626SOL    HW117777   4.095   0.023   4.810
 5626SOL    HW217778   3.963   6.985   4.886
 5627SOL     OW17779   1.595   6.549   0.944
 5627SOL    HW117780   1.528   6.620   0.965
 5627SOL    HW217781   1.548   6.468   0.907
 5628SOL     OW17782   1.791   1.714   4.237
 5628SOL    HW117783   1.794   1.778   4.161
 5628SOL    HW217784   1.853   1.744   4.309
 5629SOL     OW17785   3.592   3.566   2.754
 5629SOL    HW117786   3.542   3.519   2.681
 5629SOL    HW217787   3.687   3.579   2.726
 5630SOL     OW17788   0.915   4.435   1.475
 5630SOL    HW117789   0.878   4.411   1.385
 5630SOL    HW217790   0.939   4.351   1.524
 5631SOL     OW17791   4.753   0.892   0.185
 5631SOL    HW117792   4.812   0.901   0.265
 5631SOL    HW217793   4.739   0.982   0.143
 5632SOL     OW17794   4.286   3.857   6.873
 5632SOL    HW117795   4.190   3.843   6.849
 5632SOL    HW217796   4.336   3.890   6.793
 5633SOL     OW17797   6.196   2.536   4.365
 5633SOL    HW117798   6.218   2.567   4.272
 5633SOL    HW217799   6.211   2.610   4.429
 5634SOL     OW17800   3.903   5.637   4.383
 5634SOL    HW117801   3.873   5.594   4.469
 5634SOL    HW217802   3.891   5.736   4.389
 5635SOL     OW17803   2.781   2.295   4.905
 5635SOL    HW117804   2.876   2.318   4.884
 5635SOL    HW217805   2.777   2.254   4.996
 5636SOL     OW17806   3.902   5.582   3.740
 5636SOL    HW117807   3.820   5.631   3.711
 5636SOL    HW217808   3.904   5.575   3.839
 5637SOL     OW17809   5.470   0.411   3.480
 5637SOL    HW117810   5.502   0.347   3.410
 5637SOL    HW217811   5.406   0.476   3.439
 5638SOL     OW17812   5.612   3.490   6.162
 5638SOL    HW117813   5.592   3.476   6.259
 5638SOL    HW217814   5.682   3.426   6.133
 5639SOL     OW17815   2.107   1.291   6.240
 5639SOL    HW117816   2.198   1.262   6.270
 5639SOL    HW217817   2.113   1.328   6.147
 5640SOL     OW17818   2.443   0.431   3.236
 5640SOL    HW117819   2.367   0.464   3.292
 5640SOL    HW217820   2.475   0.344   3.273
 5641SOL     OW17821   6.469   5.474   4.809
 5641SOL    HW117822   6.392   5.538   4.801
 5641SOL    HW217823   6.461   5.403   4.739
 5642SOL     OW17824   1.293   1.729   6.208
 5642SOL    HW117825   1.286   1.720   6.108
 5642SOL    HW217826   1.241   1.809   6.237
 5643SOL     OW17827   5.564   2.543   4.545
 5643SOL    HW117828   5.509   2.540   4.461
 5643SOL    HW217829   5.517   2.491   4.617
 5644SOL     OW17830   3.591   0.400   6.760
 5644SOL    HW117831   3.492   0.398   6.769
 5644SOL    HW217832   3.618   0.356   6.675
 5645SOL     OW17833   5.230   2.293   4.449
 5645SOL    HW117834   5.175   2.366   4.409
 5645SOL    HW217835   5.319   2.291   4.404
 5646SOL     OW17836   1.792   4.636   3.186
 5646SOL    HW117837   1.694   4.627   3.169
 5646SOL    HW217838   1.842   4.572   3.128
 5647SOL     OW17839   6.654   5.718   2.570
 5647SOL    HW117840   6.562   5.680   2.580
 5647SOL    HW217841   6.648   5.811   2.534
 5648SOL     OW17842   4.421   6.860   2.821
 5648SOL    HW117843   4.446   6.904   2.907
 5648SOL    HW217844   4.347   6.794   2.838
 5649SOL     OW17845   0.935   6.529   4.087
 5649SOL    HW117846   1.029   6.496   4.086
 5649SOL    HW217847   0.874   6.455   4.115
 5650SOL     OW17848   6.435   4.573   6.841
 5650SOL    HW117849   6.388   4.525   6.767
 5650SOL    HW217850   6.515   4.520   6.870
 5651SOL     OW17851   1.693   0.488   2.009
 5651SOL    HW117852   1.732   0.567   1.962
 5651SOL    HW217853   1.612   0.517   2.061
 5652SOL     OW17854   0.995   6.140   1.733
 5652SOL    HW117855   1.023   6.127   1.829
 5652SOL    HW217856   1.028   6.062   1.679
 5653SOL     OW17857   6.746   6.741   1.056
 5653SOL    HW117858   6.791   6.662   1.016
 5653SOL    HW217859   6.756   6.738   1.156
 5654SOL     OW17860   2.692   6.358   4.771
 5654SOL    HW117861   2.787   6.329   4.771
 5654SOL    HW217862   2.687   6.456   4.750
 5655SOL     OW17863   6.251   2.772   4.534
 5655SOL    HW117864   6.297   2.844   4.482
 5655SOL    HW217865   6.173   2.811   4.582
 5656SOL     OW17866   6.989   3.153   0.253
 5656SOL    HW117867   6.949   3.099   0.178
 5656SOL    HW217868   6.916   3.186   0.313
 5657SOL     OW17869   4.715   5.590   5.303
 5657SOL    HW117870   4.672   5.511   5.347
 5657SOL    HW217871   4.660   5.671   5.321
 5658SOL     OW17872   2.344   2.856   5.594
 5658SOL    HW117873   2.292   2.773   5.576
 5658SOL    HW217874   2.364   2.862   5.692
 5659SOL     OW17875   3.901   4.179   6.306
 5659SOL    HW117876   3.895   4.278   6.292
 5659SOL    HW217877   3.836   4.133   6.247
 5660SOL     OW17878   4.392   1.002   6.258
 5660SOL    HW117879   4.404   0.957   6.169
 5660SOL    HW217880   4.369   0.934   6.327
 5661SOL     OW17881   1.178   5.292   5.514
 5661SOL    HW117882   1.173   5.365   5.581
 5661SOL    HW217883   1.243   5.317   5.442
 5662SOL     OW17884   2.636   6.372   2.139
 5662SOL    HW117885   2.636   6.364   2.239
 5662SOL    HW217886   2.547   6.406   2.108
 5663SOL     OW17887   0.829   3.144   6.687
 5663SOL    HW117888   0.800   3.215   6.624
 5663SOL    HW217889   0.902   3.179   6.746
 5664SOL     OW17890   4.765   4.032   4.669
 5664SOL    HW117891   4.681   4.037   4.722
 5664SOL    HW217892   4.794   4.125   4.644
 5665SOL     OW17893   2.004   1.982   1.185
 5665SOL    HW117894   2.004   1.887   1.153
 5665SOL    HW217895   1.943   2.037   1.128
 5666SOL     OW17896   4.999   1.188   4.952
 5666SOL    HW117897   5.018   1.250   4.875
 5666SOL    HW217898   4.975   1.098   4.916
 5667SOL     OW17899   2.533   5.210   4.411
 5667SOL    HW117900   2.449   5.159   4.398
 5667SOL    HW217901   2.534   5.252   4.502
 5668SOL     OW17902   5.243   3.016   3.779
 5668SOL    HW117903   5.308   2.944   3.805
 5668SOL    HW217904   5.289   3.083   3.721
 5669SOL     OW17905   6.577   4.729   6.578
 5669SOL    HW117906   6.554   4.785   6.658
 5669SOL    HW217907   6.668   4.689   6.590
 5670SOL     OW17908   0.367   1.972   2.822
 5670SOL    HW117909   0.271   1.970   2.851
 5670SOL    HW217910   0.378   1.913   2.741
 5671SOL     OW17911   6.885   6.564   3.567
 5671SOL    HW117912   6.802   6.607   3.530
 5671SOL    HW217913   6.864   6.471   3.597
 5672SOL     OW17914   4.933   3.247   5.130
 5672SOL    HW117915   5.005   3.216   5.192
 5672SOL    HW217916   4.845   3.250   5.178
 5673SOL     OW17917   0.390   0.981   1.318
 5673SOL    HW117918   0.415   1.071   1.281
 5673SOL    HW217919   0.371   0.918   1.243
 5674SOL     OW17920   1.942   5.371   6.021
 5674SOL    HW117921   1.923   5.415   5.934
 5674SOL    HW217922   1.948   5.441   6.093
 5675SOL     OW17923   2.775   1.937   0.712
 5675SOL    HW117924   2.688   1.984   0.696
 5675SOL    HW217925   2.850   1.996   0.686
 5676SOL     OW17926   2.670   1.962   1.987
 5676SOL    HW117927   2.715   2.037   1.936
 5676SOL    HW217928   2.615   2.001   2.060
 5677SOL     OW17929   6.650   1.221   1.004
 5677SOL    HW117930   6.686   1.167   0.928
 5677SOL    HW217931   6.678   1.317   0.993
 5678SOL     OW17932   3.304   2.033   1.899
 5678SOL    HW117933   3.227   2.095   1.887
 5678SOL    HW217934   3.272   1.947   1.940
 5679SOL     OW17935   6.150   3.365   5.175
 5679SOL    HW117936   6.192   3.345   5.086
 5679SOL    HW217937   6.183   3.299   5.243
 5680SOL     OW17938   1.375   5.982   5.231
 5680SOL    HW117939   1.432   5.921   5.286
 5680SOL    HW217940   1.279   5.970   5.256
 5681SOL     OW17941   0.953   3.624   4.049
 5681SOL    HW117942   0.898   3.541   4.052
 5681SOL    HW217943   0.893   3.704   4.058
 5682SOL     OW17944   2.108   4.447   2.210
 5682SOL    HW117945   2.097   4.542   2.239
 5682SOL    HW217946   2.026   4.395   2.235
 5683SOL     OW17947   6.568   1.484   6.425
 5683SOL    HW117948   6.582   1.556   6.358
 5683SOL    HW217949   6.647   1.423   6.427
 5684SOL     OW17950   2.047   2.817   5.359
 5684SOL    HW117951   2.052   2.793   5.456
 5684SOL    HW217952   2.131   2.789   5.313
 5685SOL     OW17953   2.248   1.662   2.780
 5685SOL    HW117954   2.264   1.755   2.812
 5685SOL    HW217955   2.268   1.656   2.682
 5686SOL     OW17956   3.448   5.559   6.095
 5686SOL    HW117957   3.425   5.478   6.041
 5686SOL    HW217958   3.419   5.641   6.047
 5687SOL     OW17959   1.944   6.319   6.857
 5687SOL    HW117960   1.979   6.359   6.942
 5687SOL    HW217961   1.902   6.391   6.801
 5688SOL     OW17962   2.241   2.457   3.221
 5688SOL    HW117963   2.143   2.436   3.223
 5688SOL    HW217964   2.289   2.386   3.170
 5689SOL     OW17965   0.778   2.723   1.359
 5689SOL    HW117966   0.816   2.721   1.451
 5689SOL    HW217967   0.815   2.802   1.309
 5690SOL     OW17968   1.686   5.425   0.210
 5690SOL    HW117969   1.785   5.437   0.220
 5690SOL    HW217970   1.652   5.486   0.138
 5691SOL     OW17971   3.259   1.112   2.453
 5691SOL    HW117972   3.325   1.176   2.413
 5691SOL    HW217973   3.180   1.164   2.488
 5692SOL     OW17974   4.314   4.928   1.331
 5692SOL    HW117975   4.396   4.880   1.300
 5692SOL    HW217976   4.254   4.863   1.379
 5693SOL     OW17977   4.376   0.661   1.132
 5693SOL    HW117978   4.473   0.684   1.126
 5693SOL    HW217979   4.362   0.593   1.204
 5694SOL     OW17980   1.056   6.369   1.625
 5694SOL    HW117981   1.129   6.415   1.675
 5694SOL    HW217982   1.025   6.289   1.677
 5695SOL     OW17983   1.662   0.222   1.218
 5695SOL    HW117984   1.589   0.285   1.190
 5695SOL    HW217985   1.711   0.190   1.137
 5696SOL     OW17986   1.640   0.554   3.751
 5696SOL    HW117987   1.541   0.552   3.765
 5696SOL    HW217988   1.681   0.619   3.814
 5697SOL     OW17989   6.409   2.909   0.401
 5697SOL    HW117990   6.481   2.865   0.347
 5697SOL    HW217991   6.405   3.006   0.378
 5698SOL     OW17992   2.741   2.258   4.009
 5698SOL    HW117993   2.669   2.278   3.943
 5698SOL    HW217994   2.726   2.167   4.047
 5699SOL     OW17995   1.870   2.646   3.110
 5699SOL    HW117996   1.792   2.595   3.072
 5699SOL    HW217997   1.933   2.670   3.036
 5700SOL     OW17998   6.208   0.608   3.066
 5700SOL    HW117999   6.117   0.636   3.095
 5700SOL    HW218000   6.202   0.526   3.010
 5701SOL     OW18001   0.116   1.149   1.248
 5701SOL    HW118002   0.053   1.226   1.264
 5701SOL    HW218003   0.210   1.181   1.259
 5702SOL     OW18004   2.535   6.866   4.414
 5702SOL    HW118005   2.541   6.960   4.382
 5702SOL    HW218006   2.440   6.840   4.428
 5703SOL     OW18007   0.100   3.000   6.160
 5703SOL    HW118008   0.118   2.984   6.257
 5703SOL    HW218009   0.127   2.919   6.107
 5704SOL     OW18010   4.270   4.766   3.856
 5704SOL    HW118011   4.356   4.812   3.877
 5704SOL    HW218012   4.257   4.762   3.757
 5705SOL     OW18013   6.424   6.777   5.186
 5705SOL    HW118014   6.380   6.853   5.137
 5705SOL    HW218015   6.522   6.798   5.197
 5706SOL     OW18016   4.868   2.102   0.288
 5706SOL    HW118017   4.933   2.166   0.248
 5706SOL    HW218018   4.873   2.107   0.388
 5707SOL     OW18019   5.497   5.515   2.389
 5707SOL    HW118020   5.421   5.528   2.326
 5707SOL    HW218021   5.474   5.558   2.477
 5708SOL     OW18022   4.218   5.973   2.789
 5708SOL    HW118023   4.315   5.988   2.768
 5708SOL    HW218024   4.179   5.911   2.721
 5709SOL     OW18025   7.009   1.713   2.214
 5709SOL    HW118026   7.012   1.812   2.228
 5709SOL    HW218027   6.983   1.669   2.299
 5710SOL     OW18028   3.315   2.004   1.301
 5710SOL    HW118029   3.375   2.061   1.356
 5710SOL    HW218030   3.273   2.058   1.229
 5711SOL     OW18031   5.327   1.721   2.003
 5711SOL    HW118032   5.384   1.691   2.079
 5711SOL    HW218033   5.384   1.763   1.932
 5712SOL     OW18034   6.019   6.939   1.517
 5712SOL    HW118035   6.031   0.009   1.479
 5712SOL    HW218036   6.089   6.878   1.479
 5713SOL     OW18037   2.455   0.036   0.394
 5713SOL    HW118038   2.424   0.131   0.398
 5713SOL    HW218039   2.493   0.009   0.482
 5714SOL     OW18040   6.378   0.058   0.964
 5714SOL    HW118041   6.411   6.986   0.951
 5714SOL    HW218042   6.435   0.103   1.033
 5715SOL     OW18043   7.012   0.272   1.400
 5715SOL    HW118044   0.032   0.317   1.320
 5715SOL    HW218045   6.957   0.195   1.369
 5716SOL     OW18046   6.638   4.768   5.387
 5716SOL    HW118047   6.710   4.826   5.423
 5716SOL    HW218048   6.555   4.780   5.441
 5717SOL     OW18049   1.248   5.266   3.292
 5717SOL    HW118050   1.293   5.187   3.250
 5717SOL    HW218051   1.205   5.321   3.220
 5718SOL     OW18052   0.684   3.141   0.286
 5718SOL    HW118053   0.766   3.196   0.296
 5718SOL    HW218054   0.678   3.106   0.192
 5719SOL     OW18055   2.399   3.437   1.004
 5719SOL    HW118056   2.385   3.456   0.907
 5719SOL    HW218057   2.315   3.458   1.054
 5720SOL     OW18058   2.602   4.535   6.410
 5720SOL    HW118059   2.541   4.461   6.437
 5720SOL    HW218060   2.598   4.547   6.311
 5721SOL     OW18061   2.655   3.503   0.525
 5721SOL    HW118062   2.669   3.533   0.431
 5721SOL    HW218063   2.743   3.485   0.568
 5722SOL     OW18064   1.449   1.108   6.033
 5722SOL    HW118065   1.447   1.107   6.133
 5722SOL    HW218066   1.363   1.072   5.998
 5723SOL     OW18067   4.091   3.459   0.560
 5723SOL    HW118068   4.110   3.361   0.569
 5723SOL    HW218069   4.173   3.506   0.526
 5724SOL     OW18070   5.446   2.332   4.680
 5724SOL    HW118071   5.377   2.318   4.609
 5724SOL    HW218072   5.501   2.249   4.691
 5725SOL     OW18073   6.839   4.162   4.796
 5725SOL    HW118074   6.841   4.062   4.805
 5725SOL    HW218075   6.924   4.201   4.832
 5726SOL     OW18076   5.447   4.185   2.406
 5726SOL    HW118077   5.347   4.187   2.394
 5726SOL    HW218078   5.468   4.151   2.498
 5727SOL     OW18079   0.708   1.905   5.034
 5727SOL    HW118080   0.768   1.840   5.081
 5727SOL    HW218081   0.764   1.975   4.990
 5728SOL     OW18082   4.709   6.661   5.043
 5728SOL    HW118083   4.695   6.679   4.946
 5728SOL    HW218084   4.622   6.664   5.091
 5729SOL     OW18085   2.032   2.225   5.303
 5729SOL    HW118086   1.948   2.207   5.252
 5729SOL    HW218087   2.022   2.191   5.397
 5730SOL     OW18088   6.910   3.890   4.734
 5730SOL    HW118089   6.956   3.812   4.692
 5730SOL    HW218090   6.853   3.858   4.810
 5731SOL     OW18091   0.155   6.396   2.385
 5731SOL    HW118092   0.170   6.423   2.290
 5731SOL    HW218093   0.137   6.477   2.440
 5732SOL     OW18094   0.620   6.998   3.443
 5732SOL    HW118095   0.568   6.922   3.482
 5732SOL    HW218096   0.557   0.045   3.407
 5733SOL     OW18097   3.200   0.481   5.705
 5733SOL    HW118098   3.250   0.548   5.650
 5733SOL    HW218099   3.146   0.529   5.775
 5734SOL     OW18100   2.178   6.364   3.440
 5734SOL    HW118101   2.210   6.272   3.465
 5734SOL    HW218102   2.100   6.355   3.377
 5735SOL     OW18103   2.844   1.129   1.624
 5735SOL    HW118104   2.794   1.071   1.689
 5735SOL    HW218105   2.813   1.108   1.531
 5736SOL     OW18106   1.273   5.130   6.400
 5736SOL    HW118107   1.230   5.137   6.490
 5736SOL    HW218108   1.367   5.097   6.410
 5737SOL     OW18109   5.284   4.521   0.851
 5737SOL    HW118110   5.352   4.489   0.917
 5737SOL    HW218111   5.314   4.608   0.811
 5738SOL     OW18112   1.563   3.924   5.914
 5738SOL    HW118113   1.518   3.839   5.886
 5738SOL    HW218114   1.554   3.936   6.013
 5739SOL     OW18115   0.786   1.767   1.320
 5739SOL    HW118116   0.849   1.833   1.361
 5739SOL    HW218117   0.831   1.678   1.313
 5740SOL     OW18118   3.719   5.855   6.200
 5740SOL    HW118119   3.816   5.874   6.217
 5740SOL    HW218120   3.710   5.805   6.114
 5741SOL     OW18121   0.174   4.701   3.312
 5741SOL    HW118122   0.159   4.696   3.213
 5741SOL    HW218123   0.113   4.637   3.358
 5742SOL     OW18124   6.983   6.381   4.532
 5742SOL    HW118125   0.008   6.318   4.470
 5742SOL    HW218126   6.890   6.348   4.549
 5743SOL     OW18127   1.975   6.957   4.764
 5743SOL    HW118128   1.977   6.872   4.712
 5743SOL    HW218129   1.988   0.012   4.702
 5744SOL     OW18130   5.449   6.639   1.926
 5744SOL    HW118131   5.489   6.632   1.834
 5744SOL    HW218132   5.373   6.574   1.934
 5745SOL     OW18133   1.174   1.751   3.562
 5745SOL    HW118134   1.221   1.726   3.477
 5745SOL    HW218135   1.083   1.710   3.564
 5746SOL     OW18136   6.329   4.418   0.130
 5746SOL    HW118137   6.233   4.424   0.158
 5746SOL    HW218138   6.385   4.396   0.209
 5747SOL     OW18139   0.897   6.178   2.682
 5747SOL    HW118140   0.820   6.137   2.730
 5747SOL    HW218141   0.981   6.164   2.735
 5748SOL     OW18142   2.156   6.352   2.963
 5748SOL    HW118143   2.246   6.380   2.996
 5748SOL    HW218144   2.130   6.266   3.007
 5749SOL     OW18145   2.341   1.915   3.218
 5749SOL    HW118146   2.355   1.848   3.290
 5749SOL    HW218147   2.381   2.003   3.245
 5750SOL     OW18148   6.761   5.437   2.789
 5750SOL    HW118149   6.737   5.507   2.722
 5750SOL    HW218150   6.853   5.403   2.771
 5751SOL     OW18151   2.302   2.914   6.351
 5751SOL    HW118152   2.289   3.012   6.361
 5751SOL    HW218153   2.264   2.867   6.432
 5752SOL     OW18154   6.817   1.011   0.022
 5752SOL    HW118155   6.766   1.094   7.021
 5752SOL    HW218156   6.777   0.969   0.104
 5753SOL     OW18157   3.945   2.414   0.435
 5753SOL    HW118158   3.923   2.505   0.400
 5753SOL    HW218159   4.002   2.422   0.517
 5754SOL     OW18160   6.166   4.411   1.091
 5754SOL    HW118161   6.228   4.399   1.168
 5754SOL    HW218162   6.080   4.363   1.110
 5755SOL     OW18163   3.713   3.609   1.443
 5755SOL    HW118164   3.645   3.542   1.473
 5755SOL    HW218165   3.741   3.665   1.521
 5756SOL     OW18166   0.232   6.389   3.963
 5756SOL    HW118167   0.278   6.434   4.039
 5756SOL    HW218168   0.295   6.382   3.885
 5757SOL     OW18169   0.552   5.376   1.728
 5757SOL    HW118170   0.493   5.456   1.715
 5757SOL    HW218171   0.506   5.310   1.787
 5758SOL     OW18172   1.086   1.535   5.515
 5758SOL    HW118173   1.011   1.476   5.486
 5758SOL    HW218174   1.050   1.624   5.543
 5759SOL     OW18175   5.819   1.953   5.148
 5759SOL    HW118176   5.759   2.009   5.091
 5759SOL    HW218177   5.764   1.892   5.204
 5760SOL     OW18178   1.932   5.430   1.549
 5760SOL    HW118179   2.025   5.463   1.566
 5760SOL    HW218180   1.907   5.449   1.454
 5761SOL     OW18181   5.018   0.453   5.094
 5761SOL    HW118182   5.053   0.521   5.030
 5761SOL    HW218183   4.950   0.396   5.048
 5762SOL     OW18184   5.826   6.050   1.252
 5762SOL    HW118185   5.767   6.015   1.324
 5762SOL    HW218186   5.870   5.973   1.205
 5763SOL     OW18187   1.473   1.941   1.340
 5763SOL    HW118188   1.442   1.946   1.435
 5763SOL    HW218189   1.573   1.936   1.338
 5764SOL     OW18190   4.826   3.285   5.579
 5764SOL    HW118191   4.785   3.194   5.570
 5764SOL    HW218192   4.818   3.334   5.492
 5765SOL     OW18193   5.936   4.752   0.570
 5765SOL    HW118194   5.901   4.747   0.663
 5765SOL    HW218195   5.862   4.735   0.505
 5766SOL     OW18196   2.832   0.947   3.408
 5766SOL    HW118197   2.924   0.925   3.441
 5766SOL    HW218198   2.835   1.030   3.353
 5767SOL     OW18199   6.589   6.958   0.662
 5767SOL    HW118200   6.549   6.898   0.730
 5767SOL    HW218201   6.606   6.906   0.578
 5768SOL     OW18202   6.507   0.513   2.878
 5768SOL    HW118203   6.591   0.460   2.889
 5768SOL    HW218204   6.436   0.475   2.938
 5769SOL     OW18205   2.066   5.842   3.506
 5769SOL    HW118206   1.991   5.789   3.545
 5769SOL    HW218207   2.091   5.916   3.568
 5770SOL     OW18208   6.270   0.789   1.815
 5770SOL    HW118209   6.284   0.792   1.716
 5770SOL    HW218210   6.224   0.703   1.840
 5771SOL     OW18211   0.922   1.389   2.199
 5771SOL    HW118212   0.963   1.422   2.114
 5771SOL    HW218213   0.986   1.329   2.246
 5772SOL     OW18214   6.952   4.203   6.842
 5772SOL    HW118215   6.887   4.243   6.778
 5772SOL    HW218216   6.907   4.132   6.896
 5773SOL     OW18217   5.390   5.883   4.560
 5773SOL    HW118218   5.451   5.831   4.501
 5773SOL    HW218219   5.434   5.968   4.588
 5774SOL     OW18220   2.772   4.690   2.879
 5774SOL    HW118221   2.695   4.697   2.942
 5774SOL    HW218222   2.755   4.617   2.813
 5775SOL     OW18223   0.750   0.331   0.157
 5775SOL    HW118224   0.831   0.327   0.099
 5775SOL    HW218225   0.693   0.250   0.140
 5776SOL     OW18226   5.551   0.989   6.128
 5776SOL    HW118227   5.540   0.978   6.029
 5776SOL    HW218228   5.545   1.086   6.151
 5777SOL     OW18229   5.820   0.702   5.133
 5777SOL    HW118230   5.885   0.669   5.064
 5777SOL    HW218231   5.763   0.626   5.163
 5778SOL     OW18232   2.105   7.004   3.722
 5778SOL    HW118233   2.096   0.051   3.794
 5778SOL    HW218234   2.094   6.913   3.762
 5779SOL     OW18235   4.175   0.542   1.889
 5779SOL    HW118236   4.132   0.457   1.858
 5779SOL    HW218237   4.111   0.593   1.947
 5780SOL     OW18238   6.036   3.570   1.534
 5780SOL    HW118239   6.119   3.528   1.570
 5780SOL    HW218240   6.059   3.626   1.454
 5781SOL     OW18241   2.657   4.841   5.054
 5781SOL    HW118242   2.615   4.871   4.968
 5781SOL    HW218243   2.694   4.749   5.042
 5782SOL     OW18244   3.039   1.355   3.015
 5782SOL    HW118245   3.105   1.426   2.991
 5782SOL    HW218246   3.064   1.270   2.967
 5783SOL     OW18247   2.642   6.740   1.318
 5783SOL    HW118248   2.559   6.763   1.268
 5783SOL    HW218249   2.625   6.749   1.416
 5784SOL     OW18250   1.667   5.852   0.256
 5784SOL    HW118251   1.734   5.790   0.215
 5784SOL    HW218252   1.575   5.819   0.235
 5785SOL     OW18253   2.439   1.254   0.549
 5785SOL    HW118254   2.383   1.174   0.573
 5785SOL    HW218255   2.431   1.271   0.451
 5786SOL     OW18256   0.904   3.314   0.357
 5786SOL    HW118257   0.873   3.372   0.432
 5786SOL    HW218258   0.999   3.336   0.334
 5787SOL     OW18259   0.391   3.014   5.287
 5787SOL    HW118260   0.471   3.038   5.232
 5787SOL    HW218261   0.381   3.078   5.363
 5788SOL     OW18262   2.005   2.697   2.065
 5788SOL    HW118263   2.023   2.696   1.966
 5788SOL    HW218264   2.059   2.769   2.108
 5789SOL     OW18265   3.012   5.158   0.070
 5789SOL    HW118266   2.936   5.124   0.015
 5789SOL    HW218267   3.034   5.092   0.142
 5790SOL     OW18268   6.163   6.070   3.513
 5790SOL    HW118269   6.075   6.102   3.476
 5790SOL    HW218270   6.167   6.091   3.610
 5791SOL     OW18271   4.410   1.799   1.307
 5791SOL    HW118272   4.344   1.873   1.302
 5791SOL    HW218273   4.386   1.727   1.242
 5792SOL     OW18274   4.121   2.155   3.048
 5792SOL    HW118275   4.112   2.063   3.087
 5792SOL    HW218276   4.035   2.181   3.004
 5793SOL     OW18277   3.971   3.046   6.760
 5793SOL    HW118278   3.946   3.030   6.856
 5793SOL    HW218279   3.987   2.959   6.715
 5794SOL     OW18280   3.635   6.211   6.872
 5794SOL    HW118281   3.569   6.137   6.889
 5794SOL    HW218282   3.708   6.207   6.939
 5795SOL     OW18283   2.030   6.619   1.606
 5795SOL    HW118284   2.012   6.712   1.638
 5795SOL    HW218285   2.115   6.616   1.554
 5796SOL     OW18286   4.912   0.897   6.698
 5796SOL    HW118287   4.892   0.822   6.760
 5796SOL    HW218288   5.008   0.892   6.669
 5797SOL     OW18289   6.730   2.667   0.488
 5797SOL    HW118290   6.673   2.639   0.565
 5797SOL    HW218291   6.799   2.597   0.470
 5798SOL     OW18292   1.518   3.655   4.508
 5798SOL    HW118293   1.478   3.571   4.472
 5798SOL    HW218294   1.616   3.658   4.485
 5799SOL     OW18295   2.925   0.177   3.595
 5799SOL    HW118296   2.993   0.186   3.523
 5799SOL    HW218297   2.954   0.106   3.660
 5800SOL     OW18298   1.216   0.257   1.531
 5800SOL    HW118299   1.132   0.203   1.536
 5800SOL    HW218300   1.201   0.338   1.475
 5801SOL     OW18301   1.603   1.611   2.433
 5801SOL    HW118302   1.561   1.654   2.354
 5801SOL    HW218303   1.703   1.613   2.424
 5802SOL     OW18304   0.444   0.313   3.014
 5802SOL    HW118305   0.442   0.228   2.962
 5802SOL    HW218306   0.537   0.330   3.048
 5803SOL     OW18307   0.329   6.095   4.498
 5803SOL    HW118308   0.336   6.016   4.559
 5803SOL    HW218309   0.419   6.115   4.459
 5804SOL     OW18310   5.741   2.202   3.091
 5804SOL    HW118311   5.693   2.163   3.169
 5804SOL    HW218312   5.679   2.205   3.012
 5805SOL     OW18313   1.164   2.865   2.300
 5805SOL    HW118314   1.195   2.941   2.242
 5805SOL    HW218315   1.242   2.824   2.346
 5806SOL     OW18316   6.692   4.052   2.461
 5806SOL    HW118317   6.650   4.108   2.389
 5806SOL    HW218318   6.751   3.983   2.418
 5807SOL     OW18319   1.467   1.232   2.272
 5807SOL    HW118320   1.432   1.323   2.291
 5807SOL    HW218321   1.459   1.175   2.355
 5808SOL     OW18322   6.842   0.540   5.932
 5808SOL    HW118323   6.788   0.613   5.976
 5808SOL    HW218324   6.825   0.454   5.979
 5809SOL     OW18325   0.132   2.674   4.658
 5809SOL    HW118326   0.197   2.660   4.733
 5809SOL    HW218327   0.133   2.595   4.598
 5810SOL     OW18328   2.989   6.063   5.165
 5810SOL    HW118329   3.088   6.062   5.179
 5810SOL    HW218330   2.964   5.996   5.095
 5811SOL     OW18331   3.867   4.156   6.593
 5811SOL    HW118332   3.892   4.165   6.497
 5811SOL    HW218333   3.921   4.221   6.648
 5812SOL     OW18334   6.015   2.687   6.127
 5812SOL    HW118335   5.962   2.696   6.211
 5812SOL    HW218336   6.053   2.595   6.121
 5813SOL     OW18337   5.173   5.426   0.625
 5813SOL    HW118338   5.268   5.458   0.630
 5813SOL    HW218339   5.113   5.493   0.669
 5814SOL     OW18340   6.006   1.214   2.041
 5814SOL    HW118341   5.918   1.194   2.086
 5814SOL    HW218342   5.998   1.297   1.987
 5815SOL     OW18343   6.303   3.442   4.285
 5815SOL    HW118344   6.213   3.400   4.297
 5815SOL    HW218345   6.294   3.541   4.287
 5816SOL     OW18346   0.149   3.863   2.194
 5816SOL    HW118347   0.165   3.766   2.210
 5816SOL    HW218348   0.079   3.875   2.124
 5817SOL     OW18349   6.151   3.804   3.110
 5817SOL    HW118350   6.064   3.846   3.138
 5817SOL    HW218351   6.133   3.715   3.068
 5818SOL     OW18352   2.551   0.212   4.607
 5818SOL    HW118353   2.466   0.231   4.656
 5818SOL    HW218354   2.601   0.297   4.591
 5819SOL     OW18355   3.738   3.900   0.340
 5819SOL    HW118356   3.675   3.882   0.264
 5819SOL    HW218357   3.711   3.846   0.419
 5820SOL     OW18358   6.201   6.993   2.556
 5820SOL    HW118359   6.256   6.910   2.553
 5820SOL    HW218360   6.183   0.004   2.463
 5821SOL     OW18361   6.896   0.181   1.942
 5821SOL    HW118362   6.889   0.104   1.879
 5821SOL    HW218363   6.807   0.224   1.952
 5822SOL     OW18364   1.026   3.922   2.507
 5822SOL    HW118365   1.066   3.980   2.577
 5822SOL    HW218366   1.077   3.836   2.501
 5823SOL     OW18367   2.108   6.821   3.943
 5823SOL    HW118368   2.110   6.741   3.882
 5823SOL    HW218369   2.182   6.813   4.010
 5824SOL     OW18370   1.790   6.774   2.502
 5824SOL    HW118371   1.881   6.781   2.543
 5824SOL    HW218372   1.795   6.796   2.405
 5825SOL     OW18373   4.594   1.482   4.008
 5825SOL    HW118374   4.662   1.425   4.055
 5825SOL    HW218375   4.606   1.472   3.910
 5826SOL     OW18376   1.615   6.572   5.145
 5826SOL    HW118377   1.535   6.630   5.159
 5826SOL    HW218378   1.592   6.497   5.083
 5827SOL     OW18379   2.060   4.022   3.614
 5827SOL    HW118380   2.065   3.932   3.659
 5827SOL    HW218381   1.979   4.025   3.555
 5828SOL     OW18382   4.670   0.513   5.806
 5828SOL    HW118383   4.635   0.601   5.773
 5828SOL    HW218384   4.693   0.455   5.728
 5829SOL     OW18385   1.980   0.432   2.849
 5829SOL    HW118386   1.953   0.358   2.911
 5829SOL    HW218387   1.907   0.448   2.783
 5830SOL     OW18388   3.933   5.362   4.067
 5830SOL    HW118389   4.008   5.396   4.122
 5830SOL    HW218390   3.954   5.270   4.034
 5831SOL     OW18391   2.097   2.468   5.234
 5831SOL    HW118392   2.084   2.373   5.264
 5831SOL    HW218393   2.195   2.486   5.224
 5832SOL     OW18394   2.896   5.385   2.178
 5832SOL    HW118395   2.815   5.339   2.142
 5832SOL    HW218396   2.973   5.321   2.179
 5833SOL     OW18397   3.589   5.534   6.925
 5833SOL    HW118398   3.668   5.560   6.980
 5833SOL    HW218399   3.508   5.582   6.958
 5834SOL     OW18400   6.656   3.050   6.082
 5834SOL    HW118401   6.671   2.953   6.104
 5834SOL    HW218402   6.673   3.106   6.162
 5835SOL     OW18403   4.507   1.707   3.128
 5835SOL    HW118404   4.413   1.741   3.136
 5835SOL    HW218405   4.566   1.759   3.190
 5836SOL     OW18406   5.069   6.252   1.876
 5836SOL    HW118407   5.047   6.164   1.835
 5836SOL    HW218408   4.984   6.301   1.899
 5837SOL     OW18409   3.023   4.581   6.658
 5837SOL    HW118410   2.981   4.493   6.641
 5837SOL    HW218411   3.098   4.570   6.723
 5838SOL     OW18412   4.358   3.124   0.210
 5838SOL    HW118413   4.395   3.203   0.258
 5838SOL    HW218414   4.258   3.124   0.218
 5839SOL     OW18415   2.008   2.277   0.751
 5839SOL    HW118416   1.987   2.268   0.849
 5839SOL    HW218417   2.029   2.187   0.713
 5840SOL     OW18418   0.344   3.615   3.789
 5840SOL    HW118419   0.321   3.531   3.740
 5840SOL    HW218420   0.356   3.690   3.723
 5841SOL     OW18421   5.155   1.403   0.426
 5841SOL    HW118422   5.226   1.443   0.483
 5841SOL    HW218423   5.095   1.475   0.392
 5842SOL     OW18424   3.175   1.615   1.206
 5842SOL    HW118425   3.227   1.628   1.291
 5842SOL    HW218426   3.164   1.517   1.189
 5843SOL     OW18427   3.647   3.586   0.188
 5843SOL    HW118428   3.547   3.585   0.196
 5843SOL    HW218429   3.688   3.570   0.278
 5844SOL     OW18430   0.315   6.014   5.267
 5844SOL    HW118431   0.285   6.099   5.310
 5844SOL    HW218432   0.338   6.031   5.171
 5845SOL     OW18433   1.472   6.763   2.693
 5845SOL    HW118434   1.458   6.827   2.618
 5845SOL    HW218435   1.553   6.790   2.746
 5846SOL     OW18436   1.045   4.384   5.140
 5846SOL    HW118437   1.121   4.351   5.085
 5846SOL    HW218438   1.073   4.391   5.236
 5847SOL     OW18439   1.598   3.730   6.335
 5847SOL    HW118440   1.678   3.722   6.276
 5847SOL    HW218441   1.521   3.765   6.282
 5848SOL     OW18442   2.060   5.598   1.847
 5848SOL    HW118443   1.998   5.521   1.864
 5848SOL    HW218444   2.074   5.649   1.932
 5849SOL     OW18445   2.676   5.447   6.379
 5849SOL    HW118446   2.765   5.403   6.388
 5849SOL    HW218447   2.638   5.465   6.469
 5850SOL     OW18448   0.458   1.715   1.689
 5850SOL    HW118449   0.361   1.738   1.702
 5850SOL    HW218450   0.487   1.654   1.763
 5851SOL     OW18451   6.092   3.545   4.747
 5851SOL    HW118452   6.190   3.522   4.744
 5851SOL    HW218453   6.080   3.632   4.794
 5852SOL     OW18454   4.909   4.275   2.251
 5852SOL    HW118455   4.895   4.178   2.231
 5852SOL    HW218456   4.847   4.331   2.196
 5853SOL     OW18457   4.806   4.816   6.447
 5853SOL    HW118458   4.857   4.900   6.431
 5853SOL    HW218459   4.853   4.761   6.516
 5854SOL     OW18460   3.448   4.879   5.303
 5854SOL    HW118461   3.368   4.864   5.245
 5854SOL    HW218462   3.423   4.861   5.398
 5855SOL     OW18463   2.290   2.795   2.685
 5855SOL    HW118464   2.271   2.857   2.761
 5855SOL    HW218465   2.342   2.843   2.614
 5856SOL     OW18466   1.034   6.493   2.953
 5856SOL    HW118467   1.036   6.592   2.968
 5856SOL    HW218468   0.949   6.456   2.991
 5857SOL     OW18469   5.612   5.027   6.405
 5857SOL    HW118470   5.601   4.938   6.449
 5857SOL    HW218471   5.599   5.100   6.472
 5858SOL     OW18472   1.705   1.117   2.951
 5858SOL    HW118473   1.647   1.144   2.874
 5858SOL    HW218474   1.712   1.193   3.015
 5859SOL     OW18475   5.762   5.402   2.168
 5859SOL    HW118476   5.732   5.492   2.198
 5859SOL    HW218477   5.818   5.410   2.086
 5860SOL     OW18478   0.505   4.136   2.987
 5860SOL    HW118479   0.531   4.084   2.905
 5860SOL    HW218480   0.516   4.078   3.068
 5861SOL     OW18481   4.657   0.809   5.821
 5861SOL    HW118482   4.731   0.848   5.875
 5861SOL    HW218483   4.653   0.854   5.732
 5862SOL     OW18484   6.386   5.083   3.314
 5862SOL    HW118485   6.393   4.987   3.287
 5862SOL    HW218486   6.290   5.105   3.334
 5863SOL     OW18487   3.884   6.856   6.472
 5863SOL    HW118488   3.954   6.922   6.500
 5863SOL    HW218489   3.800   6.872   6.524
 5864SOL     OW18490   3.474   3.410   2.544
 5864SOL    HW118491   3.386   3.368   2.563
 5864SOL    HW218492   3.489   3.416   2.446
 5865SOL     OW18493   6.590   0.478   6.899
 5865SOL    HW118494   6.593   0.572   6.931
 5865SOL    HW218495   6.512   0.466   6.837
 5866SOL     OW18496   3.267   2.901   2.569
 5866SOL    HW118497   3.257   2.802   2.576
 5866SOL    HW218498   3.285   2.940   2.659
 5867SOL     OW18499   3.566   1.586   1.378
 5867SOL    HW118500   3.631   1.656   1.348
 5867SOL    HW218501   3.607   1.495   1.364
 5868SOL     OW18502   1.140   0.880   0.421
 5868SOL    HW118503   1.051   0.859   0.462
 5868SOL    HW218504   1.148   0.834   0.332
 5869SOL     OW18505   1.080   5.978   3.286
 5869SOL    HW118506   1.053   5.904   3.347
 5869SOL    HW218507   1.135   5.941   3.211
 5870SOL     OW18508   3.930   6.419   4.100
 5870SOL    HW118509   3.867   6.489   4.067
 5870SOL    HW218510   3.879   6.346   4.144
 5871SOL     OW18511   3.708   3.259   3.586
 5871SOL    HW118512   3.801   3.234   3.559
 5871SOL    HW218513   3.670   3.321   3.518
 5872SOL     OW18514   4.547   6.414   0.321
 5872SOL    HW118515   4.620   6.348   0.341
 5872SOL    HW218516   4.485   6.375   0.254
 5873SOL     OW18517   3.960   6.105   2.045
 5873SOL    HW118518   4.042   6.130   2.097
 5873SOL    HW218519   3.883   6.161   2.075
 5874SOL     OW18520   0.685   3.937   5.600
 5874SOL    HW118521   0.595   3.918   5.562
 5874SOL    HW218522   0.694   4.035   5.616
 5875SOL     OW18523   3.878   1.874   1.429
 5875SOL    HW118524   3.875   1.948   1.361
 5875SOL    HW218525   3.907   1.789   1.385
 5876SOL     OW18526   3.349   3.584   1.949
 5876SOL    HW118527   3.342   3.663   1.888
 5876SOL    HW218528   3.259   3.541   1.960
 5877SOL     OW18529   5.549   4.492   1.293
 5877SOL    HW118530   5.644   4.465   1.309
 5877SOL    HW218531   5.546   4.568   1.229
 5878SOL     OW18532   2.115   3.899   2.617
 5878SOL    HW118533   2.206   3.941   2.623
 5878SOL    HW218534   2.105   3.853   2.530
 5879SOL     OW18535   0.828   4.097   4.051
 5879SOL    HW118536   0.814   4.162   4.126
 5879SOL    HW218537   0.909   4.125   3.998
 5880SOL     OW18538   3.506   5.970   0.193
 5880SOL    HW118539   3.407   5.962   0.201
 5880SOL    HW218540   3.546   5.980   0.284
 5881SOL     OW18541   1.113   5.821   4.180
 5881SOL    HW118542   1.146   5.756   4.248
 5881SOL    HW218543   1.096   5.774   4.094
 5882SOL     OW18544   4.809   0.682   2.721
 5882SOL    HW118545   4.750   0.629   2.783
 5882SOL    HW218546   4.789   0.779   2.732
 5883SOL     OW18547   0.522   3.412   5.418
 5883SOL    HW118548   0.616   3.440   5.398
 5883SOL    HW218549   0.464   3.493   5.426
 5884SOL     OW18550   0.551   0.790   3.805
 5884SOL    HW118551   0.550   0.691   3.817
 5884SOL    HW218552   0.493   0.815   3.728
 5885SOL     OW18553   5.934   6.316   1.154
 5885SOL    HW118554   5.901   6.226   1.126
 5885SOL    HW218555   5.864   6.385   1.133
 5886SOL     OW18556   0.621   0.938   6.450
 5886SOL    HW118557   0.691   0.867   6.448
 5886SOL    HW218558   0.534   0.900   6.418
 5887SOL     OW18559   4.366   6.535   3.124
 5887SOL    HW118560   4.330   6.606   3.063
 5887SOL    HW218561   4.461   6.557   3.149
 5888SOL     OW18562   0.509   1.007   2.753
 5888SOL    HW118563   0.536   0.916   2.781
 5888SOL    HW218564   0.409   1.012   2.747
 5889SOL     OW18565   2.440   0.366   0.013
 5889SOL    HW118566   2.443   0.353   6.936
 5889SOL    HW218567   2.446   0.278   0.059
 5890SOL     OW18568   3.368   4.817   5.536
 5890SOL    HW118569   3.288   4.846   5.590
 5890SOL    HW218570   3.424   4.755   5.591
 5891SOL     OW18571   2.481   3.662   6.569
 5891SOL    HW118572   2.534   3.727   6.515
 5891SOL    HW218573   2.415   3.712   6.626
 5892SOL     OW18574   1.790   6.659   2.817
 5892SOL    HW118575   1.814   6.746   2.772
 5892SOL    HW218576   1.748   6.597   2.751
 5893SOL     OW18577   1.922   0.794   3.284
 5893SOL    HW118578   1.890   0.711   3.329
 5893SOL    HW218579   1.843   0.845   3.249
 5894SOL     OW18580   0.751   3.530   4.315
 5894SOL    HW118581   0.652   3.527   4.302
 5894SOL    HW218582   0.795   3.474   4.245
 5895SOL     OW18583   5.613   3.811   3.576
 5895SOL    HW118584   5.532   3.784   3.627
 5895SOL    HW218585   5.635   3.906   3.596
 5896SOL     OW18586   4.804   2.259   5.745
 5896SOL    HW118587   4.856   2.193   5.799
 5896SOL    HW218588   4.844   2.266   5.654
 5897SOL     OW18589   4.153   0.001   1.428
 5897SOL    HW118590   4.134   6.972   1.512
 5897SOL    HW218591   4.088   6.996   1.357
 5898SOL     OW18592   2.483   6.646   2.612
 5898SOL    HW118593   2.579   6.657   2.639
 5898SOL    HW218594   2.451   6.555   2.638
 5899SOL     OW18595   5.647   0.545   3.637
 5899SOL    HW118596   5.629   0.642   3.620
 5899SOL    HW218597   5.593   0.490   3.573
 5900SOL     OW18598   3.882   5.036   2.532
 5900SOL    HW118599   3.870   5.134   2.513
 5900SOL    HW218600   3.803   4.985   2.500
 5901SOL     OW18601   3.422   6.224   4.878
 5901SOL    HW118602   3.419   6.288   4.801
 5901SOL    HW218603   3.437   6.131   4.843
 5902SOL     OW18604   6.301   1.674   6.622
 5902SOL    HW118605   6.264   1.597   6.674
 5902SOL    HW218606   6.245   1.689   6.540
 5903SOL     OW18607   6.464   3.512   6.794
 5903SOL    HW118608   6.545   3.498   6.850
 5903SOL    HW218609   6.383   3.479   6.844
 5904SOL     OW18610   0.547   3.881   2.065
 5904SOL    HW118611   0.591   3.822   2.133
 5904SOL    HW218612   0.585   3.973   2.071
 5905SOL     OW18613   6.499   5.013   1.962
 5905SOL    HW118614   6.562   5.084   1.992
 5905SOL    HW218615   6.462   5.037   1.872
 5906SOL     OW18616   0.267   1.712   4.062
 5906SOL    HW118617   0.249   1.682   4.156
 5906SOL    HW218618   0.349   1.667   4.027
 5907SOL     OW18619   1.742   6.895   2.255
 5907SOL    HW118620   1.725   6.873   2.158
 5907SOL    HW218621   1.794   6.981   2.261
 5908SOL     OW18622   0.251   2.740   5.924
 5908SOL    HW118623   0.250   2.694   5.835
 5908SOL    HW218624   0.157   2.749   5.957
 5909SOL     OW18625   0.006   3.959   0.869
 5909SOL    HW118626   0.061   3.995   0.945
 5909SOL    HW218627   6.980   4.034   0.824
 5910SOL     OW18628   2.120   1.677   3.559
 5910SOL    HW118629   2.166   1.680   3.648
 5910SOL    HW218630   2.039   1.619   3.565
 5911SOL     OW18631   6.471   6.280   6.325
 5911SOL    HW118632   6.563   6.241   6.328
 5911SOL    HW218633   6.446   6.314   6.415
 5912SOL     OW18634   0.941   0.484   3.891
 5912SOL    HW118635   0.893   0.487   3.803
 5912SOL    HW218636   0.982   0.573   3.909
 5913SOL     OW18637   5.997   1.881   0.126
 5913SOL    HW118638   5.987   1.849   0.220
 5913SOL    HW218639   6.091   1.864   0.095
 5914SOL     OW18640   0.971   6.523   0.550
 5914SOL    HW118641   1.069   6.503   0.552
 5914SOL    HW218642   0.926   6.478   0.627
 5915SOL     OW18643   4.058   1.587   5.819
 5915SOL    HW118644   4.126   1.625   5.883
 5915SOL    HW218645   3.968   1.592   5.860
 5916SOL     OW18646   0.953   6.557   2.232
 5916SOL    HW118647   0.896   6.482   2.200
 5916SOL    HW218648   0.941   6.568   2.331
 5917SOL     OW18649   3.544   4.190   0.436
 5917SOL    HW118650   3.504   4.191   0.345
 5917SOL    HW218651   3.563   4.284   0.465
 5918SOL     OW18652   2.957   6.250   4.738
 5918SOL    HW118653   2.975   6.294   4.650
 5918SOL    HW218654   3.040   6.206   4.772
 5919SOL     OW18655   3.312   3.495   4.783
 5919SOL    HW118656   3.218   3.514   4.754
 5919SOL    HW218657   3.372   3.567   4.751
 5920SOL     OW18658   6.339   0.347   5.517
 5920SOL    HW118659   6.389   0.355   5.603
 5920SOL    HW218660   6.403   0.330   5.442
 5921SOL     OW18661   2.610   4.323   6.707
 5921SOL    HW118662   2.616   4.230   6.743
 5921SOL    HW218663   2.543   4.325   6.633
 5922SOL     OW18664   5.116   2.787   2.289
 5922SOL    HW118665   5.083   2.700   2.251
 5922SOL    HW218666   5.039   2.838   2.326
 5923SOL     OW18667   6.188   0.847   3.282
 5923SOL    HW118668   6.092   0.838   3.255
 5923SOL    HW218669   6.242   0.775   3.240
 5924SOL     OW18670   5.092   6.708   3.445
 5924SOL    HW118671   5.053   6.721   3.536
 5924SOL    HW218672   5.162   6.778   3.428
 5925SOL     OW18673   4.709   1.161   1.081
 5925SOL    HW118674   4.642   1.159   1.155
 5925SOL    HW218675   4.664   1.134   0.996
 5926SOL     OW18676   4.827   4.558   3.422
 5926SOL    HW118677   4.878   4.568   3.337
 5926SOL    HW218678   4.738   4.516   3.404
 5927SOL     OW18679   0.466   4.524   1.946
 5927SOL    HW118680   0.501   4.513   1.853
 5927SOL    HW218681   0.459   4.621   1.968
 5928SOL     OW18682   2.795   0.425   0.090
 5928SOL    HW118683   2.762   0.491   0.022
 5928SOL    HW218684   2.737   0.344   0.090
 5929SOL     OW18685   1.687   0.850   0.031
 5929SOL    HW118686   1.704   0.918   0.102
 5929SOL    HW218687   1.773   0.806   0.005
 5930SOL     OW18688   1.830   3.824   2.410
 5930SOL    HW118689   1.840   3.732   2.448
 5930SOL    HW218690   1.779   3.819   2.323
 5931SOL     OW18691   4.948   6.836   3.263
 5931SOL    HW118692   4.897   6.787   3.192
 5931SOL    HW218693   4.998   6.771   3.319
 5932SOL     OW18694   2.929   0.752   6.473
 5932SOL    HW118695   3.015   0.797   6.448
 5932SOL    HW218696   2.890   0.707   6.393
 5933SOL     OW18697   5.996   6.127   4.777
 5933SOL    HW118698   6.043   6.167   4.699
 5933SOL    HW218699   6.051   6.138   4.860
 5934SOL     OW18700   3.413   3.459   6.813
 5934SOL    HW118701   3.379   3.416   6.729
 5934SOL    HW218702   3.509   3.484   6.801
 5935SOL     OW18703   1.238   6.127   6.242
 5935SOL    HW118704   1.269   6.093   6.153
 5935SOL    HW218705   1.170   6.065   6.280
 5936SOL     OW18706   3.695   3.329   2.088
 5936SOL    HW118707   3.716   3.273   2.008
 5936SOL    HW218708   3.674   3.422   2.059
 5937SOL     OW18709   0.437   3.334   1.013
 5937SOL    HW118710   0.487   3.320   1.098
 5937SOL    HW218711   0.375   3.257   0.998
 5938SOL     OW18712   0.529   4.543   4.088
 5938SOL    HW118713   0.547   4.453   4.126
 5938SOL    HW218714   0.464   4.592   4.145
 5939SOL     OW18715   4.029   1.619   5.265
 5939SOL    HW118716   3.933   1.625   5.238
 5939SOL    HW218717   4.036   1.578   5.356
 5940SOL     OW18718   4.733   5.561   1.919
 5940SOL    HW118719   4.736   5.543   1.820
 5940SOL    HW218720   4.826   5.559   1.956
 5941SOL     OW18721   0.328   2.228   3.074
 5941SOL    HW118722   0.295   2.220   2.980
 5941SOL    HW218723   0.251   2.216   3.137
 5942SOL     OW18724   5.027   2.930   5.943
 5942SOL    HW118725   5.087   2.913   6.021
 5942SOL    HW218726   5.043   3.022   5.908
 5943SOL     OW18727   2.979   4.362   1.694
 5943SOL    HW118728   2.927   4.428   1.749
 5943SOL    HW218729   2.915   4.303   1.645
 5944SOL     OW18730   6.416   3.497   6.447
 5944SOL    HW118731   6.360   3.474   6.367
 5944SOL    HW218732   6.459   3.415   6.483
 5945SOL     OW18733   6.607   6.354   4.724
 5945SOL    HW118734   6.622   6.255   4.719
 5945SOL    HW218735   6.578   6.389   4.635
 5946SOL     OW18736   2.196   3.582   0.515
 5946SOL    HW118737   2.188   3.678   0.541
 5946SOL    HW218738   2.107   3.538   0.524
 5947SOL     OW18739   3.906   3.222   4.793
 5947SOL    HW118740   3.921   3.162   4.715
 5947SOL    HW218741   3.893   3.316   4.761
 5948SOL     OW18742   4.921   3.286   1.987
 5948SOL    HW118743   4.907   3.258   2.082
 5948SOL    HW218744   4.852   3.244   1.928
 5949SOL     OW18745   0.379   4.677   2.722
 5949SOL    HW118746   0.286   4.709   2.707
 5949SOL    HW218747   0.377   4.594   2.777
 5950SOL     OW18748   3.819   0.003   4.626
 5950SOL    HW118749   3.729   6.994   4.656
 5950SOL    HW218750   3.890   6.975   4.676
 5951SOL     OW18751   0.373   3.623   6.642
 5951SOL    HW118752   0.283   3.586   6.618
 5951SOL    HW218753   0.366   3.679   6.725
 5952SOL     OW18754   4.426   4.415   1.151
 5952SOL    HW118755   4.351   4.429   1.216
 5952SOL    HW218756   4.434   4.495   1.091
 5953SOL     OW18757   6.285   2.857   5.121
 5953SOL    HW118758   6.206   2.905   5.158
 5953SOL    HW218759   6.286   2.865   5.021
 5954SOL     OW18760   1.831   6.180   4.191
 5954SOL    HW118761   1.749   6.231   4.164
 5954SOL    HW218762   1.819   6.142   4.282
 5955SOL     OW18763   5.382   3.615   0.162
 5955SOL    HW118764   5.371   3.711   0.136
 5955SOL    HW218765   5.376   3.605   0.261
 5956SOL     OW18766   5.365   2.362   5.492
 5956SOL    HW118767   5.326   2.337   5.404
 5956SOL    HW218768   5.457   2.400   5.478
 5957SOL     OW18769   6.582   1.785   3.280
 5957SOL    HW118770   6.636   1.795   3.364
 5957SOL    HW218771   6.493   1.830   3.292
 5958SOL     OW18772   3.079   0.233   2.722
 5958SOL    HW118773   3.013   0.215   2.795
 5958SOL    HW218774   3.169   0.201   2.750
 5959SOL     OW18775   4.833   2.463   4.070
 5959SOL    HW118776   4.796   2.555   4.081
 5959SOL    HW218777   4.766   2.396   4.102
 5960SOL     OW18778   4.077   7.004   6.126
 5960SOL    HW118779   4.094   6.988   6.223
 5960SOL    HW218780   4.002   6.946   6.095
 5961SOL     OW18781   2.593   2.472   3.001
 5961SOL    HW118782   2.522   2.517   2.947
 5961SOL    HW218783   2.633   2.397   2.948
 5962SOL     OW18784   5.177   5.860   0.769
 5962SOL    HW118785   5.277   5.866   0.772
 5962SOL    HW218786   5.138   5.942   0.809
 5963SOL     OW18787   2.865   3.888   0.347
 5963SOL    HW118788   2.794   3.955   0.330
 5963SOL    HW218789   2.947   3.910   0.293
 5964SOL     OW18790   2.743   6.640   2.281
 5964SOL    HW118791   2.647   6.621   2.302
 5964SOL    HW218792   2.783   6.563   2.232
 5965SOL     OW18793   2.113   0.444   0.093
 5965SOL    HW118794   2.177   0.382   0.046
 5965SOL    HW218795   2.137   0.539   0.072
 5966SOL     OW18796   2.758   1.510   4.845
 5966SOL    HW118797   2.700   1.435   4.879
 5966SOL    HW218798   2.829   1.472   4.786
 5967SOL     OW18799   3.944   1.618   4.411
 5967SOL    HW118800   4.035   1.647   4.381
 5967SOL    HW218801   3.941   1.616   4.511
 5968SOL     OW18802   5.749   2.869   1.834
 5968SOL    HW118803   5.758   2.846   1.737
 5968SOL    HW218804   5.654   2.896   1.854
 5969SOL     OW18805   5.900   0.340   0.754
 5969SOL    HW118806   5.897   0.262   0.691
 5969SOL    HW218807   5.865   0.422   0.708
 5970SOL     OW18808   0.044   3.682   0.473
 5970SOL    HW118809   6.985   3.634   0.439
 5970SOL    HW218810   0.123   3.620   0.473
 5971SOL     OW18811   6.805   6.385   3.784
 5971SOL    HW118812   6.875   6.415   3.849
 5971SOL    HW218813   6.720   6.434   3.801
 5972SOL     OW18814   4.893   4.772   0.750
 5972SOL    HW118815   4.846   4.777   0.839
 5972SOL    HW218816   4.890   4.679   0.715
 5973SOL     OW18817   3.075   1.327   2.304
 5973SOL    HW118818   2.981   1.312   2.335
 5973SOL    HW218819   3.123   1.385   2.370
 5974SOL     OW18820   5.165   2.055   5.530
 5974SOL    HW118821   5.246   2.005   5.499
 5974SOL    HW218822   5.141   2.026   5.623
 5975SOL     OW18823   4.604   5.147   1.001
 5975SOL    HW118824   4.612   5.217   1.072
 5975SOL    HW218825   4.664   5.171   0.924
 5976SOL     OW18826   2.435   3.137   5.659
 5976SOL    HW118827   2.396   3.057   5.614
 5976SOL    HW218828   2.401   3.143   5.752
 5977SOL     OW18829   6.800   4.617   0.999
 5977SOL    HW118830   6.774   4.526   1.031
 5977SOL    HW218831   6.718   4.669   0.974
 5978SOL     OW18832   2.486   3.472   6.965
 5978SOL    HW118833   2.493   3.456   6.867
 5978SOL    HW218834   2.493   3.384   7.013
 5979SOL     OW18835   5.653   0.927   1.763
 5979SOL    HW118836   5.741   0.971   1.780
 5979SOL    HW218837   5.604   0.975   1.691
 5980SOL     OW18838   3.056   2.770   1.209
 5980SOL    HW118839   3.137   2.808   1.165
 5980SOL    HW218840   3.061   2.670   1.209
 5981SOL     OW18841   3.212   2.303   0.560
 5981SOL    HW118842   3.230   2.209   0.531
 5981SOL    HW218843   3.185   2.358   0.482
 5982SOL     OW18844   5.318   3.135   0.094
 5982SOL    HW118845   5.415   3.112   0.086
 5982SOL    HW218846   5.293   3.144   0.191
 5983SOL     OW18847   6.789   1.019   3.649
 5983SOL    HW118848   6.884   1.023   3.681
 5983SOL    HW218849   6.741   1.101   3.679
 5984SOL     OW18850   5.795   6.992   4.268
 5984SOL    HW118851   5.819   6.919   4.205
 5984SOL    HW218852   5.768   0.052   4.217
 5985SOL     OW18853   6.204   3.287   2.339
 5985SOL    HW118854   6.196   3.356   2.411
 5985SOL    HW218855   6.220   3.332   2.251
 5986SOL     OW18856   3.931   3.487   4.778
 5986SOL    HW118857   3.921   3.556   4.850
 5986SOL    HW218858   4.027   3.481   4.750
 5987SOL     OW18859   0.243   6.738   5.384
 5987SOL    HW118860   0.171   6.788   5.433
 5987SOL    HW218861   0.203   6.688   5.307
 5988SOL     OW18862   0.991   2.877   6.182
 5988SOL    HW118863   1.024   2.909   6.093
 5988SOL    HW218864   1.019   2.782   6.196
 5989SOL     OW18865   0.776   6.148   5.897
 5989SOL    HW118866   0.715   6.206   5.951
 5989SOL    HW218867   0.840   6.101   5.957
 5990SOL     OW18868   3.201   4.757   1.858
 5990SOL    HW118869   3.152   4.816   1.793
 5990SOL    HW218870   3.280   4.716   1.813
 5991SOL     OW18871   4.568   0.380   0.545
 5991SOL    HW118872   4.539   0.404   0.637
 5991SOL    HW218873   4.487   0.359   0.490
 5992SOL     OW18874   3.457   6.272   2.166
 5992SOL    HW118875   3.443   6.173   2.171
 5992SOL    HW218876   3.408   6.317   2.240
 5993SOL     OW18877   5.560   2.021   0.256
 5993SOL    HW118878   5.622   2.083   0.208
 5993SOL    HW218879   5.505   1.971   0.190
 5994SOL     OW18880   0.095   3.397   0.213
 5994SOL    HW118881   0.192   3.397   0.237
 5994SOL    HW218882   0.061   3.303   0.208
 5995SOL     OW18883   4.886   3.789   1.540
 5995SOL    HW118884   4.827   3.869   1.546
 5995SOL    HW218885   4.944   3.783   1.620
 5996SOL     OW18886   2.775   5.648   1.076
 5996SOL    HW118887   2.714   5.593   1.018
 5996SOL    HW218888   2.724   5.680   1.156
 5997SOL     OW18889   6.000   0.413   3.969
 5997SOL    HW118890   5.918   0.398   3.913
 5997SOL    HW218891   5.984   0.490   4.031
 5998SOL     OW18892   6.080   5.782   0.717
 5998SOL    HW118893   6.140   5.789   0.637
 5998SOL    HW218894   6.058   5.686   0.734
 5999SOL     OW18895   5.019   3.063   1.615
 5999SOL    HW118896   5.107   3.058   1.567
 5999SOL    HW218897   4.993   2.972   1.648
 6000SOL     OW18898   0.690   4.305   1.061
 6000SOL    HW118899   0.739   4.279   0.978
 6000SOL    HW218900   0.651   4.223   1.104
 6001SOL     OW18901   6.549   5.631   5.855
 6001SOL    HW118902   6.462   5.642   5.903
 6001SOL    HW218903   6.532   5.591   5.765
 6002SOL     OW18904   5.749   4.990   5.279
 6002SOL    HW118905   5.712   5.058   5.343
 6002SOL    HW218906   5.847   4.979   5.295
 6003SOL     OW18907   1.870   2.591   4.781
 6003SOL    HW118908   1.865   2.672   4.723
 6003SOL    HW218909   1.946   2.602   4.846
 6004SOL     OW18910   5.229   2.100   4.246
 6004SOL    HW118911   5.142   2.090   4.198
 6004SOL    HW218912   5.224   2.176   4.310
 6005SOL     OW18913   4.339   4.781   6.791
 6005SOL    HW118914   4.415   4.758   6.730
 6005SOL    HW218915   4.260   4.809   6.736
 6006SOL     OW18916   3.175   6.154   6.421
 6006SOL    HW118917   3.100   6.117   6.476
 6006SOL    HW218918   3.212   6.082   6.362
 6007SOL     OW18919   2.577   5.763   6.322
 6007SOL    HW118920   2.569   5.682   6.264
 6007SOL    HW218921   2.655   5.751   6.385
 6008SOL     OW18922   3.441   3.882   6.289
 6008SOL    HW118923   3.388   3.798   6.278
 6008SOL    HW218924   3.408   3.951   6.224
 6009SOL     OW18925   3.726   5.155   2.964
 6009SOL    HW118926   3.710   5.232   2.902
 6009SOL    HW218927   3.804   5.176   3.023
 6010SOL     OW18928   0.516   5.298   4.005
 6010SOL    HW118929   0.438   5.264   4.057
 6010SOL    HW218930   0.600   5.263   4.045
 6011SOL     OW18931   6.187   1.945   1.846
 6011SOL    HW118932   6.267   1.962   1.788
 6011SOL    HW218933   6.186   1.849   1.873
 6012SOL     OW18934   6.944   0.449   6.341
 6012SOL    HW118935   6.961   0.543   6.368
 6012SOL    HW218936   6.949   0.389   6.421
 6013SOL     OW18937   5.816   1.444   2.270
 6013SOL    HW118938   5.781   1.498   2.346
 6013SOL    HW218939   5.740   1.402   2.221
 6014SOL     OW18940   3.345   3.927   3.896
 6014SOL    HW118941   3.405   4.000   3.864
 6014SOL    HW218942   3.333   3.933   3.995
 6015SOL     OW18943   5.928   0.310   4.295
 6015SOL    HW118944   5.858   0.287   4.227
 6015SOL    HW218945   5.922   0.245   4.372
 6016SOL     OW18946   4.613   1.214   4.916
 6016SOL    HW118947   4.517   1.219   4.888
 6016SOL    HW218948   4.664   1.159   4.850
 6017SOL     OW18949   0.236   1.959   5.793
 6017SOL    HW118950   0.222   1.919   5.883
 6017SOL    HW218951   0.196   1.899   5.723
 6018SOL     OW18952   2.719   1.295   4.411
 6018SOL    HW118953   2.737   1.202   4.379
 6018SOL    HW218954   2.634   1.297   4.463
 6019SOL     OW18955   6.380   4.234   6.967
 6019SOL    HW118956   6.289   4.196   6.954
 6019SOL    HW218957   6.376   4.308   0.012
 6020SOL     OW18958   0.748   4.811   6.106
 6020SOL    HW118959   0.834   4.802   6.156
 6020SOL    HW218960   0.678   4.754   6.148
 6021SOL     OW18961   5.878   6.786   3.449
 6021SOL    HW118962   5.792   6.822   3.485
 6021SOL    HW218963   5.925   6.735   3.521
 6022SOL     OW18964   6.761   2.018   1.440
 6022SOL    HW118965   6.792   1.968   1.521
 6022SOL    HW218966   6.692   1.964   1.392
 6023SOL     OW18967   3.791   0.279   1.665
 6023SOL    HW118968   3.865   0.321   1.613
 6023SOL    HW218969   3.720   0.347   1.684
 6024SOL     OW18970   1.328   6.245   0.446
 6024SOL    HW118971   1.408   6.259   0.388
 6024SOL    HW218972   1.357   6.203   0.533
 6025SOL     OW18973   3.187   0.586   4.527
 6025SOL    HW118974   3.101   0.619   4.490
 6025SOL    HW218975   3.233   0.529   4.458
 6026SOL     OW18976   5.899   5.651   4.430
 6026SOL    HW118977   5.930   5.646   4.525
 6026SOL    HW218978   5.869   5.560   4.400
 6027SOL     OW18979   5.370   4.440   6.575
 6027SOL    HW118980   5.331   4.420   6.664
 6027SOL    HW218981   5.316   4.510   6.528
 6028SOL     OW18982   5.822   5.423   5.940
 6028SOL    HW118983   5.892   5.405   5.871
 6028SOL    HW218984   5.759   5.493   5.905
 6029SOL     OW18985   2.608   0.852   2.369
 6029SOL    HW118986   2.629   0.780   2.435
 6029SOL    HW218987   2.641   0.825   2.279
 6030SOL     OW18988   5.823   3.484   4.142
 6030SOL    HW118989   5.753   3.552   4.164
 6030SOL    HW218990   5.820   3.463   4.044
 6031SOL     OW18991   0.426   5.815   5.417
 6031SOL    HW118992   0.394   5.725   5.386
 6031SOL    HW218993   0.377   5.887   5.368
 6032SOL     OW18994   3.657   5.678   3.642
 6032SOL    HW118995   3.589   5.608   3.618
 6032SOL    HW218996   3.634   5.764   3.597
 6033SOL     OW18997   1.335   1.924   2.809
 6033SOL    HW118998   1.258   1.876   2.766
 6033SOL    HW218999   1.358   1.878   2.895
 6034SOL     OW19000   1.179   0.198   0.890
 6034SOL    HW119001   1.220   0.161   0.807
 6034SOL    HW219002   1.169   0.297   0.882
 6035SOL     OW19003   2.199   0.279   2.741
 6035SOL    HW119004   2.150   0.196   2.769
 6035SOL    HW219005   2.157   0.358   2.784
 6036SOL     OW19006   0.062   3.352   1.018
 6036SOL    HW119007   7.010   3.303   1.065
 6036SOL    HW219008   0.149   3.305   1.036
 6037SOL     OW19009   4.858   2.100   7.013
 6037SOL    HW119010   4.832   2.026   6.951
 6037SOL    HW219011   4.881   2.061   0.080
 6038SOL     OW19012   0.910   1.951   5.950
 6038SOL    HW119013   0.884   2.013   5.877
 6038SOL    HW219014   0.972   1.881   5.914
 6039SOL     OW19015   3.916   3.368   3.748
 6039SOL    HW119016   3.880   3.275   3.744
 6039SOL    HW219017   3.927   3.404   3.655
 6040SOL     OW19018   0.621   1.424   0.220
 6040SOL    HW119019   0.555   1.402   0.292
 6040SOL    HW219020   0.656   1.340   0.179
 6041SOL     OW19021   2.457   3.438   5.584
 6041SOL    HW119022   2.357   3.440   5.586
 6041SOL    HW219023   2.487   3.342   5.582
 6042SOL     OW19024   3.532   5.725   3.876
 6042SOL    HW119025   3.576   5.665   3.810
 6042SOL    HW219026   3.472   5.789   3.829
 6043SOL     OW19027   2.572   0.669   3.218
 6043SOL    HW119028   2.507   0.594   3.212
 6043SOL    HW219029   2.523   0.755   3.226
 6044SOL     OW19030   1.231   3.285   1.359
 6044SOL    HW119031   1.258   3.243   1.446
 6044SOL    HW219032   1.195   3.214   1.298
 6045SOL     OW19033   4.964   1.598   3.389
 6045SOL    HW119034   4.945   1.503   3.414
 6045SOL    HW219035   5.001   1.646   3.468
 6046SOL     OW19036   3.669   2.947   2.729
 6046SOL    HW119037   3.638   2.890   2.653
 6046SOL    HW219038   3.708   3.032   2.693
 6047SOL     OW19039   6.761   1.933   0.688
 6047SOL    HW119040   6.844   1.988   0.678
 6047SOL    HW219041   6.737   1.926   0.785
 6048SOL     OW19042   5.364   5.663   4.177
 6048SOL    HW119043   5.301   5.632   4.247
 6048SOL    HW219044   5.356   5.762   4.166
 6049SOL     OW19045   4.364   4.794   5.747
 6049SOL    HW119046   4.393   4.847   5.668
 6049SOL    HW219047   4.410   4.705   5.745
 6050SOL     OW19048   3.327   6.030   2.229
 6050SOL    HW119049   3.270   5.951   2.208
 6050SOL    HW219050   3.364   6.020   2.321
 6051SOL     OW19051   0.320   1.430   3.439
 6051SOL    HW119052   0.360   1.461   3.352
 6051SOL    HW219053   0.392   1.396   3.499
 6052SOL     OW19054   5.106   6.372   0.248
 6052SOL    HW119055   5.097   6.297   0.313
 6052SOL    HW219056   5.200   6.380   0.217
 6053SOL     OW19057   4.178   2.523   6.051
 6053SOL    HW119058   4.096   2.468   6.034
 6053SOL    HW219059   4.239   2.519   5.972
 6054SOL     OW19060   3.678   4.439   0.815
 6054SOL    HW119061   3.730   4.354   0.818
 6054SOL    HW219062   3.580   4.418   0.805
 6055SOL     OW19063   3.364   3.722   1.110
 6055SOL    HW119064   3.341   3.678   1.023
 6055SOL    HW219065   3.437   3.671   1.154
 6056SOL     OW19066   5.464   6.095   3.860
 6056SOL    HW119067   5.557   6.120   3.887
 6056SOL    HW219068   5.459   5.996   3.846
 6057SOL     OW19069   4.657   0.194   4.234
 6057SOL    HW119070   4.738   0.136   4.224
 6057SOL    HW219071   4.584   0.142   4.279
 6058SOL     OW19072   5.880   2.441   5.878
 6058SOL    HW119073   5.834   2.405   5.960
 6058SOL    HW219074   5.961   2.492   5.905
 6059SOL     OW19075   4.420   2.798   0.039
 6059SOL    HW119076   4.464   2.783   0.127
 6059SOL    HW219077   4.369   2.884   0.041
 6060SOL     OW19078   2.139   3.256   0.194
 6060SOL    HW119079   2.052   3.307   0.195
 6060SOL    HW219080   2.205   3.305   0.251
 6061SOL     OW19081   2.914   4.249   0.089
 6061SOL    HW119082   2.887   4.323   0.029
 6061SOL    HW219083   2.836   4.220   0.144
 6062SOL     OW19084   1.869   2.371   0.119
 6062SOL    HW119085   1.835   2.464   0.107
 6062SOL    HW219086   1.909   2.362   0.211
 6063SOL     OW19087   4.724   4.450   6.377
 6063SOL    HW119088   4.752   4.448   6.473
 6063SOL    HW219089   4.774   4.380   6.326
 6064SOL     OW19090   6.631   5.293   1.194
 6064SOL    HW119091   6.600   5.385   1.215
 6064SOL    HW219092   6.571   5.226   1.237
 6065SOL     OW19093   1.497   0.077   2.203
 6065SOL    HW119094   1.425   0.032   2.150
 6065SOL    HW219095   1.455   0.147   2.262
 6066SOL     OW19096   5.433   5.969   3.403
 6066SOL    HW119097   5.503   6.039   3.397
 6066SOL    HW219098   5.363   5.985   3.333
 6067SOL     OW19099   5.924   6.887   6.027
 6067SOL    HW119100   5.899   6.844   6.114
 6067SOL    HW219101   6.018   6.861   6.003
 6068SOL     OW19102   4.383   2.373   4.267
 6068SOL    HW119103   4.451   2.441   4.239
 6068SOL    HW219104   4.427   2.301   4.321
 6069SOL     OW19105   0.162   4.151   6.104
 6069SOL    HW119106   0.116   4.063   6.094
 6069SOL    HW219107   0.186   4.187   6.014
 6070SOL     OW19108   2.740   1.236   0.537
 6070SOL    HW119109   2.750   1.330   0.504
 6070SOL    HW219110   2.657   1.228   0.591
 6071SOL     OW19111   5.998   0.888   5.941
 6071SOL    HW119112   6.055   0.861   5.864
 6071SOL    HW219113   5.966   0.982   5.927
 6072SOL     OW19114   6.985   2.579   0.579
 6072SOL    HW119115   6.993   2.590   0.678
 6072SOL    HW219116   6.940   2.492   0.559
 6073SOL     OW19117   5.025   2.894   0.176
 6073SOL    HW119118   4.940   2.855   0.212
 6073SOL    HW219119   5.028   2.992   0.197
 6074SOL     OW19120   0.735   6.812   2.389
 6074SOL    HW119121   0.807   6.743   2.391
 6074SOL    HW219122   0.675   6.800   2.469
 6075SOL     OW19123   5.521   0.398   6.460
 6075SOL    HW119124   5.512   0.304   6.494
 6075SOL    HW219125   5.436   0.426   6.415
 6076SOL     OW19126   1.212   5.834   3.076
 6076SOL    HW119127   1.282   5.775   3.117
 6076SOL    HW219128   1.239   5.858   2.983
 6077SOL     OW19129   5.381   6.928   2.361
 6077SOL    HW119130   5.294   6.880   2.376
 6077SOL    HW219131   5.434   6.928   2.446
 6078SOL     OW19132   4.175   4.215   0.447
 6078SOL    HW119133   4.132   4.128   0.420
 6078SOL    HW219134   4.121   4.258   0.519
 6079SOL     OW19135   3.178   3.073   0.565
 6079SOL    HW119136   3.103   3.135   0.586
 6079SOL    HW219137   3.179   3.052   0.467
 6080SOL     OW19138   0.054   5.031   6.858
 6080SOL    HW119139   0.136   5.070   6.817
 6080SOL    HW219140   0.050   4.933   6.838
 6081SOL     OW19141   1.236   3.932   3.858
 6081SOL    HW119142   1.166   3.925   3.788
 6081SOL    HW219143   1.202   3.891   3.943
 6082SOL     OW19144   4.784   0.718   0.992
 6082SOL    HW119145   4.713   0.691   1.058
 6082SOL    HW219146   4.844   0.787   1.033
 6083SOL     OW19147   4.582   0.577   6.260
 6083SOL    HW119148   4.579   0.504   6.191
 6083SOL    HW219149   4.638   0.548   6.338
 6084SOL     OW19150   0.187   6.129   2.290
 6084SOL    HW119151   0.189   6.222   2.328
 6084SOL    HW219152   0.254   6.123   2.215
 6085SOL     OW19153   0.660   6.951   0.546
 6085SOL    HW119154   0.695   6.994   0.629
 6085SOL    HW219155   0.572   6.907   0.565
 6086SOL     OW19156   3.436   3.960   6.585
 6086SOL    HW119157   3.359   4.020   6.608
 6086SOL    HW219158   3.402   3.869   6.561
 6087SOL     OW19159   5.134   6.615   0.635
 6087SOL    HW119160   5.083   6.670   0.701
 6087SOL    HW219161   5.071   6.552   0.588
 6088SOL     OW19162   5.440   6.037   3.063
 6088SOL    HW119163   5.360   6.071   3.112
 6088SOL    HW219164   5.493   6.114   3.027
 6089SOL     OW19165   6.406   4.081   3.887
 6089SOL    HW119166   6.440   4.071   3.793
 6089SOL    HW219167   6.442   4.007   3.943
 6090SOL     OW19168   3.951   5.941   4.340
 6090SOL    HW119169   4.017   5.918   4.411
 6090SOL    HW219170   3.870   5.983   4.381
 6091SOL     OW19171   1.391   1.481   2.249
 6091SOL    HW119172   1.454   1.541   2.201
 6091SOL    HW219173   1.313   1.534   2.284
 6092SOL     OW19174   3.148   6.036   0.677
 6092SOL    HW119175   3.201   5.960   0.714
 6092SOL    HW219176   3.052   6.007   0.666
 6093SOL     OW19177   2.142   2.140   2.433
 6093SOL    HW119178   2.213   2.077   2.464
 6093SOL    HW219179   2.184   2.213   2.379
 6094SOL     OW19180   0.392   6.112   5.004
 6094SOL    HW119181   0.488   6.093   4.983
 6094SOL    HW219182   0.377   6.211   5.006
 6095SOL     OW19183   4.899   4.977   1.766
 6095SOL    HW119184   4.962   4.899   1.768
 6095SOL    HW219185   4.808   4.946   1.738
 6096SOL     OW19186   5.387   6.473   3.110
 6096SOL    HW119187   5.436   6.405   3.055
 6096SOL    HW219188   5.303   6.499   3.063
 6097SOL     OW19189   1.854   5.164   1.662
 6097SOL    HW119190   1.908   5.241   1.628
 6097SOL    HW219191   1.895   5.128   1.746
 6098SOL     OW19192   6.266   0.414   4.449
 6098SOL    HW119193   6.360   0.446   4.439
 6098SOL    HW219194   6.205   0.475   4.398
 6099SOL     OW19195   3.991   0.803   6.081
 6099SOL    HW119196   4.047   0.883   6.099
 6099SOL    HW219197   3.912   0.803   6.142
 6100SOL     OW19198   0.344   6.262   5.408
 6100SOL    HW119199   0.441   6.284   5.396
 6100SOL    HW219200   0.322   6.262   5.505
 6101SOL     OW19201   6.945   2.830   1.757
 6101SOL    HW119202   6.975   2.917   1.718
 6101SOL    HW219203   6.846   2.825   1.754
 6102SOL     OW19204   4.296   6.989   2.580
 6102SOL    HW119205   4.250   0.039   2.633
 6102SOL    HW219206   4.354   6.935   2.641
 6103SOL     OW19207   6.286   1.834   2.142
 6103SOL    HW119208   6.260   1.791   2.055
 6103SOL    HW219209   6.379   1.806   2.166
 6104SOL     OW19210   0.122   0.418   3.911
 6104SOL    HW119211   0.108   0.483   3.835
 6104SOL    HW219212   0.043   0.358   3.918
 6105SOL     OW19213   3.076   4.553   5.325
 6105SOL    HW119214   2.988   4.555   5.277
 6105SOL    HW219215   3.110   4.459   5.328
 6106SOL     OW19216   6.058   5.198   5.704
 6106SOL    HW119217   6.089   5.278   5.755
 6106SOL    HW219218   6.021   5.131   5.767
 6107SOL     OW19219   5.345   5.468   5.209
 6107SOL    HW119220   5.367   5.381   5.253
 6107SOL    HW219221   5.343   5.456   5.110
 6108SOL     OW19222   2.391   1.509   0.648
 6108SOL    HW119223   2.479   1.551   0.670
 6108SOL    HW219224   2.406   1.424   0.598
 6109SOL     OW19225   6.364   6.916   3.487
 6109SOL    HW119226   6.295   6.903   3.416
 6109SOL    HW219227   6.328   6.886   3.575
 6110SOL     OW19228   1.596   1.395   4.100
 6110SOL    HW119229   1.509   1.381   4.052
 6110SOL    HW219230   1.653   1.459   4.047
 6111SOL     OW19231   1.911   4.495   0.558
 6111SOL    HW119232   1.953   4.447   0.481
 6111SOL    HW219233   1.982   4.520   0.624
 6112SOL     OW19234   5.026   0.265   2.806
 6112SOL    HW119235   5.081   0.306   2.878
 6112SOL    HW219236   4.932   0.252   2.839
 6113SOL     OW19237   2.840   5.083   0.503
 6113SOL    HW119238   2.923   5.077   0.448
 6113SOL    HW219239   2.826   5.177   0.533
 6114SOL     OW19240   4.592   2.076   0.266
 6114SOL    HW119241   4.592   2.125   0.353
 6114SOL    HW219242   4.686   2.059   0.237
 6115SOL     OW19243   0.763   0.676   5.743
 6115SOL    HW119244   0.729   0.690   5.650
 6115SOL    HW219245   0.863   0.679   5.742
 6116SOL     OW19246   5.370   1.986   6.151
 6116SOL    HW119247   5.358   1.901   6.101
 6116SOL    HW219248   5.297   2.050   6.126
 6117SOL     OW19249   2.090   2.234   1.161
 6117SOL    HW119250   2.082   2.136   1.179
 6117SOL    HW219251   2.000   2.272   1.142
 6118SOL     OW19252   6.138   0.870   0.993
 6118SOL    HW119253   6.088   0.955   0.977
 6118SOL    HW219254   6.221   0.868   0.937
 6119SOL     OW19255   0.034   2.130   0.456
 6119SOL    HW119256   0.076   2.039   0.445
 6119SOL    HW219257   0.073   2.193   0.389
 6120SOL     OW19258   2.606   0.929   4.533
 6120SOL    HW119259   2.623   0.993   4.608
 6120SOL    HW219260   2.560   0.848   4.569
 6121SOL     OW19261   0.581   2.884   4.806
 6121SOL    HW119262   0.504   2.889   4.742
 6121SOL    HW219263   0.583   2.793   4.848
 6122SOL     OW19264   5.166   4.967   5.700
 6122SOL    HW119265   5.105   5.045   5.715
 6122SOL    HW219266   5.127   4.886   5.745
 6123SOL     OW19267   5.461   1.397   5.452
 6123SOL    HW119268   5.482   1.463   5.524
 6123SOL    HW219269   5.371   1.356   5.469
 6124SOL     OW19270   2.568   6.273   3.997
 6124SOL    HW119271   2.556   6.353   4.055
 6124SOL    HW219272   2.558   6.190   4.051
 6125SOL     OW19273   2.222   2.259   6.728
 6125SOL    HW119274   2.308   2.303   6.754
 6125SOL    HW219275   2.233   2.214   6.639
 6126SOL     OW19276   5.982   3.109   5.003
 6126SOL    HW119277   5.910   3.041   5.021
 6126SOL    HW219278   5.943   3.187   4.955
 6127SOL     OW19279   4.215   2.328   1.554
 6127SOL    HW119280   4.285   2.400   1.556
 6127SOL    HW219281   4.147   2.346   1.625
 6128SOL     OW19282   5.527   5.844   0.463
 6128SOL    HW119283   5.558   5.809   0.551
 6128SOL    HW219284   5.427   5.835   0.456
 6129SOL     OW19285   1.380   5.398   2.019
 6129SOL    HW119286   1.410   5.446   2.101
 6129SOL    HW219287   1.344   5.464   1.953
 6130SOL     OW19288   5.863   2.379   0.265
 6130SOL    HW119289   5.910   2.440   0.330
 6130SOL    HW219290   5.878   2.284   0.293
 6131SOL     OW19291   6.322   1.648   2.916
 6131SOL    HW119292   6.339   1.557   2.876
 6131SOL    HW219293   6.261   1.639   2.995
 6132SOL     OW19294   3.612   1.469   6.709
 6132SOL    HW119295   3.568   1.381   6.727
 6132SOL    HW219296   3.706   1.467   6.744
 6133SOL     OW19297   1.947   1.869   3.664
 6133SOL    HW119298   2.030   1.873   3.719
 6133SOL    HW219299   1.965   1.816   3.581
 6134SOL     OW19300   5.913   7.007   6.530
 6134SOL    HW119301   5.827   0.035   6.525
 6134SOL    HW219302   5.957   7.007   6.440
 6135SOL     OW19303   6.609   0.456   0.160
 6135SOL    HW119304   6.569   0.542   0.191
 6135SOL    HW219305   6.604   0.451   0.060
 6136SOL     OW19306   1.346   3.303   2.772
 6136SOL    HW119307   1.314   3.397   2.772
 6136SOL    HW219308   1.397   3.285   2.687
 6137SOL     OW19309   6.920   3.701   2.214
 6137SOL    HW119310   6.925   3.747   2.302
 6137SOL    HW219311   6.944   3.766   2.141
 6138SOL     OW19312   4.103   0.261   1.935
 6138SOL    HW119313   4.171   0.313   1.987
 6138SOL    HW219314   4.138   0.243   1.843
 6139SOL     OW19315   1.181   0.431   5.738
 6139SOL    HW119316   1.135   0.372   5.805
 6139SOL    HW219317   1.210   0.375   5.660
 6140SOL     OW19318   1.054   0.341   3.471
 6140SOL    HW119319   0.964   0.297   3.473
 6140SOL    HW219320   1.099   0.327   3.560
 6141SOL     OW19321   0.326   1.217   5.776
 6141SOL    HW119322   0.352   1.307   5.812
 6141SOL    HW219323   0.407   1.162   5.761
 6142SOL     OW19324   0.081   0.485   1.183
 6142SOL    HW119325   0.139   0.551   1.231
 6142SOL    HW219326   0.113   0.473   1.090
 6143SOL     OW19327   6.811   3.982   5.684
 6143SOL    HW119328   6.817   4.062   5.743
 6143SOL    HW219329   6.885   3.984   5.617
 6144SOL     OW19330   4.189   5.290   3.049
 6144SOL    HW119331   4.250   5.305   3.127
 6144SOL    HW219332   4.185   5.193   3.027
 6145SOL     OW19333   4.753   2.871   3.830
 6145SOL    HW119334   4.728   2.927   3.751
 6145SOL    HW219335   4.829   2.914   3.879
 6146SOL     OW19336   5.576   6.577   4.996
 6146SOL    HW119337   5.514   6.641   4.949
 6146SOL    HW219338   5.594   6.610   5.088
 6147SOL     OW19339   1.651   1.965   3.982
 6147SOL    HW119340   1.726   1.928   3.927
 6147SOL    HW219341   1.587   1.891   4.005
 6148SOL     OW19342   3.220   5.969   0.237
 6148SOL    HW119343   3.201   6.034   0.165
 6148SOL    HW219344   3.135   5.927   0.268
 6149SOL     OW19345   2.855   0.172   1.667
 6149SOL    HW119346   2.889   0.202   1.578
 6149SOL    HW219347   2.932   0.149   1.727
 6150SOL     OW19348   0.129   4.033   5.576
 6150SOL    HW119349   0.125   4.007   5.673
 6150SOL    HW219350   0.053   3.991   5.527
 6151SOL     OW19351   4.301   5.247   4.049
 6151SOL    HW119352   4.304   5.225   4.146
 6151SOL    HW219353   4.381   5.303   4.025
 6152SOL     OW19354   1.179   5.114   4.208
 6152SOL    HW119355   1.272   5.139   4.180
 6152SOL    HW219356   1.135   5.063   4.135
 6153SOL     OW19357   5.088   5.531   1.471
 6153SOL    HW119358   5.136   5.451   1.437
 6153SOL    HW219359   5.006   5.546   1.416
 6154SOL     OW19360   5.324   3.009   1.882
 6154SOL    HW119361   5.409   3.053   1.912
 6154SOL    HW219362   5.266   2.990   1.962
 6155SOL     OW19363   1.565   1.631   3.152
 6155SOL    HW119364   1.551   1.540   3.113
 6155SOL    HW219365   1.663   1.650   3.159
 6156SOL     OW19366   5.130   5.185   1.527
 6156SOL    HW119367   5.053   5.160   1.469
 6156SOL    HW219368   5.096   5.219   1.615
 6157SOL     OW19369   1.739   2.647   2.139
 6157SOL    HW119370   1.733   2.578   2.211
 6157SOL    HW219371   1.829   2.690   2.141
 6158SOL     OW19372   2.750   2.409   5.177
 6158SOL    HW119373   2.742   2.445   5.084
 6158SOL    HW219374   2.684   2.455   5.236
 6159SOL     OW19375   6.023   3.091   0.750
 6159SOL    HW119376   6.089   3.075   0.676
 6159SOL    HW219377   6.061   3.058   0.836
 6160SOL     OW19378   1.376   0.743   0.428
 6160SOL    HW119379   1.293   0.798   0.437
 6160SOL    HW219380   1.415   0.756   0.337
 6161SOL     OW19381   4.337   3.089   6.510
 6161SOL    HW119382   4.373   3.176   6.544
 6161SOL    HW219383   4.321   3.027   6.587
 6162SOL     OW19384   5.714   5.284   3.120
 6162SOL    HW119385   5.688   5.272   3.025
 6162SOL    HW219386   5.752   5.375   3.134
 6163SOL     OW19387   5.455   6.333   3.712
 6163SOL    HW119388   5.361   6.339   3.677
 6163SOL    HW219389   5.458   6.268   3.788
 6164SOL     OW19390   3.024   3.901   4.423
 6164SOL    HW119391   2.986   3.895   4.330
 6164SOL    HW219392   2.952   3.887   4.490
 6165SOL     OW19393   4.003   1.582   0.263
 6165SOL    HW119394   4.054   1.622   0.187
 6165SOL    HW219395   4.067   1.547   0.332
 6166SOL     OW19396   1.990   2.682   6.492
 6166SOL    HW119397   1.925   2.606   6.490
 6166SOL    HW219398   1.958   2.752   6.556
 6167SOL     OW19399   1.540   4.122   3.601
 6167SOL    HW119400   1.546   4.046   3.666
 6167SOL    HW219401   1.461   4.179   3.623
 6168SOL     OW19402   0.162   4.006   3.891
 6168SOL    HW119403   0.088   4.072   3.884
 6168SOL    HW219404   0.133   3.920   3.847
 6169SOL     OW19405   2.401   0.094   0.116
 6169SOL    HW119406   2.325   0.116   0.054
 6169SOL    HW219407   2.367   0.036   0.190
 6170SOL     OW19408   3.249   3.772   0.337
 6170SOL    HW119409   3.305   3.716   0.276
 6170SOL    HW219410   3.235   3.862   0.296
 6171SOL     OW19411   2.239   4.083   2.338
 6171SOL    HW119412   2.203   4.162   2.289
 6171SOL    HW219413   2.258   4.108   2.433
 6172SOL     OW19414   1.387   6.171   2.657
 6172SOL    HW119415   1.331   6.200   2.580
 6172SOL    HW219416   1.377   6.236   2.732
 6173SOL     OW19417   1.552   6.016   2.207
 6173SOL    HW119418   1.591   5.980   2.123
 6173SOL    HW219419   1.623   6.067   2.257
 6174SOL     OW19420   5.317   5.679   2.942
 6174SOL    HW119421   5.280   5.685   3.034
 6174SOL    HW219422   5.247   5.645   2.879
 6175SOL     OW19423   5.061   0.366   3.695
 6175SOL    HW119424   5.115   0.439   3.652
 6175SOL    HW219425   5.025   0.305   3.624
 6176SOL     OW19426   6.460   3.684   5.548
 6176SOL    HW119427   6.504   3.692   5.459
 6176SOL    HW219428   6.395   3.608   5.545
 6177SOL     OW19429   6.088   2.846   6.818
 6177SOL    HW119430   5.997   2.817   6.849
 6177SOL    HW219431   6.158   2.796   6.869
 6178SOL     OW19432   6.160   2.975   0.960
 6178SOL    HW119433   6.088   2.956   1.027
 6178SOL    HW219434   6.250   2.971   1.005
 6179SOL     OW19435   0.243   2.606   5.676
 6179SOL    HW119436   0.203   2.668   5.608
 6179SOL    HW219437   0.322   2.559   5.637
 6180SOL     OW19438   3.862   6.599   0.393
 6180SOL    HW119439   3.776   6.618   0.441
 6180SOL    HW219440   3.927   6.672   0.412
 6181SOL     OW19441   4.721   6.447   6.839
 6181SOL    HW119442   4.679   6.480   6.754
 6181SOL    HW219443   4.821   6.446   6.828
 6182SOL     OW19444   4.739   6.040   6.632
 6182SOL    HW119445   4.648   6.008   6.658
 6182SOL    HW219446   4.782   6.083   6.711
 6183SOL     OW19447   3.748   0.392   3.433
 6183SOL    HW119448   3.763   0.300   3.398
 6183SOL    HW219449   3.769   0.459   3.361
 6184SOL     OW19450   0.445   0.007   6.538
 6184SOL    HW119451   0.489   0.008   6.628
 6184SOL    HW219452   0.359   0.058   6.543
 6185SOL     OW19453   6.833   3.738   5.806
 6185SOL    HW119454   6.816   3.746   5.905
 6185SOL    HW219455   6.814   3.825   5.762
 6186SOL     OW19456   5.385   0.096   4.772
 6186SOL    HW119457   5.308   0.074   4.832
 6186SOL    HW219458   5.389   0.195   4.756
 6187SOL     OW19459   4.284   4.962   3.552
 6187SOL    HW119460   4.355   4.968   3.482
 6187SOL    HW219461   4.302   5.029   3.624
 6188SOL     OW19462   2.567   6.481   1.222
 6188SOL    HW119463   2.610   6.555   1.274
 6188SOL    HW219464   2.553   6.402   1.282
 6189SOL     OW19465   5.725   4.831   3.225
 6189SOL    HW119466   5.639   4.884   3.228
 6189SOL    HW219467   5.724   4.762   3.297
 6190SOL     OW19468   5.260   2.454   0.238
 6190SOL    HW119469   5.332   2.397   0.278
 6190SOL    HW219470   5.300   2.512   0.166
 6191SOL     OW19471   6.595   2.221   7.014
 6191SOL    HW119472   6.629   2.129   6.997
 6191SOL    HW219473   6.504   2.215   0.035
 6192SOL     OW19474   3.109   2.759   6.504
 6192SOL    HW119475   3.030   2.820   6.514
 6192SOL    HW219476   3.116   2.729   6.409
 6193SOL     OW19477   5.342   0.337   1.469
 6193SOL    HW119478   5.266   0.342   1.534
 6193SOL    HW219479   5.428   0.340   1.518
 6194SOL     OW19480   1.833   0.873   0.264
 6194SOL    HW119481   1.887   0.907   0.341
 6194SOL    HW219482   1.894   0.835   0.194
 6195SOL     OW19483   3.321   0.711   6.527
 6195SOL    HW119484   3.316   0.710   6.627
 6195SOL    HW219485   3.261   0.782   6.491
 6196SOL     OW19486   0.570   1.126   5.796
 6196SOL    HW119487   0.580   1.031   5.824
 6196SOL    HW219488   0.599   1.186   5.871
 6197SOL     OW19489   2.522   2.850   0.808
 6197SOL    HW119490   2.557   2.875   0.898
 6197SOL    HW219491   2.479   2.760   0.812
 6198SOL     OW19492   4.137   4.859   2.545
 6198SOL    HW119493   4.145   4.774   2.493
 6198SOL    HW219494   4.050   4.903   2.523
 6199SOL     OW19495   1.645   0.066   6.638
 6199SOL    HW119496   1.594   0.074   6.553
 6199SOL    HW219497   1.601   7.021   6.697
 6200SOL     OW19498   4.033   0.470   6.330
 6200SOL    HW119499   4.088   0.494   6.250
 6200SOL    HW219500   4.053   0.533   6.405
 6201SOL     OW19501   2.211   3.903   5.476
 6201SOL    HW119502   2.190   3.844   5.555
 6201SOL    HW219503   2.218   3.847   5.394
 6202SOL     OW19504   3.613   1.827   0.960
 6202SOL    HW119505   3.531   1.816   1.016
 6202SOL    HW219506   3.652   1.918   0.977
 6203SOL     OW19507   5.004   1.467   4.195
 6203SOL    HW119508   4.909   1.499   4.194
 6203SOL    HW219509   5.044   1.483   4.285
 6204SOL     OW19510   1.851   6.252   5.719
 6204SOL    HW119511   1.778   6.294   5.666
 6204SOL    HW219512   1.877   6.313   5.794
 6205SOL     OW19513   5.577   6.143   6.533
 6205SOL    HW119514   5.516   6.119   6.608
 6205SOL    HW219515   5.671   6.122   6.560
 6206SOL     OW19516   5.322   0.179   2.324
 6206SOL    HW119517   5.266   0.179   2.407
 6206SOL    HW219518   5.369   0.091   2.315
 6207SOL     OW19519   1.983   4.225   4.756
 6207SOL    HW119520   1.932   4.156   4.706
 6207SOL    HW219521   1.993   4.196   4.851
 6208SOL     OW19522   6.255   6.777   5.664
 6208SOL    HW119523   6.197   6.789   5.584
 6208SOL    HW219524   6.340   6.829   5.652
 6209SOL     OW19525   3.818   5.632   0.606
 6209SOL    HW119526   3.893   5.672   0.553
 6209SOL    HW219527   3.803   5.538   0.576
 6210SOL     OW19528   5.632   4.705   3.453
 6210SOL    HW119529   5.646   4.607   3.462
 6210SOL    HW219530   5.681   4.753   3.527
 6211SOL     OW19531   3.096   6.876   4.778
 6211SOL    HW119532   3.011   6.843   4.737
 6211SOL    HW219533   3.174   6.839   4.729
 6212SOL     OW19534   6.260   6.657   3.745
 6212SOL    HW119535   6.310   6.617   3.668
 6212SOL    HW219536   6.319   6.723   3.792
 6213SOL     OW19537   6.632   0.164   6.839
 6213SOL    HW119538   6.654   0.171   6.741
 6213SOL    HW219539   6.716   0.146   6.890
 6214SOL     OW19540   6.571   4.733   2.665
 6214SOL    HW119541   6.629   4.802   2.622
 6214SOL    HW219542   6.622   4.688   2.739
 6215SOL     OW19543   3.453   3.038   0.615
 6215SOL    HW119544   3.371   3.092   0.599
 6215SOL    HW219545   3.467   3.027   0.713
 6216SOL     OW19546   5.520   1.647   2.190
 6216SOL    HW119547   5.437   1.618   2.238
 6216SOL    HW219548   5.558   1.728   2.234
 6217SOL     OW19549   5.263   2.820   1.057
 6217SOL    HW119550   5.180   2.831   1.111
 6217SOL    HW219551   5.256   2.873   0.973
 6218SOL     OW19552   2.948   5.357   4.722
 6218SOL    HW119553   2.986   5.340   4.631
 6218SOL    HW219554   2.891   5.280   4.749
 6219SOL     OW19555   1.024   1.723   4.825
 6219SOL    HW119556   1.025   1.761   4.918
 6219SOL    HW219557   0.931   1.700   4.799
 6220SOL     OW19558   2.095   4.334   5.314
 6220SOL    HW119559   2.148   4.408   5.357
 6220SOL    HW219560   2.156   4.257   5.294
 6221SOL     OW19561   3.572   5.321   4.198
 6221SOL    HW119562   3.670   5.330   4.180
 6221SOL    HW219563   3.552   5.353   4.291
 6222SOL     OW19564   6.833   0.570   1.174
 6222SOL    HW119565   6.761   0.518   1.220
 6222SOL    HW219566   6.922   0.534   1.201
 6223SOL     OW19567   4.808   2.823   4.590
 6223SOL    HW119568   4.851   2.735   4.606
 6223SOL    HW219569   4.754   2.850   4.670
 6224SOL     OW19570   2.952   1.452   5.152
 6224SOL    HW119571   2.929   1.546   5.128
 6224SOL    HW219572   3.037   1.451   5.205
 6225SOL     OW19573   3.519   3.183   0.104
 6225SOL    HW119574   3.496   3.100   0.053
 6225SOL    HW219575   3.593   3.231   0.057
 6226SOL     OW19576   5.509   0.645   5.016
 6226SOL    HW119577   5.563   0.723   4.985
 6226SOL    HW219578   5.553   0.604   5.096
 6227SOL     OW19579   3.421   4.637   5.758
 6227SOL    HW119580   3.516   4.609   5.771
 6227SOL    HW219581   3.374   4.569   5.701
 6228SOL     OW19582   6.932   0.709   3.196
 6228SOL    HW119583   6.853   0.744   3.246
 6228SOL    HW219584   7.015   0.721   3.251
 6229SOL     OW19585   2.441   2.606   2.165
 6229SOL    HW119586   2.393   2.552   2.096
 6229SOL    HW219587   2.539   2.605   2.145
 6230SOL     OW19588   2.867   2.147   3.713
 6230SOL    HW119589   2.778   2.141   3.758
 6230SOL    HW219590   2.855   2.147   3.614
 6231SOL     OW19591   6.887   5.255   1.687
 6231SOL    HW119592   6.980   5.268   1.653
 6231SOL    HW219593   6.828   5.223   1.613
 6232SOL     OW19594   0.855   0.866   6.976
 6232SOL    HW119595   0.763   0.830   6.960
 6232SOL    HW219596   0.889   0.832   0.042
 6233SOL     OW19597   4.512   2.001   6.777
 6233SOL    HW119598   4.501   2.028   6.872
 6233SOL    HW219599   4.604   1.963   6.763
 6234SOL     OW19600   2.404   1.847   3.908
 6234SOL    HW119601   2.454   1.821   3.824
 6234SOL    HW219602   2.417   1.776   3.977
 6235SOL     OW19603   2.535   0.036   2.797
 6235SOL    HW119604   2.521   0.026   2.895
 6235SOL    HW219605   2.527   0.133   2.772
 6236SOL     OW19606   0.183   4.367   0.617
 6236SOL    HW119607   0.190   4.269   0.634
 6236SOL    HW219608   0.092   4.389   0.582
 6237SOL     OW19609   4.215   6.705   0.701
 6237SOL    HW119610   4.239   6.655   0.617
 6237SOL    HW219611   4.196   6.800   0.678
 6238SOL     OW19612   4.965   5.299   1.162
 6238SOL    HW119613   4.929   5.302   1.255
 6238SOL    HW219614   4.965   5.205   1.129
 6239SOL     OW19615   2.736   0.341   3.077
 6239SOL    HW119616   2.639   0.355   3.094
 6239SOL    HW219617   2.788   0.360   3.161
 6240SOL     OW19618   1.604   3.695   0.705
 6240SOL    HW119619   1.514   3.652   0.712
 6240SOL    HW219620   1.644   3.675   0.616
 6241SOL     OW19621   4.469   0.414   1.585
 6241SOL    HW119622   4.509   0.496   1.627
 6241SOL    HW219623   4.420   0.440   1.502
 6242SOL     OW19624   4.870   2.520   3.617
 6242SOL    HW119625   4.828   2.443   3.665
 6242SOL    HW219626   4.970   2.514   3.625
 6243SOL     OW19627   6.040   6.183   4.105
 6243SOL    HW119628   6.069   6.088   4.119
 6243SOL    HW219629   5.974   6.208   4.175
 6244SOL     OW19630   2.850   1.967   2.317
 6244SOL    HW119631   2.844   1.999   2.411
 6244SOL    HW219632   2.801   1.880   2.307
 6245SOL     OW19633   3.041   4.384   0.784
 6245SOL    HW119634   3.059   4.435   0.700
 6245SOL    HW219635   2.954   4.335   0.775
 6246SOL     OW19636   2.398   1.428   5.699
 6246SOL    HW119637   2.449   1.349   5.733
 6246SOL    HW219638   2.342   1.401   5.620
 6247SOL     OW19639   0.424   6.320   2.938
 6247SOL    HW119640   0.343   6.371   2.909
 6247SOL    HW219641   0.466   6.276   2.858
 6248SOL     OW19642   0.518   5.019   1.227
 6248SOL    HW119643   0.600   4.970   1.198
 6248SOL    HW219644   0.486   5.077   1.151
 6249SOL     OW19645   5.864   4.242   6.505
 6249SOL    HW119646   5.903   4.254   6.596
 6249SOL    HW219647   5.898   4.314   6.445
 6250SOL     OW19648   6.238   6.194   0.135
 6250SOL    HW119649   6.210   6.248   0.056
 6250SOL    HW219650   6.335   6.209   0.153
 6251SOL     OW19651   4.622   1.716   0.250
 6251SOL    HW119652   4.544   1.726   0.189
 6251SOL    HW219653   4.706   1.712   0.196
 6252SOL     OW19654   2.662   5.956   5.108
 6252SOL    HW119655   2.700   5.970   5.017
 6252SOL    HW219656   2.619   5.865   5.112
 6253SOL     OW19657   2.217   3.914   2.139
 6253SOL    HW119658   2.263   3.942   2.223
 6253SOL    HW219659   2.128   3.958   2.134
 6254SOL     OW19660   5.486   0.419   0.395
 6254SOL    HW119661   5.441   0.334   0.366
 6254SOL    HW219662   5.476   0.429   0.494
 6255SOL     OW19663   0.535   1.402   2.507
 6255SOL    HW119664   0.566   1.321   2.557
 6255SOL    HW219665   0.582   1.408   2.420
 6256SOL     OW19666   3.339   5.169   2.986
 6256SOL    HW119667   3.310   5.082   2.945
 6256SOL    HW219668   3.314   5.245   2.927
 6257SOL     OW19669   5.475   2.645   6.600
 6257SOL    HW119670   5.440   2.694   6.681
 6257SOL    HW219671   5.480   2.708   6.523
 6258SOL     OW19672   4.741   1.555   2.161
 6258SOL    HW119673   4.708   1.644   2.193
 6258SOL    HW219674   4.766   1.562   2.064
 6259SOL     OW19675   2.776   2.395   1.675
 6259SOL    HW119676   2.797   2.427   1.582
 6259SOL    HW219677   2.845   2.428   1.738
 6260SOL     OW19678   3.780   3.987   6.937
 6260SOL    HW119679   3.753   4.073   6.893
 6260SOL    HW219680   3.712   3.961   7.005
 6261SOL     OW19681   4.301   0.924   0.399
 6261SOL    HW119682   4.358   0.894   0.323
 6261SOL    HW219683   4.206   0.931   0.368
 6262SOL     OW19684   0.931   4.876   6.290
 6262SOL    HW119685   0.903   4.891   6.384
 6262SOL    HW219686   0.967   4.960   6.251
 6263SOL     OW19687   6.952   0.087   0.651
 6263SOL    HW119688   0.023   0.073   0.686
 6263SOL    HW219689   6.887   0.038   0.708
 6264SOL     OW19690   3.017   1.709   0.641
 6264SOL    HW119691   2.922   1.716   0.671
 6264SOL    HW219692   3.076   1.764   0.701
 6265SOL     OW19693   3.747   2.891   1.301
 6265SOL    HW119694   3.835   2.886   1.347
 6265SOL    HW219695   3.688   2.816   1.332
 6266SOL     OW19696   2.928   0.512   2.885
 6266SOL    HW119697   2.887   0.426   2.914
 6266SOL    HW219698   2.908   0.528   2.788
 6267SOL     OW19699   3.387   0.272   6.425
 6267SOL    HW119700   3.482   0.304   6.423
 6267SOL    HW219701   3.382   0.183   6.470
 6268SOL     OW19702   3.883   5.339   2.536
 6268SOL    HW119703   3.968   5.332   2.485
 6268SOL    HW219704   3.902   5.380   2.626
 6269SOL     OW19705   5.998   5.185   1.607
 6269SOL    HW119706   6.075   5.199   1.544
 6269SOL    HW219707   5.935   5.262   1.599
 6270SOL     OW19708   0.707   0.490   4.865
 6270SOL    HW119709   0.802   0.466   4.883
 6270SOL    HW219710   0.647   0.439   4.927
 6271SOL     OW19711   6.118   1.523   0.884
 6271SOL    HW119712   6.205   1.475   0.886
 6271SOL    HW219713   6.134   1.621   0.897
 6272SOL     OW19714   1.709   1.907   3.305
 6272SOL    HW119715   1.779   1.836   3.317
 6272SOL    HW219716   1.733   1.987   3.359
 6273SOL     OW19717   3.685   1.072   1.579
 6273SOL    HW119718   3.692   1.139   1.653
 6273SOL    HW219719   3.761   1.007   1.584
 6274SOL     OW19720   3.838   6.815   6.202
 6274SOL    HW119721   3.759   6.755   6.195
 6274SOL    HW219722   3.867   6.822   6.298
 6275SOL     OW19723   2.022   0.456   4.511
 6275SOL    HW119724   2.010   0.536   4.453
 6275SOL    HW219725   2.078   0.481   4.591
 6276SOL     OW19726   1.047   5.480   3.939
 6276SOL    HW119727   1.044   5.580   3.937
 6276SOL    HW219728   0.981   5.446   4.006
 6277SOL     OW19729   5.426   3.306   2.824
 6277SOL    HW119730   5.375   3.390   2.804
 6277SOL    HW219731   5.390   3.232   2.768
 6278SOL     OW19732   5.034   0.568   4.606
 6278SOL    HW119733   4.988   0.601   4.523
 6278SOL    HW219734   4.981   0.595   4.686
 6279SOL     OW19735   4.477   2.076   0.021
 6279SOL    HW119736   4.387   2.121   0.022
 6279SOL    HW219737   4.525   2.097   0.106
 6280SOL     OW19738   0.651   4.629   5.884
 6280SOL    HW119739   0.657   4.679   5.971
 6280SOL    HW219740   0.556   4.626   5.854
 6281SOL     OW19741   2.798   6.747   5.631
 6281SOL    HW119742   2.731   6.681   5.597
 6281SOL    HW219743   2.871   6.699   5.680
 6282SOL     OW19744   1.791   6.996   4.505
 6282SOL    HW119745   1.743   7.013   4.419
 6282SOL    HW219746   1.848   6.914   4.496
 6283SOL     OW19747   6.448   2.429   5.010
 6283SOL    HW119748   6.459   2.383   4.922
 6283SOL    HW219749   6.356   2.468   5.017
 6284SOL     OW19750   1.474   4.189   5.541
 6284SOL    HW119751   1.451   4.141   5.457
 6284SOL    HW219752   1.573   4.186   5.555
 6285SOL     OW19753   1.823   4.178   2.772
 6285SOL    HW119754   1.832   4.198   2.870
 6285SOL    HW219755   1.861   4.088   2.752
 6286SOL     OW19756   5.691   1.092   3.846
 6286SOL    HW119757   5.762   1.155   3.816
 6286SOL    HW219758   5.714   1.056   3.937
 6287SOL     OW19759   4.518   4.481   1.794
 6287SOL    HW119760   4.591   4.528   1.844
 6287SOL    HW219761   4.506   4.389   1.831
 6288SOL     OW19762   5.895   3.604   1.122
 6288SOL    HW119763   5.886   3.564   1.031
 6288SOL    HW219764   5.847   3.692   1.125
 6289SOL     OW19765   1.597   1.300   3.807
 6289SOL    HW119766   1.540   1.381   3.822
 6289SOL    HW219767   1.540   1.227   3.769
 6290SOL     OW19768   5.256   3.808   3.261
 6290SOL    HW119769   5.239   3.899   3.224
 6290SOL    HW219770   5.349   3.780   3.240
 6291SOL     OW19771   3.431   4.096   3.489
 6291SOL    HW119772   3.341   4.060   3.513
 6291SOL    HW219773   3.434   4.118   3.392
 6292SOL     OW19774   1.052   2.000   2.537
 6292SOL    HW119775   1.081   2.071   2.601
 6292SOL    HW219776   1.101   1.915   2.556
 6293SOL     OW19777   5.019   0.193   0.255
 6293SOL    HW119778   5.072   0.251   0.193
 6293SOL    HW219779   4.961   0.251   0.312
 6294SOL     OW19780   4.409   5.097   2.868
 6294SOL    HW119781   4.321   5.051   2.872
 6294SOL    HW219782   4.401   5.180   2.813
 6295SOL     OW19783   5.975   6.622   6.508
 6295SOL    HW119784   6.033   6.693   6.547
 6295SOL    HW219785   5.953   6.554   6.579
 6296SOL     OW19786   6.368   1.357   3.269
 6296SOL    HW119787   6.360   1.344   3.368
 6296SOL    HW219788   6.343   1.273   3.222
 6297SOL     OW19789   5.597   6.695   5.273
 6297SOL    HW119790   5.501   6.705   5.299
 6297SOL    HW219791   5.630   6.606   5.303
 6298SOL     OW19792   1.304   2.156   5.159
 6298SOL    HW119793   1.330   2.075   5.107
 6298SOL    HW219794   1.324   2.238   5.106
 6299SOL     OW19795   6.214   3.167   0.006
 6299SOL    HW119796   6.182   3.191   0.098
 6299SOL    HW219797   6.136   3.140   6.971
 6300SOL     OW19798   4.991   0.215   4.009
 6300SOL    HW119799   5.059   0.156   3.966
 6300SOL    HW219800   5.010   0.311   3.985
 6301SOL     OW19801   3.035   7.012   0.812
 6301SOL    HW119802   3.054   0.073   0.760
 6301SOL    HW219803   2.936   7.001   0.822
 6302SOL     OW19804   1.404   1.164   3.642
 6302SOL    HW119805   1.467   1.093   3.610
 6302SOL    HW219806   1.418   1.248   3.590
 6303SOL     OW19807   2.239   6.029   5.153
 6303SOL    HW119808   2.269   5.943   5.111
 6303SOL    HW219809   2.151   6.056   5.115
 6304SOL     OW19810   2.778   1.310   6.674
 6304SOL    HW119811   2.697   1.262   6.709
 6304SOL    HW219812   2.752   1.401   6.642
 6305SOL     OW19813   6.481   0.568   1.081
 6305SOL    HW119814   6.480   0.603   0.987
 6305SOL    HW219815   6.394   0.523   1.101
 6306SOL     OW19816   6.204   3.090   3.590
 6306SOL    HW119817   6.260   3.007   3.591
 6306SOL    HW219818   6.138   3.088   3.665
 6307SOL     OW19819   2.420   4.748   0.388
 6307SOL    HW119820   2.326   4.739   0.421
 6307SOL    HW219821   2.482   4.702   0.452
 6308SOL     OW19822   3.400   2.184   5.196
 6308SOL    HW119823   3.415   2.133   5.112
 6308SOL    HW219824   3.340   2.262   5.177
 6309SOL     OW19825   5.800   2.097   4.049
 6309SOL    HW119826   5.805   2.175   3.987
 6309SOL    HW219827   5.883   2.093   4.105
 6310SOL     OW19828   1.803   5.031   5.137
 6310SOL    HW119829   1.865   4.976   5.081
 6310SOL    HW219830   1.826   5.128   5.127
 6311SOL     OW19831   5.679   0.865   4.938
 6311SOL    HW119832   5.718   0.834   4.851
 6311SOL    HW219833   5.737   0.833   5.013
 6312SOL     OW19834   3.987   5.076   5.473
 6312SOL    HW119835   3.953   5.009   5.540
 6312SOL    HW219836   3.916   5.146   5.458
 6313SOL     OW19837   2.177   5.399   2.910
 6313SOL    HW119838   2.161   5.371   2.816
 6313SOL    HW219839   2.181   5.499   2.914
 6314SOL     OW19840   2.547   6.666   3.118
 6314SOL    HW119841   2.520   6.728   3.191
 6314SOL    HW219842   2.531   6.571   3.147
 6315SOL     OW19843   2.944   3.188   0.617
 6315SOL    HW119844   2.890   3.149   0.543
 6315SOL    HW219845   2.922   3.141   0.703
 6316SOL     OW19846   5.377   2.259   5.778
 6316SOL    HW119847   5.376   2.339   5.719
 6316SOL    HW219848   5.460   2.205   5.760
 6317SOL     OW19849   6.125   6.469   4.422
 6317SOL    HW119850   6.064   6.548   4.421
 6317SOL    HW219851   6.204   6.488   4.362
 6318SOL     OW19852   2.415   1.938   4.621
 6318SOL    HW119853   2.417   1.926   4.720
 6318SOL    HW219854   2.451   2.028   4.598
 6319SOL     OW19855   6.938   1.432   3.351
 6319SOL    HW119856   6.839   1.422   3.362
 6319SOL    HW219857   6.958   1.508   3.289
 6320SOL     OW19858   6.280   3.361   2.911
 6320SOL    HW119859   6.356   3.311   2.952
 6320SOL    HW219860   6.204   3.298   2.894
 6321SOL     OW19861   2.432   3.790   0.348
 6321SOL    HW119862   2.358   3.845   0.308
 6321SOL    HW219863   2.472   3.733   0.277
 6322SOL     OW19864   1.324   1.122   0.017
 6322SOL    HW119865   1.343   1.162   0.107
 6322SOL    HW219866   1.228   1.137   7.015
 6323SOL     OW19867   3.902   2.696   0.416
 6323SOL    HW119868   3.989   2.690   0.464
 6323SOL    HW219869   3.860   2.786   0.434
 6324SOL     OW19870   4.121   1.205   6.535
 6324SOL    HW119871   4.086   1.297   6.522
 6324SOL    HW219872   4.098   1.173   6.627
 6325SOL     OW19873   0.851   2.355   2.783
 6325SOL    HW119874   0.808   2.274   2.744
 6325SOL    HW219875   0.782   2.409   2.832
 6326SOL     OW19876   5.221   5.985   1.308
 6326SOL    HW119877   5.205   6.071   1.357
 6326SOL    HW219878   5.305   5.942   1.342
 6327SOL     OW19879   5.426   5.743   5.721
 6327SOL    HW119880   5.383   5.825   5.757
 6327SOL    HW219881   5.355   5.677   5.693
 6328SOL     OW19882   2.996   4.110   6.520
 6328SOL    HW119883   2.932   4.050   6.471
 6328SOL    HW219884   3.082   4.116   6.470
 6329SOL     OW19885   0.618   1.661   3.434
 6329SOL    HW119886   0.539   1.717   3.409
 6329SOL    HW219887   0.600   1.566   3.409
 6330SOL     OW19888   3.739   1.249   6.985
 6330SOL    HW119889   3.639   1.251   6.987
 6330SOL    HW219890   3.774   1.338   7.015
 6331SOL     OW19891   6.345   2.779   1.885
 6331SOL    HW119892   6.298   2.750   1.801
 6331SOL    HW219893   6.374   2.874   1.875
 6332SOL     OW19894   5.957   6.229   1.449
 6332SOL    HW119895   5.911   6.218   1.361
 6332SOL    HW219896   5.912   6.301   1.502
 6333SOL     OW19897   3.284   4.907   2.565
 6333SOL    HW119898   3.303   4.930   2.469
 6333SOL    HW219899   3.243   4.985   2.611
 6334SOL     OW19900   2.067   1.283   2.809
 6334SOL    HW119901   2.065   1.189   2.845
 6334SOL    HW219902   1.994   1.336   2.852
 6335SOL     OW19903   6.919   1.611   6.639
 6335SOL    HW119904   6.946   1.692   6.587
 6335SOL    HW219905   6.976   1.534   6.613
 6336SOL     OW19906   0.400   2.505   4.650
 6336SOL    HW119907   0.402   2.573   4.577
 6336SOL    HW219908   0.411   2.551   4.738
 6337SOL     OW19909   5.991   4.848   5.369
 6337SOL    HW119910   6.034   4.778   5.426
 6337SOL    HW219911   6.000   4.823   5.273
 6338SOL     OW19912   3.826   1.156   3.431
 6338SOL    HW119913   3.767   1.085   3.470
 6338SOL    HW219914   3.921   1.125   3.432
 6339SOL     OW19915   6.614   1.919   4.033
 6339SOL    HW119916   6.570   1.849   4.089
 6339SOL    HW219917   6.712   1.899   4.026
 6340SOL     OW19918   1.975   5.681   4.016
 6340SOL    HW119919   1.982   5.751   4.087
 6340SOL    HW219920   2.061   5.676   3.965
 6341SOL     OW19921   0.437   4.580   3.315
 6341SOL    HW119922   0.514   4.587   3.378
 6341SOL    HW219923   0.361   4.635   3.350
 6342SOL     OW19924   1.696   2.609   1.147
 6342SOL    HW119925   1.686   2.519   1.190
 6342SOL    HW219926   1.771   2.658   1.191
 6343SOL     OW19927   3.807   1.060   6.788
 6343SOL    HW119928   3.799   1.118   6.868
 6343SOL    HW219929   3.721   1.059   6.738
 6344SOL     OW19930   0.845   4.268   4.286
 6344SOL    HW119931   0.786   4.346   4.307
 6344SOL    HW219932   0.941   4.297   4.287
 6345SOL     OW19933   3.760   1.712   2.146
 6345SOL    HW119934   3.750   1.760   2.059
 6345SOL    HW219935   3.839   1.748   2.195
 6346SOL     OW19936   0.929   4.563   3.642
 6346SOL    HW119937   0.926   4.621   3.561
 6346SOL    HW219938   0.976   4.611   3.716
 6347SOL     OW19939   2.900   0.575   1.465
 6347SOL    HW119940   2.843   0.589   1.384
 6347SOL    HW219941   2.984   0.527   1.440
 6348SOL     OW19942   1.161   3.161   4.227
 6348SOL    HW119943   1.156   3.261   4.223
 6348SOL    HW219944   1.176   3.125   4.135
 6349SOL     OW19945   2.928   0.418   0.508
 6349SOL    HW119946   2.915   0.473   0.425
 6349SOL    HW219947   2.858   0.442   0.575
 6350SOL     OW19948   1.404   6.296   2.090
 6350SOL    HW119949   1.370   6.249   2.172
 6350SOL    HW219950   1.476   6.360   2.115
 6351SOL     OW19951   7.014   1.080   2.799
 6351SOL    HW119952   6.938   1.022   2.769
 6351SOL    HW219953   0.029   1.130   2.721
 6352SOL     OW19954   0.347   5.691   1.902
 6352SOL    HW119955   0.297   5.643   1.830
 6352SOL    HW219956   0.382   5.626   1.968
 6353SOL     OW19957   0.144   6.741   1.536
 6353SOL    HW119958   0.209   6.792   1.591
 6353SOL    HW219959   0.102   6.669   1.592
 6354SOL     OW19960   0.300   6.557   3.425
 6354SOL    HW119961   0.397   6.549   3.402
 6354SOL    HW219962   0.291   6.586   3.520
 6355SOL     OW19963   1.989   2.401   3.206
 6355SOL    HW119964   2.005   2.320   3.149
 6355SOL    HW219965   1.933   2.467   3.156
 6356SOL     OW19966   3.511   3.396   1.501
 6356SOL    HW119967   3.460   3.310   1.490
 6356SOL    HW219968   3.451   3.465   1.541
 6357SOL     OW19969   4.478   1.767   0.007
 6357SOL    HW119970   4.395   1.728   6.988
 6357SOL    HW219971   4.470   1.867   0.010
 6358SOL     OW19972   6.717   2.144   3.395
 6358SOL    HW119973   6.653   2.159   3.320
 6358SOL    HW219974   6.694   2.058   3.442
 6359SOL     OW19975   6.941   1.161   6.787
 6359SOL    HW119976   6.850   1.156   6.746
 6359SOL    HW219977   6.960   1.256   6.814
 6360SOL     OW19978   3.163   5.980   3.949
 6360SOL    HW119979   3.189   5.970   4.045
 6360SOL    HW219980   3.085   5.921   3.929
 6361SOL     OW19981   4.468   6.282   5.988
 6361SOL    HW119982   4.390   6.332   6.026
 6361SOL    HW219983   4.552   6.314   6.033
 6362SOL     OW19984   6.183   5.521   0.020
 6362SOL    HW119985   6.100   5.574   0.038
 6362SOL    HW219986   6.158   5.430   7.007
 6363SOL     OW19987   0.836   5.760   4.356
 6363SOL    HW119988   0.863   5.698   4.430
 6363SOL    HW219989   0.847   5.714   4.268
 6364SOL     OW19990   2.775   2.288   5.919
 6364SOL    HW119991   2.793   2.295   6.017
 6364SOL    HW219992   2.847   2.234   5.875
 6365SOL     OW19993   4.737   6.442   2.907
 6365SOL    HW119994   4.785   6.446   2.819
 6365SOL    HW219995   4.642   6.468   2.895
 6366SOL     OW19996   0.483   5.251   5.332
 6366SOL    HW119997   0.383   5.245   5.342
 6366SOL    HW219998   0.524   5.269   5.421
 6367SOL     OW19999   5.684   6.702   3.836
 6367SOL    HW120000   5.757   6.687   3.903
 6367SOL    HW220001   5.599   6.661   3.870
 6368SOL     OW20002   2.899   0.217   4.097
 6368SOL    HW120003   2.990   0.229   4.058
 6368SOL    HW220004   2.848   0.150   4.043
 6369SOL     OW20005   2.374   5.087   4.146
 6369SOL    HW120006   2.395   5.002   4.195
 6369SOL    HW220007   2.439   5.099   4.071
 6370SOL     OW20008   5.898   2.739   1.606
 6370SOL    HW120009   5.901   2.697   1.515
 6370SOL    HW220010   5.989   2.739   1.647
 6371SOL     OW20011   5.096   2.329   2.956
 6371SOL    HW120012   5.044   2.319   3.040
 6371SOL    HW220013   5.092   2.244   2.903
 6372SOL     OW20014   3.026   6.004   2.510
 6372SOL    HW120015   2.984   6.003   2.420
 6372SOL    HW220016   2.955   6.015   2.580
 6373SOL     OW20017   4.428   4.416   6.673
 6373SOL    HW120018   4.398   4.496   6.620
 6373SOL    HW220019   4.405   4.333   6.623
 6374SOL     OW20020   2.876   3.352   2.278
 6374SOL    HW120021   2.820   3.433   2.256
 6374SOL    HW220022   2.873   3.289   2.201
 6375SOL     OW20023   1.782   6.392   2.556
 6375SOL    HW120024   1.702   6.401   2.616
 6375SOL    HW220025   1.775   6.460   2.483
 6376SOL     OW20026   0.143   2.568   5.114
 6376SOL    HW120027   0.238   2.547   5.138
 6376SOL    HW220028   0.118   2.517   5.031
 6377SOL     OW20029   0.320   1.099   3.962
 6377SOL    HW120030   0.222   1.100   3.941
 6377SOL    HW220031   0.349   1.191   3.988
 6378SOL     OW20032   4.797   4.007   3.684
 6378SOL    HW120033   4.778   4.045   3.774
 6378SOL    HW220034   4.823   4.080   3.620
 6379SOL     OW20035   2.342   4.481   3.604
 6379SOL    HW120036   2.355   4.502   3.507
 6379SOL    HW220037   2.322   4.384   3.615
 6380SOL     OW20038   0.211   0.952   5.872
 6380SOL    HW120039   0.224   1.045   5.838
 6380SOL    HW220040   0.271   0.936   5.950
 6381SOL     OW20041   3.256   4.079   2.632
 6381SOL    HW120042   3.199   4.155   2.602
 6381SOL    HW220043   3.302   4.038   2.553
 6382SOL     OW20044   0.789   3.534   5.387
 6382SOL    HW120045   0.789   3.545   5.487
 6382SOL    HW220046   0.799   3.624   5.345
 6383SOL     OW20047   3.008   1.067   4.466
 6383SOL    HW120048   2.918   1.068   4.423
 6383SOL    HW220049   3.044   1.160   4.472
 6384SOL     OW20050   6.732   4.726   3.283
 6384SOL    HW120051   6.657   4.760   3.227
 6384SOL    HW220052   6.772   4.803   3.334
 6385SOL     OW20053   0.105   5.852   4.250
 6385SOL    HW120054   0.127   5.768   4.201
 6385SOL    HW220055   0.190   5.897   4.279
 6386SOL     OW20056   2.813   5.204   1.254
 6386SOL    HW120057   2.874   5.128   1.229
 6386SOL    HW220058   2.849   5.289   1.215
 6387SOL     OW20059   6.514   0.527   5.233
 6387SOL    HW120060   6.451   0.604   5.220
 6387SOL    HW220061   6.606   0.563   5.248
 6388SOL     OW20062   3.088   4.849   2.323
 6388SOL    HW120063   3.039   4.889   2.401
 6388SOL    HW220064   3.185   4.871   2.330
 6389SOL     OW20065   0.746   4.741   2.959
 6389SOL    HW120066   0.754   4.695   2.871
 6389SOL    HW220067   0.656   4.722   2.999
 6390SOL     OW20068   0.830   3.371   4.070
 6390SOL    HW120069   0.746   3.360   4.018
 6390SOL    HW220070   0.881   3.285   4.071
 6391SOL     OW20071   3.036   1.483   0.274
 6391SOL    HW120072   3.060   1.386   0.272
 6391SOL    HW220073   3.081   1.528   0.351
 6392SOL     OW20074   1.468   0.008   4.016
 6392SOL    HW120075   1.478   6.930   4.013
 6392SOL    HW220076   1.380   0.033   3.976
 6393SOL     OW20077   5.933   6.544   0.242
 6393SOL    HW120078   6.010   6.603   0.219
 6393SOL    HW220079   5.967   6.459   0.282
 6394SOL     OW20080   2.577   4.591   0.570
 6394SOL    HW120081   2.669   4.570   0.600
 6394SOL    HW220082   2.527   4.506   0.551
 6395SOL     OW20083   6.141   1.784   0.893
 6395SOL    HW120084   6.168   1.844   0.968
 6395SOL    HW220085   6.141   1.835   0.807
 6396SOL     OW20086   5.263   4.179   5.107
 6396SOL    HW120087   5.265   4.106   5.175
 6396SOL    HW220088   5.345   4.175   5.050
 6397SOL     OW20089   0.430   1.220   1.217
 6397SOL    HW120090   0.407   1.286   1.288
 6397SOL    HW220091   0.466   1.268   1.137
 6398SOL     OW20092   3.141   1.381   1.531
 6398SOL    HW120093   3.208   1.452   1.512
 6398SOL    HW220094   3.175   1.293   1.499
 6399SOL     OW20095   2.472   5.258   6.543
 6399SOL    HW120096   2.514   5.190   6.603
 6399SOL    HW220097   2.505   5.246   6.450
 6400SOL     OW20098   2.519   5.719   3.865
 6400SOL    HW120099   2.468   5.644   3.907
 6400SOL    HW220100   2.468   5.755   3.787
 6401SOL     OW20101   0.735   5.111   4.000
 6401SOL    HW120102   0.752   5.086   4.096
 6401SOL    HW220103   0.681   5.039   3.957
 6402SOL     OW20104   2.239   1.045   2.983
 6402SOL    HW120105   2.158   1.037   2.924
 6402SOL    HW220106   2.313   0.988   2.947
 6403SOL     OW20107   0.044   6.058   0.123
 6403SOL    HW120108   0.110   6.084   0.194
 6403SOL    HW220109   6.999   5.995   0.161
 6404SOL     OW20110   5.106   1.071   2.825
 6404SOL    HW120111   5.108   1.079   2.925
 6404SOL    HW220112   5.119   0.976   2.798
 6405SOL     OW20113   2.667   1.082   2.522
 6405SOL    HW120114   2.627   1.038   2.442
 6405SOL    HW220115   2.595   1.118   2.581
 6406SOL     OW20116   2.606   2.079   3.749
 6406SOL    HW120117   2.558   1.997   3.718
 6406SOL    HW220118   2.543   2.136   3.802
 6407SOL     OW20119   3.959   5.339   6.369
 6407SOL    HW120120   4.052   5.322   6.336
 6407SOL    HW220121   3.944   5.438   6.375
 6408SOL     OW20122   6.204   1.915   6.894
 6408SOL    HW120123   6.191   2.004   6.938
 6408SOL    HW220124   6.279   1.920   6.829
 6409SOL     OW20125   1.458   4.496   2.382
 6409SOL    HW120126   1.391   4.518   2.311
 6409SOL    HW220127   1.504   4.580   2.411
 6410SOL     OW20128   1.173   1.408   1.333
 6410SOL    HW120129   1.132   1.407   1.242
 6410SOL    HW220130   1.270   1.432   1.326
 6411SOL     OW20131   1.209   0.740   3.441
 6411SOL    HW120132   1.239   0.649   3.412
 6411SOL    HW220133   1.286   0.803   3.436
 6412SOL     OW20134   0.016   2.416   4.936
 6412SOL    HW120135   0.005   2.348   4.864
 6412SOL    HW220136   6.947   2.449   4.964
 6413SOL     OW20137   6.898   4.645   0.742
 6413SOL    HW120138   6.995   4.663   0.757
 6413SOL    HW220139   6.853   4.634   0.831
 6414SOL     OW20140   5.505   6.545   2.360
 6414SOL    HW120141   5.549   6.459   2.387
 6414SOL    HW220142   5.556   6.622   2.398
 6415SOL     OW20143   2.082   2.104   2.009
 6415SOL    HW120144   2.120   2.044   2.079
 6415SOL    HW220145   2.141   2.184   1.999
 6416SOL     OW20146   1.374   0.453   6.451
 6416SOL    HW120147   1.374   0.462   6.550
 6416SOL    HW220148   1.281   0.432   6.419
 6417SOL     OW20149   0.672   6.973   2.772
 6417SOL    HW120150   0.758   6.968   2.723
 6417SOL    HW220151   0.685   0.001   2.858
 6418SOL     OW20152   6.146   6.064   2.332
 6418SOL    HW120153   6.208   6.121   2.385
 6418SOL    HW220154   6.139   6.099   2.238
 6419SOL     OW20155   3.089   4.930   1.681
 6419SOL    HW120156   3.171   4.985   1.696
 6419SOL    HW220157   3.008   4.989   1.688
 6420SOL     OW20158   1.617   3.985   0.038
 6420SOL    HW120159   1.600   4.070   7.011
 6420SOL    HW220160   1.583   3.908   7.006
 6421SOL     OW20161   5.468   1.843   1.176
 6421SOL    HW120162   5.407   1.906   1.224
 6421SOL    HW220163   5.466   1.862   1.078
 6422SOL     OW20164   5.742   1.428   3.353
 6422SOL    HW120165   5.743   1.528   3.350
 6422SOL    HW220166   5.835   1.395   3.367
 6423SOL     OW20167   5.017   3.884   0.188
 6423SOL    HW120168   5.010   3.800   0.241
 6423SOL    HW220169   4.968   3.874   0.102
 6424SOL     OW20170   0.023   4.788   5.611
 6424SOL    HW120171   6.975   4.716   5.615
 6424SOL    HW220172   0.101   4.762   5.668
 6425SOL     OW20173   0.838   4.890   1.645
 6425SOL    HW120174   0.797   4.830   1.714
 6425SOL    HW220175   0.767   4.919   1.580
 6426SOL     OW20176   6.973   3.032   3.755
 6426SOL    HW120177   6.968   3.028   3.854
 6426SOL    HW220178   7.017   3.117   3.727
 6427SOL     OW20179   2.107   3.287   5.055
 6427SOL    HW120180   2.077   3.197   5.084
 6427SOL    HW220181   2.207   3.287   5.045
 6428SOL     OW20182   6.573   3.512   2.431
 6428SOL    HW120183   6.498   3.574   2.407
 6428SOL    HW220184   6.578   3.502   2.530
 6429SOL     OW20185   1.313   0.694   4.311
 6429SOL    HW120186   1.250   0.766   4.339
 6429SOL    HW220187   1.407   0.726   4.326
 6430SOL     OW20188   6.099   3.267   1.153
 6430SOL    HW120189   6.126   3.322   1.232
 6430SOL    HW220190   6.112   3.319   1.069
 6431SOL     OW20191   5.431   0.256   2.720
 6431SOL    HW120192   5.348   0.248   2.664
 6431SOL    HW220193   5.461   0.351   2.721
 6432SOL     OW20194   5.245   3.211   0.840
 6432SOL    HW120195   5.276   3.271   0.766
 6432SOL    HW220196   5.295   3.125   0.835
 6433SOL     OW20197   2.696   3.828   1.573
 6433SOL    HW120198   2.637   3.900   1.610
 6433SOL    HW220199   2.734   3.775   1.649
 6434SOL     OW20200   1.536   4.927   1.038
 6434SOL    HW120201   1.510   4.883   1.125
 6434SOL    HW220202   1.614   4.988   1.054
 6435SOL     OW20203   5.093   4.368   6.724
 6435SOL    HW120204   5.161   4.305   6.687
 6435SOL    HW220205   5.009   4.319   6.746
 6436SOL     OW20206   1.776   2.933   3.332
 6436SOL    HW120207   1.833   2.918   3.252
 6436SOL    HW220208   1.830   2.976   3.404
 6437SOL     OW20209   1.167   0.778   6.604
 6437SOL    HW120210   1.242   0.801   6.666
 6437SOL    HW220211   1.157   0.679   6.599
 6438SOL     OW20212   1.149   3.495   3.921
 6438SOL    HW120213   1.243   3.480   3.951
 6438SOL    HW220214   1.094   3.527   3.999
 6439SOL     OW20215   0.697   0.074   1.676
 6439SOL    HW120216   0.679   0.025   1.761
 6439SOL    HW220217   0.628   0.146   1.664
 6440SOL     OW20218   1.162   1.750   2.646
 6440SOL    HW120219   1.098   1.694   2.699
 6440SOL    HW220220   1.256   1.723   2.668
 6441SOL     OW20221   2.478   1.446   3.245
 6441SOL    HW120222   2.537   1.366   3.240
 6441SOL    HW220223   2.493   1.503   3.163
 6442SOL     OW20224   3.244   1.208   3.781
 6442SOL    HW120225   3.208   1.224   3.873
 6442SOL    HW220226   3.279   1.293   3.744
 6443SOL     OW20227   2.762   1.524   0.465
 6443SOL    HW120228   2.715   1.595   0.517
 6443SOL    HW220229   2.738   1.533   0.368
 6444SOL     OW20230   0.514   1.130   3.368
 6444SOL    HW120231   0.452   1.110   3.292
 6444SOL    HW220232   0.605   1.150   3.332
 6445SOL     OW20233   4.163   3.437   5.489
 6445SOL    HW120234   4.083   3.427   5.548
 6445SOL    HW220235   4.246   3.418   5.542
 6446SOL     OW20236   6.483   1.530   0.285
 6446SOL    HW120237   6.390   1.520   0.250
 6446SOL    HW220238   6.486   1.605   0.352
 6447SOL     OW20239   1.016   0.901   3.064
 6447SOL    HW120240   1.031   0.866   2.971
 6447SOL    HW220241   1.086   0.969   3.086
 6448SOL     OW20242   5.636   3.023   3.181
 6448SOL    HW120243   5.656   3.025   3.279
 6448SOL    HW220244   5.624   2.929   3.151
 6449SOL     OW20245   3.489   2.915   0.873
 6449SOL    HW120246   3.510   2.972   0.952
 6449SOL    HW220247   3.456   2.826   0.905
 6450SOL     OW20248   6.503   3.417   0.542
 6450SOL    HW120249   6.573   3.478   0.504
 6450SOL    HW220250   6.542   3.326   0.557
 6451SOL     OW20251   2.490   6.949   4.798
 6451SOL    HW120252   2.579   6.929   4.839
 6451SOL    HW220253   2.502   7.006   4.717
 6452SOL     OW20254   3.704   6.266   3.661
 6452SOL    HW120255   3.737   6.270   3.756
 6452SOL    HW220256   3.738   6.183   3.617
 6453SOL     OW20257   1.701   5.806   6.663
 6453SOL    HW120258   1.684   5.711   6.686
 6453SOL    HW220259   1.758   5.811   6.580
 6454SOL     OW20260   3.180   1.491   5.284
 6454SOL    HW120261   3.169   1.587   5.312
 6454SOL    HW220262   3.269   1.479   5.241
 6455SOL     OW20263   5.973   2.630   5.535
 6455SOL    HW120264   6.048   2.567   5.515
 6455SOL    HW220265   5.886   2.582   5.524
 6456SOL     OW20266   0.024   0.613   4.104
 6456SOL    HW120267   0.077   0.562   4.036
 6456SOL    HW220268   6.951   0.580   4.105
 6457SOL     OW20269   6.560   2.888   0.909
 6457SOL    HW120270   6.650   2.864   0.947
 6457SOL    HW220271   6.570   2.909   0.812
 6458SOL     OW20272   1.481   5.700   2.702
 6458SOL    HW120273   1.492   5.748   2.615
 6458SOL    HW220274   1.569   5.664   2.732
 6459SOL     OW20275   5.424   4.894   0.087
 6459SOL    HW120276   5.444   4.939   7.021
 6459SOL    HW220277   5.330   4.862   0.087
 6460SOL     OW20278   3.465   5.046   6.247
 6460SOL    HW120279   3.388   5.042   6.184
 6460SOL    HW220280   3.500   5.140   6.251
 6461SOL     OW20281   3.628   5.697   4.624
 6461SOL    HW120282   3.710   5.640   4.621
 6461SOL    HW220283   3.602   5.722   4.531
 6462SOL     OW20284   2.108   3.533   4.332
 6462SOL    HW120285   2.183   3.473   4.306
 6462SOL    HW220286   2.111   3.550   4.431
 6463SOL     OW20287   1.275   4.563   5.775
 6463SOL    HW120288   1.373   4.574   5.759
 6463SOL    HW220289   1.241   4.485   5.722
 6464SOL     OW20290   0.676   5.478   3.300
 6464SOL    HW120291   0.685   5.578   3.306
 6464SOL    HW220292   0.605   5.448   3.364
 6465SOL     OW20293   6.496   0.871   3.054
 6465SOL    HW120294   6.568   0.803   3.062
 6465SOL    HW220295   6.514   0.929   2.975
 6466SOL     OW20296   6.865   2.747   4.607
 6466SOL    HW120297   6.964   2.737   4.608
 6466SOL    HW220298   6.823   2.662   4.639
 6467SOL     OW20299   2.678   0.795   6.522
 6467SOL    HW120300   2.665   0.892   6.502
 6467SOL    HW220301   2.775   0.771   6.517
 6468SOL     OW20302   4.941   5.073   1.005
 6468SOL    HW120303   4.921   4.981   1.037
 6468SOL    HW220304   4.870   5.103   0.941
 6469SOL     OW20305   6.949   1.493   5.546
 6469SOL    HW120306   6.860   1.537   5.555
 6469SOL    HW220307   6.937   1.394   5.540
 6470SOL     OW20308   6.689   6.992   5.809
 6470SOL    HW120309   6.751   6.934   5.756
 6470SOL    HW220310   6.642   6.937   5.878
 6471SOL     OW20311   5.592   5.118   5.694
 6471SOL    HW120312   5.672   5.117   5.753
 6471SOL    HW220313   5.620   5.121   5.598
 6472SOL     OW20314   1.179   6.266   1.368
 6472SOL    HW120315   1.106   6.312   1.418
 6472SOL    HW220316   1.140   6.195   1.310
 6473SOL     OW20317   2.234   1.657   6.186
 6473SOL    HW120318   2.287   1.589   6.135
 6473SOL    HW220319   2.150   1.677   6.136
 6474SOL     OW20320   1.898   3.134   5.467
 6474SOL    HW120321   1.952   3.153   5.385
 6474SOL    HW220322   1.886   3.218   5.520
 6475SOL     OW20323   4.305   6.235   4.123
 6475SOL    HW120324   4.368   6.205   4.052
 6475SOL    HW220325   4.328   6.328   4.151
 6476SOL     OW20326   4.715   5.222   2.779
 6476SOL    HW120327   4.740   5.171   2.862
 6476SOL    HW220328   4.693   5.157   2.706
 6477SOL     OW20329   6.666   5.531   6.776
 6477SOL    HW120330   6.709   5.593   6.710
 6477SOL    HW220331   6.695   5.556   6.868
 6478SOL     OW20332   4.785   6.501   0.794
 6478SOL    HW120333   4.860   6.469   0.736
 6478SOL    HW220334   4.708   6.438   0.788
 6479SOL     OW20335   3.928   5.019   2.791
 6479SOL    HW120336   3.835   5.025   2.826
 6479SOL    HW220337   3.927   5.027   2.692
 6480SOL     OW20338   2.895   2.330   0.085
 6480SOL    HW120339   2.958   2.253   0.073
 6480SOL    HW220340   2.916   2.401   0.017
 6481SOL     OW20341   4.923   1.272   1.212
 6481SOL    HW120342   5.017   1.248   1.189
 6481SOL    HW220343   4.860   1.225   1.150
 6482SOL     OW20344   0.052   0.540   6.690
 6482SOL    HW120345   6.986   0.500   6.714
 6482SOL    HW220346   0.107   0.553   6.772
 6483SOL     OW20347   1.845   6.379   3.004
 6483SOL    HW120348   1.767   6.425   3.047
 6483SOL    HW220349   1.812   6.298   2.954
 6484SOL     OW20350   4.953   6.868   3.707
 6484SOL    HW120351   4.911   6.782   3.734
 6484SOL    HW220352   4.883   6.939   3.699
 6485SOL     OW20353   1.547   2.775   3.339
 6485SOL    HW120354   1.620   2.708   3.346
 6485SOL    HW220355   1.585   2.867   3.347
 6486SOL     OW20356   1.600   3.658   3.700
 6486SOL    HW120357   1.650   3.631   3.783
 6486SOL    HW220358   1.555   3.578   3.661
 6487SOL     OW20359   5.954   6.418   3.931
 6487SOL    HW120360   5.941   6.347   3.862
 6487SOL    HW220361   5.885   6.407   4.003
 6488SOL     OW20362   3.374   5.330   5.958
 6488SOL    HW120363   3.400   5.270   6.033
 6488SOL    HW220364   3.354   5.274   5.877
 6489SOL     OW20365   1.774   1.813   5.324
 6489SOL    HW120366   1.741   1.807   5.418
 6489SOL    HW220367   1.873   1.825   5.324
 6490SOL     OW20368   3.438   1.053   0.495
 6490SOL    HW120369   3.472   0.970   0.540
 6490SOL    HW220370   3.466   1.133   0.549
 6491SOL     OW20371   3.727   1.873   6.609
 6491SOL    HW120372   3.676   1.807   6.664
 6491SOL    HW220373   3.729   1.961   6.656
 6492SOL     OW20374   5.661   6.418   6.975
 6492SOL    HW120375   5.698   6.366   0.030
 6492SOL    HW220376   5.670   6.363   6.891
 6493SOL     OW20377   0.886   6.437   5.943
 6493SOL    HW120378   0.943   6.360   5.972
 6493SOL    HW220379   0.806   6.443   6.003
 6494SOL     OW20380   1.334   0.519   3.490
 6494SOL    HW120381   1.338   0.442   3.553
 6494SOL    HW220382   1.427   0.552   3.471
 6495SOL     OW20383   5.508   4.801   2.798
 6495SOL    HW120384   5.415   4.769   2.778
 6495SOL    HW220385   5.565   4.724   2.826
 6496SOL     OW20386   1.652   7.014   2.608
 6496SOL    HW120387   1.697   6.937   2.564
 6496SOL    HW220388   1.718   0.042   2.664
 6497SOL     OW20389   1.012   4.436   0.320
 6497SOL    HW120390   0.994   4.439   0.222
 6497SOL    HW220391   1.093   4.380   0.337
 6498SOL     OW20392   1.482   4.672   4.198
 6498SOL    HW120393   1.532   4.585   4.197
 6498SOL    HW220394   1.423   4.675   4.279
 6499SOL     OW20395   5.955   1.283   4.401
 6499SOL    HW120396   5.965   1.187   4.374
 6499SOL    HW220397   5.918   1.336   4.325
 6500SOL     OW20398   5.316   4.987   3.512
 6500SOL    HW120399   5.265   4.966   3.596
 6500SOL    HW220400   5.255   5.032   3.446
 6501SOL     OW20401   0.229   3.867   1.121
 6501SOL    HW120402   0.140   3.822   1.129
 6501SOL    HW220403   0.216   3.963   1.098
 6502SOL     OW20404   1.191   5.159   2.784
 6502SOL    HW120405   1.170   5.111   2.870
 6502SOL    HW220406   1.290   5.167   2.774
 6503SOL     OW20407   4.446   0.201   5.029
 6503SOL    HW120408   4.470   0.234   4.937
 6503SOL    HW220409   4.396   0.115   5.022
 6504SOL     OW20410   2.964   0.999   0.851
 6504SOL    HW120411   3.013   1.028   0.768
 6504SOL    HW220412   2.972   0.900   0.861
 6505SOL     OW20413   5.965   5.062   1.087
 6505SOL    HW120414   5.967   4.966   1.115
 6505SOL    HW220415   5.954   5.120   1.168
 6506SOL     OW20416   2.305   2.288   0.917
 6506SOL    HW120417   2.254   2.208   0.887
 6506SOL    HW220418   2.349   2.269   1.005
 6507SOL     OW20419   2.148   0.625   1.700
 6507SOL    HW120420   2.093   0.571   1.763
 6507SOL    HW220421   2.088   0.681   1.642
 6508SOL     OW20422   1.963   1.916   2.799
 6508SOL    HW120423   2.050   1.935   2.845
 6508SOL    HW220424   1.910   2.001   2.791
 6509SOL     OW20425   0.352   2.563   4.184
 6509SOL    HW120426   0.322   2.469   4.204
 6509SOL    HW220427   0.439   2.560   4.135
 6510SOL     OW20428   5.464   4.883   5.752
 6510SOL    HW120429   5.501   4.976   5.741
 6510SOL    HW220430   5.447   4.866   5.849
 6511SOL     OW20431   6.222   6.134   6.458
 6511SOL    HW120432   6.252   6.042   6.432
 6511SOL    HW220433   6.296   6.199   6.440
 6512SOL     OW20434   4.828   6.454   3.567
 6512SOL    HW120435   4.917   6.445   3.523
 6512SOL    HW220436   4.833   6.420   3.661
 6513SOL     OW20437   3.428   6.891   3.098
 6513SOL    HW120438   3.386   6.805   3.070
 6513SOL    HW220439   3.506   6.911   3.039
 6514SOL     OW20440   3.326   6.983   4.079
 6514SOL    HW120441   3.369   0.019   4.148
 6514SOL    HW220442   3.363   7.006   3.989
 6515SOL     OW20443   0.899   6.929   5.359
 6515SOL    HW120444   0.867   6.866   5.430
 6515SOL    HW220445   0.920   6.877   5.276
 6516SOL     OW20446   0.553   1.601   5.368
 6516SOL    HW120447   0.527   1.683   5.318
 6516SOL    HW220448   0.631   1.557   5.323
 6517SOL     OW20449   1.168   1.808   0.194
 6517SOL    HW120450   1.185   1.905   0.212
 6517SOL    HW220451   1.177   1.790   0.096
 6518SOL     OW20452   6.369   6.103   1.347
 6518SOL    HW120453   6.281   6.056   1.340
 6518SOL    HW220454   6.402   6.100   1.441
 6519SOL     OW20455   2.493   2.102   3.310
 6519SOL    HW120456   2.584   2.060   3.302
 6519SOL    HW220457   2.487   2.151   3.397
 6520SOL     OW20458   5.615   5.660   1.316
 6520SOL    HW120459   5.680   5.630   1.246
 6520SOL    HW220460   5.522   5.652   1.280
 6521SOL     OW20461   0.249   1.678   5.350
 6521SOL    HW120462   0.299   1.614   5.409
 6521SOL    HW220463   0.313   1.748   5.317
 6522SOL     OW20464   2.531   5.419   5.968
 6522SOL    HW120465   2.475   5.344   5.932
 6522SOL    HW220466   2.533   5.494   5.901
 6523SOL     OW20467   1.927   2.065   6.249
 6523SOL    HW120468   1.852   2.024   6.198
 6523SOL    HW220469   1.920   2.038   6.345
 6524SOL     OW20470   3.736   4.134   4.527
 6524SOL    HW120471   3.775   4.042   4.533
 6524SOL    HW220472   3.778   4.192   4.596
 6525SOL     OW20473   0.142   2.871   3.639
 6525SOL    HW120474   0.119   2.776   3.617
 6525SOL    HW220475   0.069   2.910   3.695
 6526SOL     OW20476   1.383   6.052   4.938
 6526SOL    HW120477   1.399   6.068   5.035
 6526SOL    HW220478   1.351   5.958   4.924
 6527SOL     OW20479   1.807   0.976   4.584
 6527SOL    HW120480   1.786   0.989   4.681
 6527SOL    HW220481   1.780   1.059   4.533
 6528SOL     OW20482   6.415   0.884   4.157
 6528SOL    HW120483   6.418   0.892   4.257
 6528SOL    HW220484   6.509   0.883   4.122
 6529SOL     OW20485   6.799   2.286   2.461
 6529SOL    HW120486   6.700   2.277   2.475
 6529SOL    HW220487   6.817   2.370   2.409
 6530SOL     OW20488   6.983   2.110   0.722
 6530SOL    HW120489   6.982   2.201   0.762
 6530SOL    HW220490   0.023   2.108   0.644
 6531SOL     OW20491   4.743   2.921   4.336
 6531SOL    HW120492   4.763   2.887   4.428
 6531SOL    HW220493   4.790   3.008   4.323
 6532SOL     OW20494   0.464   2.093   6.508
 6532SOL    HW120495   0.447   2.102   6.606
 6532SOL    HW220496   0.417   2.167   6.459
 6533SOL     OW20497   4.451   0.331   1.035
 6533SOL    HW120498   4.481   0.315   1.129
 6533SOL    HW220499   4.353   0.350   1.034
 6534SOL     OW20500   2.161   3.971   1.038
 6534SOL    HW120501   2.226   4.036   0.999
 6534SOL    HW220502   2.079   3.967   0.981
 6535SOL     OW20503   0.866   3.903   5.857
 6535SOL    HW120504   0.937   3.972   5.839
 6535SOL    HW220505   0.795   3.910   5.786
 6536SOL     OW20506   6.595   2.651   0.020
 6536SOL    HW120507   6.520   2.589   0.041
 6536SOL    HW220508   6.670   2.600   7.001
 6537SOL     OW20509   1.187   6.891   0.432
 6537SOL    HW120510   1.161   6.962   0.497
 6537SOL    HW220511   1.286   6.895   0.417
 6538SOL     OW20512   2.259   3.154   6.692
 6538SOL    HW120513   2.235   3.217   6.767
 6538SOL    HW220514   2.176   3.122   6.647
 6539SOL     OW20515   2.314   1.892   0.035
 6539SOL    HW120516   2.251   1.830   0.082
 6539SOL    HW220517   2.272   1.924   6.972
 6540SOL     OW20518   3.356   1.412   4.614
 6540SOL    HW120519   3.445   1.436   4.576
 6540SOL    HW220520   3.304   1.360   4.547
 6541SOL     OW20521   2.104   2.260   6.420
 6541SOL    HW120522   2.024   2.239   6.476
 6541SOL    HW220523   2.085   2.235   6.324
 6542SOL     OW20524   5.910   4.459   3.640
 6542SOL    HW120525   5.890   4.557   3.640
 6542SOL    HW220526   5.931   4.430   3.546
 6543SOL     OW20527   6.751   5.845   6.858
 6543SOL    HW120528   6.670   5.883   6.902
 6543SOL    HW220529   6.743   5.856   6.759
 6544SOL     OW20530   6.564   6.445   4.440
 6544SOL    HW120531   6.642   6.501   4.414
 6544SOL    HW220532   6.481   6.482   4.397
 6545SOL     OW20533   4.905   2.018   5.862
 6545SOL    HW120534   4.952   1.938   5.824
 6545SOL    HW220535   4.915   2.018   5.961
 6546SOL     OW20536   3.177   4.203   6.335
 6546SOL    HW120537   3.138   4.280   6.286
 6546SOL    HW220538   3.241   4.154   6.276
 6547SOL     OW20539   4.736   2.380   6.781
 6547SOL    HW120540   4.693   2.469   6.801
 6547SOL    HW220541   4.713   2.315   6.853
 6548SOL     OW20542   6.816   4.924   5.550
 6548SOL    HW120543   6.781   4.991   5.616
 6548SOL    HW220544   6.893   4.874   5.591
 6549SOL     OW20545   3.945   1.566   0.967
 6549SOL    HW120546   4.044   1.568   0.952
 6549SOL    HW220547   3.914   1.471   0.973
 6550SOL     OW20548   0.715   5.758   3.280
 6550SOL    HW120549   0.765   5.815   3.345
 6550SOL    HW220550   0.753   5.770   3.188
 6551SOL     OW20551   2.112   4.702   2.357
 6551SOL    HW120552   2.161   4.644   2.422
 6551SOL    HW220553   2.080   4.784   2.404
 6552SOL     OW20554   2.867   4.983   5.918
 6552SOL    HW120555   2.931   4.965   5.844
 6552SOL    HW220556   2.808   5.060   5.893
 6553SOL     OW20557   0.084   2.865   2.624
 6553SOL    HW120558   0.064   2.962   2.639
 6553SOL    HW220559   0.079   2.816   2.711
 6554SOL     OW20560   0.125   2.708   5.423
 6554SOL    HW120561   0.190   2.673   5.355
 6554SOL    HW220562   0.118   2.808   5.414
 6555SOL     OW20563   0.100   1.327   1.960
 6555SOL    HW120564   0.136   1.395   1.897
 6555SOL    HW220565   0.172   1.262   1.984
 6556SOL     OW20566   3.900   6.705   4.547
 6556SOL    HW120567   3.958   6.732   4.469
 6556SOL    HW220568   3.814   6.756   4.543
 6557SOL     OW20569   6.681   5.599   1.282
 6557SOL    HW120570   6.779   5.606   1.301
 6557SOL    HW220571   6.630   5.620   1.365
 6558SOL     OW20572   6.367   5.571   6.823
 6558SOL    HW120573   6.298   5.564   6.895
 6558SOL    HW220574   6.451   5.525   6.853
 6559SOL     OW20575   4.039   3.341   0.927
 6559SOL    HW120576   4.032   3.367   1.023
 6559SOL    HW220577   3.950   3.308   0.895
 6560SOL     OW20578   3.966   2.551   7.003
 6560SOL    HW120579   3.988   2.470   6.948
 6560SOL    HW220580   3.888   2.531   0.040
 6561SOL     OW20581   4.038   3.455   4.128
 6561SOL    HW120582   4.082   3.424   4.212
 6561SOL    HW220583   4.068   3.398   4.051
 6562SOL     OW20584   6.138   4.060   5.914
 6562SOL    HW120585   6.151   4.056   5.815
 6562SOL    HW220586   6.042   4.039   5.936
 6563SOL     OW20587   1.856   5.427   1.925
 6563SOL    HW120588   1.853   5.483   2.008
 6563SOL    HW220589   1.806   5.472   1.852
 6564SOL     OW20590   1.061   5.494   2.171
 6564SOL    HW120591   1.152   5.469   2.203
 6564SOL    HW220592   1.020   5.416   2.122
 6565SOL     OW20593   6.589   3.139   5.308
 6565SOL    HW120594   6.506   3.099   5.348
 6565SOL    HW220595   6.649   3.066   5.276
 6566SOL     OW20596   3.490   6.809   0.911
 6566SOL    HW120597   3.410   6.820   0.851
 6566SOL    HW220598   3.543   6.730   0.881
 6567SOL     OW20599   5.816   2.979   1.388
 6567SOL    HW120600   5.809   2.939   1.479
 6567SOL    HW220601   5.726   2.979   1.345
 6568SOL     OW20602   3.876   4.486   1.245
 6568SOL    HW120603   3.941   4.412   1.261
 6568SOL    HW220604   3.901   4.534   1.161
 6569SOL     OW20605   0.393   4.526   6.779
 6569SOL    HW120606   0.432   4.618   6.785
 6569SOL    HW220607   0.337   4.508   6.860
 6570SOL     OW20608   6.235   2.240   1.145
 6570SOL    HW120609   6.194   2.149   1.134
 6570SOL    HW220610   6.305   2.253   1.076
 6571SOL     OW20611   2.452   5.861   3.615
 6571SOL    HW120612   2.450   5.839   3.518
 6571SOL    HW220613   2.495   5.950   3.628
 6572SOL     OW20614   0.663   3.924   6.024
 6572SOL    HW120615   0.747   3.906   5.971
 6572SOL    HW220616   0.592   3.958   5.962
 6573SOL     OW20617   2.047   1.842   2.556
 6573SOL    HW120618   2.023   1.864   2.650
 6573SOL    HW220619   2.072   1.926   2.507
 6574SOL     OW20620   2.757   5.098   2.959
 6574SOL    HW120621   2.730   5.078   3.053
 6574SOL    HW220622   2.757   5.014   2.905
 6575SOL     OW20623   0.656   1.702   2.970
 6575SOL    HW120624   0.594   1.757   3.026
 6575SOL    HW220625   0.608   1.619   2.940
 6576SOL     OW20626   1.033   6.263   6.090
 6576SOL    HW120627   1.045   6.172   6.050
 6576SOL    HW220628   1.056   6.260   6.188
 6577SOL     OW20629   6.340   2.333   3.522
 6577SOL    HW120630   6.258   2.370   3.566
 6577SOL    HW220631   6.390   2.276   3.587
 6578SOL     OW20632   6.099   5.107   3.652
 6578SOL    HW120633   6.070   5.012   3.664
 6578SOL    HW220634   6.022   5.168   3.673
 6579SOL     OW20635   0.445   3.943   2.388
 6579SOL    HW120636   0.411   4.011   2.322
 6579SOL    HW220637   0.374   3.922   2.454
 6580SOL     OW20638   6.151   2.383   1.684
 6580SOL    HW120639   6.059   2.365   1.650
 6580SOL    HW220640   6.172   2.321   1.760
 6581SOL     OW20641   2.799   1.491   6.092
 6581SOL    HW120642   2.747   1.406   6.101
 6581SOL    HW220643   2.766   1.558   6.160
 6582SOL     OW20644   6.496   6.939   2.893
 6582SOL    HW120645   6.457   6.871   2.831
 6582SOL    HW220646   6.595   6.946   2.876
 6583SOL     OW20647   5.771   1.628   5.720
 6583SOL    HW120648   5.782   1.708   5.660
 6583SOL    HW220649   5.839   1.633   5.793
 6584SOL     OW20650   5.799   1.862   6.668
 6584SOL    HW120651   5.882   1.808   6.686
 6584SOL    HW220652   5.825   1.951   6.630
 6585SOL     OW20653   1.810   1.063   6.689
 6585SOL    HW120654   1.813   1.049   6.590
 6585SOL    HW220655   1.889   1.117   6.717
 6586SOL     OW20656   6.773   2.526   6.042
 6586SOL    HW120657   6.809   2.490   5.955
 6586SOL    HW220658   6.675   2.508   6.048
 6587SOL     OW20659   2.039   6.597   2.968
 6587SOL    HW120660   1.953   6.608   2.918
 6587SOL    HW220661   2.075   6.505   2.952
 6588SOL     OW20662   1.717   3.026   0.306
 6588SOL    HW120663   1.738   3.017   0.208
 6588SOL    HW220664   1.630   3.073   0.317
 6589SOL     OW20665   4.543   1.591   6.035
 6589SOL    HW120666   4.474   1.663   6.045
 6589SOL    HW220667   4.504   1.513   5.985
 6590SOL     OW20668   6.948   1.155   5.194
 6590SOL    HW120669   0.011   1.142   5.143
 6590SOL    HW220670   6.939   1.083   5.263
 6591SOL     OW20671   5.488   1.251   2.895
 6591SOL    HW120672   5.462   1.311   2.819
 6591SOL    HW220673   5.423   1.262   2.970
 6592SOL     OW20674   4.634   5.956   4.272
 6592SOL    HW120675   4.721   5.976   4.227
 6592SOL    HW220676   4.559   5.966   4.207
 6593SOL     OW20677   3.654   0.997   2.136
 6593SOL    HW120678   3.557   1.022   2.137
 6593SOL    HW220679   3.680   0.959   2.225
 6594SOL     OW20680   5.888   0.709   6.309
 6594SOL    HW120681   5.863   0.806   6.298
 6594SOL    HW220682   5.805   0.655   6.324
 6595SOL     OW20683   1.047   3.962   0.848
 6595SOL    HW120684   0.992   3.945   0.929
 6595SOL    HW220685   0.990   4.001   0.776
 6596SOL     OW20686   4.055   0.028   5.144
 6596SOL    HW120687   4.102   0.087   5.209
 6596SOL    HW220688   3.977   0.077   5.104
 6597SOL     OW20689   0.008   4.521   5.333
 6597SOL    HW120690   6.938   4.539   5.370
 6597SOL    HW220691   0.067   4.487   5.406
 6598SOL     OW20692   1.758   5.959   5.557
 6598SOL    HW120693   1.797   5.989   5.644
 6598SOL    HW220694   1.825   5.972   5.484
 6599SOL     OW20695   4.005   4.271   5.848
 6599SOL    HW120696   4.009   4.349   5.911
 6599SOL    HW220697   3.994   4.187   5.900
 6600SOL     OW20698   4.704   6.201   4.062
 6600SOL    HW120699   4.797   6.169   4.079
 6600SOL    HW220700   4.666   6.238   4.147
 6601SOL     OW20701   1.258   0.558   0.589
 6601SOL    HW120702   1.310   0.604   0.517
 6601SOL    HW220703   1.188   0.499   0.548
 6602SOL     OW20704   6.335   1.577   1.324
 6602SOL    HW120705   6.375   1.668   1.340
 6602SOL    HW220706   6.355   1.518   1.402
 6603SOL     OW20707   2.042   3.552   3.881
 6603SOL    HW120708   2.014   3.564   3.976
 6603SOL    HW220709   2.090   3.465   3.871
 6604SOL     OW20710   3.308   5.799   2.810
 6604SOL    HW120711   3.263   5.882   2.842
 6604SOL    HW220712   3.403   5.798   2.842
 6605SOL     OW20713   5.879   6.272   0.081
 6605SOL    HW120714   5.883   6.181   0.121
 6605SOL    HW220715   5.966   6.320   0.094
 6606SOL     OW20716   4.888   0.943   2.624
 6606SOL    HW120717   4.819   1.013   2.639
 6606SOL    HW220718   4.976   0.974   2.659
 6607SOL     OW20719   1.049   2.563   2.784
 6607SOL    HW120720   1.059   2.582   2.686
 6607SOL    HW220721   0.964   2.512   2.799
 6608SOL     OW20722   5.894   3.763   4.308
 6608SOL    HW120723   5.911   3.713   4.393
 6608SOL    HW220724   5.797   3.759   4.285
 6609SOL     OW20725   5.634   1.695   6.887
 6609SOL    HW120726   5.690   1.621   6.848
 6609SOL    HW220727   5.538   1.680   6.864
 6610SOL     OW20728   2.733   0.848   0.011
 6610SOL    HW120729   2.657   0.873   6.973
 6610SOL    HW220730   2.765   0.756   7.010
 6611SOL     OW20731   5.622   3.091   2.686
 6611SOL    HW120732   5.672   3.154   2.626
 6611SOL    HW220733   5.677   3.075   2.769
 6612SOL     OW20734   1.849   6.480   6.644
 6612SOL    HW120735   1.852   6.573   6.607
 6612SOL    HW220736   1.908   6.420   6.590
 6613SOL     OW20737   4.801   5.561   1.603
 6613SOL    HW120738   4.884   5.509   1.626
 6613SOL    HW220739   4.804   5.586   1.506
 6614SOL     OW20740   5.575   5.658   6.143
 6614SOL    HW120741   5.563   5.746   6.190
 6614SOL    HW220742   5.560   5.583   6.207
 6615SOL     OW20743   0.973   3.994   5.112
 6615SOL    HW120744   1.067   4.017   5.139
 6615SOL    HW220745   0.915   4.075   5.119
 6616SOL     OW20746   4.666   0.435   4.741
 6616SOL    HW120747   4.706   0.423   4.832
 6616SOL    HW220748   4.692   0.358   4.683
 6617SOL     OW20749   3.672   0.311   5.707
 6617SOL    HW120750   3.736   0.382   5.676
 6617SOL    HW220751   3.598   0.354   5.760
 6618SOL     OW20752   1.206   4.429   1.793
 6618SOL    HW120753   1.284   4.419   1.732
 6618SOL    HW220754   1.129   4.375   1.759
 6619SOL     OW20755   4.999   5.719   2.597
 6619SOL    HW120756   5.042   5.800   2.559
 6619SOL    HW220757   4.923   5.746   2.656
 6620SOL     OW20758   2.183   2.627   5.543
 6620SOL    HW120759   2.244   2.549   5.528
 6620SOL    HW220760   2.092   2.593   5.569
 6621SOL     OW20761   2.498   3.704   0.079
 6621SOL    HW120762   2.569   3.774   0.069
 6621SOL    HW220763   2.510   3.633   0.011
 6622SOL     OW20764   0.173   6.834   0.443
 6622SOL    HW120765   0.081   6.829   0.404
 6622SOL    HW220766   0.241   6.822   0.371
 6623SOL     OW20767   3.626   3.558   1.946
 6623SOL    HW120768   3.648   3.650   1.980
 6623SOL    HW220769   3.529   3.552   1.926
 6624SOL     OW20770   4.003   4.816   4.285
 6624SOL    HW120771   3.908   4.810   4.254
 6624SOL    HW220772   4.063   4.827   4.205
 6625SOL     OW20773   6.594   0.753   0.541
 6625SOL    HW120774   6.514   0.779   0.486
 6625SOL    HW220775   6.565   0.739   0.636
 6626SOL     OW20776   3.395   4.889   3.322
 6626SOL    HW120777   3.459   4.959   3.356
 6626SOL    HW220778   3.422   4.862   3.230
 6627SOL     OW20779   1.909   6.253   1.103
 6627SOL    HW120780   1.989   6.305   1.073
 6627SOL    HW220781   1.842   6.316   1.143
 6628SOL     OW20782   3.907   5.866   2.978
 6628SOL    HW120783   3.887   5.928   2.903
 6628SOL    HW220784   4.006   5.857   2.989
 6629SOL     OW20785   3.551   4.580   0.325
 6629SOL    HW120786   3.636   4.558   0.279
 6629SOL    HW220787   3.475   4.573   0.260
 6630SOL     OW20788   3.168   2.309   6.667
 6630SOL    HW120789   3.170   2.398   6.713
 6630SOL    HW220790   3.252   2.297   6.614
 6631SOL     OW20791   4.662   0.682   2.259
 6631SOL    HW120792   4.746   0.735   2.245
 6631SOL    HW220793   4.583   0.743   2.259
 6632SOL     OW20794   6.708   1.672   1.992
 6632SOL    HW120795   6.683   1.746   1.931
 6632SOL    HW220796   6.802   1.643   1.975
 6633SOL     OW20797   0.812   0.173   1.034
 6633SOL    HW120798   0.904   0.132   1.029
 6633SOL    HW220799   0.770   0.149   1.121
 6634SOL     OW20800   6.597   3.128   5.823
 6634SOL    HW120801   6.622   3.224   5.809
 6634SOL    HW220802   6.604   3.105   5.920
 6635SOL     OW20803   4.836   4.171   3.359
 6635SOL    HW120804   4.796   4.213   3.278
 6635SOL    HW220805   4.928   4.140   3.338
 6636SOL     OW20806   2.320   2.405   4.042
 6636SOL    HW120807   2.220   2.404   4.039
 6636SOL    HW220808   2.352   2.494   4.073
 6637SOL     OW20809   6.457   1.052   0.839
 6637SOL    HW120810   6.408   1.108   0.907
 6637SOL    HW220811   6.537   1.102   0.807
 6638SOL     OW20812   2.495   5.722   5.859
 6638SOL    HW120813   2.479   5.732   5.761
 6638SOL    HW220814   2.592   5.705   5.876
 6639SOL     OW20815   5.850   5.535   6.981
 6639SOL    HW120816   5.780   5.547   6.911
 6639SOL    HW220817   5.827   5.457   0.017
 6640SOL     OW20818   5.589   3.291   3.389
 6640SOL    HW120819   5.632   3.230   3.322
 6640SOL    HW220820   5.490   3.291   3.376
 6641SOL     OW20821   1.752   4.200   5.994
 6641SOL    HW120822   1.659   4.184   5.959
 6641SOL    HW220823   1.786   4.288   5.959
 6642SOL     OW20824   0.400   6.212   0.316
 6642SOL    HW120825   0.394   6.248   0.223
 6642SOL    HW220826   0.385   6.113   0.314
 6643SOL     OW20827   4.961   4.537   0.011
 6643SOL    HW120828   4.941   4.441   7.017
 6643SOL    HW220829   4.876   4.590   0.008
 6644SOL     OW20830   3.053   4.874   2.070
 6644SOL    HW120831   3.071   4.804   2.001
 6644SOL    HW220832   3.078   4.839   2.160
 6645SOL     OW20833   0.558   5.234   5.578
 6645SOL    HW120834   0.638   5.210   5.633
 6645SOL    HW220835   0.482   5.172   5.601
 6646SOL     OW20836   2.449   5.900   4.095
 6646SOL    HW120837   2.538   5.941   4.115
 6646SOL    HW220838   2.460   5.830   4.024
 6647SOL     OW20839   3.249   1.855   2.129
 6647SOL    HW120840   3.248   1.891   2.222
 6647SOL    HW220841   3.156   1.855   2.092
 6648SOL     OW20842   4.842   5.331   2.115
 6648SOL    HW120843   4.842   5.333   2.015
 6648SOL    HW220844   4.892   5.251   2.147
 6649SOL     OW20845   3.776   2.759   6.509
 6649SOL    HW120846   3.758   2.793   6.417
 6649SOL    HW220847   3.859   2.802   6.544
 6650SOL     OW20848   3.363   1.897   2.783
 6650SOL    HW120849   3.358   1.887   2.883
 6650SOL    HW220850   3.385   1.808   2.742
 6651SOL     OW20851   1.189   2.574   6.426
 6651SOL    HW120852   1.247   2.655   6.424
 6651SOL    HW220853   1.183   2.539   6.520
 6652SOL     OW20854   6.779   5.649   3.261
 6652SOL    HW120855   6.873   5.680   3.250
 6652SOL    HW220856   6.764   5.568   3.204
 6653SOL     OW20857   3.498   3.535   3.934
 6653SOL    HW120858   3.596   3.517   3.931
 6653SOL    HW220859   3.473   3.599   3.862
 6654SOL     OW20860   2.106   3.352   1.770
 6654SOL    HW120861   2.151   3.379   1.855
 6654SOL    HW220862   2.131   3.258   1.747
 6655SOL     OW20863   2.534   6.288   1.422
 6655SOL    HW120864   2.557   6.350   1.497
 6655SOL    HW220865   2.460   6.227   1.452
 6656SOL     OW20866   6.314   2.645   1.166
 6656SOL    HW120867   6.304   2.555   1.125
 6656SOL    HW220868   6.410   2.674   1.161
 6657SOL     OW20869   3.011   6.366   6.296
 6657SOL    HW120870   3.077   6.293   6.313
 6657SOL    HW220871   3.016   6.393   6.200
 6658SOL     OW20872   5.120   0.833   5.653
 6658SOL    HW120873   5.074   0.800   5.735
 6658SOL    HW220874   5.094   0.928   5.636
 6659SOL     OW20875   1.568   3.003   6.770
 6659SOL    HW120876   1.517   3.035   6.850
 6659SOL    HW220877   1.594   3.082   6.714
 6660SOL     OW20878   6.798   6.667   3.149
 6660SOL    HW120879   6.895   6.686   3.131
 6660SOL    HW220880   6.748   6.753   3.156
 6661SOL     OW20881   0.784   6.188   3.588
 6661SOL    HW120882   0.759   6.102   3.543
 6661SOL    HW220883   0.875   6.216   3.557
 6662SOL     OW20884   1.689   2.455   0.332
 6662SOL    HW120885   1.592   2.457   0.357
 6662SOL    HW220886   1.702   2.503   0.246
 6663SOL     OW20887   0.534   5.523   2.491
 6663SOL    HW120888   0.493   5.609   2.521
 6663SOL    HW220889   0.461   5.457   2.472
 6664SOL     OW20890   1.106   1.474   3.347
 6664SOL    HW120891   1.130   1.566   3.315
 6664SOL    HW220892   1.182   1.437   3.401
 6665SOL     OW20893   2.429   6.747   2.872
 6665SOL    HW120894   2.416   6.701   2.785
 6665SOL    HW220895   2.459   6.681   2.941
 6666SOL     OW20896   6.590   0.737   0.000
 6666SOL    HW120897   6.690   0.748   7.020
 6666SOL    HW220898   6.550   0.808   0.058
 6667SOL     OW20899   6.941   4.516   4.680
 6667SOL    HW120900   6.883   4.435   4.675
 6667SOL    HW220901   6.944   4.560   4.590
 6668SOL     OW20902   0.984   4.699   1.482
 6668SOL    HW120903   0.942   4.742   1.562
 6668SOL    HW220904   0.964   4.601   1.483
 6669SOL     OW20905   2.389   5.910   2.767
 6669SOL    HW120906   2.334   5.973   2.711
 6669SOL    HW220907   2.481   5.947   2.777
 6670SOL     OW20908   3.942   4.819   0.138
 6670SOL    HW120909   3.994   4.735   0.120
 6670SOL    HW220910   3.980   4.865   0.218
 6671SOL     OW20911   6.836   2.934   4.802
 6671SOL    HW120912   6.835   2.860   4.735
 6671SOL    HW220913   6.766   2.916   4.872
 6672SOL     OW20914   1.641   1.195   5.469
 6672SOL    HW120915   1.692   1.275   5.500
 6672SOL    HW220916   1.569   1.174   5.536
 6673SOL     OW20917   4.466   4.677   1.326
 6673SOL    HW120918   4.498   4.608   1.391
 6673SOL    HW220919   4.500   4.655   1.234
 6674SOL     OW20920   0.873   6.788   4.114
 6674SOL    HW120921   0.903   6.694   4.098
 6674SOL    HW220922   0.829   6.823   4.031
 6675SOL     OW20923   5.894   4.995   0.193
 6675SOL    HW120924   5.918   5.088   0.220
 6675SOL    HW220925   5.975   4.949   0.156
 6676SOL     OW20926   1.044   2.484   5.746
 6676SOL    HW120927   1.099   2.552   5.697
 6676SOL    HW220928   1.100   2.443   5.819
 6677SOL     OW20929   0.447   3.565   0.213
 6677SOL    HW120930   0.436   3.524   0.303
 6677SOL    HW220931   0.507   3.507   0.158
 6678SOL     OW20932   1.078   3.001   5.495
 6678SOL    HW120933   1.112   3.094   5.483
 6678SOL    HW220934   0.979   3.000   5.481
 6679SOL     OW20935   1.527   1.956   4.264
 6679SOL    HW120936   1.625   1.947   4.284
 6679SOL    HW220937   1.490   1.867   4.238
 6680SOL     OW20938   2.886   6.781   6.271
 6680SOL    HW120939   2.799   6.827   6.255
 6680SOL    HW220940   2.887   6.745   6.365
 6681SOL     OW20941   5.111   5.001   0.312
 6681SOL    HW120942   5.155   5.057   0.383
 6681SOL    HW220943   5.092   4.911   0.350
 6682SOL     OW20944   0.207   6.684   1.826
 6682SOL    HW120945   0.263   6.760   1.793
 6682SOL    HW220946   0.145   6.717   1.898
 6683SOL     OW20947   5.089   1.856   3.804
 6683SOL    HW120948   5.147   1.786   3.845
 6683SOL    HW220949   5.106   1.944   3.850
 6684SOL     OW20950   1.942   0.204   2.943
 6684SOL    HW120951   2.025   0.160   2.978
 6684SOL    HW220952   1.862   0.160   2.984
 6685SOL     OW20953   5.005   3.712   6.371
 6685SOL    HW120954   5.053   3.674   6.291
 6685SOL    HW220955   5.014   3.649   6.448
 6686SOL     OW20956   6.411   3.662   3.644
 6686SOL    HW120957   6.388   3.760   3.642
 6686SOL    HW220958   6.427   3.633   3.738
 6687SOL     OW20959   1.054   2.145   0.325
 6687SOL    HW120960   1.143   2.106   0.351
 6687SOL    HW220961   0.984   2.115   0.391
 6688SOL     OW20962   0.712   5.043   2.667
 6688SOL    HW120963   0.774   5.059   2.744
 6688SOL    HW220964   0.741   4.961   2.618
 6689SOL     OW20965   4.449   4.865   0.003
 6689SOL    HW120966   4.411   4.826   6.941
 6689SOL    HW220967   4.402   4.827   0.082
 6690SOL     OW20968   2.071   2.535   1.076
 6690SOL    HW120969   2.141   2.479   1.120
 6690SOL    HW220970   2.113   2.588   1.002
 6691SOL     OW20971   2.215   4.564   1.567
 6691SOL    HW120972   2.118   4.584   1.553
 6691SOL    HW220973   2.230   4.466   1.555
 6692SOL     OW20974   3.280   3.909   5.748
 6692SOL    HW120975   3.290   3.849   5.828
 6692SOL    HW220976   3.277   3.853   5.665
 6693SOL     OW20977   4.137   3.504   5.206
 6693SOL    HW120978   4.170   3.478   5.296
 6693SOL    HW220979   4.171   3.595   5.183
 6694SOL     OW20980   3.096   6.127   1.063
 6694SOL    HW120981   3.031   6.196   1.095
 6694SOL    HW220982   3.076   6.104   0.968
 6695SOL     OW20983   1.631   2.241   0.110
 6695SOL    HW120984   1.582   2.326   0.092
 6695SOL    HW220985   1.729   2.260   0.117
 6696SOL     OW20986   2.241   3.112   1.764
 6696SOL    HW120987   2.252   3.079   1.670
 6696SOL    HW220988   2.317   3.172   1.787
 6697SOL     OW20989   4.817   1.414   3.037
 6697SOL    HW120990   4.753   1.373   2.972
 6697SOL    HW220991   4.812   1.366   3.124
 6698SOL     OW20992   3.807   3.464   0.459
 6698SOL    HW120993   3.905   3.468   0.440
 6698SOL    HW220994   3.791   3.481   0.557
 6699SOL     OW20995   1.265   3.713   6.919
 6699SOL    HW120996   1.338   3.778   6.894
 6699SOL    HW220997   1.202   3.702   6.842
 6700SOL     OW20998   6.850   6.010   0.540
 6700SOL    HW120999   6.886   6.085   0.596
 6700SOL    HW221000   6.849   5.925   0.593
 6701SOL     OW21001   0.651   1.995   0.610
 6701SOL    HW121002   0.577   2.034   0.664
 6701SOL    HW221003   0.612   1.947   0.531
 6702SOL     OW21004   3.054   1.965   1.436
 6702SOL    HW121005   3.047   2.033   1.509
 6702SOL    HW221006   3.140   1.976   1.388
 6703SOL     OW21007   0.410   1.862   6.855
 6703SOL    HW121008   0.508   1.857   6.877
 6703SOL    HW221009   0.383   1.957   6.845
 6704SOL     OW21010   5.060   1.840   2.229
 6704SOL    HW121011   5.059   1.741   2.213
 6704SOL    HW221012   5.072   1.858   2.326
 6705SOL     OW21013   5.531   1.400   0.300
 6705SOL    HW121014   5.497   1.425   0.391
 6705SOL    HW221015   5.568   1.481   0.255
 6706SOL     OW21016   0.583   4.640   6.226
 6706SOL    HW121017   0.595   4.549   6.266
 6706SOL    HW221018   0.505   4.685   6.267
 6707SOL     OW21019   1.305   6.375   2.475
 6707SOL    HW121020   1.247   6.315   2.420
 6707SOL    HW221021   1.263   6.466   2.481
 6708SOL     OW21022   2.222   5.877   1.042
 6708SOL    HW121023   2.315   5.869   1.005
 6708SOL    HW221024   2.226   5.917   1.133
 6709SOL     OW21025   4.172   1.445   2.902
 6709SOL    HW121026   4.217   1.533   2.888
 6709SOL    HW221027   4.229   1.372   2.864
 6710SOL     OW21028   3.200   2.391   0.821
 6710SOL    HW121029   3.251   2.473   0.797
 6710SOL    HW221030   3.190   2.332   0.740
 6711SOL     OW21031   3.768   4.201   0.821
 6711SOL    HW121032   3.728   4.143   0.891
 6711SOL    HW221033   3.737   4.171   0.731
 6712SOL     OW21034   3.519   5.699   0.349
 6712SOL    HW121035   3.494   5.647   0.267
 6712SOL    HW221036   3.601   5.754   0.330
 6713SOL     OW21037   2.031   1.973   2.257
 6713SOL    HW121038   2.067   2.046   2.315
 6713SOL    HW221039   2.067   1.885   2.289
 6714SOL     OW21040   6.329   0.425   4.102
 6714SOL    HW121041   6.270   0.503   4.085
 6714SOL    HW221042   6.273   0.346   4.127
 6715SOL     OW21043   0.508   1.531   1.216
 6715SOL    HW121044   0.524   1.547   1.313
 6715SOL    HW221045   0.585   1.481   1.177
 6716SOL     OW21046   2.375   5.937   0.287
 6716SOL    HW121047   2.312   5.867   0.255
 6716SOL    HW221048   2.340   5.976   0.373
 6717SOL     OW21049   3.323   1.826   6.667
 6717SOL    HW121050   3.295   1.740   6.624
 6717SOL    HW221051   3.244   1.888   6.671
 6718SOL     OW21052   3.472   6.876   0.285
 6718SOL    HW121053   3.497   6.784   0.255
 6718SOL    HW221054   3.419   6.921   0.213
 6719SOL     OW21055   0.381   0.413   5.572
 6719SOL    HW121056   0.344   0.354   5.500
 6719SOL    HW221057   0.446   0.361   5.628
 6720SOL     OW21058   2.134   4.812   2.076
 6720SOL    HW121059   2.180   4.748   2.015
 6720SOL    HW221060   2.106   4.764   2.159
 6721SOL     OW21061   6.048   6.372   3.588
 6721SOL    HW121062   5.959   6.356   3.631
 6721SOL    HW221063   6.120   6.354   3.654
 6722SOL     OW21064   4.593   3.420   6.893
 6722SOL    HW121065   4.520   3.488   6.882
 6722SOL    HW221066   4.586   3.380   6.985
 6723SOL     OW21067   4.143   6.370   2.102
 6723SOL    HW121068   4.155   6.303   2.029
 6723SOL    HW221069   4.057   6.419   2.090
 6724SOL     OW21070   3.118   5.032   5.345
 6724SOL    HW121071   3.141   4.935   5.346
 6724SOL    HW221072   3.049   5.049   5.275
 6725SOL     OW21073   0.442   4.859   2.335
 6725SOL    HW121074   0.475   4.788   2.396
 6725SOL    HW221075   0.507   4.873   2.261
 6726SOL     OW21076   2.341   1.999   2.549
 6726SOL    HW121077   2.372   1.981   2.455
 6726SOL    HW221078   2.410   1.966   2.613
 6727SOL     OW21079   3.936   3.782   6.846
 6727SOL    HW121080   3.949   3.783   6.747
 6727SOL    HW221081   3.876   3.858   6.872
 6728SOL     OW21082   4.499   0.959   4.070
 6728SOL    HW121083   4.520   1.031   4.004
 6728SOL    HW221084   4.576   0.896   4.076
 6729SOL     OW21085   5.801   0.095   2.224
 6729SOL    HW121086   5.776   0.191   2.232
 6729SOL    HW221087   5.740   0.050   2.158
 6730SOL     OW21088   1.821   0.600   0.372
 6730SOL    HW121089   1.785   0.542   0.299
 6730SOL    HW221090   1.797   0.695   0.353
 6731SOL     OW21091   2.690   4.829   1.959
 6731SOL    HW121092   2.718   4.736   1.984
 6731SOL    HW221093   2.671   4.833   1.861
 6732SOL     OW21094   2.253   4.606   1.236
 6732SOL    HW121095   2.224   4.619   1.330
 6732SOL    HW221096   2.249   4.694   1.187
 6733SOL     OW21097   5.641   5.884   5.847
 6733SOL    HW121098   5.553   5.890   5.895
 6733SOL    HW221099   5.694   5.967   5.865
 6734SOL     OW21100   2.182   3.443   5.737
 6734SOL    HW121101   2.147   3.363   5.688
 6734SOL    HW221102   2.243   3.413   5.810
 6735SOL     OW21103   0.125   5.007   5.830
 6735SOL    HW121104   0.074   4.921   5.825
 6735SOL    HW221105   0.153   5.024   5.924
 6736SOL     OW21106   2.089   3.728   2.934
 6736SOL    HW121107   2.048   3.800   2.877
 6736SOL    HW221108   2.017   3.668   2.969
 6737SOL     OW21109   2.512   1.255   0.838
 6737SOL    HW121110   2.604   1.220   0.817
 6737SOL    HW221111   2.457   1.257   0.754
 6738SOL     OW21112   3.408   1.103   2.099
 6738SOL    HW121113   3.471   1.110   2.022
 6738SOL    HW221114   3.338   1.174   2.092
 6739SOL     OW21115   4.045   6.369   4.835
 6739SOL    HW121116   4.134   6.337   4.802
 6739SOL    HW221117   4.047   6.469   4.845
 6740SOL     OW21118   6.280   2.503   3.989
 6740SOL    HW121119   6.317   2.510   3.897
 6740SOL    HW221120   6.218   2.579   4.006
 6741SOL     OW21121   6.841   0.012   6.640
 6741SOL    HW121122   6.769   0.080   6.649
 6741SOL    HW221123   6.898   0.034   6.560
 6742SOL     OW21124   6.455   6.006   5.857
 6742SOL    HW121125   6.415   6.094   5.833
 6742SOL    HW221126   6.545   5.997   5.813
 6743SOL     OW21127   4.819   3.295   1.035
 6743SOL    HW121128   4.906   3.344   1.042
 6743SOL    HW221129   4.744   3.357   1.055
 6744SOL     OW21130   4.767   5.196   5.852
 6744SOL    HW121131   4.850   5.177   5.800
 6744SOL    HW221132   4.712   5.112   5.857
 6745SOL     OW21133   6.915   4.099   3.664
 6745SOL    HW121134   6.863   4.041   3.726
 6745SOL    HW221135   6.891   4.195   3.680
 6746SOL     OW21136   0.122   1.548   1.167
 6746SOL    HW121137   0.192   1.567   1.236
 6746SOL    HW221138   0.125   1.619   1.096
 6747SOL     OW21139   5.786   6.143   5.851
 6747SOL    HW121140   5.710   6.170   5.910
 6747SOL    HW221141   5.865   6.201   5.871
 6748SOL     OW21142   0.257   0.296   1.889
 6748SOL    HW121143   0.318   0.251   1.823
 6748SOL    HW221144   0.300   0.298   1.979
 6749SOL     OW21145   3.460   6.215   1.482
 6749SOL    HW121146   3.527   6.232   1.409
 6749SOL    HW221147   3.382   6.165   1.445
 6750SOL     OW21148   2.679   3.176   5.312
 6750SOL    HW121149   2.665   3.168   5.411
 6750SOL    HW221150   2.611   3.120   5.265
 6751SOL     OW21151   3.408   1.958   5.387
 6751SOL    HW121152   3.466   1.995   5.460
 6751SOL    HW221153   3.378   2.033   5.328
 6752SOL     OW21154   6.336   2.148   0.079
 6752SOL    HW121155   6.261   2.171   0.142
 6752SOL    HW221156   6.361   2.052   0.091
 6753SOL     OW21157   5.127   2.133   6.290
 6753SOL    HW121158   5.182   2.215   6.309
 6753SOL    HW221159   5.096   2.093   6.376
 6754SOL     OW21160   5.827   0.561   0.156
 6754SOL    HW121161   5.835   0.514   0.244
 6754SOL    HW221162   5.731   0.568   0.130
 6755SOL     OW21163   4.739   1.847   3.220
 6755SOL    HW121164   4.789   1.931   3.238
 6755SOL    HW221165   4.803   1.771   3.211
 6756SOL     OW21166   5.100   4.039   3.910
 6756SOL    HW121167   5.005   4.051   3.938
 6756SOL    HW221168   5.135   3.953   3.949
 6757SOL     OW21169   5.404   5.384   2.028
 6757SOL    HW121170   5.462   5.318   2.075
 6757SOL    HW221171   5.347   5.432   2.095
 6758SOL     OW21172   5.317   2.008   3.165
 6758SOL    HW121173   5.231   1.984   3.120
 6758SOL    HW221174   5.393   1.961   3.120
 6759SOL     OW21175   0.384   4.881   3.791
 6759SOL    HW121176   0.325   4.801   3.799
 6759SOL    HW221177   0.433   4.878   3.704
 6760SOL     OW21178   0.172   4.549   4.801
 6760SOL    HW121179   0.081   4.538   4.761
 6760SOL    HW221180   0.167   4.534   4.900
 6761SOL     OW21181   5.828   3.354   6.684
 6761SOL    HW121182   5.840   3.352   6.783
 6761SOL    HW221183   5.901   3.409   6.643
 6762SOL     OW21184   5.842   4.943   4.086
 6762SOL    HW121185   5.844   4.848   4.118
 6762SOL    HW221186   5.790   4.949   4.002
 6763SOL     OW21187   5.514   6.187   6.014
 6763SOL    HW121188   5.466   6.145   6.091
 6763SOL    HW221189   5.463   6.267   5.982
 6764SOL     OW21190   2.200   3.750   6.781
 6764SOL    HW121191   2.212   3.741   6.880
 6764SOL    HW221192   2.202   3.659   6.739
 6765SOL     OW21193   5.016   4.946   2.642
 6765SOL    HW121194   5.051   4.947   2.736
 6765SOL    HW221195   4.956   4.867   2.630
 6766SOL     OW21196   1.264   1.202   5.366
 6766SOL    HW121197   1.289   1.261   5.443
 6766SOL    HW221198   1.318   1.226   5.286
 6767SOL     OW21199   1.213   2.394   5.953
 6767SOL    HW121200   1.202   2.303   5.992
 6767SOL    HW221201   1.207   2.462   6.027
 6768SOL     OW21202   0.107   0.508   5.612
 6768SOL    HW121203   0.187   0.548   5.568
 6768SOL    HW221204   0.093   0.551   5.702
 6769SOL     OW21205   1.726   2.845   6.506
 6769SOL    HW121206   1.675   2.888   6.432
 6769SOL    HW221207   1.665   2.784   6.557
 6770SOL     OW21208   0.064   1.483   3.814
 6770SOL    HW121209   0.157   1.507   3.788
 6770SOL    HW221210   0.058   1.384   3.829
 6771SOL     OW21211   3.713   1.402   2.186
 6771SOL    HW121212   3.640   1.390   2.118
 6771SOL    HW221213   3.691   1.479   2.246
 6772SOL     OW21214   0.496   1.269   1.774
 6772SOL    HW121215   0.571   1.235   1.830
 6772SOL    HW221216   0.503   1.230   1.682
 6773SOL     OW21217   0.985   0.963   1.462
 6773SOL    HW121218   0.983   1.020   1.544
 6773SOL    HW221219   1.036   1.010   1.390
 6774SOL     OW21220   2.894   1.300   5.439
 6774SOL    HW121221   2.986   1.271   5.411
 6774SOL    HW221222   2.831   1.289   5.363
 6775SOL     OW21223   0.676   2.681   5.019
 6775SOL    HW121224   0.752   2.734   4.982
 6775SOL    HW221225   0.686   2.674   5.118
 6776SOL     OW21226   3.468   3.773   3.475
 6776SOL    HW121227   3.406   3.799   3.401
 6776SOL    HW221228   3.562   3.794   3.449
 6777SOL     OW21229   0.058   6.429   6.789
 6777SOL    HW121230   0.026   6.520   6.763
 6777SOL    HW221231   0.138   6.437   6.847
 6778SOL     OW21232   5.664   5.908   2.133
 6778SOL    HW121233   5.673   5.828   2.192
 6778SOL    HW221234   5.742   5.969   2.148
 6779SOL     OW21235   5.036   4.354   6.401
 6779SOL    HW121236   5.015   4.315   6.491
 6779SOL    HW221237   4.956   4.345   6.341
 6780SOL     OW21238   3.565   0.979   2.412
 6780SOL    HW121239   3.493   0.911   2.420
 6780SOL    HW221240   3.534   1.066   2.450
 6781SOL     OW21241   5.907   2.821   3.008
 6781SOL    HW121242   6.002   2.817   3.039
 6781SOL    HW221243   5.854   2.751   3.055
 6782SOL     OW21244   0.027   1.874   3.323
 6782SOL    HW121245   6.958   1.895   3.357
 6782SOL    HW221246   0.021   1.805   3.251
 6783SOL     OW21247   0.505   6.161   6.080
 6783SOL    HW121248   0.423   6.211   6.107
 6783SOL    HW221249   0.482   6.097   6.006
 6784SOL     OW21250   1.668   4.238   1.089
 6784SOL    HW121251   1.613   4.299   1.145
 6784SOL    HW221252   1.617   4.213   1.007
 6785SOL     OW21253   5.012   5.001   3.868
 6785SOL    HW121254   5.001   5.005   3.967
 6785SOL    HW221255   5.030   4.907   3.840
 6786SOL     OW21256   6.330   2.193   5.650
 6786SOL    HW121257   6.271   2.270   5.674
 6786SOL    HW221258   6.347   2.138   5.731
 6787SOL     OW21259   2.929   1.811   0.393
 6787SOL    HW121260   2.829   1.810   0.399
 6787SOL    HW221261   2.967   1.776   0.479
 6788SOL     OW21262   0.685   4.488   1.260
 6788SOL    HW121263   0.587   4.505   1.265
 6788SOL    HW221264   0.703   4.417   1.192
 6789SOL     OW21265   5.957   4.954   2.633
 6789SOL    HW121266   5.900   4.882   2.593
 6789SOL    HW221267   5.902   5.037   2.644
 6790SOL     OW21268   0.325   5.961   0.327
 6790SOL    HW121269   0.334   5.873   0.281
 6790SOL    HW221270   0.270   5.950   0.410
 6791SOL     OW21271   2.530   6.676   3.504
 6791SOL    HW121272   2.612   6.659   3.450
 6791SOL    HW221273   2.452   6.631   3.462
 6792SOL     OW21274   3.696   0.138   6.252
 6792SOL    HW121275   3.758   0.201   6.205
 6792SOL    HW221276   3.698   0.158   6.350
 6793SOL     OW21277   2.072   3.363   6.269
 6793SOL    HW121278   1.999   3.303   6.236
 6793SOL    HW221279   2.033   3.450   6.300
 6794SOL     OW21280   5.703   2.517   5.029
 6794SOL    HW121281   5.752   2.535   4.944
 6794SOL    HW221282   5.615   2.474   5.009
 6795SOL     OW21283   1.570   0.956   1.606
 6795SOL    HW121284   1.527   0.873   1.641
 6795SOL    HW221285   1.623   0.999   1.678
 6796SOL     OW21286   6.883   1.832   2.960
 6796SOL    HW121287   6.829   1.758   3.000
 6796SOL    HW221288   6.884   1.910   3.023
 6797SOL     OW21289   1.146   3.130   1.172
 6797SOL    HW121290   1.182   3.045   1.210
 6797SOL    HW221291   1.091   3.110   1.092
 6798SOL     OW21292   4.988   1.104   2.185
 6798SOL    HW121293   4.900   1.133   2.148
 6798SOL    HW221294   5.050   1.080   2.110
 6799SOL     OW21295   6.279   0.064   3.023
 6799SOL    HW121296   6.202   0.058   2.960
 6799SOL    HW221297   6.361   0.026   2.980
 6800SOL     OW21298   6.641   3.034   1.473
 6800SOL    HW121299   6.689   3.048   1.560
 6800SOL    HW221300   6.559   2.978   1.489
 6801SOL     OW21301   1.033   6.051   6.394
 6801SOL    HW121302   1.066   6.019   6.483
 6801SOL    HW221303   0.950   6.001   6.370
 6802SOL     OW21304   2.863   4.756   1.692
 6802SOL    HW121305   2.944   4.813   1.706
 6802SOL    HW221306   2.863   4.681   1.758
 6803SOL     OW21307   5.202   5.549   6.303
 6803SOL    HW121308   5.229   5.565   6.208
 6803SOL    HW221309   5.277   5.504   6.351
 6804SOL     OW21310   3.666   5.137   2.109
 6804SOL    HW121311   3.588   5.196   2.088
 6804SOL    HW221312   3.749   5.193   2.115
 6805SOL     OW21313   0.848   3.988   4.409
 6805SOL    HW121314   0.828   3.948   4.319
 6805SOL    HW221315   0.846   4.088   4.401
 6806SOL     OW21316   6.142   3.170   1.997
 6806SOL    HW121317   6.130   3.124   1.909
 6806SOL    HW221318   6.160   3.267   1.982
 6807SOL     OW21319   3.537   4.070   2.766
 6807SOL    HW121320   3.489   4.096   2.682
 6807SOL    HW221321   3.635   4.064   2.747
 6808SOL     OW21322   3.343   0.648   3.415
 6808SOL    HW121323   3.429   0.651   3.364
 6808SOL    HW221324   3.279   0.715   3.377
 6809SOL     OW21325   5.716   3.029   0.365
 6809SOL    HW121326   5.728   3.117   0.319
 6809SOL    HW221327   5.627   3.026   0.409
 6810SOL     OW21328   2.894   0.635   4.451
 6810SOL    HW121329   2.949   0.711   4.416
 6810SOL    HW221330   2.853   0.585   4.375
 6811SOL     OW21331   6.515   1.500   1.131
 6811SOL    HW121332   6.559   1.587   1.109
 6811SOL    HW221333   6.463   1.509   1.216
 6812SOL     OW21334   3.180   4.792   5.211
 6812SOL    HW121335   3.184   4.828   5.118
 6812SOL    HW221336   3.129   4.706   5.212
 6813SOL     OW21337   0.285   4.115   2.241
 6813SOL    HW121338   0.270   4.026   2.198
 6813SOL    HW221339   0.235   4.185   2.191
 6814SOL     OW21340   5.924   1.227   0.608
 6814SOL    HW121341   5.832   1.224   0.646
 6814SOL    HW221342   5.924   1.187   0.516
 6815SOL     OW21343   0.683   5.722   6.686
 6815SOL    HW121344   0.594   5.721   6.640
 6815SOL    HW221345   0.735   5.641   6.661
 6816SOL     OW21346   6.765   6.898   4.280
 6816SOL    HW121347   6.860   6.897   4.250
 6816SOL    HW221348   6.736   6.993   4.295
 6817SOL     OW21349   4.536   2.061   1.249
 6817SOL    HW121350   4.597   2.097   1.319
 6817SOL    HW221351   4.441   2.073   1.277
 6818SOL     OW21352   0.796   0.122   5.019
 6818SOL    HW121353   0.707   0.084   5.044
 6818SOL    HW221354   0.847   0.146   5.101
 6819SOL     OW21355   5.018   4.522   1.725
 6819SOL    HW121356   5.057   4.429   1.725
 6819SOL    HW221357   4.963   4.534   1.642
 6820SOL     OW21358   2.696   5.126   1.625
 6820SOL    HW121359   2.787   5.127   1.666
 6820SOL    HW221360   2.646   5.046   1.658
 6821SOL     OW21361   3.484   2.714   5.478
 6821SOL    HW121362   3.516   2.636   5.532
 6821SOL    HW221363   3.416   2.682   5.411
 6822SOL     OW21364   5.903   3.672   5.386
 6822SOL    HW121365   5.980   3.735   5.397
 6822SOL    HW221366   5.817   3.722   5.398
 6823SOL     OW21367   0.840   2.656   5.256
 6823SOL    HW121368   0.820   2.680   5.351
 6823SOL    HW221369   0.919   2.709   5.225
 6824SOL     OW21370   0.970   0.207   5.269
 6824SOL    HW121371   0.914   0.138   5.315
 6824SOL    HW221372   1.067   0.187   5.283
 6825SOL     OW21373   4.020   4.270   1.381
 6825SOL    HW121374   4.098   4.329   1.361
 6825SOL    HW221375   3.988   4.287   1.474
 6826SOL     OW21376   6.070   0.276   3.607
 6826SOL    HW121377   6.135   0.350   3.623
 6826SOL    HW221378   6.077   0.209   3.681
 6827SOL     OW21379   4.787   5.886   4.869
 6827SOL    HW121380   4.850   5.955   4.905
 6827SOL    HW221381   4.694   5.921   4.871
 6828SOL     OW21382   3.525   1.962   2.068
 6828SOL    HW121383   3.428   1.979   2.054
 6828SOL    HW221384   3.576   2.047   2.059
 6829SOL     OW21385   3.937   6.812   3.337
 6829SOL    HW121386   3.877   6.733   3.351
 6829SOL    HW221387   3.927   6.876   3.414
 6830SOL     OW21388   4.232   4.685   2.267
 6830SOL    HW121389   4.152   4.735   2.232
 6830SOL    HW221390   4.270   4.628   2.194
 6831SOL     OW21391   1.834   1.444   6.558
 6831SOL    HW121392   1.807   1.539   6.574
 6831SOL    HW221393   1.752   1.387   6.545
 6832SOL     OW21394   2.799   2.367   6.636
 6832SOL    HW121395   2.824   2.425   6.714
 6832SOL    HW221396   2.880   2.317   6.605
 6833SOL     OW21397   3.592   5.279   6.146
 6833SOL    HW121398   3.593   5.367   6.194
 6833SOL    HW221399   3.686   5.251   6.126
 6834SOL     OW21400   6.246   6.743   6.360
 6834SOL    HW121401   6.216   6.707   6.448
 6834SOL    HW221402   6.346   6.752   6.359
 6835SOL     OW21403   3.294   0.930   3.895
 6835SOL    HW121404   3.310   1.015   3.844
 6835SOL    HW221405   3.196   0.909   3.896
 6836SOL     OW21406   0.724   4.320   6.715
 6836SOL    HW121407   0.799   4.258   6.738
 6836SOL    HW221408   0.637   4.281   6.744
 6837SOL     OW21409   5.979   0.732   2.161
 6837SOL    HW121410   5.993   0.702   2.067
 6837SOL    HW221411   5.915   0.809   2.163
 6838SOL     OW21412   3.011   3.881   5.916
 6838SOL    HW121413   2.973   3.868   5.825
 6838SOL    HW221414   3.010   3.979   5.939
 6839SOL     OW21415   5.990   3.143   4.540
 6839SOL    HW121416   6.026   3.087   4.466
 6839SOL    HW221417   6.065   3.181   4.593
 6840SOL     OW21418   2.995   6.382   4.492
 6840SOL    HW121419   3.057   6.341   4.426
 6840SOL    HW221420   3.019   6.478   4.506
 6841SOL     OW21421   4.679   6.705   0.952
 6841SOL    HW121422   4.595   6.656   0.978
 6841SOL    HW221423   4.742   6.642   0.908
 6842SOL     OW21424   0.452   3.899   4.793
 6842SOL    HW121425   0.503   3.985   4.784
 6842SOL    HW221426   0.469   3.860   4.884
 6843SOL     OW21427   4.623   2.767   1.494
 6843SOL    HW121428   4.701   2.709   1.468
 6843SOL    HW221429   4.641   2.809   1.583
 6844SOL     OW21430   3.390   5.450   4.040
 6844SOL    HW121431   3.375   5.548   4.041
 6844SOL    HW221432   3.472   5.428   4.093
 6845SOL     OW21433   3.664   4.427   0.520
 6845SOL    HW121434   3.693   4.479   0.601
 6845SOL    HW221435   3.625   4.489   0.452
 6846SOL     OW21436   4.052   3.116   2.277
 6846SOL    HW121437   3.960   3.075   2.274
 6846SOL    HW221438   4.107   3.078   2.203
 6847SOL     OW21439   6.622   3.381   1.305
 6847SOL    HW121440   6.646   3.436   1.226
 6847SOL    HW221441   6.586   3.292   1.274
 6848SOL     OW21442   6.576   6.058   3.773
 6848SOL    HW121443   6.593   5.987   3.704
 6848SOL    HW221444   6.515   6.127   3.734
 6849SOL     OW21445   3.435   6.348   4.208
 6849SOL    HW121446   3.357   6.373   4.150
 6849SOL    HW221447   3.471   6.259   4.180
 6850SOL     OW21448   5.270   3.292   1.343
 6850SOL    HW121449   5.188   3.323   1.390
 6850SOL    HW221450   5.271   3.329   1.250
 6851SOL     OW21451   1.604   5.533   5.300
 6851SOL    HW121452   1.517   5.482   5.303
 6851SOL    HW221453   1.669   5.490   5.362
 6852SOL     OW21454   0.200   4.867   1.834
 6852SOL    HW121455   0.291   4.835   1.861
 6852SOL    HW221456   0.144   4.788   1.807
 6853SOL     OW21457   6.486   3.740   5.114
 6853SOL    HW121458   6.409   3.676   5.106
 6853SOL    HW221459   6.462   3.813   5.178
 6854SOL     OW21460   0.175   1.955   0.092
 6854SOL    HW121461   0.246   2.021   0.067
 6854SOL    HW221462   0.086   1.999   0.091
 6855SOL     OW21463   2.973   6.417   2.127
 6855SOL    HW121464   2.882   6.414   2.087
 6855SOL    HW221465   3.030   6.482   2.075
 6856SOL     OW21466   0.782   4.801   4.985
 6856SOL    HW121467   0.786   4.849   5.073
 6856SOL    HW221468   0.687   4.786   4.960
 6857SOL     OW21469   3.738   1.270   5.825
 6857SOL    HW121470   3.828   1.299   5.793
 6857SOL    HW221471   3.692   1.345   5.872
 6858SOL     OW21472   3.770   2.429   5.366
 6858SOL    HW121473   3.848   2.366   5.374
 6858SOL    HW221474   3.688   2.384   5.402
 6859SOL     OW21475   3.532   0.391   0.334
 6859SOL    HW121476   3.525   0.308   0.280
 6859SOL    HW221477   3.614   0.441   0.307
 6860SOL     OW21478   4.250   5.080   6.988
 6860SOL    HW121479   4.307   4.999   6.978
 6860SOL    HW221480   4.247   5.130   6.901
 6861SOL     OW21481   5.894   4.330   0.721
 6861SOL    HW121482   5.968   4.388   0.754
 6861SOL    HW221483   5.813   4.345   0.777
 6862SOL     OW21484   3.231   5.328   3.708
 6862SOL    HW121485   3.222   5.263   3.782
 6862SOL    HW221486   3.242   5.279   3.621
 6863SOL     OW21487   0.611   3.051   3.915
 6863SOL    HW121488   0.521   3.009   3.899
 6863SOL    HW221489   0.609   3.147   3.887
 6864SOL     OW21490   4.469   5.622   5.658
 6864SOL    HW121491   4.470   5.543   5.720
 6864SOL    HW221492   4.563   5.656   5.646
 6865SOL     OW21493   6.343   3.081   4.560
 6865SOL    HW121494   6.326   3.052   4.466
 6865SOL    HW221495   6.272   3.146   4.589
 6866SOL     OW21496   0.585   2.975   2.129
 6866SOL    HW121497   0.609   2.926   2.213
 6866SOL    HW221498   0.574   3.073   2.149
 6867SOL     OW21499   2.580   4.589   2.593
 6867SOL    HW121500   2.627   4.604   2.506
 6867SOL    HW221501   2.536   4.674   2.621
 6868SOL     OW21502   2.083   5.167   4.877
 6868SOL    HW121503   2.164   5.149   4.933
 6868SOL    HW221504   2.017   5.093   4.889
 6869SOL     OW21505   6.233   3.256   4.938
 6869SOL    HW121506   6.331   3.246   4.955
 6869SOL    HW221507   6.185   3.176   4.973
 6870SOL     OW21508   5.163   3.920   2.191
 6870SOL    HW121509   5.149   3.854   2.117
 6870SOL    HW221510   5.083   3.979   2.200
 6871SOL     OW21511   4.637   0.275   1.272
 6871SOL    HW121512   4.558   0.250   1.328
 6871SOL    HW221513   4.667   0.367   1.297
 6872SOL     OW21514   2.807   3.222   6.686
 6872SOL    HW121515   2.799   3.321   6.679
 6872SOL    HW221516   2.764   3.191   6.770
 6873SOL     OW21517   5.281   4.042   5.603
 6873SOL    HW121518   5.306   3.946   5.613
 6873SOL    HW221519   5.333   4.097   5.669
 6874SOL     OW21520   1.143   2.468   5.354
 6874SOL    HW121521   1.099   2.511   5.432
 6874SOL    HW221522   1.119   2.518   5.270
 6875SOL     OW21523   3.003   1.880   3.914
 6875SOL    HW121524   3.072   1.913   3.979
 6875SOL    HW221525   3.011   1.781   3.903
 6876SOL     OW21526   3.530   6.473   5.329
 6876SOL    HW121527   3.543   6.419   5.413
 6876SOL    HW221528   3.549   6.415   5.249
 6877SOL     OW21529   2.668   3.926   0.077
 6877SOL    HW121530   2.753   3.896   0.035
 6877SOL    HW221531   2.680   4.019   0.113
 6878SOL     OW21532   1.647   1.658   5.115
 6878SOL    HW121533   1.690   1.727   5.174
 6878SOL    HW221534   1.662   1.567   5.153
 6879SOL     OW21535   0.955   1.137   5.815
 6879SOL    HW121536   0.931   1.068   5.883
 6879SOL    HW221537   0.952   1.096   5.724
 6880SOL     OW21538   1.750   4.128   4.968
 6880SOL    HW121539   1.732   4.047   4.913
 6880SOL    HW221540   1.849   4.142   4.975
 6881SOL     OW21541   6.505   4.713   1.749
 6881SOL    HW121542   6.516   4.617   1.725
 6881SOL    HW221543   6.410   4.740   1.735
 6882SOL     OW21544   2.416   6.994   5.080
 6882SOL    HW121545   2.437   6.967   4.986
 6882SOL    HW221546   2.500   0.003   5.125
 6883SOL     OW21547   2.937   6.032   1.552
 6883SOL    HW121548   2.949   6.127   1.582
 6883SOL    HW221549   3.013   5.976   1.584
 6884SOL     OW21550   2.639   4.765   3.131
 6884SOL    HW121551   2.722   4.722   3.166
 6884SOL    HW221552   2.589   4.809   3.206
 6885SOL     OW21553   3.711   5.410   5.029
 6885SOL    HW121554   3.733   5.315   5.054
 6885SOL    HW221555   3.700   5.417   4.930
 6886SOL     OW21556   5.185   2.187   2.279
 6886SOL    HW121557   5.165   2.267   2.335
 6886SOL    HW221558   5.130   2.190   2.196
 6887SOL     OW21559   4.941   0.676   4.856
 6887SOL    HW121560   4.873   0.666   4.928
 6887SOL    HW221561   5.032   0.685   4.897
 6888SOL     OW21562   5.158   6.104   4.820
 6888SOL    HW121563   5.155   6.043   4.741
 6888SOL    HW221564   5.224   6.178   4.802
 6889SOL     OW21565   1.452   3.973   6.162
 6889SOL    HW121566   1.379   3.915   6.125
 6889SOL    HW221567   1.413   4.038   6.226
 6890SOL     OW21568   2.377   0.705   0.594
 6890SOL    HW121569   2.336   0.782   0.546
 6890SOL    HW221570   2.315   0.675   0.667
 6891SOL     OW21571   3.693   5.134   4.756
 6891SOL    HW121572   3.594   5.124   4.764
 6891SOL    HW221573   3.738   5.057   4.803
 6892SOL     OW21574   3.685   1.013   4.214
 6892SOL    HW121575   3.779   0.990   4.189
 6892SOL    HW221576   3.621   0.962   4.156
 6893SOL     OW21577   6.454   0.066   2.182
 6893SOL    HW121578   6.430   0.075   2.086
 6893SOL    HW221579   6.534   0.007   2.191
 6894SOL     OW21580   6.113   4.558   5.902
 6894SOL    HW121581   6.204   4.587   5.932
 6894SOL    HW221582   6.103   4.460   5.916
 6895SOL     OW21583   4.250   5.223   6.750
 6895SOL    HW121584   4.221   5.309   6.794
 6895SOL    HW221585   4.190   5.204   6.672
 6896SOL     OW21586   4.321   6.952   3.459
 6896SOL    HW121587   4.272   6.871   3.427
 6896SOL    HW221588   4.417   6.945   3.434
 6897SOL     OW21589   3.691   2.048   0.635
 6897SOL    HW121590   3.688   2.136   0.588
 6897SOL    HW221591   3.598   2.012   0.645
 6898SOL     OW21592   3.805   1.621   3.056
 6898SOL    HW121593   3.825   1.529   3.023
 6898SOL    HW221594   3.826   1.626   3.154
 6899SOL     OW21595   5.467   6.682   6.762
 6899SOL    HW121596   5.478   6.583   6.764
 6899SOL    HW221597   5.403   6.710   6.834
 6900SOL     OW21598   3.974   1.158   5.441
 6900SOL    HW121599   4.066   1.194   5.458
 6900SOL    HW221600   3.976   1.098   5.361
 6901SOL     OW21601   1.502   0.684   0.156
 6901SOL    HW121602   1.543   0.758   0.102
 6901SOL    HW221603   1.523   0.596   0.113
 6902SOL     OW21604   6.428   5.633   1.462
 6902SOL    HW121605   6.356   5.690   1.423
 6902SOL    HW221606   6.501   5.690   1.499
 6903SOL     OW21607   3.993   4.598   1.020
 6903SOL    HW121608   3.954   4.625   0.932
 6903SOL    HW221609   4.054   4.670   1.053
 6904SOL     OW21610   0.181   1.500   3.032
 6904SOL    HW121611   0.191   1.470   2.937
 6904SOL    HW221612   0.150   1.422   3.088
 6905SOL     OW21613   4.122   4.838   1.059
 6905SOL    HW121614   4.174   4.819   0.976
 6905SOL    HW221615   4.091   4.934   1.057
 6906SOL     OW21616   4.259   5.857   3.707
 6906SOL    HW121617   4.314   5.940   3.707
 6906SOL    HW221618   4.283   5.801   3.628
 6907SOL     OW21619   3.692   1.334   1.394
 6907SOL    HW121620   3.674   1.257   1.455
 6907SOL    HW221621   3.752   1.304   1.320
 6908SOL     OW21622   0.001   6.655   6.654
 6908SOL    HW121623   6.929   6.671   6.622
 6908SOL    HW221624   0.045   6.742   6.672
 6909SOL     OW21625   4.664   3.159   6.759
 6909SOL    HW121626   4.636   3.239   6.812
 6909SOL    HW221627   4.694   3.188   6.668
 6910SOL     OW21628   6.529   1.336   2.247
 6910SOL    HW121629   6.431   1.355   2.247
 6910SOL    HW221630   6.546   1.247   2.290
 6911SOL     OW21631   3.974   0.726   5.155
 6911SOL    HW121632   4.073   0.737   5.163
 6911SOL    HW221633   3.938   0.684   5.239
 6912SOL     OW21634   4.867   5.252   1.407
 6912SOL    HW121635   4.770   5.276   1.415
 6912SOL    HW221636   4.876   5.152   1.397
 6913SOL     OW21637   4.712   5.604   5.003
 6913SOL    HW121638   4.756   5.574   5.087
 6913SOL    HW221639   4.748   5.692   4.975
 6914SOL     OW21640   6.306   4.863   0.326
 6914SOL    HW121641   6.269   4.805   0.399
 6914SOL    HW221642   6.345   4.805   0.254
 6915SOL     OW21643   1.315   5.902   1.328
 6915SOL    HW121644   1.296   5.944   1.417
 6915SOL    HW221645   1.300   5.803   1.334
 6916SOL     OW21646   6.623   1.527   6.702
 6916SOL    HW121647   6.701   1.589   6.704
 6916SOL    HW221648   6.585   1.523   6.610
 6917SOL     OW21649   4.793   0.059   6.685
 6917SOL    HW121650   4.796   6.982   6.667
 6917SOL    HW221651   4.801   0.075   6.783
 6918SOL     OW21652   2.375   2.762   3.579
 6918SOL    HW121653   2.346   2.852   3.613
 6918SOL    HW221654   2.371   2.761   3.479
 6919SOL     OW21655   1.375   6.342   3.385
 6919SOL    HW121656   1.330   6.403   3.450
 6919SOL    HW221657   1.458   6.385   3.350
 6920SOL     OW21658   4.689   6.629   4.752
 6920SOL    HW121659   4.763   6.563   4.741
 6920SOL    HW221660   4.628   6.625   4.673
 6921SOL     OW21661   0.177   6.459   2.902
 6921SOL    HW121662   0.101   6.410   2.860
 6921SOL    HW221663   0.144   6.508   2.982
 6922SOL     OW21664   1.307   5.895   6.904
 6922SOL    HW121665   1.377   5.913   6.836
 6922SOL    HW221666   1.242   5.828   6.869
 6923SOL     OW21667   4.525   6.769   4.352
 6923SOL    HW121668   4.620   6.743   4.330
 6923SOL    HW221669   4.490   6.829   4.280
 6924SOL     OW21670   6.745   5.915   1.428
 6924SOL    HW121671   6.725   6.000   1.477
 6924SOL    HW221672   6.802   5.935   1.348
 6925SOL     OW21673   5.938   5.698   2.937
 6925SOL    HW121674   5.891   5.770   2.990
 6925SOL    HW221675   5.895   5.690   2.847
 6926SOL     OW21676   2.906   3.747   4.938
 6926SOL    HW121677   2.822   3.757   4.992
 6926SOL    HW221678   2.946   3.837   4.921
 6927SOL     OW21679   4.402   3.726   6.127
 6927SOL    HW121680   4.308   3.699   6.148
 6927SOL    HW221681   4.465   3.683   6.192
 6928SOL     OW21682   6.270   0.055   6.629
 6928SOL    HW121683   6.311   7.021   6.702
 6928SOL    HW221684   6.175   0.077   6.654
 6929SOL     OW21685   3.712   5.154   0.257
 6929SOL    HW121686   3.680   5.245   0.282
 6929SOL    HW221687   3.743   5.154   0.162
 6930SOL     OW21688   1.222   6.796   3.153
 6930SOL    HW121689   1.193   6.874   3.208
 6930SOL    HW221690   1.284   6.738   3.207
 6931SOL     OW21691   1.496   0.838   1.899
 6931SOL    HW121692   1.424   0.769   1.902
 6931SOL    HW221693   1.584   0.793   1.887
 6932SOL     OW21694   2.703   2.018   0.146
 6932SOL    HW121695   2.799   1.989   0.146
 6932SOL    HW221696   2.697   2.115   0.168
 6933SOL     OW21697   3.356   6.392   6.534
 6933SOL    HW121698   3.354   6.387   6.434
 6933SOL    HW221699   3.384   6.304   6.571
 6934SOL     OW21700   6.183   4.307   5.996
 6934SOL    HW121701   6.172   4.211   5.971
 6934SOL    HW221702   6.175   4.316   6.096
 6935SOL     OW21703   4.368   5.540   3.642
 6935SOL    HW121704   4.330   5.470   3.702
 6935SOL    HW221705   4.454   5.573   3.680
 6936SOL     OW21706   1.507   4.479   1.209
 6936SOL    HW121707   1.423   4.529   1.188
 6936SOL    HW221708   1.586   4.529   1.172
 6937SOL     OW21709   4.396   6.871   6.068
 6937SOL    HW121710   4.357   6.787   6.105
 6937SOL    HW221711   4.341   6.903   5.992
 6938SOL     OW21712   5.765   2.216   4.698
 6938SOL    HW121713   5.798   2.309   4.679
 6938SOL    HW221714   5.831   2.150   4.663
 6939SOL     OW21715   0.612   5.313   2.647
 6939SOL    HW121716   0.598   5.396   2.593
 6939SOL    HW221717   0.655   5.243   2.591
 6940SOL     OW21718   3.656   0.737   5.158
 6940SOL    HW121719   3.573   0.707   5.111
 6940SOL    HW221720   3.734   0.729   5.096
 6941SOL     OW21721   3.914   3.084   3.312
 6941SOL    HW121722   3.892   3.087   3.215
 6941SOL    HW221723   3.845   3.029   3.359
 6942SOL     OW21724   6.973   1.629   0.406
 6942SOL    HW121725   6.968   1.544   0.353
 6942SOL    HW221726   6.932   1.614   0.496
 6943SOL     OW21727   5.389   6.120   6.715
 6943SOL    HW121728   5.359   6.185   6.785
 6943SOL    HW221729   5.310   6.067   6.683
 6944SOL     OW21730   1.509   6.517   6.244
 6944SOL    HW121731   1.504   6.604   6.194
 6944SOL    HW221732   1.420   6.471   6.240
 6945SOL     OW21733   4.737   1.916   5.199
 6945SOL    HW121734   4.653   1.967   5.218
 6945SOL    HW221735   4.816   1.974   5.221
 6946SOL     OW21736   6.133   4.649   3.904
 6946SOL    HW121737   6.195   4.702   3.962
 6946SOL    HW221738   6.117   4.560   3.947
 6947SOL     OW21739   3.984   6.777   3.077
 6947SOL    HW121740   3.956   6.764   3.172
 6947SOL    HW221741   3.912   6.828   3.028
 6948SOL     OW21742   3.855   1.778   4.668
 6948SOL    HW121743   3.789   1.798   4.595
 6948SOL    HW221744   3.862   1.679   4.680
 6949SOL     OW21745   5.214   0.721   2.266
 6949SOL    HW121746   5.158   0.730   2.348
 6949SOL    HW221747   5.264   0.806   2.250
 6950SOL     OW21748   2.130   1.029   3.472
 6950SOL    HW121749   2.036   1.062   3.466
 6950SOL    HW221750   2.155   0.980   3.389
 6951SOL     OW21751   5.405   5.333   5.698
 6951SOL    HW121752   5.445   5.244   5.721
 6951SOL    HW221753   5.479   5.399   5.683
 6952SOL     OW21754   0.370   5.154   4.740
 6952SOL    HW121755   0.466   5.182   4.745
 6952SOL    HW221756   0.318   5.201   4.811
 6953SOL     OW21757   5.350   1.920   5.410
 6953SOL    HW121758   5.410   1.992   5.376
 6953SOL    HW221759   5.323   1.860   5.334
 6954SOL     OW21760   0.816   5.157   3.175
 6954SOL    HW121761   0.722   5.124   3.165
 6954SOL    HW221762   0.824   5.246   3.130
 6955SOL     OW21763   6.411   5.541   2.610
 6955SOL    HW121764   6.344   5.568   2.680
 6955SOL    HW221765   6.425   5.443   2.613
 6956SOL     OW21766   3.143   4.749   1.161
 6956SOL    HW121767   3.119   4.844   1.182
 6956SOL    HW221768   3.091   4.688   1.220
 6957SOL     OW21769   0.618   3.913   0.147
 6957SOL    HW121770   0.660   3.997   0.180
 6957SOL    HW221771   0.528   3.902   0.188
 6958SOL     OW21772   2.568   3.874   6.412
 6958SOL    HW121773   2.521   3.960   6.435
 6958SOL    HW221774   2.591   3.874   6.315
 6959SOL     OW21775   3.210   1.269   4.434
 6959SOL    HW121776   3.126   1.322   4.420
 6959SOL    HW221777   3.232   1.219   4.350
 6960SOL     OW21778   0.013   4.773   6.829
 6960SOL    HW121779   0.020   4.709   6.752
 6960SOL    HW221780   6.954   4.750   6.884
 6961SOL     OW21781   6.751   1.610   3.009
 6961SOL    HW121782   6.664   1.660   3.004
 6961SOL    HW221783   6.751   1.536   2.943
 6962SOL     OW21784   4.402   3.559   0.430
 6962SOL    HW121785   4.313   3.591   0.400
 6962SOL    HW221786   4.455   3.636   0.467
 6963SOL     OW21787   5.948   5.524   2.008
 6963SOL    HW121788   5.969   5.566   2.097
 6963SOL    HW221789   6.033   5.501   1.961
 6964SOL     OW21790   3.927   6.317   5.210
 6964SOL    HW121791   3.992   6.255   5.165
 6964SOL    HW221792   3.974   6.401   5.235
 6965SOL     OW21793   6.698   3.376   5.802
 6965SOL    HW121794   6.619   3.436   5.789
 6965SOL    HW221795   6.737   3.391   5.892
 6966SOL     OW21796   4.597   2.643   3.766
 6966SOL    HW121797   4.676   2.596   3.728
 6966SOL    HW221798   4.620   2.739   3.782
 6967SOL     OW21799   2.073   1.485   6.864
 6967SOL    HW121800   2.026   1.565   6.827
 6967SOL    HW221801   2.091   1.498   6.961
 6968SOL     OW21802   4.879   0.072   2.034
 6968SOL    HW121803   4.898   0.133   2.110
 6968SOL    HW221804   4.948   7.022   2.031
 6969SOL     OW21805   3.314   1.598   1.445
 6969SOL    HW121806   3.408   1.585   1.414
 6969SOL    HW221807   3.306   1.685   1.494
 6970SOL     OW21808   4.958   3.706   0.367
 6970SOL    HW121809   4.881   3.682   0.308
 6970SOL    HW221810   4.924   3.725   0.459
 6971SOL     OW21811   5.752   0.830   2.684
 6971SOL    HW121812   5.714   0.923   2.689
 6971SOL    HW221813   5.711   0.781   2.607
 6972SOL     OW21814   5.283   4.680   4.372
 6972SOL    HW121815   5.265   4.714   4.465
 6972SOL    HW221816   5.240   4.741   4.305
 6973SOL     OW21817   2.282   4.718   4.073
 6973SOL    HW121818   2.191   4.752   4.049
 6973SOL    HW221819   2.282   4.683   4.166
 6974SOL     OW21820   3.685   3.689   4.872
 6974SOL    HW121821   3.712   3.685   4.776
 6974SOL    HW221822   3.614   3.759   4.883
 6975SOL     OW21823   3.644   1.239   5.570
 6975SOL    HW121824   3.693   1.317   5.531
 6975SOL    HW221825   3.678   1.221   5.662
 6976SOL     OW21826   1.817   5.248   7.010
 6976SOL    HW121827   1.737   5.285   0.035
 6976SOL    HW221828   1.821   5.284   6.917
 6977SOL     OW21829   3.892   2.136   2.917
 6977SOL    HW121830   3.954   2.164   2.844
 6977SOL    HW221831   3.810   2.094   2.878
 6978SOL     OW21832   6.528   0.995   2.809
 6978SOL    HW121833   6.452   1.046   2.769
 6978SOL    HW221834   6.584   0.956   2.735
 6979SOL     OW21835   0.576   4.651   3.635
 6979SOL    HW121836   0.651   4.591   3.611
 6979SOL    HW221837   0.521   4.609   3.708
 6980SOL     OW21838   3.365   1.133   4.215
 6980SOL    HW121839   3.434   1.176   4.157
 6980SOL    HW221840   3.407   1.058   4.266
 6981SOL     OW21841   2.742   4.684   6.628
 6981SOL    HW121842   2.831   4.642   6.647
 6981SOL    HW221843   2.716   4.664   6.533
 6982SOL     OW21844   0.177   6.630   4.712
 6982SOL    HW121845   0.175   6.730   4.720
 6982SOL    HW221846   0.198   6.605   4.618
 6983SOL     OW21847   6.066   1.029   3.694
 6983SOL    HW121848   6.141   0.979   3.651
 6983SOL    HW221849   6.102   1.101   3.753
 6984SOL     OW21850   2.025   1.240   6.746
 6984SOL    HW121851   2.033   1.323   6.801
 6984SOL    HW221852   2.012   1.266   6.650
 6985SOL     OW21853   4.862   6.416   2.342
 6985SOL    HW121854   4.803   6.497   2.334
 6985SOL    HW221855   4.940   6.426   2.280
 6986SOL     OW21856   2.343   6.554   4.966
 6986SOL    HW121857   2.372   6.467   5.005
 6986SOL    HW221858   2.253   6.543   4.922
 6987SOL     OW21859   0.115   3.524   6.572
 6987SOL    HW121860   0.050   3.514   6.647
 6987SOL    HW221861   0.067   3.524   6.485
 6988SOL     OW21862   4.879   0.918   5.269
 6988SOL    HW121863   4.873   0.828   5.227
 6988SOL    HW221864   4.831   0.985   5.213
 6989SOL     OW21865   1.314   2.598   4.087
 6989SOL    HW121866   1.335   2.515   4.139
 6989SOL    HW221867   1.275   2.573   3.998
 6990SOL     OW21868   4.161   3.513   0.062
 6990SOL    HW121869   4.097   3.589   0.050
 6990SOL    HW221870   4.123   3.431   0.020
 6991SOL     OW21871   4.216   4.484   5.530
 6991SOL    HW121872   4.277   4.464   5.606
 6991SOL    HW221873   4.121   4.480   5.562
 6992SOL     OW21874   5.085   6.652   5.272
 6992SOL    HW121875   4.996   6.671   5.313
 6992SOL    HW221876   5.074   6.583   5.201
 6993SOL     OW21877   0.294   6.811   2.993
 6993SOL    HW121878   0.323   6.753   3.070
 6993SOL    HW221879   0.336   6.777   2.909
 6994SOL     OW21880   1.328   2.973   0.329
 6994SOL    HW121881   1.390   2.905   0.291
 6994SOL    HW221882   1.248   2.983   0.270
 6995SOL     OW21883   0.535   5.652   2.944
 6995SOL    HW121884   0.457   5.660   3.006
 6995SOL    HW221885   0.578   5.563   2.956
 6996SOL     OW21886   2.501   6.508   5.908
 6996SOL    HW121887   2.415   6.458   5.902
 6996SOL    HW221888   2.495   6.592   5.854
 6997SOL     OW21889   4.684   0.212   4.555
 6997SOL    HW121890   4.605   0.153   4.546
 6997SOL    HW221891   4.705   0.254   4.467
 6998SOL     OW21892   1.723   2.774   3.669
 6998SOL    HW121893   1.742   2.749   3.574
 6998SOL    HW221894   1.652   2.713   3.706
 6999SOL     OW21895   3.568   1.659   6.470
 6999SOL    HW121896   3.614   1.742   6.503
 6999SOL    HW221897   3.572   1.589   6.541
 7000SOL     OW21898   0.212   6.251   1.516
 7000SOL    HW121899   0.234   6.320   1.585
 7000SOL    HW221900   0.237   6.285   1.426
 7001SOL     OW21901   2.795   1.650   5.497
 7001SOL    HW121902   2.821   1.612   5.409
 7001SOL    HW221903   2.696   1.662   5.500
 7002SOL     OW21904   1.738   5.319   3.142
 7002SOL    HW121905   1.729   5.271   3.229
 7002SOL    HW221906   1.768   5.255   3.071
 7003SOL     OW21907   2.661   6.050   6.967
 7003SOL    HW121908   2.640   6.147   6.968
 7003SOL    HW221909   2.576   5.997   6.965
 7004SOL     OW21910   0.985   5.041   0.618
 7004SOL    HW121911   0.923   4.966   0.598
 7004SOL    HW221912   0.983   5.060   0.716
 7005SOL     OW21913   5.337   6.731   5.354
 7005SOL    HW121914   5.307   6.813   5.404
 7005SOL    HW221915   5.258   6.691   5.307
 7006SOL     OW21916   4.309   4.792   5.035
 7006SOL    HW121917   4.317   4.693   5.048
 7006SOL    HW221918   4.213   4.818   5.036
 7007SOL     OW21919   4.926   5.069   2.163
 7007SOL    HW121920   4.942   5.047   2.259
 7007SOL    HW221921   4.846   5.018   2.130
 7008SOL     OW21922   0.827   4.727   4.588
 7008SOL    HW121923   0.920   4.725   4.626
 7008SOL    HW221924   0.789   4.819   4.601
 7009SOL     OW21925   0.190   4.705   2.323
 7009SOL    HW121926   0.264   4.763   2.290
 7009SOL    HW221927   0.224   4.647   2.397
 7010SOL     OW21928   4.128   4.770   6.496
 7010SOL    HW121929   4.070   4.745   6.574
 7010SOL    HW221930   4.072   4.814   6.426
 7011SOL     OW21931   2.539   1.684   4.590
 7011SOL    HW121932   2.533   1.647   4.683
 7011SOL    HW221933   2.528   1.783   4.593
 7012SOL     OW21934   1.141   1.304   2.357
 7012SOL    HW121935   1.209   1.270   2.291
 7012SOL    HW221936   1.142   1.404   2.357
 7013SOL     OW21937   0.950   0.783   2.313
 7013SOL    HW121938   0.893   0.701   2.322
 7013SOL    HW221939   0.899   0.854   2.265
 7014SOL     OW21940   2.408   4.871   1.417
 7014SOL    HW121941   2.481   4.871   1.349
 7014SOL    HW221942   2.417   4.789   1.475
 7015SOL     OW21943   4.871   2.550   2.320
 7015SOL    HW121944   4.908   2.588   2.235
 7015SOL    HW221945   4.814   2.618   2.365
 7016SOL     OW21946   3.050   4.731   0.726
 7016SOL    HW121947   3.099   4.681   0.797
 7016SOL    HW221948   3.114   4.791   0.678
 7017SOL     OW21949   4.022   1.638   4.018
 7017SOL    HW121950   4.120   1.637   4.039
 7017SOL    HW221951   3.970   1.660   4.101
 7018SOL     OW21952   0.059   5.256   4.107
 7018SOL    HW121953   0.027   5.180   4.164
 7018SOL    HW221954   0.061   5.228   4.011
 7019SOL     OW21955   2.125   6.238   0.387
 7019SOL    HW121956   2.173   6.282   0.464
 7019SOL    HW221957   2.149   6.285   0.302
 7020SOL     OW21958   0.107   6.959   5.996
 7020SOL    HW121959   0.125   6.989   5.902
 7020SOL    HW221960   0.139   6.865   6.008
 7021SOL     OW21961   3.319   0.759   6.042
 7021SOL    HW121962   3.370   0.741   5.958
 7021SOL    HW221963   3.221   0.746   6.024
 7022SOL     OW21964   5.314   5.126   6.416
 7022SOL    HW121965   5.284   5.112   6.322
 7022SOL    HW221966   5.382   5.058   6.440
 7023SOL     OW21967   6.092   4.298   2.954
 7023SOL    HW121968   6.156   4.223   2.936
 7023SOL    HW221969   6.001   4.260   2.972
 7024SOL     OW21970   0.338   6.467   0.743
 7024SOL    HW121971   0.281   6.541   0.705
 7024SOL    HW221972   0.281   6.386   0.756
 7025SOL     OW21973   2.374   0.558   6.039
 7025SOL    HW121974   2.317   0.505   6.101
 7025SOL    HW221975   2.319   0.629   5.994
 7026SOL     OW21976   4.368   2.126   0.931
 7026SOL    HW121977   4.395   2.070   0.853
 7026SOL    HW221978   4.447   2.179   0.963
 7027SOL     OW21979   4.334   0.293   4.589
 7027SOL    HW121980   4.395   0.215   4.570
 7027SOL    HW221981   4.293   0.324   4.503
 7028SOL     OW21982   3.301   6.704   4.660
 7028SOL    HW121983   3.245   6.731   4.582
 7028SOL    HW221984   3.391   6.675   4.627
 7029SOL     OW21985   3.305   0.178   4.815
 7029SOL    HW121986   3.368   0.253   4.796
 7029SOL    HW221987   3.357   0.093   4.824
 7030SOL     OW21988   2.146   4.059   4.146
 7030SOL    HW121989   2.228   4.073   4.089
 7030SOL    HW221990   2.153   3.971   4.192
 7031SOL     OW21991   2.843   6.686   5.327
 7031SOL    HW121992   2.756   6.673   5.375
 7031SOL    HW221993   2.905   6.611   5.349
 7032SOL     OW21994   5.747   1.770   2.755
 7032SOL    HW121995   5.846   1.771   2.760
 7032SOL    HW221996   5.710   1.728   2.839
 7033SOL     OW21997   6.407   0.056   4.082
 7033SOL    HW121998   6.309   0.074   4.077
 7033SOL    HW221999   6.453   0.136   4.122
 7034SOL     OW22000   6.572   5.773   2.959
 7034SOL    HW122001   6.643   5.812   2.900
 7034SOL    HW222002   6.591   5.795   3.054
 7035SOL     OW22003   6.301   5.228   1.909
 7035SOL    HW122004   6.314   5.226   2.008
 7035SOL    HW222005   6.223   5.171   1.884
 7036SOL     OW22006   6.909   4.400   1.654
 7036SOL    HW122007   6.907   4.321   1.593
 7036SOL    HW222008   6.965   4.378   1.735
 7037SOL     OW22009   0.926   6.762   6.945
 7037SOL    HW122010   0.853   6.717   6.997
 7037SOL    HW222011   0.984   6.815   7.007
 7038SOL     OW22012   1.422   4.187   4.333
 7038SOL    HW122013   1.332   4.176   4.292
 7038SOL    HW222014   1.492   4.169   4.264
 7039SOL     OW22015   4.183   1.335   6.079
 7039SOL    HW122016   4.083   1.331   6.081
 7039SOL    HW222017   4.218   1.317   6.171
 7040SOL     OW22018   4.842   2.621   6.212
 7040SOL    HW122019   4.878   2.564   6.285
 7040SOL    HW222020   4.890   2.600   6.126
 7041SOL     OW22021   2.584   1.403   2.310
 7041SOL    HW122022   2.584   1.341   2.232
 7041SOL    HW222023   2.492   1.411   2.347
 7042SOL     OW22024   2.039   0.407   6.711
 7042SOL    HW122025   2.117   0.443   6.659
 7042SOL    HW222026   2.055   0.311   6.734
 7043SOL     OW22027   1.544   2.273   3.221
 7043SOL    HW122028   1.449   2.293   3.244
 7043SOL    HW222029   1.583   2.351   3.171
 7044SOL     OW22030   4.822   6.168   2.380
 7044SOL    HW122031   4.833   6.268   2.384
 7044SOL    HW222032   4.725   6.146   2.373
 7045SOL     OW22033   5.717   5.005   1.037
 7045SOL    HW122034   5.812   5.031   1.050
 7045SOL    HW222035   5.683   5.043   0.951
 7046SOL     OW22036   2.411   1.059   4.338
 7046SOL    HW122037   2.474   1.007   4.395
 7046SOL    HW222038   2.409   1.020   4.246
 7047SOL     OW22039   2.001   1.572   3.949
 7047SOL    HW122040   1.963   1.491   3.904
 7047SOL    HW222041   2.068   1.543   4.017
 7048SOL     OW22042   6.346   6.455   0.337
 7048SOL    HW122043   6.355   6.540   0.390
 7048SOL    HW222044   6.424   6.396   0.355
 7049SOL     OW22045   2.389   1.012   0.675
 7049SOL    HW122046   2.478   0.982   0.710
 7049SOL    HW222047   2.372   0.970   0.586
 7050SOL     OW22048   4.059   3.776   4.911
 7050SOL    HW122049   4.109   3.748   4.828
 7050SOL    HW222050   4.124   3.801   4.982
 7051SOL     OW22051   6.329   6.822   2.290
 7051SOL    HW122052   6.336   6.920   2.274
 7051SOL    HW222053   6.290   6.778   2.209
 7052SOL     OW22054   6.382   1.937   3.333
 7052SOL    HW122055   6.384   2.031   3.298
 7052SOL    HW222056   6.289   1.901   3.326
 7053SOL     OW22057   6.826   4.638   6.353
 7053SOL    HW122058   6.804   4.641   6.450
 7053SOL    HW222059   6.810   4.546   6.317
 7054SOL     OW22060   6.781   7.021   1.518
 7054SOL    HW122061   6.759   0.064   1.592
 7054SOL    HW222062   6.775   0.047   1.430
 7055SOL     OW22063   3.302   6.963   5.421
 7055SOL    HW122064   3.231   6.963   5.350
 7055SOL    HW222065   3.262   6.991   5.508
 7056SOL     OW22066   4.825   5.313   3.712
 7056SOL    HW122067   4.853   5.385   3.776
 7056SOL    HW222068   4.742   5.341   3.664
 7057SOL     OW22069   0.800   6.374   3.079
 7057SOL    HW122070   0.827   6.300   3.141
 7057SOL    HW222071   0.708   6.405   3.102
 7058SOL     OW22072   0.557   5.205   5.044
 7058SOL    HW122073   0.458   5.197   5.028
 7058SOL    HW222074   0.574   5.211   5.142
 7059SOL     OW22075   1.764   0.407   2.619
 7059SOL    HW122076   1.709   0.344   2.564
 7059SOL    HW222077   1.703   0.471   2.666
 7060SOL     OW22078   2.849   0.214   1.243
 7060SOL    HW122079   2.763   0.249   1.281
 7060SOL    HW222080   2.918   0.212   1.316
 7061SOL     OW22081   0.220   1.141   2.297
 7061SOL    HW122082   0.141   1.202   2.293
 7061SOL    HW222083   0.266   1.141   2.208
 7062SOL     OW22084   6.467   1.139   5.196
 7062SOL    HW122085   6.561   1.143   5.231
 7062SOL    HW222086   6.404   1.118   5.270
 7063SOL     OW22087   2.575   6.747   1.788
 7063SOL    HW122088   2.488   6.794   1.805
 7063SOL    HW222089   2.641   6.773   1.858
 7064SOL     OW22090   4.332   2.401   0.206
 7064SOL    HW122091   4.263   2.332   0.186
 7064SOL    HW222092   4.392   2.411   0.127
 7065SOL     OW22093   4.465   4.063   1.642
 7065SOL    HW122094   4.400   4.085   1.569
 7065SOL    HW222095   4.470   4.139   1.706
 7066SOL     OW22096   3.524   6.324   0.305
 7066SOL    HW122097   3.546   6.237   0.262
 7066SOL    HW222098   3.600   6.353   0.363
 7067SOL     OW22099   0.119   4.213   4.838
 7067SOL    HW122100   0.203   4.267   4.848
 7067SOL    HW222101   0.142   4.120   4.810
 7068SOL     OW22102   0.696   1.252   3.028
 7068SOL    HW122103   0.754   1.310   3.085
 7068SOL    HW222104   0.746   1.170   3.001
 7069SOL     OW22105   1.450   4.156   4.991
 7069SOL    HW122106   1.449   4.255   4.979
 7069SOL    HW222107   1.544   4.123   4.992
 7070SOL     OW22108   5.584   5.756   4.395
 7070SOL    HW122109   5.556   5.761   4.299
 7070SOL    HW222110   5.679   5.727   4.401
 7071SOL     OW22111   1.649   6.677   5.399
 7071SOL    HW122112   1.669   6.644   5.306
 7071SOL    HW222113   1.567   6.631   5.434
 7072SOL     OW22114   0.054   6.489   6.451
 7072SOL    HW122115   7.002   6.424   6.434
 7072SOL    HW222116   0.042   6.531   6.541
 7073SOL     OW22117   1.082   0.799   6.017
 7073SOL    HW122118   1.139   0.786   6.098
 7073SOL    HW222119   1.134   0.774   5.935
 7074SOL     OW22120   3.678   2.435   1.377
 7074SOL    HW122121   3.760   2.490   1.362
 7074SOL    HW222122   3.677   2.402   1.472
 7075SOL     OW22123   1.091   5.545   3.299
 7075SOL    HW122124   1.088   5.545   3.199
 7075SOL    HW222125   1.043   5.465   3.333
 7076SOL     OW22126   2.941   2.510   6.903
 7076SOL    HW122127   2.848   2.544   6.885
 7076SOL    HW222128   3.006   2.557   6.843
 7077SOL     OW22129   2.108   5.408   5.705
 7077SOL    HW122130   2.089   5.505   5.694
 7077SOL    HW222131   2.024   5.355   5.694
 7078SOL     OW22132   6.702   0.710   2.996
 7078SOL    HW122133   6.770   0.672   3.059
 7078SOL    HW222134   6.663   0.636   2.941
 7079SOL     OW22135   5.122   5.610   5.326
 7079SOL    HW122136   5.213   5.600   5.285
 7079SOL    HW222137   5.063   5.535   5.294
 7080SOL     OW22138   5.368   0.399   4.068
 7080SOL    HW122139   5.273   0.431   4.066
 7080SOL    HW222140   5.414   0.428   3.984
 7081SOL     OW22141   3.715   1.188   5.156
 7081SOL    HW122142   3.658   1.174   5.237
 7081SOL    HW222143   3.706   1.283   5.125
 7082SOL     OW22144   5.412   0.801   6.234
 7082SOL    HW122145   5.463   0.877   6.193
 7082SOL    HW222146   5.379   0.741   6.161
 7083SOL     OW22147   3.436   0.062   6.113
 7083SOL    HW122148   3.441   0.069   6.014
 7083SOL    HW222149   3.514   0.109   6.154
 7084SOL     OW22150   6.562   6.676   6.754
 7084SOL    HW122151   6.578   6.633   6.665
 7084SOL    HW222152   6.570   6.607   6.826
 7085SOL     OW22153   2.695   2.539   0.982
 7085SOL    HW122154   2.647   2.542   0.894
 7085SOL    HW222155   2.783   2.494   0.970
 7086SOL     OW22156   6.661   0.969   6.379
 7086SOL    HW122157   6.711   0.953   6.464
 7086SOL    HW222158   6.565   0.947   6.391
 7087SOL     OW22159   1.675   2.409   3.918
 7087SOL    HW122160   1.641   2.502   3.930
 7087SOL    HW222161   1.767   2.412   3.880
 7088SOL     OW22162   6.791   2.221   5.186
 7088SOL    HW122163   6.748   2.229   5.275
 7088SOL    HW222164   6.879   2.268   5.186
 7089SOL     OW22165   2.687   1.463   0.160
 7089SOL    HW122166   2.691   1.493   0.065
 7089SOL    HW222167   2.748   1.385   0.173
 7090SOL     OW22168   2.483   2.195   4.608
 7090SOL    HW122169   2.386   2.216   4.618
 7090SOL    HW222170   2.533   2.276   4.578
 7091SOL     OW22171   0.355   5.618   6.849
 7091SOL    HW122172   0.362   5.715   6.873
 7091SOL    HW222173   0.275   5.578   6.894
 7092SOL     OW22174   2.918   3.457   0.592
 7092SOL    HW122175   2.940   3.362   0.572
 7092SOL    HW222176   2.995   3.516   0.568
 7093SOL     OW22177   3.686   2.896   4.730
 7093SOL    HW122178   3.762   2.915   4.793
 7093SOL    HW222179   3.710   2.821   4.670
 7094SOL     OW22180   0.421   0.399   5.905
 7094SOL    HW122181   0.397   0.334   5.978
 7094SOL    HW222182   0.341   0.454   5.882
 7095SOL     OW22183   0.895   3.094   6.308
 7095SOL    HW122184   0.832   3.123   6.235
 7095SOL    HW222185   0.944   3.012   6.278
 7096SOL     OW22186   4.860   1.399   2.556
 7096SOL    HW122187   4.956   1.425   2.543
 7096SOL    HW222188   4.801   1.473   2.525
 7097SOL     OW22189   0.574   0.533   1.841
 7097SOL    HW122190   0.585   0.444   1.887
 7097SOL    HW222191   0.641   0.540   1.768
 7098SOL     OW22192   1.947   6.818   5.717
 7098SOL    HW122193   1.933   6.895   5.779
 7098SOL    HW222194   1.938   6.733   5.768
 7099SOL     OW22195   0.411   0.775   6.320
 7099SOL    HW122196   0.486   0.766   6.255
 7099SOL    HW222197   0.382   0.684   6.351
 7100SOL     OW22198   5.714   2.663   1.161
 7100SOL    HW122199   5.718   2.690   1.065
 7100SOL    HW222200   5.619   2.666   1.192
 7101SOL     OW22201   2.734   6.895   4.896
 7101SOL    HW122202   2.784   6.810   4.911
 7101SOL    HW222203   2.790   6.958   4.843
 7102SOL     OW22204   4.826   2.805   0.480
 7102SOL    HW122205   4.752   2.764   0.534
 7102SOL    HW222206   4.875   2.733   0.431
 7103SOL     OW22207   3.757   6.454   6.270
 7103SOL    HW122208   3.821   6.513   6.319
 7103SOL    HW222209   3.694   6.510   6.217
 7104SOL     OW22210   0.841   2.117   3.267
 7104SOL    HW122211   0.759   2.072   3.230
 7104SOL    HW222212   0.905   2.136   3.192
 7105SOL     OW22213   3.124   3.850   5.181
 7105SOL    HW122214   3.043   3.901   5.209
 7105SOL    HW222215   3.192   3.914   5.144
 7106SOL     OW22216   3.211   2.304   5.448
 7106SOL    HW122217   3.222   2.339   5.355
 7106SOL    HW222218   3.273   2.353   5.510
 7107SOL     OW22219   3.007   0.939   0.145
 7107SOL    HW122220   2.909   0.931   0.126
 7107SOL    HW222221   3.053   0.854   0.120
 7108SOL     OW22222   4.721   0.033   1.211
 7108SOL    HW122223   4.671   0.107   1.256
 7108SOL    HW222224   4.806   0.068   1.173
 7109SOL     OW22225   3.379   6.156   6.640
 7109SOL    HW122226   3.332   6.118   6.560
 7109SOL    HW222227   3.325   6.139   6.722
 7110SOL     OW22228   4.520   4.442   3.123
 7110SOL    HW122229   4.474   4.530   3.121
 7110SOL    HW222230   4.517   4.400   3.033
 7111SOL     OW22231   1.880   3.170   3.804
 7111SOL    HW122232   1.852   3.234   3.875
 7111SOL    HW222233   1.817   3.092   3.802
 7112SOL     OW22234   1.036   6.798   2.963
 7112SOL    HW122235   1.113   6.789   3.027
 7112SOL    HW222236   1.069   6.790   2.869
 7113SOL     OW22237   4.024   3.618   4.526
 7113SOL    HW122238   4.039   3.681   4.450
 7113SOL    HW222239   3.974   3.538   4.495
 7114SOL     OW22240   3.811   1.109   0.610
 7114SOL    HW122241   3.735   1.067   0.659
 7114SOL    HW222242   3.879   1.039   0.588
 7115SOL     OW22243   4.545   1.827   1.035
 7115SOL    HW122244   4.512   1.888   1.108
 7115SOL    HW222245   4.637   1.856   1.008
 7116SOL     OW22246   5.539   3.653   2.831
 7116SOL    HW122247   5.595   3.735   2.847
 7116SOL    HW222248   5.596   3.582   2.790
 7117SOL     OW22249   5.786   6.508   1.843
 7117SOL    HW122250   5.774   6.438   1.912
 7117SOL    HW222251   5.698   6.531   1.802
 7118SOL     OW22252   0.034   2.792   1.443
 7118SOL    HW122253   6.960   2.808   1.419
 7118SOL    HW222254   0.046   2.697   1.472
 7119SOL     OW22255   6.101   1.907   3.283
 7119SOL    HW122256   6.083   1.996   3.325
 7119SOL    HW222257   6.044   1.897   3.201
 7120SOL     OW22258   5.184   0.570   3.591
 7120SOL    HW122259   5.272   0.611   3.566
 7120SOL    HW222260   5.110   0.634   3.571
 7121SOL     OW22261   3.205   6.726   2.298
 7121SOL    HW122262   3.188   6.631   2.322
 7121SOL    HW222263   3.298   6.735   2.262
 7122SOL     OW22264   6.421   0.870   6.429
 7122SOL    HW122265   6.345   0.934   6.420
 7122SOL    HW222266   6.387   0.777   6.413
 7123SOL     OW22267   2.478   4.803   0.718
 7123SOL    HW122268   2.566   4.850   0.710
 7123SOL    HW222269   2.478   4.721   0.660
 7124SOL     OW22270   0.723   5.269   0.812
 7124SOL    HW122271   0.661   5.255   0.889
 7124SOL    HW222272   0.671   5.304   0.734
 7125SOL     OW22273   5.985   5.955   2.556
 7125SOL    HW122274   6.052   5.995   2.493
 7125SOL    HW222275   5.977   6.013   2.637
 7126SOL     OW22276   1.205   4.752   0.234
 7126SOL    HW122277   1.253   4.695   0.301
 7126SOL    HW222278   1.197   4.845   0.271
 7127SOL     OW22279   3.647   6.494   4.305
 7127SOL    HW122280   3.697   6.527   4.225
 7127SOL    HW222281   3.573   6.433   4.275
 7128SOL     OW22282   3.180   4.408   1.506
 7128SOL    HW122283   3.116   4.391   1.581
 7128SOL    HW222284   3.244   4.331   1.499
 7129SOL     OW22285   2.600   0.752   1.554
 7129SOL    HW122286   2.557   0.724   1.640
 7129SOL    HW222287   2.684   0.699   1.541
 7130SOL     OW22288   2.108   5.280   2.625
 7130SOL    HW122289   2.191   5.312   2.580
 7130SOL    HW222290   2.129   5.197   2.677
 7131SOL     OW22291   2.730   0.717   2.982
 7131SOL    HW122292   2.677   0.687   3.061
 7131SOL    HW222293   2.800   0.648   2.961
 7132SOL     OW22294   3.400   4.107   3.196
 7132SOL    HW122295   3.482   4.100   3.139
 7132SOL    HW222296   3.328   4.153   3.145
 7133SOL     OW22297   5.564   5.018   2.605
 7133SOL    HW122298   5.469   5.004   2.578
 7133SOL    HW222299   5.583   4.966   2.689
 7134SOL     OW22300   5.626   3.895   3.913
 7134SOL    HW122301   5.618   3.905   4.013
 7134SOL    HW222302   5.543   3.929   3.870
 7135SOL     OW22303   0.957   1.475   5.102
 7135SOL    HW122304   1.044   1.523   5.100
 7135SOL    HW222305   0.914   1.477   5.012
 7136SOL     OW22306   2.212   1.687   0.490
 7136SOL    HW122307   2.164   1.735   0.562
 7136SOL    HW222308   2.248   1.600   0.525
 7137SOL     OW22309   4.170   0.914   4.887
 7137SOL    HW122310   4.159   0.891   4.791
 7137SOL    HW222311   4.258   0.879   4.919
 7138SOL     OW22312   2.644   4.018   0.669
 7138SOL    HW122313   2.548   4.043   0.671
 7138SOL    HW222314   2.653   3.921   0.647
 7139SOL     OW22315   3.724   2.045   1.072
 7139SOL    HW122316   3.661   2.113   1.111
 7139SOL    HW222317   3.815   2.058   1.112
 7140SOL     OW22318   6.486   3.312   5.137
 7140SOL    HW122319   6.483   3.392   5.196
 7140SOL    HW222320   6.549   3.244   5.175
 7141SOL     OW22321   3.024   6.468   0.711
 7141SOL    HW122322   2.954   6.539   0.714
 7141SOL    HW222323   3.033   6.426   0.801
 7142SOL     OW22324   4.109   5.809   4.504
 7142SOL    HW122325   4.199   5.832   4.468
 7142SOL    HW222326   4.117   5.773   4.597
 7143SOL     OW22327   2.063   3.372   4.597
 7143SOL    HW122328   2.091   3.323   4.514
 7143SOL    HW222329   2.088   3.319   4.678
 7144SOL     OW22330   0.375   2.652   3.522
 7144SOL    HW122331   0.357   2.594   3.601
 7144SOL    HW222332   0.379   2.748   3.551
 7145SOL     OW22333   4.911   0.189   6.911
 7145SOL    HW122334   4.987   0.148   6.962
 7145SOL    HW222335   4.868   0.260   6.967
 7146SOL     OW22336   3.582   4.728   0.633
 7146SOL    HW122337   3.512   4.673   0.587
 7146SOL    HW222338   3.660   4.741   0.572
 7147SOL     OW22339   0.293   0.276   3.551
 7147SOL    HW122340   0.268   0.183   3.523
 7147SOL    HW222341   0.220   0.339   3.527
 7148SOL     OW22342   0.499   1.080   0.932
 7148SOL    HW122343   0.592   1.091   0.968
 7148SOL    HW222344   0.437   1.055   1.006
 7149SOL     OW22345   6.163   1.146   4.047
 7149SOL    HW122346   6.245   1.104   4.085
 7149SOL    HW222347   6.091   1.077   4.038
 7150SOL     OW22348   5.590   3.414   0.108
 7150SOL    HW122349   5.535   3.491   0.139
 7150SOL    HW222350   5.565   3.391   0.014
 7151SOL     OW22351   2.597   6.365   0.938
 7151SOL    HW122352   2.689   6.331   0.918
 7151SOL    HW222353   2.597   6.416   1.024
 7152SOL     OW22354   1.264   2.556   3.824
 7152SOL    HW122355   1.189   2.587   3.766
 7152SOL    HW222356   1.317   2.487   3.774
 7153SOL     OW22357   3.443   1.215   3.484
 7153SOL    HW122358   3.522   1.158   3.508
 7153SOL    HW222359   3.440   1.295   3.544
 7154SOL     OW22360   4.934   6.073   4.114
 7154SOL    HW122361   4.917   5.989   4.064
 7154SOL    HW222362   4.981   6.139   4.055
 7155SOL     OW22363   2.657   0.488   1.309
 7155SOL    HW122364   2.599   0.551   1.259
 7155SOL    HW222365   2.613   0.463   1.395
 7156SOL     OW22366   6.923   5.594   4.965
 7156SOL    HW122367   6.892   5.589   4.870
 7156SOL    HW222368   6.846   5.614   5.025
 7157SOL     OW22369   4.839   4.329   0.944
 7157SOL    HW122370   4.761   4.377   0.905
 7157SOL    HW222371   4.922   4.353   0.894
 7158SOL     OW22372   6.086   6.846   4.252
 7158SOL    HW122373   6.095   6.811   4.345
 7158SOL    HW222374   6.170   6.829   4.201
 7159SOL     OW22375   0.651   5.814   6.954
 7159SOL    HW122376   0.660   5.795   6.856
 7159SOL    HW222377   0.645   5.728   7.004
 7160SOL     OW22378   5.729   0.863   2.155
 7160SOL    HW122379   5.685   0.827   2.073
 7160SOL    HW222380   5.735   0.963   2.150
 7161SOL     OW22381   3.768   3.493   4.185
 7161SOL    HW122382   3.868   3.502   4.184
 7161SOL    HW222383   3.731   3.554   4.255
 7162SOL     OW22384   2.972   4.937   3.106
 7162SOL    HW122385   3.022   4.974   3.184
 7162SOL    HW222386   3.015   4.967   3.021
 7163SOL     OW22387   2.466   0.305   2.735
 7163SOL    HW122388   2.495   0.280   2.643
 7163SOL    HW222389   2.367   0.295   2.742
 7164SOL     OW22390   2.311   1.408   2.828
 7164SOL    HW122391   2.307   1.502   2.793
 7164SOL    HW222392   2.219   1.374   2.843
 7165SOL     OW22393   4.679   0.619   1.639
 7165SOL    HW122394   4.681   0.716   1.667
 7165SOL    HW222395   4.695   0.562   1.720
 7166SOL     OW22396   5.090   4.781   1.780
 7166SOL    HW122397   5.073   4.683   1.777
 7166SOL    HW222398   5.188   4.799   1.769
 7167SOL     OW22399   4.705   2.869   4.848
 7167SOL    HW122400   4.781   2.803   4.847
 7167SOL    HW222401   4.693   2.904   4.941
 7168SOL     OW22402   1.743   1.238   4.479
 7168SOL    HW122403   1.765   1.308   4.410
 7168SOL    HW222404   1.737   1.281   4.569
 7169SOL     OW22405   1.851   2.380   6.253
 7169SOL    HW122406   1.867   2.282   6.241
 7169SOL    HW222407   1.822   2.419   6.166
 7170SOL     OW22408   6.606   4.926   4.316
 7170SOL    HW122409   6.650   4.850   4.269
 7170SOL    HW222410   6.641   4.933   4.409
 7171SOL     OW22411   4.169   3.178   5.246
 7171SOL    HW122412   4.110   3.224   5.313
 7171SOL    HW222413   4.160   3.224   5.158
 7172SOL     OW22414   1.728   6.997   0.803
 7172SOL    HW122415   1.628   6.986   0.808
 7172SOL    HW222416   1.768   6.917   0.758
 7173SOL     OW22417   6.619   6.316   5.829
 7173SOL    HW122418   6.712   6.327   5.862
 7173SOL    HW222419   6.563   6.274   5.900
 7174SOL     OW22420   1.241   5.722   0.363
 7174SOL    HW122421   1.304   5.739   0.439
 7174SOL    HW222422   1.189   5.639   0.381
 7175SOL     OW22423   6.591   3.411   5.402
 7175SOL    HW122424   6.571   3.421   5.499
 7175SOL    HW222425   6.586   3.314   5.377
 7176SOL     OW22426   6.044   4.014   1.717
 7176SOL    HW122427   6.014   3.948   1.786
 7176SOL    HW222428   5.986   4.007   1.636
 7177SOL     OW22429   0.661   6.426   1.802
 7177SOL    HW122430   0.728   6.458   1.868
 7177SOL    HW222431   0.585   6.382   1.850
 7178SOL     OW22432   0.440   2.859   6.048
 7178SOL    HW122433   0.385   2.802   5.988
 7178SOL    HW222434   0.525   2.811   6.071
 7179SOL     OW22435   2.622   4.006   6.111
 7179SOL    HW122436   2.549   4.058   6.154
 7179SOL    HW222437   2.586   3.957   6.032
 7180SOL     OW22438   6.946   6.117   2.194
 7180SOL    HW122439   0.018   6.146   2.214
 7180SOL    HW222440   6.945   6.021   2.168
 7181SOL     OW22441   4.895   0.853   2.272
 7181SOL    HW122442   4.912   0.951   2.264
 7181SOL    HW222443   4.926   0.822   2.362
 7182SOL     OW22444   3.117   3.553   5.448
 7182SOL    HW122445   3.064   3.547   5.533
 7182SOL    HW222446   3.143   3.461   5.419
 7183SOL     OW22447   1.286   5.440   2.385
 7183SOL    HW122448   1.191   5.448   2.417
 7183SOL    HW222449   1.333   5.369   2.437
 7184SOL     OW22450   1.811   6.698   3.582
 7184SOL    HW122451   1.816   6.748   3.495
 7184SOL    HW222452   1.796   6.601   3.564
 7185SOL     OW22453   4.366   2.425   6.565
 7185SOL    HW122454   4.383   2.368   6.484
 7185SOL    HW222455   4.363   2.366   6.646
 7186SOL     OW22456   0.610   6.509   4.488
 7186SOL    HW122457   0.658   6.587   4.529
 7186SOL    HW222458   0.595   6.439   4.558
 7187SOL     OW22459   2.039   4.983   1.225
 7187SOL    HW122460   1.976   5.025   1.290
 7187SOL    HW222461   2.097   5.054   1.185
 7188SOL     OW22462   5.185   1.203   1.188
 7188SOL    HW122463   5.255   1.223   1.120
 7188SOL    HW222464   5.225   1.151   1.264
 7189SOL     OW22465   5.983   0.769   4.614
 7189SOL    HW122466   5.984   0.860   4.655
 7189SOL    HW222467   6.069   0.754   4.565
 7190SOL     OW22468   4.815   5.126   3.495
 7190SOL    HW122469   4.817   5.172   3.584
 7190SOL    HW222470   4.792   5.030   3.508
 7191SOL     OW22471   1.429   3.258   2.509
 7191SOL    HW122472   1.458   3.165   2.488
 7191SOL    HW222473   1.487   3.324   2.461
 7192SOL     OW22474   3.137   4.980   5.657
 7192SOL    HW122475   3.060   4.917   5.663
 7192SOL    HW222476   3.145   5.014   5.563
 7193SOL     OW22477   4.452   1.247   3.388
 7193SOL    HW122478   4.390   1.284   3.457
 7193SOL    HW222479   4.498   1.322   3.340
 7194SOL     OW22480   2.955   1.550   1.656
 7194SOL    HW122481   3.027   1.486   1.630
 7194SOL    HW222482   2.959   1.566   1.755
 7195SOL     OW22483   0.867   5.352   1.242
 7195SOL    HW122484   0.790   5.302   1.281
 7195SOL    HW222485   0.950   5.298   1.253
 7196SOL     OW22486   3.790   3.013   2.284
 7196SOL    HW122487   3.709   2.959   2.303
 7196SOL    HW222488   3.816   3.002   2.188
 7197SOL     OW22489   1.163   2.122   6.068
 7197SOL    HW122490   1.106   2.076   6.001
 7197SOL    HW222491   1.112   2.133   6.153
 7198SOL     OW22492   1.249   5.983   6.612
 7198SOL    HW122493   1.223   5.892   6.645
 7198SOL    HW222494   1.346   5.984   6.590
 7199SOL     OW22495   6.447   6.340   2.702
 7199SOL    HW122496   6.520   6.322   2.636
 7199SOL    HW222497   6.442   6.265   2.768
 7200SOL     OW22498   2.331   1.963   1.101
 7200SOL    HW122499   2.246   1.911   1.106
 7200SOL    HW222500   2.359   1.989   1.193
 7201SOL     OW22501   2.091   4.461   3.859
 7201SOL    HW122502   2.120   4.548   3.821
 7201SOL    HW222503   2.057   4.402   3.785
 7202SOL     OW22504   3.624   0.837   6.638
 7202SOL    HW122505   3.540   0.799   6.678
 7202SOL    HW222506   3.601   0.921   6.587
 7203SOL     OW22507   5.598   1.136   6.590
 7203SOL    HW122508   5.563   1.228   6.607
 7203SOL    HW222509   5.696   1.140   6.574
 7204SOL     OW22510   6.100   1.532   2.717
 7204SOL    HW122511   6.068   1.626   2.730
 7204SOL    HW222512   6.096   1.510   2.619
 7205SOL     OW22513   2.276   4.548   2.538
 7205SOL    HW122514   2.364   4.556   2.586
 7205SOL    HW222515   2.207   4.512   2.601
 7206SOL     OW22516   6.205   1.224   1.632
 7206SOL    HW122517   6.176   1.132   1.606
 7206SOL    HW222518   6.254   1.221   1.719
 7207SOL     OW22519   3.896   0.013   1.719
 7207SOL    HW122520   3.972   0.009   1.784
 7207SOL    HW222521   3.858   0.105   1.717
 7208SOL     OW22522   3.098   0.223   5.033
 7208SOL    HW122523   3.168   0.206   4.964
 7208SOL    HW222524   3.026   0.153   5.026
 7209SOL     OW22525   4.192   3.604   4.737
 7209SOL    HW122526   4.161   3.615   4.643
 7209SOL    HW222527   4.282   3.560   4.737
 7210SOL     OW22528   4.000   0.598   4.538
 7210SOL    HW122529   3.937   0.637   4.471
 7210SOL    HW222530   3.972   0.503   4.557
 7211SOL     OW22531   1.337   5.446   2.841
 7211SOL    HW122532   1.361   5.420   2.747
 7211SOL    HW222533   1.419   5.473   2.891
 7212SOL     OW22534   5.401   6.730   4.441
 7212SOL    HW122535   5.310   6.727   4.482
 7212SOL    HW222536   5.410   6.815   4.388
 7213SOL     OW22537   5.366   0.745   5.714
 7213SOL    HW122538   5.310   0.811   5.665
 7213SOL    HW222539   5.306   0.681   5.763
 7214SOL     OW22540   1.171   5.040   4.914
 7214SOL    HW122541   1.194   5.124   4.963
 7214SOL    HW222542   1.084   5.051   4.867
 7215SOL     OW22543   1.238   3.510   3.458
 7215SOL    HW122544   1.150   3.554   3.472
 7215SOL    HW222545   1.309   3.580   3.445
 7216SOL     OW22546   2.055   1.197   1.342
 7216SOL    HW122547   2.137   1.224   1.294
 7216SOL    HW222548   2.076   1.183   1.439
 7217SOL     OW22549   0.972   2.727   2.138
 7217SOL    HW122550   1.040   2.765   2.201
 7217SOL    HW222551   0.929   2.800   2.086
 7218SOL     OW22552   5.577   2.492   5.743
 7218SOL    HW122553   5.643   2.561   5.771
 7218SOL    HW222554   5.614   2.438   5.667
 7219SOL     OW22555   3.898   1.510   1.795
 7219SOL    HW122556   3.918   1.477   1.703
 7219SOL    HW222557   3.895   1.610   1.794
 7220SOL     OW22558   6.870   0.645   2.721
 7220SOL    HW122559   6.838   0.581   2.790
 7220SOL    HW222560   6.878   0.599   2.633
 7221SOL     OW22561   6.032   5.304   5.238
 7221SOL    HW122562   6.014   5.219   5.288
 7221SOL    HW222563   5.946   5.338   5.198
 7222SOL     OW22564   6.832   6.375   2.344
 7222SOL    HW122565   6.879   6.288   2.328
 7222SOL    HW222566   6.875   6.446   2.289
 7223SOL     OW22567   3.322   0.701   5.494
 7223SOL    HW122568   3.249   0.759   5.529
 7223SOL    HW222569   3.298   0.668   5.402
 7224SOL     OW22570   4.763   6.642   4.212
 7224SOL    HW122571   4.831   6.715   4.222
 7224SOL    HW222572   4.795   6.575   4.146
 7225SOL     OW22573   2.333   6.596   0.012
 7225SOL    HW122574   2.253   6.542   0.039
 7225SOL    HW222575   2.387   6.618   0.094
 7226SOL     OW22576   6.250   7.013   0.618
 7226SOL    HW122577   6.326   0.045   0.656
 7226SOL    HW222578   6.195   6.977   0.693
 7227SOL     OW22579   6.558   2.723   6.320
 7227SOL    HW122580   6.545   2.623   6.321
 7227SOL    HW222581   6.480   2.766   6.275
 7228SOL     OW22582   1.281   0.958   2.845
 7228SOL    HW122583   1.196   1.010   2.838
 7228SOL    HW222584   1.269   0.868   2.803
 7229SOL     OW22585   0.817   0.175   3.638
 7229SOL    HW122586   0.795   0.201   3.544
 7229SOL    HW222587   0.732   0.158   3.688
 7230SOL     OW22588   5.858   3.950   3.151
 7230SOL    HW122589   5.858   3.884   3.075
 7230SOL    HW222590   5.772   4.001   3.151
 7231SOL     OW22591   5.365   0.968   6.461
 7231SOL    HW122592   5.445   1.017   6.497
 7231SOL    HW222593   5.395   0.906   6.388
 7232SOL     OW22594   3.670   4.380   1.084
 7232SOL    HW122595   3.696   4.410   0.992
 7232SOL    HW222596   3.741   4.405   1.149
 7233SOL     OW22597   0.149   2.408   5.857
 7233SOL    HW122598   0.210   2.330   5.846
 7233SOL    HW222599   0.187   2.488   5.811
 7234SOL     OW22600   5.853   2.105   2.061
 7234SOL    HW122601   5.840   2.011   2.030
 7234SOL    HW222602   5.770   2.158   2.040
 7235SOL     OW22603   6.178   3.274   4.685
 7235SOL    HW122604   6.156   3.366   4.651
 7235SOL    HW222605   6.197   3.279   4.783
 7236SOL     OW22606   3.140   1.050   3.016
 7236SOL    HW122607   3.098   1.000   2.940
 7236SOL    HW222608   3.116   1.007   3.102
 7237SOL     OW22609   6.151   5.925   5.994
 7237SOL    HW122610   6.183   5.873   6.073
 7237SOL    HW222611   6.147   6.022   6.016
 7238SOL     OW22612   1.143   1.135   1.331
 7238SOL    HW122613   1.236   1.100   1.342
 7238SOL    HW222614   1.143   1.234   1.348
 7239SOL     OW22615   4.312   1.633   1.903
 7239SOL    HW122616   4.398   1.635   1.851
 7239SOL    HW222617   4.267   1.545   1.888
 7240SOL     OW22618   3.090   3.679   0.532
 7240SOL    HW122619   3.030   3.751   0.565
 7240SOL    HW222620   3.134   3.708   0.447
 7241SOL     OW22621   3.597   0.294   5.049
 7241SOL    HW122622   3.503   0.262   5.037
 7241SOL    HW222623   3.609   0.381   5.002
 7242SOL     OW22624   4.655   4.752   0.531
 7242SOL    HW122625   4.647   4.664   0.578
 7242SOL    HW222626   4.680   4.737   0.436
 7243SOL     OW22627   0.331   5.727   0.171
 7243SOL    HW122628   0.398   5.664   0.132
 7243SOL    HW222629   0.241   5.683   0.172
 7244SOL     OW22630   5.674   1.300   0.722
 7244SOL    HW122631   5.578   1.275   0.708
 7244SOL    HW222632   5.680   1.368   0.795
 7245SOL     OW22633   6.563   1.836   3.783
 7245SOL    HW122634   6.505   1.755   3.795
 7245SOL    HW222635   6.577   1.881   3.871
 7246SOL     OW22636   1.130   5.970   5.381
 7246SOL    HW122637   1.041   6.013   5.391
 7246SOL    HW222638   1.150   5.915   5.462
 7247SOL     OW22639   3.334   5.420   2.875
 7247SOL    HW122640   3.270   5.466   2.814
 7247SOL    HW222641   3.334   5.467   2.964
 7248SOL     OW22642   3.155   0.762   4.827
 7248SOL    HW122643   3.101   0.837   4.787
 7248SOL    HW222644   3.249   0.767   4.792
 7249SOL     OW22645   6.316   5.084   6.859
 7249SOL    HW122646   6.360   5.097   6.948
 7249SOL    HW222647   6.229   5.134   6.857
 7250SOL     OW22648   2.843   4.353   6.585
 7250SOL    HW122649   2.761   4.339   6.640
 7250SOL    HW222650   2.884   4.265   6.563
 7251SOL     OW22651   5.306   0.237   5.250
 7251SOL    HW122652   5.361   0.306   5.296
 7251SOL    HW222653   5.217   0.231   5.295
 7252SOL     OW22654   4.249   3.761   5.206
 7252SOL    HW122655   4.265   3.848   5.253
 7252SOL    HW222656   4.327   3.700   5.222
 7253SOL     OW22657   5.482   5.401   0.985
 7253SOL    HW122658   5.463   5.357   1.073
 7253SOL    HW222659   5.485   5.331   0.913
 7254SOL     OW22660   4.795   6.374   5.182
 7254SOL    HW122661   4.754   6.456   5.143
 7254SOL    HW222662   4.723   6.306   5.200
 7255SOL     OW22663   3.552   4.036   2.208
 7255SOL    HW122664   3.477   4.087   2.168
 7255SOL    HW222665   3.556   4.054   2.306
 7256SOL     OW22666   4.364   4.558   4.007
 7256SOL    HW122667   4.322   4.625   3.946
 7256SOL    HW222668   4.306   4.477   4.012
 7257SOL     OW22669   5.931   4.383   3.378
 7257SOL    HW122670   6.011   4.383   3.319
 7257SOL    HW222671   5.897   4.289   3.388
 7258SOL     OW22672   3.092   6.507   5.621
 7258SOL    HW122673   3.035   6.490   5.541
 7258SOL    HW222674   3.035   6.540   5.696
 7259SOL     OW22675   1.851   5.620   5.886
 7259SOL    HW122676   1.911   5.666   5.820
 7259SOL    HW222677   1.821   5.686   5.954
 7260SOL     OW22678   3.756   1.844   1.886
 7260SOL    HW122679   3.667   1.830   1.843
 7260SOL    HW222680   3.755   1.929   1.939
 7261SOL     OW22681   1.440   4.241   1.745
 7261SOL    HW122682   1.399   4.235   1.836
 7261SOL    HW222683   1.456   4.149   1.709
 7262SOL     OW22684   6.236   1.948   5.271
 7262SOL    HW122685   6.294   1.944   5.352
 7262SOL    HW222686   6.233   1.858   5.228
 7263SOL     OW22687   4.794   6.578   2.041
 7263SOL    HW122688   4.848   6.620   2.113
 7263SOL    HW222689   4.788   6.640   1.963
 7264SOL     OW22690   1.076   6.995   4.670
 7264SOL    HW122691   1.167   6.999   4.710
 7264SOL    HW222692   1.083   6.971   4.573
 7265SOL     OW22693   4.193   3.871   5.954
 7265SOL    HW122694   4.291   3.849   5.958
 7265SOL    HW222695   4.174   3.952   6.010
 7266SOL     OW22696   5.201   1.492   1.862
 7266SOL    HW122697   5.133   1.520   1.795
 7266SOL    HW222698   5.206   1.560   1.935
 7267SOL     OW22699   0.103   2.834   4.440
 7267SOL    HW122700   0.133   2.760   4.500
 7267SOL    HW222701   0.182   2.888   4.411
 7268SOL     OW22702   3.126   6.971   1.096
 7268SOL    HW122703   3.078   6.958   1.009
 7268SOL    HW222704   3.080   6.920   1.168
 7269SOL     OW22705   1.549   0.004   1.861
 7269SOL    HW122706   1.570   6.984   1.950
 7269SOL    HW222707   1.611   6.989   1.792
 7270SOL     OW22708   3.420   1.600   2.425
 7270SOL    HW122709   3.426   1.625   2.328
 7270SOL    HW222710   3.332   1.556   2.443
 7271SOL     OW22711   5.863   4.757   4.413
 7271SOL    HW122712   5.899   4.671   4.377
 7271SOL    HW222713   5.934   4.827   4.410
 7272SOL     OW22714   6.223   1.864   1.157
 7272SOL    HW122715   6.226   1.768   1.184
 7272SOL    HW222716   6.131   1.900   1.174
 7273SOL     OW22717   6.182   6.171   6.118
 7273SOL    HW122718   6.115   6.226   6.068
 7273SOL    HW222719   6.199   6.212   6.208
 7274SOL     OW22720   0.324   4.492   4.540
 7274SOL    HW122721   0.317   4.397   4.510
 7274SOL    HW222722   0.278   4.504   4.628
 7275SOL     OW22723   5.744   6.694   1.384
 7275SOL    HW122724   5.768   6.773   1.441
 7275SOL    HW222725   5.750   6.720   1.288
 7276SOL     OW22726   3.034   2.237   4.048
 7276SOL    HW122727   3.108   2.209   3.986
 7276SOL    HW222728   2.948   2.240   3.997
 7277SOL     OW22729   5.319   1.684   4.268
 7277SOL    HW122730   5.364   1.758   4.317
 7277SOL    HW222731   5.239   1.653   4.320
 7278SOL     OW22732   2.119   1.686   3.252
 7278SOL    HW122733   2.216   1.703   3.271
 7278SOL    HW222734   2.105   1.671   3.154
 7279SOL     OW22735   4.045   4.235   0.791
 7279SOL    HW122736   4.108   4.158   0.799
 7279SOL    HW222737   3.952   4.205   0.813
 7280SOL     OW22738   6.483   1.640   5.379
 7280SOL    HW122739   6.556   1.657   5.313
 7280SOL    HW222740   6.481   1.542   5.402
 7281SOL     OW22741   3.876   5.847   2.018
 7281SOL    HW122742   3.908   5.942   2.017
 7281SOL    HW222743   3.828   5.828   2.104
 7282SOL     OW22744   6.658   3.645   2.131
 7282SOL    HW122745   6.753   3.677   2.141
 7282SOL    HW222746   6.625   3.611   2.219
 7283SOL     OW22747   4.561   5.207   3.060
 7283SOL    HW122748   4.591   5.301   3.050
 7283SOL    HW222749   4.498   5.183   2.986
 7284SOL     OW22750   0.323   1.479   2.353
 7284SOL    HW122751   0.391   1.458   2.423
 7284SOL    HW222752   0.357   1.447   2.264
 7285SOL     OW22753   4.809   3.211   1.730
 7285SOL    HW122754   4.883   3.166   1.679
 7285SOL    HW222755   4.753   3.141   1.775
 7286SOL     OW22756   5.980   1.629   3.863
 7286SOL    HW122757   5.888   1.619   3.823
 7286SOL    HW222758   6.004   1.545   3.912
 7287SOL     OW22759   3.146   1.273   2.758
 7287SOL    HW122760   3.098   1.348   2.712
 7287SOL    HW222761   3.244   1.280   2.741
 7288SOL     OW22762   2.664   1.728   2.310
 7288SOL    HW122763   2.639   1.746   2.406
 7288SOL    HW222764   2.736   1.658   2.307
 7289SOL     OW22765   6.867   2.301   1.732
 7289SOL    HW122766   6.871   2.247   1.816
 7289SOL    HW222767   6.780   2.284   1.686
 7290SOL     OW22768   3.710   1.420   4.972
 7290SOL    HW122769   3.637   1.375   4.921
 7290SOL    HW222770   3.798   1.402   4.927
 7291SOL     OW22771   2.836   1.455   0.805
 7291SOL    HW122772   2.900   1.526   0.836
 7291SOL    HW222773   2.801   1.478   0.714
 7292SOL     OW22774   2.449   0.031   2.333
 7292SOL    HW122775   2.507   0.113   2.332
 7292SOL    HW222776   2.469   6.999   2.415
 7293SOL     OW22777   6.543   1.571   3.922
 7293SOL    HW122778   6.489   1.489   3.901
 7293SOL    HW222779   6.511   1.610   4.008
 7294SOL     OW22780   3.235   6.234   2.505
 7294SOL    HW122781   3.189   6.148   2.484
 7294SOL    HW222782   3.286   6.225   2.590
 7295SOL     OW22783   5.447   4.275   1.063
 7295SOL    HW122784   5.450   4.196   1.124
 7295SOL    HW222785   5.367   4.331   1.084
 7296SOL     OW22786   4.575   5.182   1.978
 7296SOL    HW122787   4.541   5.209   1.888
 7296SOL    HW222788   4.672   5.206   1.985
 7297SOL     OW22789   4.339   6.877   0.957
 7297SOL    HW122790   4.347   6.840   0.864
 7297SOL    HW222791   4.411   6.946   0.972
 7298SOL     OW22792   3.782   5.372   0.546
 7298SOL    HW122793   3.794   5.275   0.569
 7298SOL    HW222794   3.695   5.385   0.500
 7299SOL     OW22795   1.217   3.179   6.154
 7299SOL    HW122796   1.148   3.230   6.205
 7299SOL    HW222797   1.226   3.217   6.062
 7300SOL     OW22798   6.916   5.360   2.336
 7300SOL    HW122799   6.932   5.291   2.406
 7300SOL    HW222800   7.003   5.396   2.303
 7301SOL     OW22801   4.257   1.933   6.373
 7301SOL    HW122802   4.301   2.001   6.314
 7301SOL    HW222803   4.162   1.960   6.388
 7302SOL     OW22804   5.895   2.022   5.919
 7302SOL    HW122805   5.830   1.950   5.942
 7302SOL    HW222806   5.891   2.094   5.989
 7303SOL     OW22807   2.935   1.608   1.919
 7303SOL    HW122808   2.846   1.647   1.942
 7303SOL    HW222809   3.007   1.676   1.936
 7304SOL     OW22810   2.776   5.322   0.693
 7304SOL    HW122811   2.755   5.272   0.777
 7304SOL    HW222812   2.869   5.359   0.698
 7305SOL     OW22813   6.011   1.280   6.943
 7305SOL    HW122814   6.058   1.239   7.021
 7305SOL    HW222815   6.019   1.220   6.863
 7306SOL     OW22816   1.307   2.877   1.719
 7306SOL    HW122817   1.402   2.898   1.741
 7306SOL    HW222818   1.293   2.778   1.720
 7307SOL     OW22819   1.790   0.102   1.023
 7307SOL    HW122820   1.836   0.048   1.093
 7307SOL    HW222821   1.760   0.042   0.949
 7308SOL     OW22822   4.022   1.148   2.471
 7308SOL    HW122823   4.008   1.126   2.375
 7308SOL    HW222824   3.975   1.233   2.493
 7309SOL     OW22825   2.368   5.510   3.952
 7309SOL    HW122826   2.354   5.455   3.870
 7309SOL    HW222827   2.334   5.461   4.032
 7310SOL     OW22828   2.770   2.935   6.110
 7310SOL    HW122829   2.814   2.869   6.049
 7310SOL    HW222830   2.683   2.964   6.070
 7311SOL     OW22831   0.514   6.002   5.616
 7311SOL    HW122832   0.581   5.960   5.676
 7311SOL    HW222833   0.470   5.932   5.561
 7312SOL     OW22834   6.294   2.222   3.986
 7312SOL    HW122835   6.282   2.321   3.984
 7312SOL    HW222836   6.361   2.195   3.916
 7313SOL     OW22837   2.543   0.549   2.848
 7313SOL    HW122838   2.570   0.628   2.794
 7313SOL    HW222839   2.559   0.465   2.796
 7314SOL     OW22840   0.971   4.418   5.587
 7314SOL    HW122841   1.033   4.438   5.511
 7314SOL    HW222842   0.957   4.501   5.641
 7315SOL     OW22843   2.471   4.730   2.269
 7315SOL    HW122844   2.407   4.655   2.258
 7315SOL    HW222845   2.565   4.694   2.274
 7316SOL     OW22846   4.275   1.579   1.213
 7316SOL    HW122847   4.231   1.528   1.139
 7316SOL    HW222848   4.308   1.515   1.282
 7317SOL     OW22849   4.158   2.166   0.154
 7317SOL    HW122850   4.112   2.152   0.242
 7317SOL    HW222851   4.121   2.102   0.087
 7318SOL     OW22852   5.397   6.710   0.651
 7318SOL    HW122853   5.304   6.674   0.645
 7318SOL    HW222854   5.438   6.681   0.737
 7319SOL     OW22855   5.840   6.290   6.306
 7319SOL    HW122856   5.935   6.321   6.295
 7319SOL    HW222857   5.821   6.217   6.241
 7320SOL     OW22858   0.872   2.896   1.165
 7320SOL    HW122859   0.856   2.863   1.072
 7320SOL    HW222860   0.860   2.995   1.167
 7321SOL     OW22861   2.020   2.063   0.213
 7321SOL    HW122862   2.115   2.062   0.245
 7321SOL    HW222863   2.007   2.139   0.149
 7322SOL     OW22864   0.974   3.186   3.405
 7322SOL    HW122865   0.984   3.207   3.308
 7322SOL    HW222866   1.031   3.249   3.458
 7323SOL     OW22867   1.012   2.860   0.488
 7323SOL    HW122868   0.966   2.913   0.560
 7323SOL    HW222869   1.083   2.803   0.529
 7324SOL     OW22870   5.196   3.811   3.538
 7324SOL    HW122871   5.103   3.783   3.563
 7324SOL    HW222872   5.203   3.819   3.439
 7325SOL     OW22873   3.996   1.323   5.812
 7325SOL    HW122874   4.076   1.278   5.771
 7325SOL    HW222875   4.006   1.422   5.805
 7326SOL     OW22876   3.770   0.186   0.445
 7326SOL    HW122877   3.858   0.218   0.482
 7326SOL    HW222878   3.703   0.260   0.452
 7327SOL     OW22879   1.592   4.496   3.399
 7327SOL    HW122880   1.517   4.561   3.394
 7327SOL    HW222881   1.599   4.447   3.312
 7328SOL     OW22882   4.587   4.781   5.068
 7328SOL    HW122883   4.585   4.740   4.977
 7328SOL    HW222884   4.497   4.819   5.089
 7329SOL     OW22885   2.783   3.260   0.987
 7329SOL    HW122886   2.702   3.246   1.043
 7329SOL    HW222887   2.768   3.336   0.924
 7330SOL     OW22888   2.583   3.392   1.464
 7330SOL    HW122889   2.665   3.410   1.520
 7330SOL    HW222890   2.610   3.377   1.369
 7331SOL     OW22891   5.101   2.391   2.425
 7331SOL    HW122892   5.103   2.398   2.525
 7331SOL    HW222893   5.040   2.461   2.388
 7332SOL     OW22894   3.367   6.606   6.052
 7332SOL    HW122895   3.289   6.664   6.075
 7332SOL    HW222896   3.349   6.559   5.965
 7333SOL     OW22897   0.645   1.532   1.476
 7333SOL    HW122898   0.728   1.518   1.423
 7333SOL    HW222899   0.668   1.541   1.573
 7334SOL     OW22900   1.707   6.194   3.841
 7334SOL    HW122901   1.774   6.229   3.906
 7334SOL    HW222902   1.619   6.239   3.857
 7335SOL     OW22903   0.213   3.899   2.495
 7335SOL    HW122904   0.172   3.902   2.404
 7335SOL    HW222905   0.150   3.939   2.562
 7336SOL     OW22906   2.435   6.532   1.661
 7336SOL    HW122907   2.476   6.603   1.717
 7336SOL    HW222908   2.385   6.574   1.585
 7337SOL     OW22909   2.754   1.302   3.009
 7337SOL    HW122910   2.850   1.331   3.003
 7337SOL    HW222911   2.736   1.267   3.101
 7338SOL     OW22912   5.029   3.610   1.250
 7338SOL    HW122913   4.953   3.660   1.210
 7338SOL    HW222914   5.100   3.674   1.280
 7339SOL     OW22915   0.122   6.259   4.759
 7339SOL    HW122916   0.091   6.350   4.734
 7339SOL    HW222917   0.053   6.192   4.731
 7340SOL     OW22918   3.142   6.500   0.223
 7340SOL    HW122919   3.045   6.477   0.216
 7340SOL    HW222920   3.179   6.467   0.310
 7341SOL     OW22921   6.658   5.682   5.002
 7341SOL    HW122922   6.612   5.669   4.914
 7341SOL    HW222923   6.589   5.688   5.075
 7342SOL     OW22924   1.527   5.272   1.183
 7342SOL    HW122925   1.579   5.264   1.268
 7342SOL    HW222926   1.581   5.237   1.107
 7343SOL     OW22927   5.041   2.741   3.139
 7343SOL    HW122928   4.979   2.791   3.200
 7343SOL    HW222929   5.005   2.650   3.122
 7344SOL     OW22930   2.408   1.081   0.146
 7344SOL    HW122931   2.352   1.141   0.203
 7344SOL    HW222932   2.446   1.133   0.070
 7345SOL     OW22933   2.828   5.596   0.348
 7345SOL    HW122934   2.817   5.523   0.280
 7345SOL    HW222935   2.755   5.663   0.337
 7346SOL     OW22936   3.743   4.925   1.599
 7346SOL    HW122937   3.715   4.986   1.673
 7346SOL    HW222938   3.693   4.947   1.516
 7347SOL     OW22939   6.657   3.349   2.222
 7347SOL    HW122940   6.652   3.422   2.290
 7347SOL    HW222941   6.654   3.260   2.268
 7348SOL     OW22942   0.503   1.455   4.829
 7348SOL    HW122943   0.482   1.386   4.760
 7348SOL    HW222944   0.539   1.411   4.911
 7349SOL     OW22945   3.681   1.306   0.466
 7349SOL    HW122946   3.748   1.252   0.516
 7349SOL    HW222947   3.588   1.279   0.493
 7350SOL     OW22948   2.149   1.013   2.633
 7350SOL    HW122949   2.134   1.031   2.535
 7350SOL    HW222950   2.193   1.092   2.675
 7351SOL     OW22951   4.735   4.685   0.293
 7351SOL    HW122952   4.689   4.600   0.268
 7351SOL    HW222953   4.730   4.749   0.217
 7352SOL     OW22954   6.227   1.106   3.159
 7352SOL    HW122955   6.223   1.114   3.059
 7352SOL    HW222956   6.211   1.011   3.185
 7353SOL     OW22957   5.277   2.088   4.783
 7353SOL    HW122958   5.368   2.082   4.741
 7353SOL    HW222959   5.278   2.040   4.871
 7354SOL     OW22960   6.330   4.328   5.173
 7354SOL    HW122961   6.403   4.317   5.105
 7354SOL    HW222962   6.369   4.367   5.256
 7355SOL     OW22963   1.227   4.365   1.010
 7355SOL    HW122964   1.165   4.389   0.935
 7355SOL    HW222965   1.235   4.442   1.072
 7356SOL     OW22966   6.637   1.831   5.602
 7356SOL    HW122967   6.659   1.904   5.666
 7356SOL    HW222968   6.545   1.843   5.567
 7357SOL     OW22969   0.526   1.802   0.421
 7357SOL    HW122970   0.447   1.777   0.365
 7357SOL    HW222971   0.537   1.737   0.495
 7358SOL     OW22972   3.399   0.538   3.836
 7358SOL    HW122973   3.491   0.508   3.809
 7358SOL    HW222974   3.361   0.597   3.765
 7359SOL     OW22975   3.255   3.061   2.798
 7359SOL    HW122976   3.176   3.101   2.844
 7359SOL    HW222977   3.339   3.102   2.836
 7360SOL     OW22978   0.396   3.194   5.530
 7360SOL    HW122979   0.423   3.285   5.497
 7360SOL    HW222980   0.433   3.180   5.622
 7361SOL     OW22981   5.029   0.030   1.763
 7361SOL    HW122982   5.091   6.975   1.774
 7361SOL    HW222983   4.991   0.056   1.851
 7362SOL     OW22984   1.943   6.870   6.076
 7362SOL    HW122985   2.016   6.939   6.065
 7362SOL    HW222986   1.955   6.798   6.008
 7363SOL     OW22987   5.640   2.897   6.165
 7363SOL    HW122988   5.675   2.821   6.111
 7363SOL    HW222989   5.703   2.975   6.158
 7364SOL     OW22990   5.340   0.733   1.354
 7364SOL    HW122991   5.308   0.789   1.277
 7364SOL    HW222992   5.294   0.644   1.352
 7365SOL     OW22993   3.410   0.422   1.934
 7365SOL    HW122994   3.350   0.352   1.973
 7365SOL    HW222995   3.380   0.513   1.964
 7366SOL     OW22996   0.927   5.349   0.107
 7366SOL    HW122997   0.898   5.408   0.183
 7366SOL    HW222998   0.910   5.396   0.020
 7367SOL     OW22999   4.947   3.515   6.534
 7367SOL    HW123000   4.995   3.537   6.619
 7367SOL    HW223001   4.977   3.426   6.501
 7368SOL     OW23002   3.039   3.423   3.502
 7368SOL    HW123003   3.134   3.408   3.529
 7368SOL    HW223004   2.987   3.338   3.514
 7369SOL     OW23005   5.021   2.507   6.480
 7369SOL    HW123006   5.053   2.600   6.500
 7369SOL    HW223007   4.921   2.505   6.484
 7370SOL     OW23008   1.762   5.751   1.149
 7370SOL    HW123009   1.671   5.769   1.112
 7370SOL    HW223010   1.819   5.832   1.140
 7371SOL     OW23011   2.122   5.005   3.972
 7371SOL    HW123012   2.215   5.013   3.935
 7371SOL    HW223013   2.127   4.989   4.071
 7372SOL     OW23014   3.325   6.258   5.865
 7372SOL    HW123015   3.327   6.240   5.963
 7372SOL    HW223016   3.388   6.196   5.818
 7373SOL     OW23017   3.582   0.423   1.714
 7373SOL    HW123018   3.513   0.414   1.785
 7373SOL    HW223019   3.609   0.519   1.705
 7374SOL     OW23020   2.193   3.930   6.545
 7374SOL    HW123021   2.113   3.942   6.487
 7374SOL    HW223022   2.172   3.865   6.618
 7375SOL     OW23023   1.612   6.536   3.016
 7375SOL    HW123024   1.521   6.561   2.982
 7375SOL    HW223025   1.681   6.574   2.955
 7376SOL     OW23026   2.738   3.956   5.559
 7376SOL    HW123027   2.677   3.881   5.533
 7376SOL    HW223028   2.822   3.919   5.596
 7377SOL     OW23029   4.668   4.887   1.602
 7377SOL    HW123030   4.718   4.822   1.545
 7377SOL    HW223031   4.624   4.955   1.544
 7378SOL     OW23032   6.926   2.284   5.908
 7378SOL    HW123033   7.019   2.316   5.892
 7378SOL    HW223034   6.928   2.207   5.972
 7379SOL     OW23035   4.132   1.181   1.241
 7379SOL    HW123036   4.203   1.172   1.171
 7379SOL    HW223037   4.048   1.216   1.200
 7380SOL     OW23038   6.505   2.249   4.795
 7380SOL    HW123039   6.586   2.218   4.844
 7380SOL    HW223040   6.519   2.239   4.697
 7381SOL     OW23041   5.074   2.270   0.222
 7381SOL    HW123042   5.075   2.220   0.135
 7381SOL    HW223043   5.160   2.320   0.233
 7382SOL     OW23044   6.963   5.922   3.935
 7382SOL    HW123045   6.912   5.988   3.881
 7382SOL    HW223046   0.027   5.963   3.967
 7383SOL     OW23047   6.975   5.729   3.549
 7383SOL    HW123048   6.991   5.812   3.497
 7383SOL    HW223049   7.015   5.738   3.640
 7384SOL     OW23050   6.022   1.449   1.845
 7384SOL    HW123051   6.120   1.450   1.865
 7384SOL    HW223052   6.008   1.445   1.746
 7385SOL     OW23053   5.085   0.250   1.576
 7385SOL    HW123054   5.084   0.324   1.644
 7385SOL    HW223055   5.065   0.163   1.621
 7386SOL     OW23056   0.701   2.790   5.852
 7386SOL    HW123057   0.687   2.828   5.943
 7386SOL    HW223058   0.752   2.855   5.796
 7387SOL     OW23059   3.981   5.964   3.805
 7387SOL    HW123060   4.002   6.002   3.895
 7387SOL    HW223061   4.063   5.924   3.765
 7388SOL     OW23062   5.966   4.596   4.752
 7388SOL    HW123063   6.039   4.528   4.748
 7388SOL    HW223064   5.878   4.553   4.733
 7389SOL     OW23065   0.852   4.185   5.323
 7389SOL    HW123066   0.818   4.206   5.231
 7389SOL    HW223067   0.853   4.268   5.378
 7390SOL     OW23068   2.169   0.027   5.834
 7390SOL    HW123069   2.198   0.087   5.908
 7390SOL    HW223070   2.250   7.014   5.786
 7391SOL     OW23071   6.922   3.886   0.181
 7391SOL    HW123072   6.927   3.980   0.214
 7391SOL    HW223073   7.014   3.855   0.155
 7392SOL     OW23074   2.080   4.955   3.318
 7392SOL    HW123075   1.984   4.928   3.327
 7392SOL    HW223076   2.087   5.054   3.326
 7393SOL     OW23077   0.690   3.297   0.632
 7393SOL    HW123078   0.627   3.302   0.553
 7393SOL    HW223079   0.782   3.321   0.602
 7394SOL     OW23080   2.970   3.358   6.287
 7394SOL    HW123081   2.955   3.442   6.236
 7394SOL    HW223082   3.068   3.345   6.303
 7395SOL     OW23083   1.834   6.437   0.279
 7395SOL    HW123084   1.838   6.346   0.321
 7395SOL    HW223085   1.738   6.464   0.266
 7396SOL     OW23086   1.052   0.033   1.047
 7396SOL    HW123087   1.008   6.978   1.000
 7396SOL    HW223088   1.087   0.098   0.980
 7397SOL     OW23089   6.180   4.360   4.841
 7397SOL    HW123090   6.264   4.371   4.789
 7397SOL    HW223091   6.148   4.266   4.834
 7398SOL     OW23092   4.094   5.736   3.268
 7398SOL    HW123093   4.097   5.664   3.337
 7398SOL    HW223094   4.069   5.823   3.310
 7399SOL     OW23095   5.079   4.216   4.875
 7399SOL    HW123096   5.143   4.230   4.800
 7399SOL    HW223097   5.129   4.188   4.957
 7400SOL     OW23098   2.240   5.220   6.707
 7400SOL    HW123099   2.269   5.166   6.786
 7400SOL    HW223100   2.310   5.216   6.636
 7401SOL     OW23101   5.153   1.533   4.491
 7401SOL    HW123102   5.075   1.507   4.547
 7401SOL    HW223103   5.237   1.494   4.529
 7402SOL     OW23104   2.274   7.005   3.490
 7402SOL    HW123105   2.196   6.982   3.550
 7402SOL    HW223106   2.358   6.973   3.532
 7403SOL     OW23107   1.858   3.555   1.549
 7403SOL    HW123108   1.870   3.573   1.451
 7403SOL    HW223109   1.927   3.606   1.601
 7404SOL     OW23110   1.097   1.800   2.958
 7404SOL    HW123111   1.086   1.890   2.998
 7404SOL    HW223112   1.183   1.760   2.990
 7405SOL     OW23113   2.945   4.652   6.215
 7405SOL    HW123114   3.037   4.659   6.254
 7405SOL    HW223115   2.903   4.743   6.214
 7406SOL     OW23116   0.448   5.568   2.173
 7406SOL    HW123117   0.447   5.652   2.227
 7406SOL    HW223118   0.415   5.492   2.228
 7407SOL     OW23119   1.701   0.583   5.410
 7407SOL    HW123120   1.658   0.674   5.413
 7407SOL    HW223121   1.797   0.591   5.437
 7408SOL     OW23122   0.455   3.705   5.318
 7408SOL    HW123123   0.422   3.764   5.392
 7408SOL    HW223124   0.552   3.723   5.302
 7409SOL     OW23125   3.117   5.652   6.016
 7409SOL    HW123126   3.106   5.553   6.029
 7409SOL    HW223127   3.118   5.673   5.919
 7410SOL     OW23128   5.660   5.036   0.778
 7410SOL    HW123129   5.730   5.079   0.721
 7410SOL    HW223130   5.667   4.937   0.772
 7411SOL     OW23131   4.958   5.245   6.058
 7411SOL    HW123132   4.946   5.345   6.055
 7411SOL    HW223133   4.883   5.202   6.009
 7412SOL     OW23134   1.431   2.441   0.083
 7412SOL    HW123135   1.384   2.525   0.056
 7412SOL    HW223136   1.419   2.426   0.181
 7413SOL     OW23137   0.022   3.265   4.418
 7413SOL    HW123138   7.018   3.171   4.439
 7413SOL    HW223139   0.000   3.324   4.496
 7414SOL     OW23140   6.751   5.443   3.084
 7414SOL    HW123141   6.730   5.423   2.988
 7414SOL    HW223142   6.694   5.387   3.143
 7415SOL     OW23143   2.642   1.749   2.577
 7415SOL    HW123144   2.706   1.705   2.640
 7415SOL    HW223145   2.605   1.831   2.620
 7416SOL     OW23146   5.491   0.472   3.841
 7416SOL    HW123147   5.568   0.496   3.901
 7416SOL    HW223148   5.526   0.433   3.756
 7417SOL     OW23149   0.926   6.101   0.508
 7417SOL    HW123150   0.832   6.111   0.474
 7417SOL    HW223151   0.977   6.185   0.488
 7418SOL     OW23152   1.249   3.705   0.346
 7418SOL    HW123153   1.228   3.681   0.251
 7418SOL    HW223154   1.335   3.662   0.373
 7419SOL     OW23155   5.164   0.939   5.062
 7419SOL    HW123156   5.187   0.958   5.158
 7419SOL    HW223157   5.179   1.021   5.007
 7420SOL     OW23158   6.985   5.878   2.003
 7420SOL    HW123159   6.951   5.871   1.909
 7420SOL    HW223160   6.918   5.838   2.065
 7421SOL     OW23161   3.906   3.067   1.571
 7421SOL    HW123162   3.847   3.146   1.556
 7421SOL    HW223163   4.002   3.095   1.567
 7422SOL     OW23164   1.232   2.657   1.212
 7422SOL    HW123165   1.248   2.724   1.139
 7422SOL    HW223166   1.320   2.619   1.241
 7423SOL     OW23167   2.148   5.478   0.083
 7423SOL    HW123168   2.222   5.428   0.039
 7423SOL    HW223169   2.064   5.467   0.030
 7424SOL     OW23170   5.940   1.557   4.604
 7424SOL    HW123171   5.914   1.461   4.591
 7424SOL    HW223172   5.976   1.593   4.517
 7425SOL     OW23173   4.205   6.871   5.861
 7425SOL    HW123174   4.109   6.890   5.882
 7425SOL    HW223175   4.210   6.817   5.777
 7426SOL     OW23176   1.103   1.268   0.186
 7426SOL    HW123177   1.146   1.355   0.206
 7426SOL    HW223178   1.121   1.203   0.260
 7427SOL     OW23179   4.099   5.469   4.505
 7427SOL    HW123180   4.011   5.512   4.526
 7427SOL    HW223181   4.172   5.521   4.549
 7428SOL     OW23182   2.668   1.636   5.922
 7428SOL    HW123183   2.717   1.563   5.969
 7428SOL    HW223184   2.726   1.672   5.849
 7429SOL     OW23185   6.624   6.720   3.382
 7429SOL    HW123186   6.654   6.648   3.319
 7429SOL    HW223187   6.601   6.803   3.330
 7430SOL     OW23188   0.533   4.355   4.737
 7430SOL    HW123189   0.563   4.448   4.759
 7430SOL    HW223190   0.459   4.360   4.670
 7431SOL     OW23191   1.052   4.503   2.572
 7431SOL    HW123192   1.101   4.416   2.562
 7431SOL    HW223193   0.954   4.488   2.561
 7432SOL     OW23194   1.164   6.329   4.893
 7432SOL    HW123195   1.186   6.307   4.988
 7432SOL    HW223196   1.245   6.311   4.836
 7433SOL     OW23197   6.846   6.125   1.221
 7433SOL    HW123198   6.836   6.187   1.299
 7433SOL    HW223199   6.884   6.175   1.144
 7434SOL     OW23200   4.518   0.147   6.701
 7434SOL    HW123201   4.558   0.195   6.780
 7434SOL    HW223202   4.585   0.142   6.628
 7435SOL     OW23203   1.547   6.033   0.587
 7435SOL    HW123204   1.612   5.971   0.543
 7435SOL    HW223205   1.597   6.100   0.641
 7436SOL     OW23206   5.260   2.960   6.650
 7436SOL    HW123207   5.198   3.039   6.642
 7436SOL    HW223208   5.320   2.973   6.729
 7437SOL     OW23209   0.358   5.518   6.018
 7437SOL    HW123210   0.418   5.593   6.046
 7437SOL    HW223211   0.344   5.522   5.919
 7438SOL     OW23212   6.244   4.346   1.943
 7438SOL    HW123213   6.290   4.434   1.951
 7438SOL    HW223214   6.207   4.335   1.851
 7439SOL     OW23215   1.521   6.534   3.750
 7439SOL    HW123216   1.492   6.462   3.813
 7439SOL    HW223217   1.589   6.592   3.795
 7440SOL     OW23218   0.710   2.281   3.997
 7440SOL    HW123219   0.775   2.249   4.066
 7440SOL    HW223220   0.760   2.320   3.920
 7441SOL     OW23221   5.659   0.114   3.772
 7441SOL    HW123222   5.581   0.163   3.812
 7441SOL    HW223223   5.724   0.180   3.735
 7442SOL     OW23224   1.588   0.977   6.830
 7442SOL    HW123225   1.672   0.992   6.777
 7442SOL    HW223226   1.603   0.904   6.896
 7443SOL     OW23227   0.046   1.313   0.752
 7443SOL    HW123228   0.033   1.246   0.825
 7443SOL    HW223229   0.087   1.268   0.672
 7444SOL     OW23230   0.222   2.534   6.358
 7444SOL    HW123231   0.173   2.542   6.272
 7444SOL    HW223232   0.267   2.621   6.380
 7445SOL     OW23233   5.695   2.874   2.205
 7445SOL    HW123234   5.635   2.912   2.275
 7445SOL    HW223235   5.772   2.936   2.189
 7446SOL     OW23236   0.119   3.613   0.974
 7446SOL    HW123237   0.080   3.524   0.995
 7446SOL    HW223238   0.071   3.684   1.027
 7447SOL     OW23239   0.002   4.232   6.325
 7447SOL    HW123240   6.984   4.158   6.380
 7447SOL    HW223241   0.052   4.194   6.247
 7448SOL     OW23242   6.761   6.600   6.065
 7448SOL    HW123243   6.802   6.534   6.001
 7448SOL    HW223244   6.680   6.640   6.023
 7449SOL     OW23245   4.673   0.957   1.719
 7449SOL    HW123246   4.667   0.927   1.814
 7449SOL    HW223247   4.734   1.037   1.714
 7450SOL     OW23248   3.397   0.130   2.798
 7450SOL    HW123249   3.465   0.093   2.734
 7450SOL    HW223250   3.366   0.057   2.859
 7451SOL     OW23251   1.432   1.379   3.036
 7451SOL    HW123252   1.352   1.411   3.087
 7451SOL    HW223253   1.402   1.323   2.959
 7452SOL     OW23254   1.572   6.535   4.481
 7452SOL    HW123255   1.574   6.628   4.444
 7452SOL    HW223256   1.500   6.528   4.551
 7453SOL     OW23257   5.474   5.798   5.463
 7453SOL    HW123258   5.417   5.879   5.481
 7453SOL    HW223259   5.487   5.747   5.548
 7454SOL     OW23260   0.521   2.974   0.429
 7454SOL    HW123261   0.560   3.057   0.389
 7454SOL    HW223262   0.468   2.998   0.510
 7455SOL     OW23263   5.402   1.416   0.563
 7455SOL    HW123264   5.468   1.483   0.598
 7455SOL    HW223265   5.401   1.335   0.622
 7456SOL     OW23266   1.903   2.942   5.751
 7456SOL    HW123267   1.906   2.990   5.663
 7456SOL    HW223268   1.868   2.850   5.738
 7457SOL     OW23269   6.134   0.070   5.825
 7457SOL    HW123270   6.037   0.045   5.832
 7457SOL    HW223271   6.146   0.167   5.846
 7458SOL     OW23272   2.624   0.882   0.544
 7458SOL    HW123273   2.542   0.827   0.557
 7458SOL    HW223274   2.637   0.900   0.446
 7459SOL     OW23275   4.407   0.510   5.034
 7459SOL    HW123276   4.411   0.486   4.937
 7459SOL    HW223277   4.480   0.574   5.055
 7460SOL     OW23278   0.798   5.093   0.030
 7460SOL    HW123279   0.881   5.068   7.003
 7460SOL    HW223280   0.821   5.153   0.107
 7461SOL     OW23281   4.676   0.251   3.932
 7461SOL    HW123282   4.686   0.227   4.028
 7461SOL    HW223283   4.578   0.250   3.908
 7462SOL     OW23284   1.889   1.620   2.358
 7462SOL    HW123285   1.930   1.619   2.267
 7462SOL    HW223286   1.954   1.661   2.423
 7463SOL     OW23287   3.316   3.694   2.257
 7463SOL    HW123288   3.346   3.640   2.179
 7463SOL    HW223289   3.286   3.784   2.224
 7464SOL     OW23290   5.412   6.410   6.335
 7464SOL    HW123291   5.373   6.347   6.268
 7464SOL    HW223292   5.344   6.432   6.404
 7465SOL     OW23293   3.133   0.872   1.826
 7465SOL    HW123294   3.061   0.920   1.876
 7465SOL    HW223295   3.169   0.932   1.754
 7466SOL     OW23296   0.608   0.419   6.428
 7466SOL    HW123297   0.600   0.463   6.338
 7466SOL    HW223298   0.546   0.464   6.492
 7467SOL     OW23299   6.102   1.592   1.177
 7467SOL    HW123300   6.188   1.564   1.221
 7467SOL    HW223301   6.076   1.526   1.107
 7468SOL     OW23302   6.528   3.616   3.908
 7468SOL    HW123303   6.615   3.606   3.957
 7468SOL    HW223304   6.471   3.536   3.926
 7469SOL     OW23305   6.707   1.295   2.052
 7469SOL    HW123306   6.786   1.274   2.110
 7469SOL    HW223307   6.629   1.317   2.110
 7470SOL     OW23308   0.202   2.382   2.574
 7470SOL    HW123309   0.129   2.448   2.554
 7470SOL    HW223310   0.289   2.430   2.585
 7471SOL     OW23311   5.884   5.325   6.190
 7471SOL    HW123312   5.887   5.367   6.099
 7471SOL    HW223313   5.866   5.227   6.181
 7472SOL     OW23314   3.417   5.550   3.553
 7472SOL    HW123315   3.341   5.498   3.515
 7472SOL    HW223316   3.420   5.537   3.652
 7473SOL     OW23317   0.471   3.528   4.888
 7473SOL    HW123318   0.548   3.501   4.830
 7473SOL    HW223319   0.460   3.461   4.962
 7474SOL     OW23320   4.095   0.944   2.623
 7474SOL    HW123321   4.029   0.889   2.674
 7474SOL    HW223322   4.055   1.034   2.604
 7475SOL     OW23323   4.188   1.375   0.053
 7475SOL    HW123324   4.097   1.381   0.094
 7475SOL    HW223325   4.180   1.376   6.975
 7476SOL     OW23326   3.142   6.851   5.055
 7476SOL    HW123327   3.113   6.875   4.962
 7476SOL    HW223328   3.066   6.864   5.118
 7477SOL     OW23329   4.869   2.404   3.297
 7477SOL    HW123330   4.964   2.410   3.329
 7477SOL    HW223331   4.810   2.379   3.373
 7478SOL     OW23332   1.943   4.736   0.828
 7478SOL    HW123333   1.926   4.747   0.730
 7478SOL    HW223334   2.042   4.731   0.844
 7479SOL     OW23335   4.558   0.395   6.028
 7479SOL    HW123336   4.563   0.295   6.039
 7479SOL    HW223337   4.582   0.419   5.934
 7480SOL     OW23338   0.085   4.904   1.460
 7480SOL    HW123339   0.032   4.819   1.470
 7480SOL    HW223340   0.029   4.973   1.415
 7481SOL     OW23341   6.466   5.391   0.483
 7481SOL    HW123342   6.406   5.354   0.412
 7481SOL    HW223343   6.548   5.335   0.490
 7482SOL     OW23344   5.103   0.359   4.265
 7482SOL    HW123345   5.191   0.342   4.310
 7482SOL    HW223346   5.080   0.280   4.208
 7483SOL     OW23347   3.244   0.249   6.159
 7483SOL    HW123348   3.322   0.187   6.154
 7483SOL    HW223349   3.237   0.287   6.251
 7484SOL     OW23350   2.566   0.241   2.475
 7484SOL    HW123351   2.551   0.326   2.425
 7484SOL    HW223352   2.653   0.246   2.524
 7485SOL     OW23353   1.539   0.077   6.374
 7485SOL    HW123354   1.568   0.116   6.287
 7485SOL    HW223355   1.503   7.007   6.359
 7486SOL     OW23356   1.950   0.363   5.282
 7486SOL    HW123357   1.957   0.308   5.198
 7486SOL    HW223358   1.856   0.391   5.295
 7487SOL     OW23359   4.354   5.095   3.299
 7487SOL    HW123360   4.431   5.132   3.246
 7487SOL    HW223361   4.283   5.164   3.308
 7488SOL     OW23362   3.704   0.692   5.699
 7488SOL    HW123363   3.749   0.776   5.727
 7488SOL    HW223364   3.698   0.689   5.600
 7489SOL     OW23365   6.285   3.705   3.328
 7489SOL    HW123366   6.245   3.726   3.239
 7489SOL    HW223367   6.298   3.606   3.336
 7490SOL     OW23368   5.659   1.302   1.808
 7490SOL    HW123369   5.749   1.341   1.786
 7490SOL    HW223370   5.638   1.229   1.743
 7491SOL     OW23371   6.722   5.916   6.566
 7491SOL    HW123372   6.650   5.961   6.619
 7491SOL    HW223373   6.690   5.898   6.474
 7492SOL     OW23374   2.427   2.467   4.363
 7492SOL    HW123375   2.439   2.497   4.457
 7492SOL    HW223376   2.515   2.474   4.314
 7493SOL     OW23377   5.330   3.792   6.835
 7493SOL    HW123378   5.379   3.872   6.869
 7493SOL    HW223379   5.258   3.768   6.900
 7494SOL     OW23380   4.906   1.961   1.443
 7494SOL    HW123381   4.875   1.871   1.471
 7494SOL    HW223382   4.862   1.986   1.356
 7495SOL     OW23383   0.235   1.655   2.162
 7495SOL    HW123384   0.144   1.692   2.180
 7495SOL    HW223385   0.274   1.620   2.247
 7496SOL     OW23386   1.105   4.745   5.493
 7496SOL    HW123387   1.179   4.791   5.444
 7496SOL    HW223388   1.045   4.699   5.427
 7497SOL     OW23389   1.970   4.878   1.859
 7497SOL    HW123390   2.032   4.867   1.937
 7497SOL    HW223391   1.892   4.816   1.869
 7498SOL     OW23392   4.643   1.293   4.348
 7498SOL    HW123393   4.714   1.362   4.367
 7498SOL    HW223394   4.555   1.338   4.338
 7499SOL     OW23395   4.742   5.901   3.906
 7499SOL    HW123396   4.818   5.835   3.911
 7499SOL    HW223397   4.707   5.904   3.812
 7500SOL     OW23398   5.351   4.749   1.676
 7500SOL    HW123399   5.351   4.841   1.636
 7500SOL    HW223400   5.420   4.693   1.632
 7501SOL     OW23401   6.908   4.398   3.645
 7501SOL    HW123402   6.964   4.410   3.563
 7501SOL    HW223403   6.856   4.482   3.663
 7502SOL     OW23404   2.369   1.543   4.405
 7502SOL    HW123405   2.353   1.450   4.437
 7502SOL    HW223406   2.437   1.587   4.463
 7503SOL     OW23407   2.702   2.838   6.367
 7503SOL    HW123408   2.612   2.823   6.327
 7503SOL    HW223409   2.745   2.917   6.323
 7504SOL     OW23410   4.185   5.650   3.866
 7504SOL    HW123411   4.200   5.733   3.811
 7504SOL    HW223412   4.116   5.669   3.936
 7505SOL     OW23413   1.463   1.681   4.879
 7505SOL    HW123414   1.511   1.685   4.967
 7505SOL    HW223415   1.449   1.774   4.845
 7506SOL     OW23416   4.117   1.562   3.624
 7506SOL    HW123417   4.044   1.527   3.683
 7506SOL    HW223418   4.204   1.559   3.674
 7507SOL     OW23419   1.411   6.205   5.808
 7507SOL    HW123420   1.425   6.301   5.833
 7507SOL    HW223421   1.384   6.198   5.712
 7508SOL     OW23422   4.377   0.104   4.199
 7508SOL    HW123423   4.395   0.017   4.153
 7508SOL    HW223424   4.370   0.177   4.130
 7509SOL     OW23425   4.727   3.408   5.796
 7509SOL    HW123426   4.659   3.351   5.842
 7509SOL    HW223427   4.754   3.364   5.710
 7510SOL     OW23428   3.841   3.973   4.916
 7510SOL    HW123429   3.853   3.876   4.940
 7510SOL    HW223430   3.779   4.016   4.981
 7511SOL     OW23431   1.384   1.023   2.482
 7511SOL    HW123432   1.315   0.968   2.435
 7511SOL    HW223433   1.474   0.981   2.469
 7512SOL     OW23434   2.293   2.868   1.880
 7512SOL    HW123435   2.266   2.956   1.840
 7512SOL    HW223436   2.390   2.852   1.864
 7513SOL     OW23437   1.305   2.886   6.764
 7513SOL    HW123438   1.218   2.851   6.799
 7513SOL    HW223439   1.303   2.986   6.761
 7514SOL     OW23440   2.565   6.286   3.282
 7514SOL    HW123441   2.493   6.260   3.347
 7514SOL    HW223442   2.528   6.282   3.189
 7515SOL     OW23443   6.379   5.349   2.870
 7515SOL    HW123444   6.409   5.408   2.945
 7515SOL    HW223445   6.279   5.344   2.868
 7516SOL     OW23446   0.955   0.766   3.320
 7516SOL    HW123447   1.049   0.744   3.348
 7516SOL    HW223448   0.956   0.811   3.231
 7517SOL     OW23449   0.419   4.119   1.386
 7517SOL    HW123450   0.343   4.169   1.427
 7517SOL    HW223451   0.399   4.021   1.386
 7518SOL     OW23452   4.838   6.025   3.349
 7518SOL    HW123453   4.934   6.039   3.373
 7518SOL    HW223454   4.807   5.937   3.385
 7519SOL     OW23455   2.229   5.713   3.839
 7519SOL    HW123456   2.250   5.642   3.906
 7519SOL    HW223457   2.223   5.672   3.748
 7520SOL     OW23458   2.183   0.234   4.487
 7520SOL    HW123459   2.165   0.140   4.459
 7520SOL    HW223460   2.098   0.287   4.481
 7521SOL     OW23461   5.320   4.460   5.831
 7521SOL    HW123462   5.234   4.434   5.876
 7521SOL    HW223463   5.306   4.545   5.780
 7522SOL     OW23464   1.818   0.701   1.884
 7522SOL    HW123465   1.900   0.647   1.902
 7522SOL    HW223466   1.834   0.762   1.806
 7523SOL     OW23467   6.075   6.647   6.872
 7523SOL    HW123468   5.984   6.670   6.840
 7523SOL    HW223469   6.110   6.722   6.929
 7524SOL     OW23470   6.681   1.226   4.238
 7524SOL    HW123471   6.704   1.304   4.179
 7524SOL    HW223472   6.687   1.254   4.333
 7525SOL     OW23473   1.778   6.717   0.831
 7525SOL    HW123474   1.818   6.758   0.913
 7525SOL    HW223475   1.718   6.642   0.858
 7526SOL     OW23476   3.646   2.998   5.099
 7526SOL    HW123477   3.642   3.077   5.038
 7526SOL    HW223478   3.730   2.946   5.082
 7527SOL     OW23479   5.633   4.663   2.200
 7527SOL    HW123480   5.539   4.668   2.166
 7527SOL    HW223481   5.637   4.702   2.292
 7528SOL     OW23482   6.267   3.969   6.153
 7528SOL    HW123483   6.189   4.011   6.200
 7528SOL    HW223484   6.266   3.995   6.056
 7529SOL     OW23485   2.890   0.291   5.503
 7529SOL    HW123486   2.901   0.235   5.421
 7529SOL    HW223487   2.795   0.322   5.509
 7530SOL     OW23488   0.090   3.323   2.436
 7530SOL    HW123489   0.140   3.403   2.467
 7530SOL    HW223490   0.019   3.351   2.371
 7531SOL     OW23491   3.276   1.973   3.313
 7531SOL    HW123492   3.345   1.994   3.382
 7531SOL    HW223493   3.209   2.046   3.309
 7532SOL     OW23494   5.122   4.665   2.215
 7532SOL    HW123495   5.072   4.698   2.135
 7532SOL    HW223496   5.063   4.669   2.295
 7533SOL     OW23497   3.363   0.021   4.543
 7533SOL    HW123498   3.433   6.994   4.596
 7533SOL    HW223499   3.333   0.102   4.593
 7534SOL     OW23500   5.058   0.115   4.539
 7534SOL    HW123501   5.091   0.197   4.585
 7534SOL    HW223502   4.958   0.111   4.545
 7535SOL     OW23503   3.223   3.699   6.575
 7535SOL    HW123504   3.295   3.632   6.557
 7535SOL    HW223505   3.135   3.653   6.578
 7536SOL     OW23506   3.865   6.233   3.874
 7536SOL    HW123507   3.876   6.134   3.878
 7536SOL    HW223508   3.898   6.274   3.959
 7537SOL     OW23509   2.194   4.897   5.926
 7537SOL    HW123510   2.207   4.827   5.856
 7537SOL    HW223511   2.105   4.886   5.969
 7538SOL     OW23512   3.444   3.224   2.874
 7538SOL    HW123513   3.432   3.320   2.851
 7538SOL    HW223514   3.539   3.197   2.859
 7539SOL     OW23515   2.280   2.465   4.848
 7539SOL    HW123516   2.240   2.541   4.900
 7539SOL    HW223517   2.259   2.379   4.894
 7540SOL     OW23518   1.978   1.333   0.552
 7540SOL    HW123519   1.922   1.376   0.482
 7540SOL    HW223520   1.932   1.339   0.640
 7541SOL     OW23521   6.583   2.730   5.443
 7541SOL    HW123522   6.622   2.738   5.534
 7541SOL    HW223523   6.488   2.762   5.444
 7542SOL     OW23524   1.977   0.109   6.757
 7542SOL    HW123525   1.907   0.129   6.826
 7542SOL    HW223526   1.933   0.101   6.667
 7543SOL     OW23527   4.031   3.293   6.951
 7543SOL    HW123528   4.110   3.264   6.897
 7543SOL    HW223529   4.030   3.245   0.017
 7544SOL     OW23530   2.076   1.934   3.052
 7544SOL    HW123531   2.117   1.921   3.143
 7544SOL    HW223532   2.027   1.851   3.026
 7545SOL     OW23533   5.507   0.173   3.988
 7545SOL    HW123534   5.467   0.258   4.024
 7545SOL    HW223535   5.451   0.095   4.016
 7546SOL     OW23536   4.720   0.561   6.758
 7546SOL    HW123537   4.806   0.605   6.785
 7546SOL    HW223538   4.644   0.600   6.810
 7547SOL     OW23539   3.177   0.015   0.405
 7547SOL    HW123540   3.260   0.043   0.453
 7547SOL    HW223541   3.201   6.993   0.318
 7548SOL     OW23542   1.476   2.571   1.437
 7548SOL    HW123543   1.559   2.573   1.493
 7548SOL    HW223544   1.489   2.507   1.361
 7549SOL     OW23545   5.968   2.345   2.106
 7549SOL    HW123546   5.940   2.249   2.116
 7549SOL    HW223547   5.960   2.392   2.194
 7550SOL     OW23548   1.831   5.287   0.882
 7550SOL    HW123549   1.736   5.318   0.875
 7550SOL    HW223550   1.888   5.361   0.919
 7551SOL     OW23551   4.577   4.086   6.232
 7551SOL    HW123552   4.558   4.018   6.303
 7551SOL    HW223553   4.664   4.063   6.187
 7552SOL     OW23554   3.476   5.407   3.799
 7552SOL    HW123555   3.398   5.375   3.746
 7552SOL    HW223556   3.445   5.435   3.890
 7553SOL     OW23557   4.443   4.511   6.001
 7553SOL    HW123558   4.367   4.560   6.045
 7553SOL    HW223559   4.441   4.415   6.028
 7554SOL     OW23560   6.513   1.105   1.211
 7554SOL    HW123561   6.546   1.116   1.117
 7554SOL    HW223562   6.579   1.147   1.273
 7555SOL     OW23563   0.709   5.910   5.776
 7555SOL    HW123564   0.795   5.881   5.733
 7555SOL    HW223565   0.722   5.999   5.820
 7556SOL     OW23566   6.636   2.973   4.406
 7556SOL    HW123567   6.639   3.069   4.433
 7556SOL    HW223568   6.727   2.943   4.377
 7557SOL     OW23569   4.648   4.056   6.925
 7557SOL    HW123570   4.715   4.130   6.939
 7557SOL    HW223571   4.577   4.088   6.862
 7558SOL     OW23572   1.733   3.278   4.182
 7558SOL    HW123573   1.689   3.279   4.092
 7558SOL    HW223574   1.673   3.325   4.247
 7559SOL     OW23575   0.757   4.785   0.852
 7559SOL    HW123576   0.852   4.761   0.832
 7559SOL    HW223577   0.700   4.763   0.773
 7560SOL     OW23578   4.111   6.723   6.693
 7560SOL    HW123579   4.138   6.789   6.763
 7560SOL    HW223580   4.043   6.660   6.730
 7561SOL     OW23581   0.746   3.135   1.054
 7561SOL    HW123582   0.750   3.227   1.093
 7561SOL    HW223583   0.684   3.134   0.976
 7562SOL     OW23584   4.791   5.630   5.623
 7562SOL    HW123585   4.868   5.683   5.586
 7562SOL    HW223586   4.769   5.556   5.560
 7563SOL     OW23587   2.089   1.068   2.344
 7563SOL    HW123588   2.067   1.164   2.326
 7563SOL    HW223589   2.016   1.010   2.309
 7564SOL     OW23590   5.325   6.311   3.984
 7564SOL    HW123591   5.319   6.289   4.082
 7564SOL    HW223592   5.352   6.229   3.933
 7565SOL     OW23593   4.615   4.412   0.840
 7565SOL    HW123594   4.552   4.337   0.859
 7565SOL    HW223595   4.630   4.418   0.741
 7566SOL     OW23596   1.706   5.704   4.772
 7566SOL    HW123597   1.724   5.700   4.870
 7566SOL    HW223598   1.726   5.796   4.738
 7567SOL     OW23599   2.864   3.194   0.207
 7567SOL    HW123600   2.805   3.198   0.288
 7567SOL    HW223601   2.905   3.284   0.191
 7568SOL     OW23602   5.173   4.503   3.020
 7568SOL    HW123603   5.197   4.453   2.936
 7568SOL    HW223604   5.251   4.504   3.081
 7569SOL     OW23605   3.967   6.944   0.777
 7569SOL    HW123606   4.016   6.962   0.863
 7569SOL    HW223607   3.877   6.987   0.780
 7570SOL     OW23608   6.039   4.831   4.892
 7570SOL    HW123609   5.971   4.903   4.880
 7570SOL    HW223610   6.018   4.755   4.830
 7571SOL     OW23611   5.099   4.016   1.871
 7571SOL    HW123612   5.103   3.932   1.817
 7571SOL    HW223613   5.025   4.008   1.938
 7572SOL     OW23614   2.225   2.124   4.284
 7572SOL    HW123615   2.190   2.214   4.309
 7572SOL    HW223616   2.313   2.135   4.238
 7573SOL     OW23617   2.454   5.772   5.140
 7573SOL    HW123618   2.418   5.759   5.232
 7573SOL    HW223619   2.452   5.684   5.091
 7574SOL     OW23620   4.874   6.020   2.707
 7574SOL    HW123621   4.972   6.033   2.718
 7574SOL    HW223622   4.847   6.043   2.613
 7575SOL     OW23623   4.356   2.212   4.991
 7575SOL    HW123624   4.323   2.152   4.919
 7575SOL    HW223625   4.290   2.286   5.006
 7576SOL     OW23626   6.287   3.440   1.269
 7576SOL    HW123627   6.374   3.447   1.222
 7576SOL    HW223628   6.303   3.415   1.365
 7577SOL     OW23629   4.609   0.544   5.383
 7577SOL    HW123630   4.579   0.624   5.332
 7577SOL    HW223631   4.534   0.478   5.391
 7578SOL     OW23632   2.571   4.713   4.585
 7578SOL    HW123633   2.634   4.701   4.662
 7578SOL    HW223634   2.499   4.645   4.591
 7579SOL     OW23635   4.265   1.848   3.231
 7579SOL    HW123636   4.301   1.926   3.283
 7579SOL    HW223637   4.264   1.767   3.290
 7580SOL     OW23638   1.874   4.073   3.431
 7580SOL    HW123639   1.823   3.999   3.387
 7580SOL    HW223640   1.814   4.153   3.441
 7581SOL     OW23641   5.883   0.494   1.197
 7581SOL    HW123642   5.885   0.592   1.174
 7581SOL    HW223643   5.932   0.479   1.283
 7582SOL     OW23644   2.789   1.389   1.108
 7582SOL    HW123645   2.812   1.421   1.200
 7582SOL    HW223646   2.835   1.447   1.040
 7583SOL     OW23647   0.288   3.496   2.506
 7583SOL    HW123648   0.386   3.495   2.491
 7583SOL    HW223649   0.267   3.555   2.585
 7584SOL     OW23650   2.271   1.315   1.225
 7584SOL    HW123651   2.240   1.391   1.282
 7584SOL    HW223652   2.352   1.343   1.173
 7585SOL     OW23653   1.441   5.190   5.735
 7585SOL    HW123654   1.411   5.133   5.811
 7585SOL    HW223655   1.471   5.279   5.769
 7586SOL     OW23656   2.178   1.031   1.925
 7586SOL    HW123657   2.214   1.086   1.849
 7586SOL    HW223658   2.213   0.937   1.917
 7587SOL     OW23659   2.202   1.010   6.129
 7587SOL    HW123660   2.163   0.919   6.115
 7587SOL    HW223661   2.134   1.079   6.107
 7588SOL     OW23662   0.287   3.885   1.381
 7588SOL    HW123663   0.350   3.808   1.395
 7588SOL    HW223664   0.254   3.884   1.286
 7589SOL     OW23665   5.567   6.071   0.310
 7589SOL    HW123666   5.562   5.987   0.364
 7589SOL    HW223667   5.663   6.097   0.298
 7590SOL     OW23668   1.936   0.950   6.000
 7590SOL    HW123669   1.934   0.881   5.927
 7590SOL    HW223670   1.924   1.041   5.960
 7591SOL     OW23671   6.833   5.058   0.413
 7591SOL    HW123672   6.851   5.018   0.503
 7591SOL    HW223673   6.854   4.990   0.343
 7592SOL     OW23674   5.257   5.834   0.477
 7592SOL    HW123675   5.241   5.740   0.446
 7592SOL    HW223676   5.171   5.874   0.509
 7593SOL     OW23677   5.848   2.677   6.353
 7593SOL    HW123678   5.875   2.747   6.419
 7593SOL    HW223679   5.757   2.642   6.376
 7594SOL     OW23680   1.364   6.072   4.071
 7594SOL    HW123681   1.426   5.999   4.098
 7594SOL    HW223682   1.298   6.089   4.145
 7595SOL     OW23683   6.377   2.592   0.176
 7595SOL    HW123684   6.441   2.633   0.241
 7595SOL    HW223685   6.298   2.556   0.225
 7596SOL     OW23686   5.305   4.456   1.966
 7596SOL    HW123687   5.216   4.454   1.921
 7596SOL    HW223688   5.340   4.363   1.976
 7597SOL     OW23689   3.136   5.284   1.824
 7597SOL    HW123690   3.115   5.377   1.856
 7597SOL    HW223691   3.208   5.289   1.755
 7598SOL     OW23692   6.414   0.678   3.230
 7598SOL    HW123693   6.420   0.761   3.175
 7598SOL    HW223694   6.348   0.615   3.189
 7599SOL     OW23695   6.369   2.101   2.190
 7599SOL    HW123696   6.442   2.137   2.133
 7599SOL    HW223697   6.325   2.024   2.144
 7600SOL     OW23698   2.353   2.034   1.381
 7600SOL    HW123699   2.341   2.099   1.456
 7600SOL    HW223700   2.378   1.945   1.418
 7601SOL     OW23701   2.623   6.323   5.381
 7601SOL    HW123702   2.683   6.368   5.314
 7601SOL    HW223703   2.551   6.274   5.334
 7602SOL     OW23704   2.043   3.547   4.947
 7602SOL    HW123705   2.072   3.459   4.986
 7602SOL    HW223706   2.116   3.614   4.960
 7603SOL     OW23707   0.882   0.285   1.939
 7603SOL    HW123708   0.801   0.272   1.995
 7603SOL    HW223709   0.857   0.330   1.854
 7604SOL     OW23710   4.752   6.347   6.401
 7604SOL    HW123711   4.715   6.307   6.317
 7604SOL    HW223712   4.813   6.282   6.445
 7605SOL     OW23713   5.644   4.662   5.828
 7605SOL    HW123714   5.593   4.729   5.775
 7605SOL    HW223715   5.585   4.623   5.899
 7606SOL     OW23716   5.603   1.876   2.324
 7606SOL    HW123717   5.671   1.891   2.253
 7606SOL    HW223718   5.639   1.906   2.412
 7607SOL     OW23719   5.275   6.767   6.937
 7607SOL    HW123720   5.308   6.862   6.930
 7607SOL    HW223721   5.296   6.731   0.006
 7608SOL     OW23722   3.319   2.907   3.361
 7608SOL    HW123723   3.388   2.880   3.294
 7608SOL    HW223724   3.244   2.954   3.315
 7609SOL     OW23725   1.436   3.137   4.301
 7609SOL    HW123726   1.443   3.037   4.298
 7609SOL    HW223727   1.345   3.164   4.270
 7610SOL     OW23728   4.961   0.338   1.342
 7610SOL    HW123729   5.033   0.407   1.334
 7610SOL    HW223730   4.983   0.277   1.418
 7611SOL     OW23731   2.019   1.919   1.467
 7611SOL    HW123732   2.016   1.984   1.391
 7611SOL    HW223733   2.017   1.826   1.432
 7612SOL     OW23734   4.357   1.213   2.791
 7612SOL    HW123735   4.388   1.121   2.815
 7612SOL    HW223736   4.341   1.219   2.692
 7613SOL     OW23737   4.756   1.193   2.089
 7613SOL    HW123738   4.695   1.132   2.040
 7613SOL    HW223739   4.750   1.285   2.051
 7614SOL     OW23740   4.229   1.852   0.267
 7614SOL    HW123741   4.142   1.836   0.313
 7614SOL    HW223742   4.282   1.919   0.319
 7615SOL     OW23743   3.549   5.172   5.568
 7615SOL    HW123744   3.596   5.188   5.655
 7615SOL    HW223745   3.613   5.185   5.492
 7616SOL     OW23746   6.116   5.068   4.101
 7616SOL    HW123747   6.199   5.033   4.060
 7616SOL    HW223748   6.046   4.997   4.101
 7617SOL     OW23749   3.238   5.820   2.549
 7617SOL    HW123750   3.284   5.821   2.638
 7617SOL    HW223751   3.160   5.883   2.551
 7618SOL     OW23752   1.728   2.536   0.866
 7618SOL    HW123753   1.778   2.606   0.815
 7618SOL    HW223754   1.722   2.563   0.962
 7619SOL     OW23755   5.661   3.008   5.714
 7619SOL    HW123756   5.644   3.046   5.623
 7619SOL    HW223757   5.617   2.919   5.722
 7620SOL     OW23758   3.075   6.566   1.690
 7620SOL    HW123759   2.988   6.530   1.655
 7620SOL    HW223760   3.151   6.512   1.653
 7621SOL     OW23761   2.512   1.455   1.914
 7621SOL    HW123762   2.572   1.536   1.918
 7621SOL    HW223763   2.543   1.388   1.981
 7622SOL     OW23764   4.427   2.515   0.425
 7622SOL    HW123765   4.378   2.457   0.489
 7622SOL    HW223766   4.400   2.492   0.331
 7623SOL     OW23767   5.067   0.650   5.445
 7623SOL    HW123768   4.973   0.618   5.451
 7623SOL    HW223769   5.097   0.681   5.536
 7624SOL     OW23770   0.390   0.347   4.038
 7624SOL    HW123771   0.381   0.257   4.081
 7624SOL    HW223772   0.318   0.358   3.969
 7625SOL     OW23773   4.435   0.159   1.437
 7625SOL    HW123774   4.362   0.092   1.422
 7625SOL    HW223775   4.397   0.239   1.482
 7626SOL     OW23776   1.868   5.310   4.742
 7626SOL    HW123777   1.944   5.281   4.800
 7626SOL    HW223778   1.890   5.293   4.646
 7627SOL     OW23779   0.329   2.652   0.496
 7627SOL    HW123780   0.280   2.643   0.583
 7627SOL    HW223781   0.266   2.688   0.427
 7628SOL     OW23782   3.923   1.995   0.777
 7628SOL    HW123783   3.927   1.897   0.795
 7628SOL    HW223784   3.830   2.022   0.754
 7629SOL     OW23785   6.318   5.589   4.051
 7629SOL    HW123786   6.273   5.596   4.141
 7629SOL    HW223787   6.413   5.562   4.064
 7630SOL     OW23788   6.287   0.866   2.515
 7630SOL    HW123789   6.358   0.816   2.565
 7630SOL    HW223790   6.199   0.853   2.560
 7631SOL     OW23791   0.618   2.486   3.698
 7631SOL    HW123792   0.593   2.390   3.691
 7631SOL    HW223793   0.718   2.494   3.699
 7632SOL     OW23794   4.367   1.481   6.643
 7632SOL    HW123795   4.456   1.463   6.603
 7632SOL    HW223796   4.306   1.519   6.574
 7633SOL     OW23797   5.541   4.251   6.478
 7633SOL    HW123798   5.503   4.332   6.522
 7633SOL    HW223799   5.576   4.188   6.549
 7634SOL     OW23800   0.946   1.703   2.211
 7634SOL    HW123801   0.874   1.638   2.239
 7634SOL    HW223802   0.930   1.731   2.117
 7635SOL     OW23803   3.064   4.632   5.968
 7635SOL    HW123804   3.116   4.716   5.956
 7635SOL    HW223805   3.025   4.631   6.060
 7636SOL     OW23806   1.595   0.200   3.876
 7636SOL    HW123807   1.605   0.161   3.785
 7636SOL    HW223808   1.545   0.135   3.934
 7637SOL     OW23809   2.078   5.834   4.498
 7637SOL    HW123810   2.135   5.912   4.473
 7637SOL    HW223811   2.114   5.751   4.456
 7638SOL     OW23812   4.662   4.681   2.004
 7638SOL    HW123813   4.640   4.714   2.096
 7638SOL    HW223814   4.614   4.737   1.937
 7639SOL     OW23815   1.120   1.756   4.381
 7639SOL    HW123816   1.027   1.726   4.404
 7639SOL    HW223817   1.185   1.684   4.404
 7640SOL     OW23818   2.549   2.437   6.640
 7640SOL    HW123819   2.647   2.421   6.627
 7640SOL    HW223820   2.507   2.462   6.553
 7641SOL     OW23821   6.506   3.570   2.844
 7641SOL    HW123822   6.578   3.584   2.912
 7641SOL    HW223823   6.422   3.539   2.889
 7642SOL     OW23824   2.996   1.657   2.594
 7642SOL    HW123825   2.935   1.627   2.668
 7642SOL    HW223826   3.003   1.757   2.595
 7643SOL     OW23827   4.801   2.854   2.854
 7643SOL    HW123828   4.858   2.935   2.869
 7643SOL    HW223829   4.794   2.802   2.938
 7644SOL     OW23830   0.105   3.569   3.354
 7644SOL    HW123831   0.039   3.496   3.373
 7644SOL    HW223832   0.059   3.657   3.359
 7645SOL     OW23833   4.721   4.149   6.636
 7645SOL    HW123834   4.631   4.135   6.677
 7645SOL    HW223835   4.732   4.087   6.558
 7646SOL     OW23836   1.624   2.094   2.421
 7646SOL    HW123837   1.637   2.183   2.376
 7646SOL    HW223838   1.656   2.022   2.360
 7647SOL     OW23839   2.226   4.252   1.528
 7647SOL    HW123840   2.128   4.270   1.523
 7647SOL    HW223841   2.265   4.252   1.436
 7648SOL     OW23842   4.046   0.598   3.469
 7648SOL    HW123843   4.039   0.661   3.391
 7648SOL    HW223844   3.995   0.635   3.546
 7649SOL     OW23845   2.787   0.948   1.422
 7649SOL    HW123846   2.730   0.896   1.485
 7649SOL    HW223847   2.748   0.944   1.330
 7650SOL     OW23848   6.194   4.788   2.828
 7650SOL    HW123849   6.131   4.860   2.855
 7650SOL    HW223850   6.189   4.712   2.893
 7651SOL     OW23851   3.883   1.468   6.300
 7651SOL    HW123852   3.909   1.395   6.237
 7651SOL    HW223853   3.911   1.556   6.263
 7652SOL     OW23854   0.751   2.817   2.311
 7652SOL    HW123855   0.808   2.749   2.265
 7652SOL    HW223856   0.809   2.889   2.349
 7653SOL     OW23857   3.197   2.337   1.455
 7653SOL    HW123858   3.216   2.354   1.552
 7653SOL    HW223859   3.236   2.410   1.400
 7654SOL     OW23860   4.922   3.739   3.612
 7654SOL    HW123861   4.877   3.665   3.662
 7654SOL    HW223862   4.874   3.825   3.628
 7655SOL     OW23863   4.308   6.292   5.594
 7655SOL    HW123864   4.215   6.274   5.561
 7655SOL    HW223865   4.304   6.349   5.676
 7656SOL     OW23866   0.991   6.088   4.910
 7656SOL    HW123867   0.996   6.026   4.833
 7656SOL    HW223868   1.069   6.151   4.908
 7657SOL     OW23869   4.384   1.135   4.312
 7657SOL    HW123870   4.467   1.094   4.276
 7657SOL    HW223871   4.346   1.075   4.384
 7658SOL     OW23872   4.182   0.598   6.097
 7658SOL    HW123873   4.121   0.677   6.108
 7658SOL    HW223874   4.265   0.613   6.150
 7659SOL     OW23875   5.905   7.011   0.888
 7659SOL    HW123876   5.953   0.048   0.954
 7659SOL    HW223877   5.845   0.046   0.831
 7660SOL     OW23878   5.541   4.609   4.286
 7660SOL    HW123879   5.470   4.667   4.326
 7660SOL    HW223880   5.604   4.665   4.232
 7661SOL     OW23881   5.535   3.395   3.078
 7661SOL    HW123882   5.467   3.421   3.147
 7661SOL    HW223883   5.490   3.346   3.004
 7662SOL     OW23884   0.106   5.351   1.968
 7662SOL    HW123885   0.166   5.271   1.970
 7662SOL    HW223886   0.138   5.416   1.900
 7663SOL     OW23887   0.094   5.428   0.744
 7663SOL    HW123888   0.162   5.378   0.689
 7663SOL    HW223889   0.054   5.366   0.811
 7664SOL     OW23890   2.102   5.594   4.368
 7664SOL    HW123891   2.020   5.565   4.319
 7664SOL    HW223892   2.178   5.602   4.303
 7665SOL     OW23893   2.677   6.482   5.161
 7665SOL    HW123894   2.761   6.428   5.148
 7665SOL    HW223895   2.693   6.576   5.133
 7666SOL     OW23896   1.000   1.046   1.095
 7666SOL    HW123897   1.057   1.076   1.173
 7666SOL    HW223898   1.058   1.001   1.028
 7667SOL     OW23899   4.957   5.498   6.403
 7667SOL    HW123900   4.890   5.509   6.330
 7667SOL    HW223901   5.047   5.526   6.371
 7668SOL     OW23902   3.166   3.916   1.429
 7668SOL    HW123903   3.156   3.845   1.359
 7668SOL    HW223904   3.081   3.969   1.435
 7669SOL     OW23905   4.854   6.487   4.438
 7669SOL    HW123906   4.763   6.520   4.411
 7669SOL    HW223907   4.866   6.394   4.405
 7670SOL     OW23908   2.227   4.713   0.855
 7670SOL    HW123909   2.245   4.755   0.944
 7670SOL    HW223910   2.278   4.761   0.784
 7671SOL     OW23911   5.936   2.408   4.333
 7671SOL    HW123912   6.035   2.415   4.344
 7671SOL    HW223913   5.891   2.434   4.418
 7672SOL     OW23914   5.405   0.973   2.532
 7672SOL    HW123915   5.479   1.040   2.523
 7672SOL    HW223916   5.324   1.007   2.485
 7673SOL     OW23917   0.700   4.860   1.108
 7673SOL    HW123918   0.774   4.830   1.168
 7673SOL    HW223919   0.721   4.835   1.014
 7674SOL     OW23920   6.286   0.794   4.906
 7674SOL    HW123921   6.216   0.723   4.897
 7674SOL    HW223922   6.316   0.799   5.002
 7675SOL     OW23923   4.516   6.750   3.714
 7675SOL    HW123924   4.456   6.704   3.779
 7675SOL    HW223925   4.608   6.756   3.752
 7676SOL     OW23926   2.169   6.904   0.961
 7676SOL    HW123927   2.232   6.870   0.891
 7676SOL    HW223928   2.153   7.002   0.948
 7677SOL     OW23929   2.205   2.932   2.913
 7677SOL    HW123930   2.194   3.031   2.921
 7677SOL    HW223931   2.255   2.897   2.992
 7678SOL     OW23932   5.830   0.068   0.001
 7678SOL    HW123933   5.851   6.993   7.008
 7678SOL    HW223934   5.821   0.085   0.099
 7679SOL     OW23935   0.889   5.194   5.250
 7679SOL    HW123936   0.928   5.178   5.341
 7679SOL    HW223937   0.961   5.223   5.187
 7680SOL     OW23938   4.166   2.013   6.676
 7680SOL    HW123939   4.081   2.056   6.644
 7680SOL    HW223940   4.229   2.005   6.599
 7681SOL     OW23941   2.965   1.595   7.017
 7681SOL    HW123942   2.873   1.605   6.978
 7681SOL    HW223943   2.959   1.545   0.082
 7682SOL     OW23944   3.343   6.749   1.139
 7682SOL    HW123945   3.419   6.769   1.077
 7682SOL    HW223946   3.307   6.835   1.176
 7683SOL     OW23947   5.348   1.691   3.230
 7683SOL    HW123948   5.376   1.689   3.134
 7683SOL    HW223949   5.272   1.628   3.244
 7684SOL     OW23950   4.030   1.976   6.054
 7684SOL    HW123951   4.129   1.985   6.049
 7684SOL    HW223952   4.005   1.916   6.130
 7685SOL     OW23953   3.423   3.238   0.938
 7685SOL    HW123954   3.330   3.245   0.901
 7685SOL    HW223955   3.487   3.286   0.878
 7686SOL     OW23956   3.409   0.305   4.001
 7686SOL    HW123957   3.427   0.341   4.092
 7686SOL    HW223958   3.407   0.381   3.935
 7687SOL     OW23959   4.813   4.940   5.446
 7687SOL    HW123960   4.865   4.869   5.494
 7687SOL    HW223961   4.741   4.897   5.392
 7688SOL     OW23962   6.977   6.447   3.981
 7688SOL    HW123963   6.991   6.528   4.038
 7688SOL    HW223964   0.045   6.407   3.959
 7689SOL     OW23965   3.831   6.426   4.498
 7689SOL    HW123966   3.862   6.511   4.541
 7689SOL    HW223967   3.763   6.446   4.427
 7690SOL     OW23968   0.277   5.995   3.433
 7690SOL    HW123969   0.228   6.030   3.512
 7690SOL    HW223970   0.228   6.019   3.349
 7691SOL     OW23971   5.343   3.955   4.671
 7691SOL    HW123972   5.342   3.858   4.648
 7691SOL    HW223973   5.418   3.975   4.734
 7692SOL     OW23974   2.211   6.538   1.866
 7692SOL    HW123975   2.126   6.500   1.903
 7692SOL    HW223976   2.213   6.525   1.767
 7693SOL     OW23977   5.354   1.691   6.883
 7693SOL    HW123978   5.310   1.635   6.954
 7693SOL    HW223979   5.286   1.750   6.840
 7694SOL     OW23980   0.209   4.925   4.436
 7694SOL    HW123981   0.208   4.924   4.336
 7694SOL    HW223982   0.299   4.896   4.469
 7695SOL     OW23983   4.298   0.400   6.866
 7695SOL    HW123984   4.303   0.307   6.903
 7695SOL    HW223985   4.275   0.396   6.769
 7696SOL     OW23986   0.834   2.992   5.739
 7696SOL    HW123987   0.828   3.001   5.640
 7696SOL    HW223988   0.797   3.074   5.782
 7697SOL     OW23989   3.969   1.813   1.692
 7697SOL    HW123990   3.924   1.829   1.605
 7697SOL    HW223991   3.902   1.812   1.766
 7698SOL     OW23992   6.876   3.315   5.583
 7698SOL    HW123993   6.802   3.338   5.647
 7698SOL    HW223994   6.959   3.294   5.635
 7699SOL     OW23995   2.337   5.024   6.905
 7699SOL    HW123996   2.417   5.026   6.965
 7699SOL    HW223997   2.290   4.936   6.915
 7700SOL     OW23998   5.044   6.429   5.107
 7700SOL    HW123999   4.952   6.391   5.117
 7700SOL    HW224000   5.110   6.354   5.101
 7701SOL     OW24001   5.925   1.708   5.029
 7701SOL    HW124002   5.870   1.787   5.058
 7701SOL    HW224003   5.988   1.684   5.103
 7702SOL     OW24004   2.290   6.366   6.291
 7702SOL    HW124005   2.376   6.320   6.269
 7702SOL    HW224006   2.289   6.391   6.387
 7703SOL     OW24007   0.078   1.811   6.478
 7703SOL    HW124008   0.165   1.790   6.434
 7703SOL    HW224009   0.020   1.861   6.414
 7704SOL     OW24010   4.662   4.243   0.186
 7704SOL    HW124011   4.679   4.160   0.240
 7704SOL    HW224012   4.573   4.235   0.141
 7705SOL     OW24013   3.211   5.250   4.801
 7705SOL    HW124014   3.285   5.305   4.841
 7705SOL    HW224015   3.124   5.299   4.812
 7706SOL     OW24016   6.792   0.964   4.862
 7706SOL    HW124017   6.770   1.002   4.772
 7706SOL    HW224018   6.823   0.870   4.852
 7707SOL     OW24019   0.374   4.803   6.002
 7707SOL    HW124020   0.401   4.792   6.098
 7707SOL    HW224021   0.427   4.876   5.960
 7708SOL     OW24022   4.350   6.890   4.804
 7708SOL    HW124023   4.277   6.904   4.872
 7708SOL    HW224024   4.310   6.886   4.713
 7709SOL     OW24025   3.916   2.133   1.878
 7709SOL    HW124026   3.834   2.165   1.927
 7709SOL    HW224027   3.891   2.109   1.784
 7710SOL     OW24028   2.699   1.680   6.958
 7710SOL    HW124029   2.670   1.770   6.991
 7710SOL    HW224030   2.715   1.684   6.859
 7711SOL     OW24031   5.884   6.520   6.110
 7711SOL    HW124032   5.897   6.615   6.137
 7711SOL    HW224033   5.859   6.466   6.190
 7712SOL     OW24034   5.348   5.628   1.252
 7712SOL    HW124035   5.341   5.549   1.313
 7712SOL    HW224036   5.257   5.667   1.236
 7713SOL     OW24037   1.585   4.742   6.710
 7713SOL    HW124038   1.509   4.679   6.695
 7713SOL    HW224039   1.629   4.720   6.798
 7714SOL     OW24040   5.302   4.583   3.766
 7714SOL    HW124041   5.255   4.592   3.853
 7714SOL    HW224042   5.400   4.596   3.779
 7715SOL     OW24043   4.435   1.393   0.772
 7715SOL    HW124044   4.363   1.436   0.716
 7715SOL    HW224045   4.515   1.453   0.775
 7716SOL     OW24046   4.550   2.074   2.981
 7716SOL    HW124047   4.458   2.113   2.984
 7716SOL    HW224048   4.560   2.018   2.899
 7717SOL     OW24049   3.738   1.076   6.319
 7717SOL    HW124050   3.707   1.084   6.225
 7717SOL    HW224051   3.834   1.047   6.321
 7718SOL     OW24052   2.875   6.035   3.723
 7718SOL    HW124053   2.832   5.945   3.724
 7718SOL    HW224054   2.839   6.090   3.798
 7719SOL     OW24055   6.431   1.760   4.467
 7719SOL    HW124056   6.441   1.794   4.561
 7719SOL    HW224057   6.347   1.795   4.428
 7720SOL     OW24058   5.820   5.763   1.925
 7720SOL    HW124059   5.769   5.805   1.999
 7720SOL    HW224060   5.868   5.682   1.959
 7721SOL     OW24061   1.586   4.292   2.672
 7721SOL    HW124062   1.514   4.245   2.723
 7721SOL    HW224063   1.675   4.257   2.700
 7722SOL     OW24064   6.982   5.031   4.264
 7722SOL    HW124065   6.891   5.059   4.233
 7722SOL    HW224066   6.974   4.969   4.342
 7723SOL     OW24067   6.371   3.179   0.360
 7723SOL    HW124068   6.453   3.206   0.310
 7723SOL    HW224069   6.293   3.232   0.328
 7724SOL     OW24070   2.074   4.436   1.129
 7724SOL    HW124071   2.168   4.451   1.160
 7724SOL    HW224072   2.021   4.520   1.141
 7725SOL     OW24073   4.957   3.438   4.521
 7725SOL    HW124074   4.938   3.495   4.601
 7725SOL    HW224075   4.932   3.489   4.438
 7726SOL     OW24076   6.814   4.687   3.701
 7726SOL    HW124077   6.828   4.777   3.742
 7726SOL    HW224078   6.717   4.665   3.703
 7727SOL     OW24079   6.840   2.557   1.738
 7727SOL    HW124080   6.771   2.577   1.807
 7727SOL    HW224081   6.851   2.458   1.729
 7728SOL     OW24082   2.618   2.328   2.784
 7728SOL    HW124083   2.700   2.309   2.729
 7728SOL    HW224084   2.546   2.363   2.725
 7729SOL     OW24085   5.548   2.118   0.621
 7729SOL    HW124086   5.578   2.213   0.612
 7729SOL    HW224087   5.450   2.115   0.641
 7730SOL     OW24088   5.379   0.561   2.086
 7730SOL    HW124089   5.299   0.617   2.105
 7730SOL    HW224090   5.408   0.515   2.170
 7731SOL     OW24091   6.298   1.480   6.216
 7731SOL    HW124092   6.384   1.509   6.173
 7731SOL    HW224093   6.282   1.383   6.197
 7732SOL     OW24094   4.296   4.826   0.836
 7732SOL    HW124095   4.320   4.766   0.760
 7732SOL    HW224096   4.335   4.917   0.821
 7733SOL     OW24097   3.146   0.127   2.418
 7733SOL    HW124098   3.174   0.039   2.456
 7733SOL    HW224099   3.135   0.194   2.492
 7734SOL     OW24100   1.487   1.658   3.396
 7734SOL    HW124101   1.523   1.651   3.303
 7734SOL    HW224102   1.445   1.748   3.409
 7735SOL     OW24103   5.151   4.092   0.339
 7735SOL    HW124104   5.141   4.166   0.272
 7735SOL    HW224105   5.108   4.009   0.302
 7736SOL     OW24106   6.401   4.756   6.275
 7736SOL    HW124107   6.451   4.818   6.336
 7736SOL    HW224108   6.408   4.662   6.308
 7737SOL     OW24109   5.031   1.253   0.604
 7737SOL    HW124110   5.089   1.313   0.549
 7737SOL    HW224111   4.937   1.286   0.601
 7738SOL     OW24112   2.550   5.037   6.726
 7738SOL    HW124113   2.474   5.023   6.790
 7738SOL    HW224114   2.626   5.081   6.774
 7739SOL     OW24115   6.391   3.281   1.531
 7739SOL    HW124116   6.316   3.218   1.550
 7739SOL    HW224117   6.478   3.235   1.549
 7740SOL     OW24118   0.393   6.750   3.237
 7740SOL    HW124119   0.485   6.776   3.266
 7740SOL    HW224120   0.338   6.728   3.317
 7741SOL     OW24121   2.577   5.677   4.417
 7741SOL    HW124122   2.549   5.603   4.355
 7741SOL    HW224123   2.627   5.639   4.494
 7742SOL     OW24124   6.270   0.897   3.565
 7742SOL    HW124125   6.225   0.894   3.476
 7742SOL    HW224126   6.369   0.904   3.552
 7743SOL     OW24127   4.439   2.353   3.066
 7743SOL    HW124128   4.353   2.380   3.110
 7743SOL    HW224129   4.515   2.371   3.128
 7744SOL     OW24130   6.951   0.251   4.977
 7744SOL    HW124131   6.897   0.205   4.907
 7744SOL    HW224132   0.026   0.232   4.964
 7745SOL     OW24133   4.605   3.747   5.527
 7745SOL    HW124134   4.541   3.734   5.603
 7745SOL    HW224135   4.589   3.677   5.458
 7746SOL     OW24136   1.951   1.000   0.483
 7746SOL    HW124137   1.930   0.998   0.580
 7746SOL    HW224138   2.033   1.057   0.468
 7747SOL     OW24139   5.727   5.759   0.903
 7747SOL    HW124140   5.780   5.755   0.818
 7747SOL    HW224141   5.644   5.704   0.893
 7748SOL     OW24142   3.369   3.603   0.130
 7748SOL    HW124143   3.383   3.543   0.052
 7748SOL    HW224144   3.346   3.695   0.098
 7749SOL     OW24145   5.877   3.016   6.102
 7749SOL    HW124146   5.960   2.994   6.051
 7749SOL    HW224147   5.893   3.005   6.200
 7750SOL     OW24148   6.087   4.675   2.614
 7750SOL    HW124149   5.987   4.677   2.619
 7750SOL    HW224150   6.126   4.729   2.688
 7751SOL     OW24151   0.300   2.589   2.338
 7751SOL    HW124152   0.361   2.511   2.352
 7751SOL    HW224153   0.210   2.556   2.311
 7752SOL     OW24154   4.878   2.093   3.291
 7752SOL    HW124155   4.884   2.162   3.219
 7752SOL    HW224156   4.969   2.074   3.327
 7753SOL     OW24157   3.123   1.808   4.856
 7753SOL    HW124158   3.143   1.905   4.867
 7753SOL    HW224159   3.159   1.776   4.769
 7754SOL     OW24160   5.233   6.484   2.386
 7754SOL    HW124161   5.323   6.510   2.353
 7754SOL    HW224162   5.185   6.431   2.317
 7755SOL     OW24163   0.581   5.164   4.239
 7755SOL    HW124164   0.599   5.088   4.301
 7755SOL    HW224165   0.483   5.181   4.233
 7756SOL     OW24166   2.844   5.041   1.998
 7756SOL    HW124167   2.769   4.977   1.980
 7756SOL    HW224168   2.927   4.990   2.021
 7757SOL     OW24169   0.441   4.236   1.961
 7757SOL    HW124170   0.438   4.217   1.863
 7757SOL    HW224171   0.442   4.335   1.976
 7758SOL     OW24172   1.438   1.512   5.318
 7758SOL    HW124173   1.538   1.500   5.319
 7758SOL    HW224174   1.398   1.453   5.248
 7759SOL     OW24175   3.054   2.136   1.076
 7759SOL    HW124176   2.968   2.146   1.028
 7759SOL    HW224177   3.126   2.111   1.012
 7760SOL     OW24178   5.076   3.133   6.979
 7760SOL    HW124179   5.055   3.052   6.924
 7760SOL    HW224180   5.130   3.106   0.037
 7761SOL     OW24181   4.843   5.555   3.882
 7761SOL    HW124182   4.942   5.550   3.867
 7761SOL    HW224183   4.825   5.587   3.974
 7762SOL     OW24184   5.906   1.610   2.077
 7762SOL    HW124185   5.876   1.544   2.145
 7762SOL    HW224186   5.926   1.563   1.991
 7763SOL     OW24187   2.538   0.330   4.134
 7763SOL    HW124188   2.615   0.276   4.170
 7763SOL    HW224189   2.464   0.331   4.200
 7764SOL     OW24190   2.253   4.050   5.929
 7764SOL    HW124191   2.315   4.041   5.851
 7764SOL    HW224192   2.289   4.118   5.993
 7765SOL     OW24193   5.522   3.122   4.697
 7765SOL    HW124194   5.534   3.207   4.748
 7765SOL    HW224195   5.428   3.089   4.710
 7766SOL     OW24196   6.275   4.088   6.691
 7766SOL    HW124197   6.216   4.100   6.771
 7766SOL    HW224198   6.220   4.088   6.608
 7767SOL     OW24199   3.220   0.586   4.052
 7767SOL    HW124200   3.185   0.680   4.051
 7767SOL    HW224201   3.259   0.565   3.962
 7768SOL     OW24202   3.936   5.320   3.709
 7768SOL    HW124203   3.908   5.415   3.708
 7768SOL    HW224204   4.027   5.312   3.752
 7769SOL     OW24205   3.979   2.549   5.683
 7769SOL    HW124206   4.040   2.566   5.605
 7769SOL    HW224207   3.967   2.634   5.735
 7770SOL     OW24208   1.867   2.857   4.233
 7770SOL    HW124209   1.778   2.891   4.202
 7770SOL    HW224210   1.912   2.808   4.159
 7771SOL     OW24211   2.550   3.442   6.430
 7771SOL    HW124212   2.525   3.471   6.337
 7771SOL    HW224213   2.526   3.514   6.495
 7772SOL     OW24214   5.629   7.010   2.026
 7772SOL    HW124215   5.640   0.026   1.934
 7772SOL    HW224216   5.532   6.988   2.042
 7773SOL     OW24217   2.830   6.036   0.271
 7773SOL    HW124218   2.739   6.075   0.280
 7773SOL    HW224219   2.897   6.097   0.312
 7774SOL     OW24220   4.778   1.172   2.693
 7774SOL    HW124221   4.706   1.189   2.761
 7774SOL    HW224222   4.788   1.252   2.634
 7775SOL     OW24223   2.617   2.166   1.577
 7775SOL    HW124224   2.640   2.237   1.510
 7775SOL    HW224225   2.549   2.104   1.537
 7776SOL     OW24226   2.087   1.336   4.329
 7776SOL    HW124227   2.009   1.392   4.303
 7776SOL    HW224228   2.077   1.245   4.288
 7777SOL     OW24229   5.781   5.882   4.032
 7777SOL    HW124230   5.856   5.842   3.981
 7777SOL    HW224231   5.732   5.810   4.082
 7778SOL     OW24232   6.889   4.660   3.036
 7778SOL    HW124233   6.823   4.671   3.111
 7778SOL    HW224234   6.956   4.734   3.041
 7779SOL     OW24235   4.621   5.997   1.934
 7779SOL    HW124236   4.587   6.076   1.985
 7779SOL    HW224237   4.566   5.917   1.957
 7780SOL     OW24238   5.917   6.375   5.118
 7780SOL    HW124239   5.944   6.413   5.207
 7780SOL    HW224240   5.982   6.304   5.091
 7781SOL     OW24241   1.692   2.821   0.987
 7781SOL    HW124242   1.645   2.751   1.040
 7781SOL    HW224243   1.669   2.911   1.022
 7782SOL     OW24244   5.223   3.067   4.733
 7782SOL    HW124245   5.231   3.011   4.816
 7782SOL    HW224246   5.191   3.158   4.758
 7783SOL     OW24247   1.811   6.426   4.552
 7783SOL    HW124248   1.884   6.491   4.529
 7783SOL    HW224249   1.725   6.458   4.513
 7784SOL     OW24250   1.624   2.100   1.857
 7784SOL    HW124251   1.659   2.097   1.764
 7784SOL    HW224252   1.614   2.007   1.893
 7785SOL     OW24253   6.630   6.333   3.458
 7785SOL    HW124254   6.581   6.419   3.453
 7785SOL    HW224255   6.627   6.287   3.369
 7786SOL     OW24256   4.227   1.219   5.492
 7786SOL    HW124257   4.268   1.301   5.533
 7786SOL    HW224258   4.278   1.195   5.410
 7787SOL     OW24259   2.732   2.188   1.862
 7787SOL    HW124260   2.740   2.218   1.768
 7787SOL    HW224261   2.794   2.240   1.920
 7788SOL     OW24262   0.333   4.828   1.315
 7788SOL    HW124263   0.375   4.911   1.277
 7788SOL    HW224264   0.241   4.849   1.347
 7789SOL     OW24265   3.320   1.090   5.846
 7789SOL    HW124266   3.349   1.168   5.791
 7789SOL    HW224267   3.266   1.027   5.790
 7790SOL     OW24268   4.228   4.490   1.350
 7790SOL    HW124269   4.201   4.584   1.329
 7790SOL    HW224270   4.233   4.477   1.449
 7791SOL     OW24271   2.941   5.754   2.918
 7791SOL    HW124272   2.891   5.669   2.933
 7791SOL    HW224273   2.971   5.759   2.823
 7792SOL     OW24274   0.862   1.647   3.141
 7792SOL    HW124275   0.914   1.726   3.173
 7792SOL    HW224276   0.780   1.677   3.093
 7793SOL     OW24277   5.161   0.569   0.214
 7793SOL    HW124278   5.206   0.492   0.169
 7793SOL    HW224279   5.074   0.538   0.252
 7794SOL     OW24280   0.997   0.056   3.015
 7794SOL    HW124281   1.002   6.989   2.971
 7794SOL    HW224282   0.901   0.082   3.026
 7795SOL     OW24283   3.331   4.548   0.563
 7795SOL    HW124284   3.302   4.512   0.474
 7795SOL    HW224285   3.315   4.647   0.565
 7796SOL     OW24286   3.294   2.760   0.190
 7796SOL    HW124287   3.313   2.816   0.109
 7796SOL    HW224288   3.377   2.713   0.218
 7797SOL     OW24289   0.846   6.177   3.262
 7797SOL    HW124290   0.928   6.121   3.251
 7797SOL    HW224291   0.780   6.129   3.320
 7798SOL     OW24292   1.347   3.590   0.661
 7798SOL    HW124293   1.372   3.618   0.568
 7798SOL    HW224294   1.253   3.616   0.680
 7799SOL     OW24295   3.098   5.913   3.612
 7799SOL    HW124296   3.048   5.983   3.662
 7799SOL    HW224297   3.036   5.862   3.553
 7800SOL     OW24298   0.571   6.598   2.251
 7800SOL    HW124299   0.515   6.652   2.188
 7800SOL    HW224300   0.615   6.659   2.318
 7801SOL     OW24301   1.286   1.913   2.047
 7801SOL    HW124302   1.285   1.976   1.969
 7801SOL    HW224303   1.234   1.953   2.123
 7802SOL     OW24304   6.754   3.519   4.492
 7802SOL    HW124305   6.775   3.491   4.586
 7802SOL    HW224306   6.696   3.600   4.494
 7803SOL     OW24307   2.983   2.372   5.572
 7803SOL    HW124308   2.958   2.296   5.632
 7803SOL    HW224309   3.072   2.355   5.531
 7804SOL     OW24310   3.521   2.075   4.981
 7804SOL    HW124311   3.548   1.988   5.022
 7804SOL    HW224312   3.603   2.129   4.959
 7805SOL     OW24313   5.483   2.792   6.811
 7805SOL    HW124314   5.403   2.798   6.870
 7805SOL    HW224315   5.543   2.871   6.829
 7806SOL     OW24316   6.722   1.489   5.901
 7806SOL    HW124317   6.791   1.427   5.941
 7806SOL    HW224318   6.720   1.476   5.802
 7807SOL     OW24319   1.955   4.896   6.055
 7807SOL    HW124320   1.890   4.968   6.029
 7807SOL    HW224321   1.973   4.902   6.153
 7808SOL     OW24322   6.897   3.772   3.409
 7808SOL    HW124323   6.908   3.756   3.311
 7808SOL    HW224324   6.814   3.726   3.441
 7809SOL     OW24325   4.798   5.311   2.461
 7809SOL    HW124326   4.865   5.341   2.529
 7809SOL    HW224327   4.816   5.358   2.375
 7810SOL     OW24328   2.525   6.660   6.417
 7810SOL    HW124329   2.526   6.749   6.463
 7810SOL    HW224330   2.584   6.664   6.337
 7811SOL     OW24331   1.474   6.078   3.091
 7811SOL    HW124332   1.452   6.023   3.010
 7811SOL    HW224333   1.404   6.148   3.103
 7812SOL     OW24334   3.083   1.179   6.183
 7812SOL    HW124335   3.027   1.240   6.238
 7812SOL    HW224336   3.072   1.201   6.086
 7813SOL     OW24337   5.320   0.472   0.759
 7813SOL    HW124338   5.360   0.381   0.750
 7813SOL    HW224339   5.236   0.477   0.706
 7814SOL     OW24340   6.297   2.917   2.622
 7814SOL    HW124341   6.245   2.996   2.653
 7814SOL    HW224342   6.335   2.934   2.531
 7815SOL     OW24343   5.156   4.930   4.835
 7815SOL    HW124344   5.242   4.927   4.884
 7815SOL    HW224345   5.080   4.929   4.900
 7816SOL     OW24346   0.350   1.458   5.555
 7816SOL    HW124347   0.353   1.381   5.618
 7816SOL    HW224348   0.425   1.451   5.490
 7817SOL     OW24349   4.148   2.908   0.064
 7817SOL    HW124350   4.175   2.863   0.149
 7817SOL    HW224351   4.170   2.849   7.009
 7818SOL     OW24352   5.986   0.717   3.121
 7818SOL    HW124353   5.929   0.700   3.202
 7818SOL    HW224354   5.932   0.699   3.039
 7819SOL     OW24355   1.401   3.009   4.555
 7819SOL    HW124356   1.473   3.068   4.520
 7819SOL    HW224357   1.325   3.007   4.491
 7820SOL     OW24358   1.298   0.780   4.789
 7820SOL    HW124359   1.219   0.825   4.832
 7820SOL    HW224360   1.345   0.844   4.729
 7821SOL     OW24361   3.980   6.073   0.316
 7821SOL    HW124362   4.048   6.146   0.315
 7821SOL    HW224363   4.007   6.001   0.253
 7822SOL     OW24364   0.035   1.080   4.828
 7822SOL    HW124365   6.974   1.031   4.856
 7822SOL    HW224366   0.031   1.174   4.862
 7823SOL     OW24367   2.463   3.530   5.334
 7823SOL    HW124368   2.461   3.493   5.427
 7823SOL    HW224369   2.370   3.531   5.297
 7824SOL     OW24370   5.175   3.475   2.751
 7824SOL    HW124371   5.227   3.514   2.827
 7824SOL    HW224372   5.081   3.456   2.781
 7825SOL     OW24373   3.521   3.313   2.277
 7825SOL    HW124374   3.598   3.275   2.227
 7825SOL    HW224375   3.465   3.239   2.314
 7826SOL     OW24376   6.610   0.444   1.310
 7826SOL    HW124377   6.551   0.481   1.238
 7826SOL    HW224378   6.559   0.438   1.395
 7827SOL     OW24379   4.511   3.481   0.677
 7827SOL    HW124380   4.468   3.480   0.586
 7827SOL    HW224381   4.483   3.398   0.727
 7828SOL     OW24382   0.096   5.935   0.478
 7828SOL    HW124383   0.000   5.963   0.479
 7828SOL    HW224384   0.114   5.874   0.556
 7829SOL     OW24385   4.116   3.275   3.084
 7829SOL    HW124386   4.211   3.244   3.089
 7829SOL    HW224387   4.055   3.196   3.087
 7830SOL     OW24388   5.752   3.898   0.220
 7830SOL    HW124389   5.695   3.839   0.276
 7830SOL    HW224390   5.744   3.993   0.251
 7831SOL     OW24391   1.701   2.802   6.922
 7831SOL    HW124392   1.728   2.715   6.880
 7831SOL    HW224393   1.660   2.861   6.852
 7832SOL     OW24394   2.554   2.508   4.969
 7832SOL    HW124395   2.523   2.423   4.927
 7832SOL    HW224396   2.490   2.534   5.042
 7833SOL     OW24397   0.931   6.871   0.887
 7833SOL    HW124398   0.913   6.787   0.938
 7833SOL    HW224399   0.906   6.858   0.791
 7834SOL     OW24400   6.739   0.206   1.663
 7834SOL    HW124401   6.757   0.226   1.759
 7834SOL    HW224402   6.657   0.256   1.634
 7835SOL     OW24403   2.731   2.048   4.294
 7835SOL    HW124404   2.741   2.006   4.204
 7835SOL    HW224405   2.759   1.983   4.364
 7836SOL     OW24406   2.235   0.773   6.730
 7836SOL    HW124407   2.237   0.750   6.827
 7836SOL    HW224408   2.220   0.872   6.720
 7837SOL     OW24409   4.730   6.135   2.901
 7837SOL    HW124410   4.768   6.076   2.829
 7837SOL    HW224411   4.701   6.222   2.862
 7838SOL     OW24412   3.115   6.564   4.166
 7838SOL    HW124413   3.029   6.514   4.157
 7838SOL    HW224414   3.159   6.571   4.076
 7839SOL     OW24415   0.124   4.786   3.804
 7839SOL    HW124416   0.057   4.852   3.837
 7839SOL    HW224417   0.138   4.798   3.706
 7840SOL     OW24418   5.081   2.898   5.483
 7840SOL    HW124419   5.120   2.846   5.407
 7840SOL    HW224420   5.130   2.874   5.567
 7841SOL     OW24421   1.291   1.578   6.479
 7841SOL    HW124422   1.272   1.486   6.446
 7841SOL    HW224423   1.297   1.641   6.401
 7842SOL     OW24424   2.838   0.608   2.119
 7842SOL    HW124425   2.761   0.638   2.062
 7842SOL    HW224426   2.921   0.604   2.063
 7843SOL     OW24427   6.827   3.221   1.132
 7843SOL    HW124428   6.849   3.291   1.201
 7843SOL    HW224429   6.733   3.191   1.145
 7844SOL     OW24430   3.553   1.261   4.038
 7844SOL    HW124431   3.623   1.256   4.108
 7844SOL    HW224432   3.591   1.231   3.950
 7845SOL     OW24433   1.016   0.750   3.908
 7845SOL    HW124434   1.099   0.733   3.855
 7845SOL    HW224435   1.012   0.846   3.934
 7846SOL     OW24436   3.629   6.567   2.349
 7846SOL    HW124437   3.550   6.506   2.345
 7846SOL    HW224438   3.621   6.636   2.277
 7847SOL     OW24439   0.025   0.835   0.207
 7847SOL    HW124440   0.073   0.748   0.218
 7847SOL    HW224441   6.991   0.832   0.124
 7848SOL     OW24442   4.498   4.127   0.831
 7848SOL    HW124443   4.400   4.107   0.833
 7848SOL    HW224444   4.545   4.071   0.899
 7849SOL     OW24445   5.664   3.921   5.062
 7849SOL    HW124446   5.701   3.829   5.064
 7849SOL    HW224447   5.732   3.984   5.025
 7850SOL     OW24448   0.638   1.093   4.449
 7850SOL    HW124449   0.721   1.084   4.394
 7850SOL    HW224450   0.561   1.119   4.391
 7851SOL     OW24451   4.440   6.925   0.686
 7851SOL    HW124452   4.485   6.840   0.659
 7851SOL    HW224453   4.508   6.998   0.695
 7852SOL     OW24454   1.745   6.946   6.926
 7852SOL    HW124455   1.662   6.895   6.952
 7852SOL    HW224456   1.788   6.901   6.848
 7853SOL     OW24457   1.976   2.936   0.961
 7853SOL    HW124458   1.971   2.978   0.871
 7853SOL    HW224459   1.884   2.921   0.996
 7854SOL     OW24460   3.619   4.086   3.016
 7854SOL    HW124461   3.716   4.094   3.039
 7854SOL    HW224462   3.608   4.087   2.917
 7855SOL     OW24463   3.614   0.041   5.590
 7855SOL    HW124464   3.627   0.139   5.607
 7855SOL    HW224465   3.702   7.016   5.596
 7856SOL     OW24466   4.166   3.606   6.159
 7856SOL    HW124467   4.165   3.609   6.059
 7856SOL    HW224468   4.194   3.515   6.189
 7857SOL     OW24469   0.899   2.237   4.558
 7857SOL    HW124470   0.922   2.333   4.543
 7857SOL    HW224471   0.804   2.221   4.532
 7858SOL     OW24472   6.355   4.534   3.211
 7858SOL    HW124473   6.312   4.565   3.295
 7858SOL    HW224474   6.453   4.522   3.225
 7859SOL     OW24475   0.855   5.946   6.648
 7859SOL    HW124476   0.950   5.938   6.677
 7859SOL    HW224477   0.806   5.861   6.669
 7860SOL     OW24478   3.400   0.151   1.706
 7860SOL    HW124479   3.428   0.059   1.733
 7860SOL    HW224480   3.378   0.204   1.788
 7861SOL     OW24481   5.879   4.164   0.494
 7861SOL    HW124482   5.861   4.073   0.531
 7861SOL    HW224483   5.893   4.229   0.569
 7862SOL     OW24484   3.313   4.581   1.351
 7862SOL    HW124485   3.249   4.518   1.395
 7862SOL    HW224486   3.268   4.624   1.273
 7863SOL     OW24487   5.899   5.743   2.410
 7863SOL    HW124488   5.928   5.834   2.438
 7863SOL    HW224489   5.951   5.674   2.461
 7864SOL     OW24490   0.574   5.904   4.031
 7864SOL    HW124491   0.592   5.816   3.987
 7864SOL    HW224492   0.605   5.978   3.971
 7865SOL     OW24493   3.461   0.721   2.468
 7865SOL    HW124494   3.376   0.703   2.419
 7865SOL    HW224495   3.442   0.737   2.564
 7866SOL     OW24496   2.508   2.324   3.863
 7866SOL    HW124497   2.530   2.398   3.800
 7866SOL    HW224498   2.436   2.354   3.926
 7867SOL     OW24499   5.711   4.081   2.295
 7867SOL    HW124500   5.701   3.993   2.342
 7867SOL    HW224501   5.652   4.149   2.338
 7868SOL     OW24502   5.516   6.937   1.218
 7868SOL    HW124503   5.518   0.014   1.235
 7868SOL    HW224504   5.436   6.914   1.163
 7869SOL     OW24505   6.461   2.011   3.574
 7869SOL    HW124506   6.495   1.931   3.625
 7869SOL    HW224507   6.455   1.988   3.477
 7870SOL     OW24508   0.084   6.602   3.108
 7870SOL    HW124509   0.130   6.688   3.091
 7870SOL    HW224510   0.054   6.598   3.204
 7871SOL     OW24511   5.502   3.156   3.745
 7871SOL    HW124512   5.549   3.235   3.705
 7871SOL    HW224513   5.534   3.143   3.839
 7872SOL     OW24514   6.591   3.315   3.822
 7872SOL    HW124515   6.615   3.371   3.744
 7872SOL    HW224516   6.575   3.221   3.792
 7873SOL     OW24517   6.796   5.191   5.153
 7873SOL    HW124518   6.709   5.228   5.184
 7873SOL    HW224519   6.835   5.133   5.224
 7874SOL     OW24520   6.225   1.324   0.555
 7874SOL    HW124521   6.220   1.419   0.526
 7874SOL    HW224522   6.148   1.303   0.615
 7875SOL     OW24523   4.462   3.373   6.585
 7875SOL    HW124524   4.560   3.378   6.563
 7875SOL    HW224525   4.441   3.439   6.657
 7876SOL     OW24526   6.432   0.550   4.723
 7876SOL    HW124527   6.425   0.649   4.710
 7876SOL    HW224528   6.491   0.531   4.801
 7877SOL     OW24529   6.527   2.612   2.601
 7877SOL    HW124530   6.445   2.556   2.604
 7877SOL    HW224531   6.541   2.647   2.509
 7878SOL     OW24532   4.688   4.009   1.250
 7878SOL    HW124533   4.638   4.095   1.260
 7878SOL    HW224534   4.755   4.018   1.176
 7879SOL     OW24535   5.151   0.935   5.358
 7879SOL    HW124536   5.153   0.852   5.413
 7879SOL    HW224537   5.058   0.953   5.328
 7880SOL     OW24538   0.863   6.714   6.155
 7880SOL    HW124539   0.870   6.770   6.073
 7880SOL    HW224540   0.836   6.621   6.130
 7881SOL     OW24541   0.550   5.356   3.494
 7881SOL    HW124542   0.594   5.266   3.500
 7881SOL    HW224543   0.582   5.413   3.570
 7882SOL     OW24544   0.784   4.351   1.980
 7882SOL    HW124545   0.717   4.408   2.028
 7882SOL    HW224546   0.872   4.398   1.976
 7883SOL     OW24547   3.715   2.105   3.490
 7883SOL    HW124548   3.777   2.133   3.563
 7883SOL    HW224549   3.768   2.094   3.405
 7884SOL     OW24550   0.777   3.856   4.634
 7884SOL    HW124551   0.821   3.913   4.703
 7884SOL    HW224552   0.786   3.899   4.544
 7885SOL     OW24553   5.383   5.376   3.286
 7885SOL    HW124554   5.431   5.397   3.201
 7885SOL    HW224555   5.322   5.299   3.272
 7886SOL     OW24556   4.877   3.313   3.078
 7886SOL    HW124557   4.909   3.390   3.135
 7886SOL    HW224558   4.837   3.243   3.137
 7887SOL     OW24559   2.209   2.800   1.502
 7887SOL    HW124560   2.234   2.890   1.469
 7887SOL    HW224561   2.258   2.730   1.449
 7888SOL     OW24562   5.990   1.023   4.778
 7888SOL    HW124563   5.960   1.024   4.873
 7888SOL    HW224564   6.086   1.049   4.773
 7889SOL     OW24565   5.697   4.830   0.146
 7889SOL    HW124566   5.607   4.875   0.144
 7889SOL    HW224567   5.763   4.890   0.191
 7890SOL     OW24568   2.180   3.241   4.392
 7890SOL    HW124569   2.172   3.163   4.453
 7890SOL    HW224570   2.185   3.209   4.297
 7891SOL     OW24571   6.477   1.678   4.195
 7891SOL    HW124572   6.506   1.675   4.291
 7891SOL    HW224573   6.382   1.647   4.188
 7892SOL     OW24574   0.709   1.454   5.213
 7892SOL    HW124575   0.643   1.389   5.174
 7892SOL    HW224576   0.795   1.449   5.164
 7893SOL     OW24577   5.469   0.330   7.002
 7893SOL    HW124578   5.502   0.404   0.038
 7893SOL    HW224579   5.546   0.294   6.948
 7894SOL     OW24580   3.408   1.760   6.087
 7894SOL    HW124581   3.394   1.800   6.178
 7894SOL    HW224582   3.367   1.668   6.085
 7895SOL     OW24583   5.512   6.650   2.912
 7895SOL    HW124584   5.585   6.670   2.977
 7895SOL    HW224585   5.426   6.688   2.947
 7896SOL     OW24586   2.537   2.164   0.738
 7896SOL    HW124587   2.458   2.223   0.756
 7896SOL    HW224588   2.538   2.090   0.806
 7897SOL     OW24589   3.689   2.576   0.703
 7897SOL    HW124590   3.591   2.556   0.700
 7897SOL    HW224591   3.707   2.662   0.655
 7898SOL     OW24592   5.562   6.527   3.327
 7898SOL    HW124593   5.533   6.601   3.387
 7898SOL    HW224594   5.490   6.508   3.260
 7899SOL     OW24595   6.369   4.460   4.172
 7899SOL    HW124596   6.416   4.380   4.135
 7899SOL    HW224597   6.346   4.444   4.268
 7900SOL     OW24598   1.012   3.623   1.230
 7900SOL    HW124599   1.105   3.605   1.197
 7900SOL    HW224600   1.001   3.720   1.248
 7901SOL     OW24601   0.447   1.483   6.653
 7901SOL    HW124602   0.511   1.547   6.697
 7901SOL    HW224603   0.472   1.473   6.557
 7902SOL     OW24604   1.321   6.947   2.572
 7902SOL    HW124605   1.344   6.912   2.481
 7902SOL    HW224606   1.384   7.020   2.597
 7903SOL     OW24607   2.321   2.210   5.307
 7903SOL    HW124608   2.224   2.217   5.327
 7903SOL    HW224609   2.343   2.264   5.226
 7904SOL     OW24610   4.605   1.546   2.618
 7904SOL    HW124611   4.549   1.543   2.536
 7904SOL    HW224612   4.653   1.633   2.623
 7905SOL     OW24613   4.901   1.693   0.738
 7905SOL    HW124614   4.986   1.654   0.705
 7905SOL    HW224615   4.838   1.620   0.766
 7906SOL     OW24616   1.226   5.336   0.664
 7906SOL    HW124617   1.129   5.341   0.691
 7906SOL    HW224618   1.280   5.299   0.739
 7907SOL     OW24619   6.141   6.833   2.811
 7907SOL    HW124620   6.228   6.791   2.786
 7907SOL    HW224621   6.108   6.889   2.735
 7908SOL     OW24622   0.557   0.170   6.336
 7908SOL    HW124623   0.624   0.226   6.385
 7908SOL    HW224624   0.510   0.110   6.401
 7909SOL     OW24625   5.681   4.415   2.376
 7909SOL    HW124626   5.715   4.448   2.288
 7909SOL    HW224627   5.609   4.348   2.360
 7910SOL     OW24628   0.711   3.886   6.462
 7910SOL    HW124629   0.666   3.907   6.549
 7910SOL    HW224630   0.645   3.893   6.387
 7911SOL     OW24631   0.167   4.452   6.398
 7911SOL    HW124632   0.107   4.372   6.400
 7911SOL    HW224633   0.246   4.435   6.457
 7912SOL     OW24634   6.508   5.073   1.259
 7912SOL    HW124635   6.462   4.996   1.303
 7912SOL    HW224636   6.592   5.041   1.215
 7913SOL     OW24637   1.422   4.700   0.890
 7913SOL    HW124638   1.450   4.740   0.804
 7913SOL    HW224639   1.440   4.764   0.965
 7914SOL     OW24640   0.078   6.947   4.913
 7914SOL    HW124641   0.102   7.018   4.847
 7914SOL    HW224642   0.117   6.969   5.002
 7915SOL     OW24643   3.764   5.630   2.932
 7915SOL    HW124644   3.792   5.722   2.957
 7915SOL    HW224645   3.823   5.563   2.978
 7916SOL     OW24646   0.770   0.084   4.672
 7916SOL    HW124647   0.756   0.167   4.618
 7916SOL    HW224648   0.852   0.037   4.640
 7917SOL     OW24649   3.964   2.825   1.441
 7917SOL    HW124650   3.942   2.909   1.491
 7917SOL    HW224651   3.990   2.754   1.506
 7918SOL     OW24652   2.186   2.280   3.758
 7918SOL    HW124653   2.230   2.239   3.838
 7918SOL    HW224654   2.251   2.342   3.713
 7919SOL     OW24655   1.588   6.347   4.959
 7919SOL    HW124656   1.652   6.271   4.956
 7919SOL    HW224657   1.504   6.322   4.910
 7920SOL     OW24658   4.946   0.499   0.927
 7920SOL    HW124659   4.886   0.574   0.957
 7920SOL    HW224660   4.894   0.414   0.923
 7921SOL     OW24661   5.982   2.554   0.987
 7921SOL    HW124662   5.914   2.625   0.976
 7921SOL    HW224663   5.983   2.523   1.083
 7922SOL     OW24664   2.426   6.088   1.704
 7922SOL    HW124665   2.346   6.047   1.747
 7922SOL    HW224666   2.403   6.179   1.670
 7923SOL     OW24667   5.066   1.019   0.165
 7923SOL    HW124668   5.013   0.983   0.242
 7923SOL    HW224669   5.052   1.118   0.159
 7924SOL     OW24670   6.588   6.257   0.363
 7924SOL    HW124671   6.564   6.176   0.310
 7924SOL    HW224672   6.674   6.295   0.329
 7925SOL     OW24673   1.620   5.551   6.739
 7925SOL    HW124674   1.532   5.518   6.706
 7925SOL    HW224675   1.683   5.474   6.749
 7926SOL     OW24676   4.935   5.874   0.197
 7926SOL    HW124677   5.014   5.926   0.230
 7926SOL    HW224678   4.954   5.776   0.207
 7927SOL     OW24679   4.215   6.854   2.377
 7927SOL    HW124680   4.245   6.918   2.448
 7927SOL    HW224681   4.223   6.897   2.288
 7928SOL     OW24682   5.578   2.126   3.478
 7928SOL    HW124683   5.543   2.180   3.402
 7928SOL    HW224684   5.560   2.029   3.461
 7929SOL     OW24685   4.290   4.288   6.401
 7929SOL    HW124686   4.374   4.298   6.348
 7929SOL    HW224687   4.238   4.210   6.367
 7930SOL     OW24688   4.361   6.114   6.210
 7930SOL    HW124689   4.394   6.201   6.175
 7930SOL    HW224690   4.414   6.039   6.169
 7931SOL     OW24691   4.216   2.326   1.159
 7931SOL    HW124692   4.200   2.239   1.205
 7931SOL    HW224693   4.302   2.365   1.191
 7932SOL     OW24694   1.742   4.052   2.141
 7932SOL    HW124695   1.714   3.956   2.140
 7932SOL    HW224696   1.672   4.106   2.190
 7933SOL     OW24697   0.759   1.931   6.740
 7933SOL    HW124698   0.844   1.938   6.688
 7933SOL    HW224699   0.707   1.852   6.710
 7934SOL     OW24700   0.866   5.742   0.910
 7934SOL    HW124701   0.947   5.768   0.962
 7934SOL    HW224702   0.823   5.662   0.951
 7935SOL     OW24703   4.984   3.101   2.899
 7935SOL    HW124704   5.069   3.063   2.934
 7935SOL    HW224705   4.945   3.163   2.968
 7936SOL     OW24706   2.728   5.710   3.642
 7936SOL    HW124707   2.700   5.619   3.614
 7936SOL    HW224708   2.654   5.754   3.694
 7937SOL     OW24709   3.102   0.579   6.912
 7937SOL    HW124710   3.168   0.642   6.953
 7937SOL    HW224711   3.056   0.528   6.984
 7938SOL     OW24712   2.632   6.499   4.170
 7938SOL    HW124713   2.701   6.537   4.108
 7938SOL    HW224714   2.567   6.570   4.195
 7939SOL     OW24715   0.528   1.468   3.757
 7939SOL    HW124716   0.507   1.380   3.714
 7939SOL    HW224717   0.627   1.481   3.761
 7940SOL     OW24718   5.323   1.102   3.884
 7940SOL    HW124719   5.362   1.187   3.919
 7940SOL    HW224720   5.375   1.071   3.804
 7941SOL     OW24721   3.750   6.885   0.994
 7941SOL    HW124722   3.656   6.879   0.961
 7941SOL    HW224723   3.750   6.912   1.090
 7942SOL     OW24724   1.303   5.058   0.561
 7942SOL    HW124725   1.281   5.146   0.604
 7942SOL    HW224726   1.402   5.045   0.562
 7943SOL     OW24727   1.336   6.010   5.984
 7943SOL    HW124728   1.405   5.938   5.984
 7943SOL    HW224729   1.363   6.083   5.921
 7944SOL     OW24730   1.694   2.632   1.636
 7944SOL    HW124731   1.781   2.584   1.625
 7944SOL    HW224732   1.688   2.668   1.729
 7945SOL     OW24733   6.243   4.512   3.668
 7945SOL    HW124734   6.192   4.561   3.739
 7945SOL    HW224735   6.241   4.414   3.688
 7946SOL     OW24736   3.941   0.896   6.519
 7946SOL    HW124737   3.951   0.964   6.446
 7946SOL    HW224738   3.865   0.922   6.579
 7947SOL     OW24739   0.187   3.742   6.371
 7947SOL    HW124740   0.152   3.659   6.414
 7947SOL    HW224741   0.224   3.720   6.281
 7948SOL     OW24742   1.813   5.183   2.885
 7948SOL    HW124743   1.911   5.168   2.878
 7948SOL    HW224744   1.784   5.249   2.815
 7949SOL     OW24745   3.177   6.040   6.752
 7949SOL    HW124746   3.099   6.094   6.720
 7949SOL    HW224747   3.176   5.950   6.708
 7950SOL     OW24748   5.795   4.524   5.361
 7950SOL    HW124749   5.741   4.440   5.358
 7950SOL    HW224750   5.769   4.577   5.442
 7951SOL     OW24751   4.183   5.780   2.514
 7951SOL    HW124752   4.277   5.815   2.511
 7951SOL    HW224753   4.121   5.851   2.483
 7952SOL     OW24754   6.193   4.561   6.279
 7952SOL    HW124755   6.274   4.574   6.223
 7952SOL    HW224756   6.175   4.644   6.332
 7953SOL     OW24757   1.927   0.013   0.513
 7953SOL    HW124758   2.015   0.060   0.511
 7953SOL    HW224759   1.855   0.078   0.537
 7954SOL     OW24760   4.250   4.190   6.880
 7954SOL    HW124761   4.205   4.161   6.965
 7954SOL    HW224762   4.180   4.213   6.812
 7955SOL     OW24763   1.706   1.707   6.595
 7955SOL    HW124764   1.788   1.751   6.558
 7955SOL    HW224765   1.643   1.777   6.628
 7956SOL     OW24766   6.596   6.311   0.627
 7956SOL    HW124767   6.508   6.310   0.673
 7956SOL    HW224768   6.583   6.285   0.531
 7957SOL     OW24769   4.820   1.245   5.811
 7957SOL    HW124770   4.749   1.214   5.748
 7957SOL    HW224771   4.783   1.251   5.903
 7958SOL     OW24772   5.609   2.563   0.292
 7958SOL    HW124773   5.698   2.519   0.284
 7958SOL    HW224774   5.539   2.492   0.306
 7959SOL     OW24775   6.281   2.101   6.552
 7959SOL    HW124776   6.210   2.143   6.608
 7959SOL    HW224777   6.314   2.018   6.598
 7960SOL     OW24778   0.368   1.073   5.375
 7960SOL    HW124779   0.461   1.111   5.375
 7960SOL    HW224780   0.364   0.995   5.312
 7961SOL     OW24781   6.504   6.116   0.112
 7961SOL    HW124782   6.482   6.020   0.100
 7961SOL    HW224783   6.572   6.143   0.044
 7962SOL     OW24784   5.651   6.886   5.506
 7962SOL    HW124785   5.729   6.932   5.463
 7962SOL    HW224786   5.627   6.804   5.454
 7963SOL     OW24787   6.615   6.747   4.129
 7963SOL    HW124788   6.674   6.816   4.170
 7963SOL    HW224789   6.661   6.658   4.131
 7964SOL     OW24790   6.989   3.855   2.008
 7964SOL    HW124791   0.015   3.777   1.969
 7964SOL    HW224792   6.997   3.934   1.946
 7965SOL     OW24793   4.297   2.699   6.228
 7965SOL    HW124794   4.228   2.768   6.253
 7965SOL    HW224795   4.261   2.639   6.157
 7966SOL     OW24796   4.922   3.576   4.752
 7966SOL    HW124797   5.021   3.580   4.768
 7966SOL    HW224798   4.874   3.610   4.832
 7967SOL     OW24799   1.781   4.100   1.438
 7967SOL    HW124800   1.872   4.140   1.426
 7967SOL    HW224801   1.715   4.149   1.381
 7968SOL     OW24802   0.430   2.648   4.889
 7968SOL    HW124803   0.517   2.628   4.934
 7968SOL    HW224804   0.380   2.717   4.941
 7969SOL     OW24805   4.203   5.887   6.515
 7969SOL    HW124806   4.202   5.984   6.538
 7969SOL    HW224807   4.132   5.839   6.568
 7970SOL     OW24808   6.157   3.058   2.945
 7970SOL    HW124809   6.251   3.065   2.979
 7970SOL    HW224810   6.153   3.095   2.852
 7971SOL     OW24811   2.423   1.564   0.036
 7971SOL    HW124812   2.463   1.616   6.982
 7971SOL    HW224813   2.484   1.567   0.115
 7972SOL     OW24814   3.924   3.973   4.005
 7972SOL    HW124815   3.994   3.905   4.028
 7972SOL    HW224816   3.842   3.927   3.971
 7973SOL     OW24817   6.343   4.610   2.502
 7973SOL    HW124818   6.252   4.646   2.522
 7973SOL    HW224819   6.411   4.665   2.550
 7974SOL     OW24820   7.010   2.777   5.997
 7974SOL    HW124821   6.930   2.802   6.051
 7974SOL    HW224822   6.982   2.756   5.903
 7975SOL     OW24823   5.747   0.225   0.946
 7975SOL    HW124824   5.688   0.151   0.913
 7975SOL    HW224825   5.791   0.269   0.868
 7976SOL     OW24826   0.691   0.618   0.979
 7976SOL    HW124827   0.745   0.534   0.973
 7976SOL    HW224828   0.743   0.695   0.942
 7977SOL     OW24829   5.415   5.837   3.828
 7977SOL    HW124830   5.362   5.853   3.745
 7977SOL    HW224831   5.390   5.749   3.868
 7978SOL     OW24832   0.225   4.249   1.518
 7978SOL    HW124833   0.277   4.225   1.599
 7978SOL    HW224834   0.228   4.348   1.504
 7979SOL     OW24835   1.789   2.117   4.759
 7979SOL    HW124836   1.820   2.155   4.846
 7979SOL    HW224837   1.692   2.137   4.746
 7980SOL     OW24838   4.200   5.581   0.306
 7980SOL    HW124839   4.261   5.536   0.372
 7980SOL    HW224840   4.248   5.592   0.219
 7981SOL     OW24841   1.607   4.723   3.804
 7981SOL    HW124842   1.518   4.735   3.848
 7981SOL    HW224843   1.621   4.626   3.783
 7982SOL     OW24844   6.336   1.117   5.452
 7982SOL    HW124845   6.303   1.134   5.545
 7982SOL    HW224846   6.260   1.084   5.396
 7983SOL     OW24847   4.608   0.822   1.958
 7983SOL    HW124848   4.543   0.834   2.033
 7983SOL    HW224849   4.569   0.761   1.889
 7984SOL     OW24850   0.575   2.232   2.943
 7984SOL    HW124851   0.483   2.227   2.982
 7984SOL    HW224852   0.571   2.208   2.846
 7985SOL     OW24853   2.782   2.922   5.485
 7985SOL    HW124854   2.831   2.849   5.531
 7985SOL    HW224855   2.686   2.895   5.472
 7986SOL     OW24856   3.524   0.868   4.051
 7986SOL    HW124857   3.593   0.861   3.979
 7986SOL    HW224858   3.443   0.913   4.016
 7987SOL     OW24859   1.001   3.597   0.170
 7987SOL    HW124860   0.951   3.547   0.099
 7987SOL    HW224861   1.044   3.532   0.232
 7988SOL     OW24862   6.615   0.852   2.209
 7988SOL    HW124863   6.702   0.865   2.160
 7988SOL    HW224864   6.545   0.825   2.143
 7989SOL     OW24865   0.277   4.464   0.896
 7989SOL    HW124866   0.329   4.383   0.924
 7989SOL    HW224867   0.278   4.472   0.797
 7990SOL     OW24868   4.595   5.814   5.416
 7990SOL    HW124869   4.569   5.903   5.380
 7990SOL    HW224870   4.610   5.821   5.515
 7991SOL     OW24871   5.913   1.104   5.050
 7991SOL    HW124872   5.863   1.099   5.137
 7991SOL    HW224873   5.925   1.200   5.025
 7992SOL     OW24874   2.434   6.722   6.735
 7992SOL    HW124875   2.518   6.676   6.765
 7992SOL    HW224876   2.449   6.821   6.737
 7993SOL     OW24877   6.204   5.798   0.469
 7993SOL    HW124878   6.221   5.732   0.396
 7993SOL    HW224879   6.162   5.880   0.431
 7994SOL     OW24880   5.884   6.971   3.898
 7994SOL    HW124881   5.855   6.879   3.922
 7994SOL    HW224882   5.828   7.005   3.823
 7995SOL     OW24883   0.649   4.991   1.477
 7995SOL    HW124884   0.600   4.983   1.390
 7995SOL    HW224885   0.584   5.006   1.551
 7996SOL     OW24886   3.164   0.173   3.048
 7996SOL    HW124887   3.064   0.186   3.048
 7996SOL    HW224888   3.208   0.258   3.078
 7997SOL     OW24889   1.351   1.411   6.079
 7997SOL    HW124890   1.443   1.411   6.117
 7997SOL    HW224891   1.303   1.328   6.108
 7998SOL     OW24892   2.278   0.917   0.445
 7998SOL    HW124893   2.260   0.858   0.367
 7998SOL    HW224894   2.230   1.004   0.433
 7999SOL     OW24895   1.124   0.202   4.367
 7999SOL    HW124896   1.119   0.261   4.448
 7999SOL    HW224897   1.052   0.229   4.303
 8000SOL     OW24898   3.937   5.466   0.295
 8000SOL    HW124899   4.022   5.515   0.314
 8000SOL    HW224900   3.892   5.441   0.381
 8001SOL     OW24901   4.031   5.764   0.987
 8001SOL    HW124902   4.106   5.798   0.930
 8001SOL    HW224903   4.052   5.781   1.083
 8002SOL     OW24904   0.944   0.027   5.757
 8002SOL    HW124905   0.894   0.112   5.745
 8002SOL    HW224906   1.043   0.046   5.754
 8003SOL     OW24907   2.493   5.525   2.435
 8003SOL    HW124908   2.516   5.468   2.356
 8003SOL    HW224909   2.537   5.614   2.426
 8004SOL     OW24910   1.135   2.849   3.976
 8004SOL    HW124911   1.098   2.756   3.984
 8004SOL    HW224912   1.227   2.851   4.015
 8005SOL     OW24913   2.308   0.434   2.971
 8005SOL    HW124914   2.393   0.437   2.918
 8005SOL    HW224915   2.330   0.425   3.068
 8006SOL     OW24916   3.891   4.694   5.313
 8006SOL    HW124917   3.829   4.618   5.334
 8006SOL    HW224918   3.978   4.680   5.361
 8007SOL     OW24919   6.829   0.599   0.524
 8007SOL    HW124920   6.751   0.662   0.524
 8007SOL    HW224921   6.795   0.505   0.515
 8008SOL     OW24922   5.407   6.442   0.157
 8008SOL    HW124923   5.456   6.477   0.076
 8008SOL    HW224924   5.471   6.430   0.232
 8009SOL     OW24925   5.386   1.345   6.981
 8009SOL    HW124926   5.344   1.408   0.025
 8009SOL    HW224927   5.366   1.251   7.008
 8010SOL     OW24928   3.059   0.683   5.909
 8010SOL    HW124929   2.980   0.739   5.936
 8010SOL    HW224930   3.050   0.592   5.948
 8011SOL     OW24931   3.840   2.053   3.255
 8011SOL    HW124932   3.754   2.099   3.233
 8011SOL    HW224933   3.886   2.026   3.170
 8012SOL     OW24934   6.218   1.586   4.207
 8012SOL    HW124935   6.166   1.525   4.146
 8012SOL    HW224936   6.168   1.673   4.216
 8013SOL     OW24937   3.191   1.311   2.047
 8013SOL    HW124938   3.135   1.259   1.983
 8013SOL    HW224939   3.152   1.305   2.139
 8014SOL     OW24940   2.188   2.267   2.663
 8014SOL    HW124941   2.181   2.211   2.580
 8014SOL    HW224942   2.220   2.210   2.739
 8015SOL     OW24943   3.435   6.837   5.160
 8015SOL    HW124944   3.344   6.835   5.119
 8015SOL    HW224945   3.486   6.756   5.131
 8016SOL     OW24946   3.377   2.024   4.768
 8016SOL    HW124947   3.424   2.060   4.849
 8016SOL    HW224948   3.296   2.079   4.750
 8017SOL     OW24949   6.487   5.858   0.963
 8017SOL    HW124950   6.539   5.868   0.878
 8017SOL    HW224951   6.511   5.933   1.025
 8018SOL     OW24952   4.110   2.018   6.952
 8018SOL    HW124953   4.015   2.049   6.957
 8018SOL    HW224954   4.143   2.027   6.858
 8019SOL     OW24955   2.769   3.464   0.820
 8019SOL    HW124956   2.728   3.555   0.814
 8019SOL    HW224957   2.825   3.447   0.739
 8020SOL     OW24958   0.776   0.909   5.409
 8020SOL    HW124959   0.718   0.953   5.341
 8020SOL    HW224960   0.725   0.837   5.456
 8021SOL     OW24961   1.497   2.107   1.125
 8021SOL    HW124962   1.492   2.026   1.183
 8021SOL    HW224963   1.427   2.102   1.054
 8022SOL     OW24964   5.118   0.993   1.982
 8022SOL    HW124965   5.038   0.934   1.975
 8022SOL    HW224966   5.172   0.988   1.898
 8023SOL     OW24967   4.980   5.907   1.305
 8023SOL    HW124968   5.075   5.934   1.316
 8023SOL    HW224969   4.933   5.911   1.394
 8024SOL     OW24970   2.698   1.329   6.340
 8024SOL    HW124971   2.620   1.314   6.279
 8024SOL    HW224972   2.665   1.357   6.430
 8025SOL     OW24973   1.295   5.648   1.911
 8025SOL    HW124974   1.212   5.687   1.951
 8025SOL    HW224975   1.289   5.652   1.812
 8026SOL     OW24976   0.535   6.330   6.554
 8026SOL    HW124977   0.547   6.264   6.628
 8026SOL    HW224978   0.493   6.284   6.475
 8027SOL     OW24979   3.403   0.736   6.802
 8027SOL    HW124980   3.391   0.773   6.894
 8027SOL    HW224981   3.458   0.653   6.805
 8028SOL     OW24982   3.190   5.696   5.341
 8028SOL    HW124983   3.236   5.612   5.372
 8028SOL    HW224984   3.149   5.680   5.251
 8029SOL     OW24985   0.678   6.935   0.018
 8029SOL    HW124986   0.684   7.019   0.071
 8029SOL    HW224987   0.767   6.915   6.999
 8030SOL     OW24988   0.859   4.182   0.877
 8030SOL    HW124989   0.899   4.167   0.787
 8030SOL    HW224990   0.846   4.095   0.924
 8031SOL     OW24991   0.099   0.446   3.490
 8031SOL    HW124992   0.140   0.537   3.491
 8031SOL    HW224993   0.015   0.448   3.437
 8032SOL     OW24994   6.783   2.789   1.068
 8032SOL    HW124995   6.843   2.854   1.023
 8032SOL    HW224996   6.827   2.699   1.071
 8033SOL     OW24997   4.391   3.889   1.166
 8033SOL    HW124998   4.293   3.883   1.186
 8033SOL    HW224999   4.444   3.862   1.247
 8034SOL     OW25000   6.417   0.237   6.153
 8034SOL    HW125001   6.394   0.223   6.056
 8034SOL    HW225002   6.474   0.319   6.162
 8035SOL     OW25003   6.223   1.618   3.177
 8035SOL    HW125004   6.196   1.618   3.274
 8035SOL    HW225005   6.288   1.544   3.161
 8036SOL     OW25006   5.444   2.704   4.349
 8036SOL    HW125007   5.426   2.802   4.359
 8036SOL    HW225008   5.496   2.688   4.265
 8037SOL     OW25009   1.715   1.827   5.585
 8037SOL    HW125010   1.796   1.774   5.610
 8037SOL    HW225011   1.676   1.868   5.667
 8038SOL     OW25012   0.227   5.091   1.998
 8038SOL    HW125013   0.146   5.109   2.054
 8038SOL    HW225014   0.211   5.011   1.941
 8039SOL     OW25015   1.062   2.184   5.352
 8039SOL    HW125016   1.087   2.279   5.369
 8039SOL    HW225017   1.121   2.147   5.280
 8040SOL     OW25018   1.566   5.161   6.788
 8040SOL    HW125019   1.489   5.201   6.838
 8040SOL    HW225020   1.533   5.087   6.729
 8041SOL     OW25021   3.406   1.394   3.002
 8041SOL    HW125022   3.491   1.440   3.029
 8041SOL    HW225023   3.412   1.367   2.905
 8042SOL     OW25024   4.280   4.312   5.770
 8042SOL    HW125025   4.184   4.299   5.793
 8042SOL    HW225026   4.335   4.301   5.853
 8043SOL     OW25027   4.991   5.646   6.647
 8043SOL    HW125028   4.985   5.570   6.582
 8043SOL    HW225029   4.915   5.709   6.631
 8044SOL     OW25030   2.664   3.409   1.785
 8044SOL    HW125031   2.571   3.427   1.816
 8044SOL    HW225032   2.729   3.433   1.858
 8045SOL     OW25033   6.701   2.793   3.657
 8045SOL    HW125034   6.612   2.775   3.616
 8045SOL    HW225035   6.720   2.725   3.728
 8046SOL     OW25036   6.834   4.879   2.232
 8046SOL    HW125037   6.879   4.796   2.265
 8046SOL    HW225038   6.780   4.857   2.150
 8047SOL     OW25039   3.167   6.110   7.011
 8047SOL    HW125040   3.206   6.086   6.922
 8047SOL    HW225041   3.075   6.073   7.018
 8048SOL     OW25042   3.771   2.492   6.175
 8048SOL    HW125043   3.845   2.495   6.242
 8048SOL    HW225044   3.811   2.484   6.083
 8049SOL     OW25045   1.718   2.038   0.681
 8049SOL    HW125046   1.667   2.122   0.703
 8049SOL    HW225047   1.757   2.046   0.589
 8050SOL     OW25048   0.935   5.140   5.524
 8050SOL    HW125049   0.862   5.186   5.574
 8050SOL    HW225050   1.020   5.192   5.533
 8051SOL     OW25051   4.517   6.368   3.662
 8051SOL    HW125052   4.548   6.418   3.581
 8051SOL    HW225053   4.427   6.328   3.645
 8052SOL     OW25054   2.951   1.593   2.300
 8052SOL    HW125055   3.039   1.589   2.251
 8052SOL    HW225056   2.965   1.639   2.388
 8053SOL     OW25057   2.230   2.622   6.652
 8053SOL    HW125058   2.212   2.569   6.569
 8053SOL    HW225059   2.146   2.668   6.680
 8054SOL     OW25060   4.733   3.386   5.303
 8054SOL    HW125061   4.730   3.474   5.256
 8054SOL    HW225062   4.640   3.348   5.308
 8055SOL     OW25063   5.894   0.824   0.148
 8055SOL    HW125064   5.885   0.727   0.170
 8055SOL    HW225065   5.977   0.838   0.095
 8056SOL     OW25066   2.571   0.593   4.063
 8056SOL    HW125067   2.606   0.618   3.973
 8056SOL    HW225068   2.569   0.493   4.072
 8057SOL     OW25069   3.091   2.164   1.855
 8057SOL    HW125070   3.041   2.204   1.932
 8057SOL    HW225071   3.026   2.137   1.784
 8058SOL     OW25072   3.547   6.756   2.164
 8058SOL    HW125073   3.600   6.838   2.142
 8058SOL    HW225074   3.487   6.734   2.087
 8059SOL     OW25075   3.242   2.373   5.978
 8059SOL    HW125076   3.239   2.284   5.934
 8059SOL    HW225077   3.298   2.368   6.061
 8060SOL     OW25078   6.376   0.620   6.411
 8060SOL    HW125079   6.381   0.539   6.470
 8060SOL    HW225080   6.306   0.606   6.341
 8061SOL     OW25081   0.429   0.316   2.567
 8061SOL    HW125082   0.333   0.344   2.567
 8061SOL    HW225083   0.476   0.356   2.646
 8062SOL     OW25084   4.248   5.727   5.566
 8062SOL    HW125085   4.335   5.700   5.608
 8062SOL    HW225086   4.208   5.802   5.617
 8063SOL     OW25087   3.315   4.927   2.864
 8063SOL    HW125088   3.233   4.890   2.909
 8063SOL    HW225089   3.320   4.892   2.770
 8064SOL     OW25090   6.325   1.831   0.211
 8064SOL    HW125091   6.304   1.805   0.305
 8064SOL    HW225092   6.424   1.835   0.198
 8065SOL     OW25093   4.194   5.797   6.247
 8065SOL    HW125094   4.110   5.847   6.224
 8065SOL    HW225095   4.228   5.830   6.335
 8066SOL     OW25096   0.426   6.984   5.683
 8066SOL    HW125097   0.335   6.977   5.724
 8066SOL    HW225098   0.426   6.937   5.595
 8067SOL     OW25099   5.129   2.162   3.602
 8067SOL    HW125100   5.032   2.137   3.611
 8067SOL    HW225101   5.157   2.155   3.507
 8068SOL     OW25102   5.804   4.070   1.432
 8068SOL    HW125103   5.812   4.109   1.340
 8068SOL    HW225104   5.783   3.972   1.425
 8069SOL     OW25105   2.210   4.718   3.341
 8069SOL    HW125106   2.164   4.802   3.311
 8069SOL    HW225107   2.143   4.654   3.378
 8070SOL     OW25108   4.595   4.479   0.564
 8070SOL    HW125109   4.503   4.444   0.552
 8070SOL    HW225110   4.655   4.443   0.493
 8071SOL     OW25111   2.319   0.224   6.076
 8071SOL    HW125112   2.362   0.280   6.005
 8071SOL    HW225113   2.242   0.274   6.116
 8072SOL     OW25114   1.905   1.700   5.747
 8072SOL    HW125115   1.955   1.771   5.796
 8072SOL    HW225116   1.817   1.684   5.792
 8073SOL     OW25117   4.547   0.782   6.682
 8073SOL    HW125118   4.505   0.860   6.635
 8073SOL    HW225119   4.607   0.815   6.754
 8074SOL     OW25120   1.795   1.026   6.417
 8074SOL    HW125121   1.844   0.950   6.375
 8074SOL    HW225122   1.697   1.008   6.413
 8075SOL     OW25123   0.090   6.926   1.057
 8075SOL    HW125124   0.116   6.830   1.050
 8075SOL    HW225125   0.044   6.942   1.144
 8076SOL     OW25126   6.981   6.449   0.500
 8076SOL    HW125127   0.049   6.488   0.478
 8076SOL    HW225128   6.994   6.371   0.562
 8077SOL     OW25129   4.761   4.391   0.390
 8077SOL    HW125130   4.718   4.345   0.312
 8077SOL    HW225131   4.825   4.327   0.434
 8078SOL     OW25132   0.248   1.370   1.686
 8078SOL    HW125133   0.250   1.459   1.732
 8078SOL    HW225134   0.311   1.308   1.732
 8079SOL     OW25135   1.628   1.242   5.858
 8079SOL    HW125136   1.571   1.205   5.931
 8079SOL    HW225137   1.606   1.195   5.772
 8080SOL     OW25138   0.946   3.242   3.138
 8080SOL    HW125139   0.871   3.179   3.119
 8080SOL    HW225140   1.026   3.216   3.085
 8081SOL     OW25141   5.588   6.101   4.996
 8081SOL    HW125142   5.623   6.014   5.030
 8081SOL    HW225143   5.606   6.173   5.063
 8082SOL     OW25144   3.898   1.592   3.305
 8082SOL    HW125145   3.838   1.543   3.367
 8082SOL    HW225146   3.909   1.686   3.336
 8083SOL     OW25147   5.838   2.069   4.356
 8083SOL    HW125148   5.896   2.148   4.339
 8083SOL    HW225149   5.861   2.028   4.444
 8084SOL     OW25150   3.611   1.442   6.000
 8084SOL    HW125151   3.519   1.417   5.969
 8084SOL    HW225152   3.612   1.450   6.099
 8085SOL     OW25153   1.921   6.190   4.625
 8085SOL    HW125154   2.014   6.193   4.587
 8085SOL    HW225155   1.871   6.271   4.595
 8086SOL     OW25156   6.833   0.423   2.246
 8086SOL    HW125157   6.753   0.380   2.205
 8086SOL    HW225158   6.883   0.473   2.176
 8087SOL     OW25159   0.894   0.702   0.180
 8087SOL    HW125160   0.902   0.711   0.280
 8087SOL    HW225161   0.934   0.614   0.152
 8088SOL     OW25162   6.257   0.357   5.097
 8088SOL    HW125163   6.341   0.304   5.112
 8088SOL    HW225164   6.233   0.354   5.000
 8089SOL     OW25165   6.629   2.247   5.918
 8089SOL    HW125166   6.598   2.164   5.963
 8089SOL    HW225167   6.727   2.261   5.937
 8090SOL     OW25168   4.082   2.072   5.152
 8090SOL    HW125169   4.076   2.091   5.054
 8090SOL    HW225170   4.122   1.981   5.167
 8091SOL     OW25171   1.694   5.144   3.999
 8091SOL    HW125172   1.705   5.185   4.090
 8091SOL    HW225173   1.727   5.050   4.001
 8092SOL     OW25174   4.918   1.915   6.130
 8092SOL    HW125175   4.988   1.965   6.182
 8092SOL    HW225176   4.874   1.847   6.190
 8093SOL     OW25177   3.569   5.673   2.401
 8093SOL    HW125178   3.592   5.578   2.378
 8093SOL    HW225179   3.491   5.674   2.464
 8094SOL     OW25180   1.861   4.459   4.249
 8094SOL    HW125181   1.925   4.388   4.219
 8094SOL    HW225182   1.770   4.439   4.211
 8095SOL     OW25183   1.505   4.845   5.433
 8095SOL    HW125184   1.413   4.853   5.472
 8095SOL    HW225185   1.538   4.751   5.446
 8096SOL     OW25186   1.405   6.283   0.977
 8096SOL    HW125187   1.325   6.295   0.919
 8096SOL    HW225188   1.392   6.334   1.062
 8097SOL     OW25189   4.537   6.194   5.741
 8097SOL    HW125190   4.472   6.240   5.681
 8097SOL    HW225191   4.508   6.204   5.836
 8098SOL     OW25192   1.712   6.122   4.930
 8098SOL    HW125193   1.683   6.047   4.989
 8098SOL    HW225194   1.700   6.096   4.834
 8099SOL     OW25195   2.378   4.389   2.997
 8099SOL    HW125196   2.383   4.489   2.999
 8099SOL    HW225197   2.283   4.360   2.998
 8100SOL     OW25198   0.410   1.146   6.979
 8100SOL    HW125199   0.461   1.097   6.908
 8100SOL    HW225200   0.475   1.181   0.026
 8101SOL     OW25201   3.310   5.833   0.737
 8101SOL    HW125202   3.270   5.742   0.747
 8101SOL    HW225203   3.405   5.824   0.707
 8102SOL     OW25204   1.786   3.237   4.836
 8102SOL    HW125205   1.782   3.320   4.780
 8102SOL    HW225206   1.698   3.189   4.830
 8103SOL     OW25207   3.121   1.040   1.590
 8103SOL    HW125208   3.118   0.994   1.501
 8103SOL    HW225209   3.034   1.086   1.607
 8104SOL     OW25210   2.222   5.720   0.220
 8104SOL    HW125211   2.264   5.701   0.308
 8104SOL    HW225212   2.180   5.636   0.185
 8105SOL     OW25213   6.728   0.120   3.214
 8105SOL    HW125214   6.697   0.214   3.200
 8105SOL    HW225215   6.694   0.086   3.302
 8106SOL     OW25216   2.017   0.165   6.043
 8106SOL    HW125217   1.953   0.237   6.070
 8106SOL    HW225218   1.981   0.117   5.964
 8107SOL     OW25219   1.742   6.433   6.167
 8107SOL    HW125220   1.805   6.501   6.205
 8107SOL    HW225221   1.649   6.452   6.201
 8108SOL     OW25222   1.082   1.167   6.853
 8108SOL    HW125223   1.067   1.266   6.860
 8108SOL    HW225224   0.995   1.122   6.833
 8109SOL     OW25225   6.434   3.288   0.947
 8109SOL    HW125226   6.378   3.302   0.865
 8109SOL    HW225227   6.415   3.197   0.985
 8110SOL     OW25228   3.994   5.099   1.425
 8110SOL    HW125229   3.962   5.019   1.375
 8110SOL    HW225230   3.930   5.121   1.498
 8111SOL     OW25231   6.312   1.121   2.672
 8111SOL    HW125232   6.300   1.072   2.586
 8111SOL    HW225233   6.230   1.112   2.728
 8112SOL     OW25234   1.775   3.632   6.073
 8112SOL    HW125235   1.872   3.657   6.083
 8112SOL    HW225236   1.758   3.604   5.978
 8113SOL     OW25237   5.453   3.343   5.972
 8113SOL    HW125238   5.483   3.376   6.061
 8113SOL    HW225239   5.532   3.313   5.919
 8114SOL     OW25240   1.882   4.381   1.760
 8114SOL    HW125241   1.974   4.382   1.798
 8114SOL    HW225242   1.829   4.307   1.801
 8115SOL     OW25243   2.577   1.646   6.225
 8115SOL    HW125244   2.518   1.628   6.147
 8115SOL    HW225245   2.531   1.616   6.309
 8116SOL     OW25246   3.990   3.393   1.197
 8116SOL    HW125247   4.048   3.312   1.206
 8116SOL    HW225248   3.895   3.368   1.209
 8117SOL     OW25249   2.348   6.884   3.222
 8117SOL    HW125250   2.321   6.930   3.306
 8117SOL    HW225251   2.284   6.809   3.202
 8118SOL     OW25252   6.285   3.276   0.695
 8118SOL    HW125253   6.256   3.204   0.632
 8118SOL    HW225254   6.334   3.347   0.644
 8119SOL     OW25255   6.069   6.327   0.356
 8119SOL    HW125256   6.086   6.353   0.451
 8119SOL    HW225257   6.147   6.356   0.300
 8120SOL     OW25258   2.831   6.735   1.127
 8120SOL    HW125259   2.847   6.646   1.084
 8120SOL    HW225260   2.779   6.722   1.211
 8121SOL     OW25261   0.814   3.700   2.935
 8121SOL    HW125262   0.863   3.787   2.940
 8121SOL    HW225263   0.827   3.649   3.021
 8122SOL     OW25264   0.866   4.678   1.251
 8122SOL    HW125265   0.796   4.608   1.239
 8122SOL    HW225266   0.882   4.694   1.349
 8123SOL     OW25267   0.388   1.525   0.088
 8123SOL    HW125268   0.484   1.508   0.112
 8123SOL    HW225269   0.379   1.533   7.011
 8124SOL     OW25270   5.270   4.501   4.821
 8124SOL    HW125271   5.265   4.554   4.906
 8124SOL    HW225272   5.259   4.562   4.743
 8125SOL     OW25273   1.694   6.161   3.223
 8125SOL    HW125274   1.741   6.080   3.258
 8125SOL    HW225275   1.615   6.132   3.168
 8126SOL     OW25276   3.507   5.113   4.470
 8126SOL    HW125277   3.470   5.101   4.378
 8126SOL    HW225278   3.599   5.074   4.474
 8127SOL     OW25279   3.536   2.867   0.435
 8127SOL    HW125280   3.474   2.797   0.399
 8127SOL    HW225281   3.486   2.926   0.500
 8128SOL     OW25282   3.593   3.159   1.705
 8128SOL    HW125283   3.547   3.103   1.635
 8128SOL    HW225284   3.632   3.241   1.662
 8129SOL     OW25285   1.665   2.662   2.509
 8129SOL    HW125286   1.725   2.711   2.446
 8129SOL    HW225287   1.718   2.591   2.556
 8130SOL     OW25288   1.083   5.382   6.784
 8130SOL    HW125289   0.996   5.423   6.810
 8130SOL    HW225290   1.156   5.421   6.841
 8131SOL     OW25291   1.816   4.056   6.748
 8131SOL    HW125292   1.817   3.956   6.744
 8131SOL    HW225293   1.882   4.093   6.683
 8132SOL     OW25294   0.271   0.230   5.408
 8132SOL    HW125295   0.231   0.164   5.471
 8132SOL    HW225296   0.199   0.268   5.350
 8133SOL     OW25297   3.774   5.080   0.521
 8133SOL    HW125298   3.709   5.046   0.589
 8133SOL    HW225299   3.734   5.072   0.429
 8134SOL     OW25300   5.763   1.286   6.183
 8134SOL    HW125301   5.668   1.258   6.201
 8134SOL    HW225302   5.762   1.373   6.134
 8135SOL     OW25303   2.240   0.171   1.664
 8135SOL    HW125304   2.340   0.170   1.658
 8135SOL    HW225305   2.212   0.187   1.759
 8136SOL     OW25306   4.756   4.435   2.104
 8136SOL    HW125307   4.766   4.524   2.059
 8136SOL    HW225308   4.677   4.387   2.067
 8137SOL     OW25309   3.968   1.323   4.859
 8137SOL    HW125310   4.002   1.266   4.934
 8137SOL    HW225311   3.969   1.271   4.774
 8138SOL     OW25312   5.407   1.406   1.680
 8138SOL    HW125313   5.334   1.440   1.740
 8138SOL    HW225314   5.492   1.455   1.699
 8139SOL     OW25315   0.943   2.232   3.805
 8139SOL    HW125316   0.975   2.148   3.848
 8139SOL    HW225317   0.976   2.235   3.710
 8140SOL     OW25318   3.893   0.782   2.793
 8140SOL    HW125319   3.847   0.790   2.705
 8140SOL    HW225320   3.866   0.859   2.852
 8141SOL     OW25321   4.781   4.844   4.744
 8141SOL    HW125322   4.809   4.861   4.650
 8141SOL    HW225323   4.708   4.776   4.745
 8142SOL     OW25324   6.577   5.964   0.408
 8142SOL    HW125325   6.633   6.025   0.464
 8142SOL    HW225326   6.523   5.905   0.468
 8143SOL     OW25327   5.927   3.366   4.916
 8143SOL    HW125328   6.015   3.412   4.910
 8143SOL    HW225329   5.867   3.416   4.978
 8144SOL     OW25330   5.907   6.750   6.273
 8144SOL    HW125331   5.916   6.701   6.360
 8144SOL    HW225332   5.978   6.820   6.268
 8145SOL     OW25333   5.677   5.932   2.642
 8145SOL    HW125334   5.602   5.889   2.692
 8145SOL    HW225335   5.743   5.970   2.706
 8146SOL     OW25336   3.154   1.207   4.054
 8146SOL    HW125337   3.210   1.142   4.107
 8146SOL    HW225338   3.164   1.298   4.094
 8147SOL     OW25339   5.088   0.709   3.864
 8147SOL    HW125340   4.996   0.717   3.904
 8147SOL    HW225341   5.084   0.730   3.766
 8148SOL     OW25342   5.569   3.633   3.385
 8148SOL    HW125343   5.597   3.699   3.455
 8148SOL    HW225344   5.578   3.675   3.294
 8149SOL     OW25345   4.557   4.418   3.382
 8149SOL    HW125346   4.510   4.336   3.414
 8149SOL    HW225347   4.531   4.437   3.288
 8150SOL     OW25348   0.754   5.553   1.112
 8150SOL    HW125349   0.804   5.476   1.151
 8150SOL    HW225350   0.669   5.568   1.164
 8151SOL     OW25351   1.246   1.581   5.086
 8151SOL    HW125352   1.231   1.679   5.102
 8151SOL    HW225353   1.322   1.569   5.022
 8152SOL     OW25354   1.350   1.454   3.973
 8152SOL    HW125355   1.326   1.440   3.877
 8152SOL    HW225356   1.333   1.549   3.998
 8153SOL     OW25357   2.034   6.797   0.515
 8153SOL    HW125358   1.957   6.739   0.541
 8153SOL    HW225359   2.014   6.892   0.538
 8154SOL     OW25360   1.838   6.974   3.855
 8154SOL    HW125361   1.838   0.007   3.939
 8154SOL    HW225362   1.932   6.954   3.828
 8155SOL     OW25363   3.018   3.136   3.418
 8155SOL    HW125364   3.085   3.129   3.491
 8155SOL    HW225365   3.057   3.102   3.332
 8156SOL     OW25366   6.605   0.447   6.126
 8156SOL    HW125367   6.686   0.389   6.132
 8156SOL    HW225368   6.632   0.543   6.132
 8157SOL     OW25369   6.237   3.412   6.912
 8157SOL    HW125370   6.212   3.347   6.984
 8157SOL    HW225371   6.202   3.378   6.824
 8158SOL     OW25372   1.757   5.634   2.117
 8158SOL    HW125373   1.717   5.573   2.186
 8158SOL    HW225374   1.687   5.663   2.053
 8159SOL     OW25375   1.684   5.945   1.972
 8159SOL    HW125376   1.784   5.938   1.962
 8159SOL    HW225377   1.642   5.860   1.941
 8160SOL     OW25378   4.355   2.456   1.812
 8160SOL    HW125379   4.298   2.388   1.858
 8160SOL    HW225380   4.446   2.456   1.851
 8161SOL     OW25381   4.624   1.544   0.649
 8161SOL    HW125382   4.608   1.536   0.551
 8161SOL    HW225383   4.613   1.639   0.678
 8162SOL     OW25384   5.609   0.432   1.501
 8162SOL    HW125385   5.610   0.496   1.424
 8162SOL    HW225386   5.638   0.479   1.584
 8163SOL     OW25387   2.231   4.095   5.305
 8163SOL    HW125388   2.301   4.055   5.245
 8163SOL    HW225389   2.216   4.035   5.383
 8164SOL     OW25390   4.646   2.140   1.483
 8164SOL    HW125391   4.560   2.148   1.533
 8164SOL    HW225392   4.687   2.230   1.472
 8165SOL     OW25393   1.979   4.907   1.562
 8165SOL    HW125394   1.985   4.857   1.648
 8165SOL    HW225395   2.044   4.982   1.563
 8166SOL     OW25396   3.105   6.903   2.112
 8166SOL    HW125397   3.124   6.836   2.184
 8166SOL    HW225398   3.169   6.979   2.121
 8167SOL     OW25399   5.206   2.729   3.973
 8167SOL    HW125400   5.301   2.758   3.970
 8167SOL    HW225401   5.147   2.810   3.979
 8168SOL     OW25402   3.427   0.823   2.731
 8168SOL    HW125403   3.415   0.921   2.752
 8168SOL    HW225404   3.399   0.769   2.810
 8169SOL     OW25405   4.860   4.304   6.192
 8169SOL    HW125406   4.886   4.211   6.164
 8169SOL    HW225407   4.872   4.366   6.115
 8170SOL     OW25408   0.474   5.749   3.728
 8170SOL    HW125409   0.422   5.714   3.651
 8170SOL    HW225410   0.416   5.750   3.810
 8171SOL     OW25411   0.940   1.390   5.927
 8171SOL    HW125412   0.945   1.297   5.891
 8171SOL    HW225413   0.865   1.438   5.881
 8172SOL     OW25414   7.006   6.220   0.658
 8172SOL    HW125415   6.949   6.201   0.739
 8172SOL    HW225416   0.080   6.209   0.682
 8173SOL     OW25417   5.427   2.851   6.309
 8173SOL    HW125418   5.511   2.870   6.258
 8173SOL    HW225419   5.399   2.757   6.291
 8174SOL     OW25420   5.472   0.401   2.266
 8174SOL    HW125421   5.564   0.361   2.269
 8174SOL    HW225422   5.410   0.346   2.321
 8175SOL     OW25423   1.030   3.725   5.955
 8175SOL    HW125424   0.969   3.789   5.907
 8175SOL    HW225425   1.001   3.631   5.937
 8176SOL     OW25426   2.691   5.819   3.259
 8176SOL    HW125427   2.699   5.877   3.178
 8176SOL    HW225428   2.668   5.726   3.231
 8177SOL     OW25429   1.373   0.127   6.038
 8177SOL    HW125430   1.412   0.097   6.125
 8177SOL    HW225431   1.319   0.209   6.052
 8178SOL     OW25432   1.946   6.627   6.214
 8178SOL    HW125433   1.915   6.722   6.207
 8178SOL    HW225434   2.034   6.617   6.168
 8179SOL     OW25435   3.097   1.215   0.275
 8179SOL    HW125436   3.059   1.129   0.241
 8179SOL    HW225437   3.196   1.207   0.284
 8180SOL     OW25438   4.863   5.503   4.794
 8180SOL    HW125439   4.798   5.528   4.866
 8180SOL    HW225440   4.951   5.479   4.836
 8181SOL     OW25441   2.749   2.353   2.544
 8181SOL    HW125442   2.788   2.346   2.452
 8181SOL    HW225443   2.690   2.434   2.548
 8182SOL     OW25444   3.825   2.147   5.967
 8182SOL    HW125445   3.904   2.103   6.010
 8182SOL    HW225446   3.743   2.093   5.986
 8183SOL     OW25447   1.776   3.366   4.565
 8183SOL    HW125448   1.876   3.365   4.570
 8183SOL    HW225449   1.745   3.453   4.528
 8184SOL     OW25450   6.188   5.842   5.731
 8184SOL    HW125451   6.228   5.880   5.815
 8184SOL    HW225452   6.103   5.890   5.710
 8185SOL     OW25453   1.196   1.723   3.268
 8185SOL    HW125454   1.168   1.813   3.302
 8185SOL    HW225455   1.260   1.733   3.193
 8186SOL     OW25456   3.565   4.787   6.300
 8186SOL    HW125457   3.508   4.720   6.254
 8186SOL    HW225458   3.534   4.880   6.277
 8187SOL     OW25459   1.404   1.551   5.767
 8187SOL    HW125460   1.353   1.516   5.846
 8187SOL    HW225461   1.373   1.505   5.684
 8188SOL     OW25462   5.884   3.933   2.624
 8188SOL    HW125463   5.906   4.030   2.634
 8188SOL    HW225464   5.949   3.889   2.562
 8189SOL     OW25465   6.040   4.563   2.286
 8189SOL    HW125466   6.050   4.581   2.384
 8189SOL    HW225467   6.080   4.639   2.234
 8190SOL     OW25468   5.386   3.532   2.518
 8190SOL    HW125469   5.320   3.502   2.587
 8190SOL    HW225470   5.409   3.628   2.535
 8191SOL     OW25471   0.604   5.128   2.222
 8191SOL    HW125472   0.669   5.204   2.231
 8191SOL    HW225473   0.532   5.138   2.291
 8192SOL     OW25474   1.678   3.862   1.134
 8192SOL    HW125475   1.704   3.818   1.048
 8192SOL    HW225476   1.584   3.896   1.127
 8193SOL     OW25477   3.593   0.442   6.163
 8193SOL    HW125478   3.535   0.482   6.233
 8193SOL    HW225479   3.538   0.419   6.082
 8194SOL     OW25480   1.599   0.746   0.787
 8194SOL    HW125481   1.689   0.705   0.778
 8194SOL    HW225482   1.572   0.789   0.701
 8195SOL     OW25483   6.447   0.163   0.721
 8195SOL    HW125484   6.538   0.135   0.692
 8195SOL    HW225485   6.433   0.140   0.817
 8196SOL     OW25486   2.025   0.610   6.439
 8196SOL    HW125487   1.956   0.570   6.500
 8196SOL    HW225488   2.006   0.707   6.425
 8197SOL     OW25489   1.052   6.814   0.211
 8197SOL    HW125490   0.960   6.794   0.244
 8197SOL    HW225491   1.110   6.839   0.289
 8198SOL     OW25492   4.033   6.200   2.708
 8198SOL    HW125493   4.119   6.210   2.658
 8198SOL    HW225494   4.009   6.287   2.750
 8199SOL     OW25495   6.144   4.066   0.641
 8199SOL    HW125496   6.053   4.063   0.680
 8199SOL    HW225497   6.141   4.112   0.552
 8200SOL     OW25498   4.752   3.552   1.374
 8200SOL    HW125499   4.810   3.633   1.374
 8200SOL    HW225500   4.793   3.481   1.432
 8201SOL     OW25501   6.296   1.108   4.446
 8201SOL    HW125502   6.382   1.158   4.442
 8201SOL    HW225503   6.228   1.162   4.497
 8202SOL     OW25504   1.619   4.151   4.138
 8202SOL    HW125505   1.692   4.094   4.174
 8202SOL    HW225506   1.658   4.220   4.077
 8203SOL     OW25507   6.261   3.905   1.200
 8203SOL    HW125508   6.180   3.849   1.214
 8203SOL    HW225509   6.241   3.979   1.136
 8204SOL     OW25510   3.423   7.009   0.518
 8204SOL    HW125511   3.442   6.941   0.446
 8204SOL    HW225512   3.430   6.965   0.608
 8205SOL     OW25513   5.709   5.578   3.224
 8205SOL    HW125514   5.611   5.557   3.219
 8205SOL    HW225515   5.723   5.675   3.207
 8206SOL     OW25516   4.121   1.948   4.369
 8206SOL    HW125517   4.109   1.922   4.273
 8206SOL    HW225518   4.158   2.041   4.374
 8207SOL     OW25519   2.917   6.349   0.126
 8207SOL    HW125520   2.916   6.319   0.031
 8207SOL    HW225521   2.961   6.279   0.182
 8208SOL     OW25522   1.363   5.013   5.938
 8208SOL    HW125523   1.303   4.939   5.910
 8208SOL    HW225524   1.420   4.984   6.015
 8209SOL     OW25525   0.820   6.688   5.465
 8209SOL    HW125526   0.901   6.633   5.489
 8209SOL    HW225527   0.789   6.664   5.373
 8210SOL     OW25528   3.450   1.745   0.068
 8210SOL    HW125529   3.475   1.649   0.082
 8210SOL    HW225530   3.531   1.803   0.081
 8211SOL     OW25531   3.042   3.561   4.792
 8211SOL    HW125532   3.021   3.464   4.804
 8211SOL    HW225533   2.992   3.614   4.860
 8212SOL     OW25534   3.462   6.411   1.678
 8212SOL    HW125535   3.457   6.330   1.619
 8212SOL    HW225536   3.426   6.490   1.629
 8213SOL     OW25537   4.315   4.422   1.624
 8213SOL    HW125538   4.268   4.345   1.667
 8213SOL    HW225539   4.405   4.435   1.666
 8214SOL     OW25540   4.056   5.097   4.013
 8214SOL    HW125541   4.142   5.144   3.995
 8214SOL    HW225542   4.072   4.998   4.018
 8215SOL     OW25543   3.240   5.830   6.231
 8215SOL    HW125544   3.264   5.903   6.167
 8215SOL    HW225545   3.241   5.742   6.183
 8216SOL     OW25546   5.594   4.634   1.537
 8216SOL    HW125547   5.564   4.580   1.458
 8216SOL    HW225548   5.648   4.576   1.598
 8217SOL     OW25549   2.071   6.533   3.671
 8217SOL    HW125550   1.976   6.547   3.641
 8217SOL    HW225551   2.121   6.484   3.600
 8218SOL     OW25552   2.822   6.053   4.904
 8218SOL    HW125553   2.831   6.148   4.933
 8218SOL    HW225554   2.903   6.025   4.853
 8219SOL     OW25555   4.201   3.429   1.974
 8219SOL    HW125556   4.136   3.388   1.909
 8219SOL    HW225557   4.293   3.398   1.952
 8220SOL     OW25558   3.187   3.791   4.751
 8220SOL    HW125559   3.141   3.850   4.818
 8220SOL    HW225560   3.148   3.699   4.756
 8221SOL     OW25561   5.848   4.196   2.976
 8221SOL    HW125562   5.779   4.252   3.023
 8221SOL    HW225563   5.817   4.174   2.884
 8222SOL     OW25564   6.810   2.943   0.662
 8222SOL    HW125565   6.823   2.943   0.761
 8222SOL    HW225566   6.853   2.861   0.623
 8223SOL     OW25567   2.051   6.254   6.156
 8223SOL    HW125568   2.134   6.208   6.187
 8223SOL    HW225569   2.045   6.344   6.198
 8224SOL     OW25570   5.179   1.021   6.870
 8224SOL    HW125571   5.188   0.972   6.957
 8224SOL    HW225572   5.104   1.086   6.877
 8225SOL     OW25573   5.673   2.274   0.078
 8225SOL    HW125574   5.742   2.325   0.130
 8225SOL    HW225575   5.664   2.313   7.008
 8226SOL     OW25576   3.702   0.869   7.017
 8226SOL    HW125577   3.762   0.789   0.001
 8226SOL    HW225578   3.689   0.894   6.921
 8227SOL     OW25579   4.056   2.186   2.705
 8227SOL    HW125580   4.015   2.175   2.614
 8227SOL    HW225581   4.127   2.256   2.701
 8228SOL     OW25582   2.873   6.946   4.493
 8228SOL    HW125583   2.973   6.938   4.490
 8228SOL    HW225584   2.833   6.885   4.425
 8229SOL     OW25585   4.607   4.039   0.563
 8229SOL    HW125586   4.564   4.059   0.474
 8229SOL    HW225587   4.540   4.053   0.636
 8230SOL     OW25588   5.835   0.214   5.800
 8230SOL    HW125589   5.846   0.226   5.898
 8230SOL    HW225590   5.872   0.293   5.752
 8231SOL     OW25591   2.895   0.960   2.325
 8231SOL    HW125592   2.964   0.956   2.397
 8231SOL    HW225593   2.812   0.913   2.355
 8232SOL     OW25594   3.488   5.544   3.268
 8232SOL    HW125595   3.518   5.451   3.246
 8232SOL    HW225596   3.513   5.566   3.362
 8233SOL     OW25597   1.895   0.827   6.243
 8233SOL    HW125598   1.854   0.736   6.251
 8233SOL    HW225599   1.888   0.859   6.148
 8234SOL     OW25600   1.586   2.298   0.735
 8234SOL    HW125601   1.527   2.348   0.672
 8234SOL    HW225602   1.649   2.362   0.779
 8235SOL     OW25603   0.659   0.975   1.345
 8235SOL    HW125604   0.714   0.922   1.410
 8235SOL    HW225605   0.563   0.948   1.353
 8236SOL     OW25606   1.429   0.090   1.583
 8236SOL    HW125607   1.450   0.098   1.681
 8236SOL    HW225608   1.373   0.167   1.555
 8237SOL     OW25609   3.768   4.673   6.162
 8237SOL    HW125610   3.827   4.735   6.111
 8237SOL    HW225611   3.700   4.726   6.213
 8238SOL     OW25612   0.577   5.259   1.037
 8238SOL    HW125613   0.610   5.347   1.071
 8238SOL    HW225614   0.481   5.247   1.063
 8239SOL     OW25615   1.940   1.502   6.115
 8239SOL    HW125616   1.971   1.450   6.035
 8239SOL    HW225617   1.903   1.438   6.183
 8240SOL     OW25618   3.404   3.230   4.793
 8240SOL    HW125619   3.349   3.171   4.852
 8240SOL    HW225620   3.365   3.322   4.793
 8241SOL     OW25621   1.824   3.393   5.577
 8241SOL    HW125622   1.788   3.478   5.540
 8241SOL    HW225623   1.860   3.408   5.669
 8242SOL     OW25624   0.576   3.147   2.539
 8242SOL    HW125625   0.494   3.108   2.497
 8242SOL    HW225626   0.643   3.075   2.556
 8243SOL     OW25627   1.057   5.748   3.917
 8243SOL    HW125628   1.151   5.736   3.886
 8243SOL    HW225629   1.020   5.833   3.879
 8244SOL     OW25630   6.642   1.261   3.624
 8244SOL    HW125631   6.543   1.255   3.624
 8244SOL    HW225632   6.670   1.357   3.629
 8245SOL     OW25633   5.325   2.523   2.367
 8245SOL    HW125634   5.381   2.564   2.295
 8245SOL    HW225635   5.259   2.459   2.326
 8246SOL     OW25636   1.787   5.318   6.728
 8246SOL    HW125637   1.865   5.259   6.707
 8246SOL    HW225638   1.703   5.264   6.730
 8247SOL     OW25639   2.976   5.240   2.899
 8247SOL    HW125640   2.972   5.316   2.964
 8247SOL    HW225641   2.898   5.180   2.915
 8248SOL     OW25642   6.497   5.576   4.345
 8248SOL    HW125643   6.404   5.612   4.339
 8248SOL    HW225644   6.497   5.493   4.401
 8249SOL     OW25645   3.093   1.405   6.654
 8249SOL    HW125646   3.098   1.376   6.749
 8249SOL    HW225647   3.172   1.370   6.603
 8250SOL     OW25648   1.054   1.967   6.674
 8250SOL    HW125649   1.082   1.983   6.579
 8250SOL    HW225650   1.106   2.027   6.734
 8251SOL     OW25651   0.826   2.092   4.884
 8251SOL    HW125652   0.916   2.103   4.843
 8251SOL    HW225653   0.782   2.181   4.893
 8252SOL     OW25654   0.747   1.537   6.456
 8252SOL    HW125655   0.766   1.629   6.422
 8252SOL    HW225656   0.649   1.519   6.451
 8253SOL     OW25657   4.717   5.736   6.839
 8253SOL    HW125658   4.807   5.767   6.871
 8253SOL    HW225659   4.725   5.642   6.804
 8254SOL     OW25660   6.324   5.229   0.278
 8254SOL    HW125661   6.374   5.243   0.192
 8254SOL    HW225662   6.371   5.159   0.333
 8255SOL     OW25663   2.398   0.385   5.123
 8255SOL    HW125664   2.399   0.480   5.155
 8255SOL    HW225665   2.447   0.379   5.036
 8256SOL     OW25666   1.143   5.367   4.870
 8256SOL    HW125667   1.225   5.425   4.876
 8256SOL    HW225668   1.076   5.410   4.809
 8257SOL     OW25669   5.224   4.044   3.079
 8257SOL    HW125670   5.217   3.975   3.007
 8257SOL    HW225671   5.192   4.132   3.044
 8258SOL     OW25672   0.332   2.985   3.413
 8258SOL    HW125673   0.412   2.944   3.370
 8258SOL    HW225674   0.343   2.982   3.513
 8259SOL     OW25675   5.592   2.034   4.257
 8259SOL    HW125676   5.579   1.972   4.179
 8259SOL    HW225677   5.689   2.056   4.266
 8260SOL     OW25678   5.272   2.586   0.927
 8260SOL    HW125679   5.288   2.665   0.986
 8260SOL    HW225680   5.266   2.617   0.832
 8261SOL     OW25681   5.460   1.469   2.715
 8261SOL    HW125682   5.363   1.491   2.727
 8261SOL    HW225683   5.474   1.428   2.625
 8262SOL     OW25684   5.545   3.603   1.762
 8262SOL    HW125685   5.491   3.619   1.845
 8262SOL    HW225686   5.620   3.540   1.783
 8263SOL     OW25687   6.683   1.533   5.630
 8263SOL    HW125688   6.618   1.481   5.575
 8263SOL    HW225689   6.660   1.630   5.625
 8264SOL     OW25690   3.112   0.426   2.482
 8264SOL    HW125691   3.025   0.458   2.445
 8264SOL    HW225692   3.098   0.391   2.575
 8265SOL     OW25693   5.011   5.985   0.546
 8265SOL    HW125694   5.049   5.971   0.638
 8265SOL    HW225695   4.914   5.961   0.547
 8266SOL     OW25696   3.409   0.952   3.584
 8266SOL    HW125697   3.379   0.858   3.595
 8266SOL    HW225698   3.347   1.013   3.632
 8267SOL     OW25699   2.087   3.217   2.724
 8267SOL    HW125700   2.091   3.261   2.634
 8267SOL    HW225701   2.063   3.121   2.713
 8268SOL     OW25702   3.303   4.267   6.616
 8268SOL    HW125703   3.284   4.268   6.517
 8268SOL    HW225704   3.231   4.218   6.663
 8269SOL     OW25705   6.404   2.986   4.813
 8269SOL    HW125706   6.427   2.997   4.717
 8269SOL    HW225707   6.453   2.907   4.850
 8270SOL     OW25708   4.515   5.859   6.723
 8270SOL    HW125709   4.590   5.801   6.755
 8270SOL    HW225710   4.493   5.836   6.628
 8271SOL     OW25711   3.159   6.721   6.195
 8271SOL    HW125712   3.060   6.728   6.189
 8271SOL    HW225713   3.189   6.742   6.288
 8272SOL     OW25714   1.368   0.776   2.164
 8272SOL    HW125715   1.366   0.830   2.080
 8272SOL    HW225716   1.424   0.695   2.151
 8273SOL     OW25717   4.125   0.608   0.038
 8273SOL    HW125718   4.135   0.528   7.000
 8273SOL    HW225719   4.204   0.613   0.100
 8274SOL     OW25720   5.351   6.371   5.700
 8274SOL    HW125721   5.296   6.321   5.633
 8274SOL    HW225722   5.447   6.369   5.672
 8275SOL     OW25723   5.216   1.183   4.536
 8275SOL    HW125724   5.160   1.167   4.455
 8275SOL    HW225725   5.255   1.096   4.566
 8276SOL     OW25726   6.248   2.346   6.930
 8276SOL    HW125727   6.257   2.326   6.832
 8276SOL    HW225728   6.292   2.274   6.983
 8277SOL     OW25729   1.441   6.951   0.437
 8277SOL    HW125730   1.521   6.902   0.402
 8277SOL    HW225731   1.438   6.943   0.537
 8278SOL     OW25732   2.766   1.181   0.825
 8278SOL    HW125733   2.796   1.275   0.812
 8278SOL    HW225734   2.845   1.120   0.830
 8279SOL     OW25735   4.091   5.755   5.045
 8279SOL    HW125736   4.029   5.713   5.111
 8279SOL    HW225737   4.150   5.821   5.091
 8280SOL     OW25738   5.223   3.645   6.603
 8280SOL    HW125739   5.245   3.716   6.671
 8280SOL    HW225740   5.167   3.574   6.646
 8281SOL     OW25741   2.890   5.629   6.954
 8281SOL    HW125742   2.875   5.598   6.860
 8281SOL    HW225743   2.810   5.680   6.985
 8282SOL     OW25744   2.801   3.137   1.815
 8282SOL    HW125745   2.733   3.064   1.825
 8282SOL    HW225746   2.754   3.225   1.808
 8283SOL     OW25747   0.506   0.147   3.735
 8283SOL    HW125748   0.438   0.089   3.779
 8283SOL    HW225749   0.459   0.217   3.681
 8284SOL     OW25750   4.076   1.614   1.397
 8284SOL    HW125751   4.115   1.609   1.305
 8284SOL    HW225752   4.148   1.634   1.463
 8285SOL     OW25753   1.904   4.209   0.171
 8285SOL    HW125754   1.915   4.154   0.088
 8285SOL    HW225755   1.872   4.152   0.245
 8286SOL     OW25756   6.525   2.631   5.736
 8286SOL    HW125757   6.524   2.537   5.704
 8286SOL    HW225758   6.504   2.634   5.833
 8287SOL     OW25759   2.200   0.813   3.675
 8287SOL    HW125760   2.217   0.895   3.730
 8287SOL    HW225761   2.216   0.834   3.579
 8288SOL     OW25762   1.627   6.858   3.151
 8288SOL    HW125763   1.563   6.918   3.199
 8288SOL    HW225764   1.609   6.863   3.052
 8289SOL     OW25765   5.824   0.723   6.732
 8289SOL    HW125766   5.756   0.793   6.754
 8289SOL    HW225767   5.782   0.650   6.679
 8290SOL     OW25768   4.669   2.827   1.762
 8290SOL    HW125769   4.667   2.913   1.813
 8290SOL    HW225770   4.658   2.750   1.825
 8291SOL     OW25771   5.077   6.118   6.264
 8291SOL    HW125772   5.000   6.116   6.328
 8291SOL    HW225773   5.084   6.030   6.217
 8292SOL     OW25774   0.691   2.370   4.877
 8292SOL    HW125775   0.718   2.453   4.829
 8292SOL    HW225776   0.723   2.374   4.972
 8293SOL     OW25777   2.666   5.290   4.081
 8293SOL    HW125778   2.630   5.213   4.027
 8293SOL    HW225779   2.703   5.255   4.167
 8294SOL     OW25780   4.978   4.069   6.041
 8294SOL    HW125781   5.009   3.975   6.056
 8294SOL    HW225782   5.046   4.119   5.988
 8295SOL     OW25783   5.029   4.419   2.460
 8295SOL    HW125784   5.009   4.335   2.409
 8295SOL    HW225785   4.957   4.486   2.443
 8296SOL     OW25786   3.773   6.613   2.568
 8296SOL    HW125787   3.795   6.516   2.578
 8296SOL    HW225788   3.712   6.626   2.490
 8297SOL     OW25789   5.790   4.669   2.717
 8297SOL    HW125790   5.717   4.601   2.718
 8297SOL    HW225791   5.792   4.717   2.805
 8298SOL     OW25792   0.284   0.164   0.250
 8298SOL    HW125793   0.341   0.176   0.332
 8298SOL    HW225794   0.269   0.067   0.234
 8299SOL     OW25795   1.165   3.105   0.037
 8299SOL    HW125796   1.122   3.043   0.103
 8299SOL    HW225797   1.202   3.184   0.086
 8300SOL     OW25798   6.075   5.324   4.016
 8300SOL    HW125799   6.065   5.227   4.039
 8300SOL    HW225800   6.126   5.333   3.931
 8301SOL     OW25801   5.787   6.277   0.425
 8301SOL    HW125802   5.867   6.282   0.365
 8301SOL    HW225803   5.712   6.330   0.386
 8302SOL     OW25804   3.759   6.995   5.315
 8302SOL    HW125805   3.809   0.057   5.335
 8302SOL    HW225806   3.807   6.943   5.245
 8303SOL     OW25807   0.344   5.372   2.347
 8303SOL    HW125808   0.352   5.273   2.334
 8303SOL    HW225809   0.263   5.405   2.300
 8304SOL     OW25810   6.400   4.151   3.245
 8304SOL    HW125811   6.313   4.170   3.199
 8304SOL    HW225812   6.410   4.211   3.324
 8305SOL     OW25813   5.247   6.975   6.058
 8305SOL    HW125814   5.299   7.011   6.135
 8305SOL    HW225815   5.279   7.017   5.973
 8306SOL     OW25816   6.391   1.345   3.575
 8306SOL    HW125817   6.421   1.439   3.590
 8306SOL    HW225818   6.295   1.336   3.601
 8307SOL     OW25819   1.543   3.594   3.203
 8307SOL    HW125820   1.564   3.505   3.243
 8307SOL    HW225821   1.487   3.647   3.266
 8308SOL     OW25822   1.475   5.855   1.089
 8308SOL    HW125823   1.431   5.863   1.178
 8308SOL    HW225824   1.419   5.797   1.029
 8309SOL     OW25825   5.924   5.275   4.407
 8309SOL    HW125826   5.843   5.284   4.349
 8309SOL    HW225827   6.006   5.293   4.352
 8310SOL     OW25828   1.971   0.215   1.906
 8310SOL    HW125829   2.056   0.168   1.928
 8310SOL    HW225830   1.930   0.173   1.824
 8311SOL     OW25831   4.612   5.486   3.111
 8311SOL    HW125832   4.692   5.544   3.124
 8311SOL    HW225833   4.557   5.485   3.194
 8312SOL     OW25834   5.836   1.590   0.317
 8312SOL    HW125835   5.903   1.533   0.269
 8312SOL    HW225836   5.881   1.639   0.392
 8313SOL     OW25837   5.825   2.364   5.593
 8313SOL    HW125838   5.870   2.408   5.671
 8313SOL    HW225839   5.888   2.300   5.549
 8314SOL     OW25840   4.585   6.292   4.286
 8314SOL    HW125841   4.542   6.380   4.270
 8314SOL    HW225842   4.570   6.265   4.381
 8315SOL     OW25843   3.880   2.957   4.896
 8315SOL    HW125844   3.932   2.948   4.980
 8315SOL    HW225845   3.918   3.031   4.840
 8316SOL     OW25846   2.509   1.646   5.500
 8316SOL    HW125847   2.465   1.731   5.469
 8316SOL    HW225848   2.469   1.618   5.587
 8317SOL     OW25849   1.360   1.900   4.018
 8317SOL    HW125850   1.323   1.895   3.925
 8317SOL    HW225851   1.324   1.981   4.064
 8318SOL     OW25852   3.938   6.629   5.878
 8318SOL    HW125853   3.981   6.561   5.818
 8318SOL    HW225854   3.951   6.602   5.973
 8319SOL     OW25855   1.903   5.553   6.221
 8319SOL    HW125856   1.898   5.505   6.308
 8319SOL    HW225857   1.829   5.620   6.216
 8320SOL     OW25858   3.841   3.576   5.394
 8320SOL    HW125859   3.749   3.617   5.388
 8320SOL    HW225860   3.890   3.617   5.471
 8321SOL     OW25861   0.727   0.325   0.449
 8321SOL    HW125862   0.635   0.285   0.444
 8321SOL    HW225863   0.760   0.343   0.356
 8322SOL     OW25864   0.910   0.224   0.614
 8322SOL    HW125865   0.993   0.280   0.605
 8322SOL    HW225866   0.842   0.256   0.547
 8323SOL     OW25867   5.880   4.629   0.005
 8323SOL    HW125868   5.835   4.607   6.940
 8323SOL    HW225869   5.860   4.723   0.030
 8324SOL     OW25870   5.620   6.924   0.144
 8324SOL    HW125871   5.636   6.825   0.135
 8324SOL    HW225872   5.678   6.961   0.216
 8325SOL     OW25873   1.401   6.890   5.095
 8325SOL    HW125874   1.353   6.907   5.009
 8325SOL    HW225875   1.335   6.861   5.165
 8326SOL     OW25876   2.037   2.957   6.847
 8326SOL    HW125877   2.131   2.976   6.877
 8326SOL    HW225878   2.013   2.863   6.870
 8327SOL     OW25879   0.979   5.900   4.721
 8327SOL    HW125880   0.892   5.877   4.764
 8327SOL    HW225881   0.963   5.927   4.626
 8328SOL     OW25882   0.987   6.493   0.278
 8328SOL    HW125883   1.040   6.568   0.237
 8328SOL    HW225884   0.963   6.518   0.372
 8329SOL     OW25885   1.782   2.899   4.717
 8329SOL    HW125886   1.856   2.894   4.650
 8329SOL    HW225887   1.711   2.962   4.685
 8330SOL     OW25888   2.949   0.556   6.686
 8330SOL    HW125889   3.013   0.589   6.756
 8330SOL    HW225890   2.943   0.622   6.612
 8331SOL     OW25891   2.014   2.374   6.830
 8331SOL    HW125892   2.054   2.430   6.903
 8331SOL    HW225893   2.088   2.337   6.773
 8332SOL     OW25894   6.736   3.928   1.760
 8332SOL    HW125895   6.713   4.026   1.757
 8332SOL    HW225896   6.677   3.883   1.826
 8333SOL     OW25897   2.007   4.078   6.970
 8333SOL    HW125898   1.958   4.019   6.906
 8333SOL    HW225899   2.105   4.062   6.962
 8334SOL     OW25900   3.184   1.768   5.346
 8334SOL    HW125901   3.128   1.851   5.351
 8334SOL    HW225902   3.278   1.792   5.325
 8335SOL     OW25903   5.318   4.969   5.481
 8335SOL    HW125904   5.267   4.977   5.567
 8335SOL    HW225905   5.376   4.887   5.485
 8336SOL     OW25906   1.080   3.877   3.622
 8336SOL    HW125907   1.100   3.887   3.525
 8336SOL    HW225908   0.987   3.907   3.640
 8337SOL     OW25909   6.552   1.111   3.883
 8337SOL    HW125910   6.564   1.022   3.926
 8337SOL    HW225911   6.631   1.169   3.902
 8338SOL     OW25912   3.110   5.183   0.956
 8338SOL    HW125913   3.195   5.214   0.996
 8338SOL    HW225914   3.113   5.196   0.856
 8339SOL     OW25915   5.875   0.240   1.676
 8339SOL    HW125916   5.905   0.335   1.670
 8339SOL    HW225917   5.894   0.205   1.768
 8340SOL     OW25918   6.529   2.455   6.263
 8340SOL    HW125919   6.515   2.382   6.330
 8340SOL    HW225920   6.461   2.446   6.190
 8341SOL     OW25921   4.024   1.407   0.465
 8341SOL    HW125922   3.933   1.392   0.426
 8341SOL    HW225923   4.092   1.358   0.411
 8342SOL     OW25924   4.590   0.400   0.124
 8342SOL    HW125925   4.632   0.468   0.183
 8342SOL    HW225926   4.501   0.432   0.092
 8343SOL     OW25927   5.863   5.216   3.699
 8343SOL    HW125928   5.809   5.263   3.629
 8343SOL    HW225929   5.845   5.258   3.789
 8344SOL     OW25930   1.323   4.675   6.308
 8344SOL    HW125931   1.327   4.628   6.220
 8344SOL    HW225932   1.289   4.613   6.378
 8345SOL     OW25933   5.387   0.121   3.551
 8345SOL    HW125934   5.387   0.219   3.568
 8345SOL    HW225935   5.420   0.073   3.633
 8346SOL     OW25936   5.689   3.183   4.385
 8346SOL    HW125937   5.615   3.119   4.400
 8346SOL    HW225938   5.662   3.274   4.416
 8347SOL     OW25939   2.262   1.743   6.640
 8347SOL    HW125940   2.355   1.762   6.608
 8347SOL    HW225941   2.204   1.721   6.562
 8348SOL     OW25942   3.051   5.967   2.013
 8348SOL    HW125943   2.955   5.942   2.023
 8348SOL    HW225944   3.061   6.066   2.029
 8349SOL     OW25945   5.548   6.305   1.924
 8349SOL    HW125946   5.471   6.324   1.863
 8349SOL    HW225947   5.538   6.358   2.008
 8350SOL     OW25948   1.842   1.376   0.215
 8350SOL    HW125949   1.837   1.285   0.173
 8350SOL    HW225950   1.879   1.441   0.149
 8351SOL     OW25951   0.026   2.670   3.226
 8351SOL    HW125952   7.018   2.606   3.156
 8351SOL    HW225953   0.094   2.625   3.285
 8352SOL     OW25954   2.618   5.775   0.376
 8352SOL    HW125955   2.603   5.862   0.423
 8352SOL    HW225956   2.553   5.767   0.300
 8353SOL     OW25957   1.088   5.456   1.490
 8353SOL    HW125958   1.004   5.496   1.526
 8353SOL    HW225959   1.068   5.366   1.452
 8354SOL     OW25960   3.788   0.586   3.231
 8354SOL    HW125961   3.738   0.611   3.148
 8354SOL    HW225962   3.863   0.523   3.207
 8355SOL     OW25963   3.187   5.573   6.719
 8355SOL    HW125964   3.283   5.591   6.698
 8355SOL    HW225965   3.151   5.647   6.777
 8356SOL     OW25966   2.707   4.399   0.853
 8356SOL    HW125967   2.693   4.426   0.949
 8356SOL    HW225968   2.759   4.470   0.806
 8357SOL     OW25969   4.831   6.709   5.373
 8357SOL    HW125970   4.854   6.691   5.468
 8357SOL    HW225971   4.740   6.673   5.353
 8358SOL     OW25972   1.273   1.070   5.006
 8358SOL    HW125973   1.259   1.009   5.084
 8358SOL    HW225974   1.215   1.041   4.930
 8359SOL     OW25975   4.290   1.899   6.031
 8359SOL    HW125976   4.253   1.806   6.033
 8359SOL    HW225977   4.380   1.900   6.073
 8360SOL     OW25978   4.350   0.383   0.385
 8360SOL    HW125979   4.258   0.413   0.411
 8360SOL    HW225980   4.344   0.313   0.315
 8361SOL     OW25981   4.193   1.343   6.814
 8361SOL    HW125982   4.172   1.251   6.781
 8361SOL    HW225983   4.255   1.388   6.749
 8362SOL     OW25984   0.153   3.825   1.630
 8362SOL    HW125985   0.098   3.898   1.671
 8362SOL    HW225986   0.196   3.859   1.546
 8363SOL     OW25987   1.987   2.930   1.444
 8363SOL    HW125988   1.960   3.007   1.501
 8363SOL    HW225989   2.067   2.885   1.483
 8364SOL     OW25990   6.924   2.416   4.074
 8364SOL    HW125991   7.009   2.383   4.034
 8364SOL    HW225992   6.852   2.347   4.064
 8365SOL     OW25993   1.668   2.308   2.249
 8365SOL    HW125994   1.676   2.319   2.150
 8365SOL    HW225995   1.606   2.377   2.286
 8366SOL     OW25996   5.380   4.679   2.085
 8366SOL    HW125997   5.307   4.696   2.151
 8366SOL    HW225998   5.351   4.608   2.021
 8367SOL     OW25999   1.988   4.644   4.073
 8367SOL    HW126000   2.025   4.580   4.005
 8367SOL    HW226001   1.960   4.594   4.154
 8368SOL     OW26002   6.134   6.310   5.756
 8368SOL    HW126003   6.207   6.376   5.770
 8368SOL    HW226004   6.139   6.274   5.663
 8369SOL     OW26005   2.438   6.650   0.284
 8369SOL    HW126006   2.529   6.649   0.324
 8369SOL    HW226007   2.373   6.690   0.350
 8370SOL     OW26008   2.881   3.792   6.973
 8370SOL    HW126009   2.925   3.702   6.966
 8370SOL    HW226010   2.950   3.863   6.985
 8371SOL     OW26011   2.462   4.343   5.783
 8371SOL    HW126012   2.405   4.375   5.858
 8371SOL    HW226013   2.427   4.255   5.750
 8372SOL     OW26014   2.123   6.601   0.775
 8372SOL    HW126015   2.042   6.544   0.787
 8372SOL    HW226016   2.101   6.696   0.797
 8373SOL     OW26017   6.060   1.405   4.022
 8373SOL    HW126018   6.000   1.407   4.101
 8373SOL    HW226019   6.090   1.310   4.005
 8374SOL     OW26020   6.639   0.594   4.051
 8374SOL    HW126021   6.570   0.534   4.010
 8374SOL    HW226022   6.672   0.659   3.982
 8375SOL     OW26023   2.441   1.511   4.818
 8375SOL    HW126024   2.406   1.418   4.825
 8375SOL    HW226025   2.377   1.574   4.863
 8376SOL     OW26026   0.721   1.839   3.899
 8376SOL    HW126027   0.741   1.776   3.974
 8376SOL    HW226028   0.699   1.786   3.817
 8377SOL     OW26029   4.747   5.465   0.116
 8377SOL    HW126030   4.653   5.444   0.089
 8377SOL    HW226031   4.793   5.513   0.042
 8378SOL     OW26032   4.760   6.049   4.491
 8378SOL    HW126033   4.688   6.108   4.526
 8378SOL    HW226034   4.724   5.992   4.418
 8379SOL     OW26035   5.985   2.018   1.693
 8379SOL    HW126036   5.926   2.097   1.703
 8379SOL    HW226037   6.062   2.024   1.757
 8380SOL     OW26038   0.190   6.295   0.997
 8380SOL    HW126039   0.229   6.214   1.041
 8380SOL    HW226040   0.092   6.284   0.986
 8381SOL     OW26041   0.495   1.506   2.778
 8381SOL    HW126042   0.446   1.591   2.757
 8381SOL    HW226043   0.507   1.453   2.694
 8382SOL     OW26044   1.383   0.834   1.217
 8382SOL    HW126045   1.458   0.869   1.160
 8382SOL    HW226046   1.402   0.740   1.243
 8383SOL     OW26047   2.732   0.165   6.185
 8383SOL    HW126048   2.707   0.219   6.105
 8383SOL    HW226049   2.832   0.157   6.190
 8384SOL     OW26050   1.093   3.790   3.310
 8384SOL    HW126051   1.128   3.779   3.217
 8384SOL    HW226052   1.010   3.735   3.321
 8385SOL     OW26053   4.184   3.101   1.478
 8385SOL    HW126054   4.241   3.028   1.441
 8385SOL    HW226055   4.137   3.148   1.403
 8386SOL     OW26056   2.450   5.981   1.442
 8386SOL    HW126057   2.480   5.886   1.433
 8386SOL    HW226058   2.463   6.012   1.536
 8387SOL     OW26059   0.902   1.607   3.510
 8387SOL    HW126060   0.812   1.646   3.487
 8387SOL    HW226061   0.939   1.561   3.429
 8388SOL     OW26062   4.299   5.810   0.599
 8388SOL    HW126063   4.376   5.837   0.656
 8388SOL    HW226064   4.214   5.844   0.640
 8389SOL     OW26065   0.684   2.894   4.247
 8389SOL    HW126066   0.637   2.978   4.218
 8389SOL    HW226067   0.699   2.836   4.167
 8390SOL     OW26068   2.682   0.246   5.920
 8390SOL    HW126069   2.658   0.283   5.830
 8390SOL    HW226070   2.686   0.146   5.915
 8391SOL     OW26071   5.817   5.842   0.657
 8391SOL    HW126072   5.808   5.941   0.663
 8391SOL    HW226073   5.910   5.815   0.682
 8392SOL     OW26074   4.857   6.463   5.908
 8392SOL    HW126075   4.951   6.472   5.944
 8392SOL    HW226076   4.849   6.377   5.859
 8393SOL     OW26077   0.191   5.370   2.595
 8393SOL    HW126078   0.245   5.358   2.512
 8393SOL    HW226079   0.246   5.415   2.665
 8394SOL     OW26080   0.349   1.721   3.068
 8394SOL    HW126081   0.320   1.784   2.995
 8394SOL    HW226082   0.294   1.638   3.064
 8395SOL     OW26083   1.217   6.219   5.139
 8395SOL    HW126084   1.263   6.140   5.179
 8395SOL    HW226085   1.196   6.285   5.211
 8396SOL     OW26086   4.131   3.150   1.190
 8396SOL    HW126087   4.076   3.081   1.143
 8396SOL    HW226088   4.227   3.123   1.190
 8397SOL     OW26089   2.310   5.043   3.748
 8397SOL    HW126090   2.354   4.962   3.785
 8397SOL    HW226091   2.231   5.016   3.692
 8398SOL     OW26092   4.997   1.564   0.289
 8398SOL    HW126093   5.069   1.629   0.315
 8398SOL    HW226094   4.908   1.604   0.310
 8399SOL     OW26095   5.800   5.810   0.037
 8399SOL    HW126096   5.824   5.763   6.973
 8399SOL    HW226097   5.701   5.813   0.047
 8400SOL     OW26098   5.911   0.050   4.815
 8400SOL    HW126099   6.005   0.082   4.803
 8400SOL    HW226100   5.902   6.978   4.781
 8401SOL     OW26101   2.856   4.264   6.060
 8401SOL    HW126102   2.853   4.304   6.151
 8401SOL    HW226103   2.809   4.326   5.996
 8402SOL     OW26104   4.680   1.252   6.523
 8402SOL    HW126105   4.721   1.208   6.443
 8402SOL    HW226106   4.658   1.347   6.501
 8403SOL     OW26107   1.327   1.900   4.482
 8403SOL    HW126108   1.280   1.944   4.559
 8403SOL    HW226109   1.269   1.828   4.445
 8404SOL     OW26110   4.617   5.036   5.240
 8404SOL    HW126111   4.583   4.984   5.162
 8404SOL    HW226112   4.593   5.133   5.228
 8405SOL     OW26113   1.366   2.352   4.995
 8405SOL    HW126114   1.367   2.397   4.905
 8405SOL    HW226115   1.406   2.413   5.063
 8406SOL     OW26116   5.052   3.440   1.036
 8406SOL    HW126117   5.143   3.403   1.020
 8406SOL    HW226118   5.055   3.503   1.113
 8407SOL     OW26119   4.959   3.286   2.555
 8407SOL    HW126120   5.054   3.263   2.536
 8407SOL    HW226121   4.933   3.366   2.501
 8408SOL     OW26122   4.656   2.754   4.084
 8408SOL    HW126123   4.656   2.812   4.166
 8408SOL    HW226124   4.693   2.805   4.007
 8409SOL     OW26125   0.694   1.935   4.267
 8409SOL    HW126126   0.767   1.966   4.328
 8409SOL    HW226127   0.651   2.014   4.223
 8410SOL     OW26128   2.516   6.338   2.389
 8410SOL    HW126129   2.421   6.347   2.360
 8410SOL    HW226130   2.532   6.245   2.422
 8411SOL     OW26131   1.958   3.125   3.417
 8411SOL    HW126132   2.043   3.137   3.366
 8411SOL    HW226133   1.978   3.083   3.505
 8412SOL     OW26134   5.922   3.014   2.062
 8412SOL    HW126135   5.941   2.929   2.013
 8412SOL    HW226136   6.004   3.072   2.062
 8413SOL     OW26137   2.475   4.625   1.556
 8413SOL    HW126138   2.521   4.596   1.640
 8413SOL    HW226139   2.384   4.585   1.553
 8414SOL     OW26140   5.156   6.754   2.418
 8414SOL    HW126141   5.117   6.808   2.492
 8414SOL    HW226142   5.183   6.664   2.453
 8415SOL     OW26143   6.907   3.530   1.663
 8415SOL    HW126144   6.814   3.495   1.652
 8415SOL    HW226145   6.945   3.497   1.749
 8416SOL     OW26146   5.117   3.981   2.508
 8416SOL    HW126147   5.081   3.963   2.416
 8416SOL    HW226148   5.099   3.903   2.567
 8417SOL     OW26149   2.310   5.698   6.441
 8417SOL    HW126150   2.238   5.691   6.372
 8417SOL    HW226151   2.382   5.760   6.408
 8418SOL     OW26152   6.040   5.517   2.520
 8418SOL    HW126153   5.989   5.457   2.582
 8418SOL    HW226154   6.132   5.531   2.556
 8419SOL     OW26155   4.195   6.853   3.715
 8419SOL    HW126156   4.242   6.884   3.632
 8419SOL    HW226157   4.143   6.770   3.695
 8420SOL     OW26158   3.807   1.998   5.727
 8420SOL    HW126159   3.850   2.061   5.791
 8420SOL    HW226160   3.742   2.048   5.669
 8421SOL     OW26161   1.586   6.640   1.776
 8421SOL    HW126162   1.650   6.601   1.710
 8421SOL    HW226163   1.493   6.637   1.738
 8422SOL     OW26164   4.028   6.484   1.391
 8422SOL    HW126165   4.009   6.563   1.449
 8422SOL    HW226166   4.028   6.401   1.447
 8423SOL     OW26167   2.042   3.999   1.280
 8423SOL    HW126168   1.946   3.973   1.290
 8423SOL    HW226169   2.082   3.952   1.202
 8424SOL     OW26170   3.263   2.046   2.387
 8424SOL    HW126171   3.269   2.085   2.479
 8424SOL    HW226172   3.201   2.102   2.331
 8425SOL     OW26173   6.183   4.983   0.104
 8425SOL    HW126174   6.203   5.080   0.092
 8425SOL    HW226175   6.227   4.949   0.187
 8426SOL     OW26176   4.001   3.710   2.392
 8426SOL    HW126177   4.048   3.745   2.473
 8426SOL    HW226178   3.911   3.675   2.418
 8427SOL     OW26179   2.290   3.224   6.247
 8427SOL    HW126180   2.213   3.287   6.247
 8427SOL    HW226181   2.374   3.274   6.268
 8428SOL     OW26182   5.588   4.380   1.759
 8428SOL    HW126183   5.599   4.296   1.813
 8428SOL    HW226184   5.562   4.455   1.820
 8429SOL     OW26185   2.183   0.039   2.955
 8429SOL    HW126186   2.157   6.981   2.901
 8429SOL    HW226187   2.283   0.041   2.966
 8430SOL     OW26188   5.072   4.064   3.306
 8430SOL    HW126189   5.113   4.058   3.215
 8430SOL    HW226190   5.143   4.091   3.372
 8431SOL     OW26191   2.916   4.027   1.504
 8431SOL    HW126192   2.868   4.110   1.532
 8431SOL    HW226193   2.851   3.950   1.504
 8432SOL     OW26194   4.762   6.578   0.431
 8432SOL    HW126195   4.663   6.562   0.431
 8432SOL    HW226196   4.785   6.641   0.357
 8433SOL     OW26197   1.775   1.299   4.730
 8433SOL    HW126198   1.841   1.287   4.803
 8433SOL    HW226199   1.733   1.389   4.737
 8434SOL     OW26200   5.838   6.044   6.153
 8434SOL    HW126201   5.848   5.945   6.155
 8434SOL    HW226202   5.857   6.078   6.061
 8435SOL     OW26203   4.990   2.614   1.280
 8435SOL    HW126204   5.053   2.542   1.308
 8435SOL    HW226205   5.004   2.695   1.337
 8436SOL     OW26206   3.651   4.250   1.443
 8436SOL    HW126207   3.703   4.167   1.422
 8436SOL    HW226208   3.555   4.236   1.420
 8437SOL     OW26209   0.034   2.235   1.483
 8437SOL    HW126210   7.013   2.218   1.572
 8437SOL    HW226211   0.133   2.230   1.492
 8438SOL     OW26212   1.972   6.519   1.342
 8438SOL    HW126213   1.938   6.582   1.412
 8438SOL    HW226214   1.895   6.469   1.302
 8439SOL     OW26215   5.950   6.462   2.370
 8439SOL    HW126216   6.012   6.540   2.368
 8439SOL    HW226217   5.972   6.400   2.295
 8440SOL     OW26218   0.228   1.906   3.508
 8440SOL    HW126219   0.151   1.865   3.458
 8440SOL    HW226220   0.218   1.887   3.605
 8441SOL     OW26221   4.647   5.040   1.377
 8441SOL    HW126222   4.633   5.134   1.346
 8441SOL    HW226223   4.650   4.979   1.299
 8442SOL     OW26224   1.499   3.617   0.406
 8442SOL    HW126225   1.535   3.703   0.369
 8442SOL    HW226226   1.551   3.540   0.370
 8443SOL     OW26227   1.160   1.604   2.373
 8443SOL    HW126228   1.153   1.636   2.467
 8443SOL    HW226229   1.086   1.645   2.318
 8444SOL     OW26230   4.297   0.165   2.762
 8444SOL    HW126231   4.357   0.245   2.759
 8444SOL    HW226232   4.204   0.194   2.783
 8445SOL     OW26233   4.129   5.724   2.119
 8445SOL    HW126234   4.191   5.665   2.066
 8445SOL    HW226235   4.043   5.734   2.070
 8446SOL     OW26236   6.590   4.895   3.716
 8446SOL    HW126237   6.648   4.974   3.695
 8446SOL    HW226238   6.522   4.883   3.644
 8447SOL     OW26239   4.975   3.102   1.304
 8447SOL    HW126240   5.073   3.122   1.307
 8447SOL    HW226241   4.926   3.167   1.362
 8448SOL     OW26242   0.702   2.820   6.138
 8448SOL    HW126243   0.791   2.800   6.097
 8448SOL    HW226244   0.700   2.785   6.231
 8449SOL     OW26245   1.299   1.839   5.231
 8449SOL    HW126246   1.352   1.766   5.273
 8449SOL    HW226247   1.303   1.920   5.290
 8450SOL     OW26248   2.696   4.923   2.241
 8450SOL    HW126249   2.615   4.882   2.198
 8450SOL    HW226250   2.760   4.952   2.170
 8451SOL     OW26251   4.458   3.325   0.352
 8451SOL    HW126252   4.496   3.273   0.429
 8451SOL    HW226253   4.443   3.420   0.381
 8452SOL     OW26254   6.612   5.869   0.694
 8452SOL    HW126255   6.553   5.819   0.631
 8452SOL    HW226256   6.705   5.831   0.691
 8453SOL     OW26257   0.610   4.639   5.513
 8453SOL    HW126258   0.692   4.653   5.570
 8453SOL    HW226259   0.528   4.660   5.566
 8454SOL     OW26260   1.888   6.738   4.558
 8454SOL    HW126261   1.811   6.699   4.608
 8454SOL    HW226262   1.974   6.702   4.594
 8455SOL     OW26263   6.442   2.261   0.965
 8455SOL    HW126264   6.540   2.244   0.955
 8455SOL    HW226265   6.407   2.303   0.881
 8456SOL     OW26266   5.650   5.825   3.114
 8456SOL    HW126267   5.739   5.870   3.125
 8456SOL    HW226268   5.578   5.895   3.108
 8457SOL     OW26269   6.316   6.422   6.508
 8457SOL    HW126270   6.255   6.394   6.583
 8457SOL    HW226271   6.361   6.508   6.533
 8458SOL     OW26272   1.373   1.753   1.789
 8458SOL    HW126273   1.372   1.805   1.874
 8458SOL    HW226274   1.375   1.655   1.809
 8459SOL     OW26275   2.841   5.510   2.481
 8459SOL    HW126276   2.752   5.502   2.436
 8459SOL    HW226277   2.864   5.425   2.527
 8460SOL     OW26278   4.039   0.994   0.310
 8460SOL    HW126279   3.965   1.015   0.247
 8460SOL    HW226280   4.001   0.963   0.397
 8461SOL     OW26281   5.424   3.993   2.727
 8461SOL    HW126282   5.443   4.080   2.772
 8461SOL    HW226283   5.348   3.948   2.774
 8462SOL     OW26284   2.726   4.195   0.479
 8462SOL    HW126285   2.648   4.253   0.500
 8462SOL    HW226286   2.736   4.125   0.549
 8463SOL     OW26287   6.306   0.939   6.772
 8463SOL    HW126288   6.312   1.031   6.812
 8463SOL    HW226289   6.395   0.895   6.773
 8464SOL     OW26290   6.837   3.660   6.297
 8464SOL    HW126291   6.900   3.583   6.299
 8464SOL    HW226292   6.823   3.694   6.390
 8465SOL     OW26293   4.972   3.120   0.748
 8465SOL    HW126294   4.915   3.154   0.823
 8465SOL    HW226295   5.068   3.137   0.769
 8466SOL     OW26296   6.187   1.492   5.553
 8466SOL    HW126297   6.128   1.535   5.485
 8466SOL    HW226298   6.132   1.436   5.615
 8467SOL     OW26299   3.456   1.278   0.629
 8467SOL    HW126300   3.474   1.330   0.712
 8467SOL    HW226301   3.358   1.278   0.611
 8468SOL     OW26302   5.779   3.270   0.225
 8468SOL    HW126303   5.696   3.320   0.203
 8468SOL    HW226304   5.833   3.322   0.290
 8469SOL     OW26305   4.491   3.282   5.883
 8469SOL    HW126306   4.438   3.357   5.923
 8469SOL    HW226307   4.488   3.202   5.943
 8470SOL     OW26308   1.254   5.278   1.182
 8470SOL    HW126309   1.353   5.270   1.175
 8470SOL    HW226310   1.223   5.356   1.128
 8471SOL     OW26311   3.445   1.660   4.254
 8471SOL    HW126312   3.376   1.631   4.320
 8471SOL    HW226313   3.533   1.619   4.277
 8472SOL     OW26314   6.167   1.756   5.677
 8472SOL    HW126315   6.132   1.811   5.753
 8472SOL    HW226316   6.183   1.662   5.709
 8473SOL     OW26317   5.126   4.202   0.052
 8473SOL    HW126318   5.081   4.272   7.018
 8473SOL    HW226319   5.137   4.119   7.020
 8474SOL     OW26320   4.063   3.807   3.658
 8474SOL    HW126321   4.025   3.899   3.649
 8474SOL    HW226322   4.129   3.806   3.733
 8475SOL     OW26323   6.808   2.920   2.719
 8475SOL    HW126324   6.767   2.833   2.745
 8475SOL    HW226325   6.861   2.956   2.796
 8476SOL     OW26326   6.093   0.984   1.566
 8476SOL    HW126327   6.052   0.983   1.657
 8476SOL    HW226328   6.037   0.930   1.503
 8477SOL     OW26329   5.298   6.723   1.490
 8477SOL    HW126330   5.203   6.694   1.478
 8477SOL    HW226331   5.355   6.680   1.420
 8478SOL     OW26332   6.753   0.560   5.667
 8478SOL    HW126333   6.770   0.465   5.691
 8478SOL    HW226334   6.809   0.620   5.724
 8479SOL     OW26335   1.435   2.560   0.771
 8479SOL    HW126336   1.344   2.579   0.734
 8479SOL    HW226337   1.503   2.615   0.722
 8480SOL     OW26338   4.361   3.587   6.897
 8480SOL    HW126339   4.296   3.533   6.951
 8480SOL    HW226340   4.348   3.684   6.917
 8481SOL     OW26341   4.464   2.101   3.274
 8481SOL    HW126342   4.513   2.090   3.188
 8481SOL    HW226343   4.450   2.199   3.292
 8482SOL     OW26344   4.727   0.633   0.731
 8482SOL    HW126345   4.634   0.595   0.736
 8482SOL    HW226346   4.758   0.657   0.823
 8483SOL     OW26347   3.641   4.935   2.783
 8483SOL    HW126348   3.703   4.857   2.781
 8483SOL    HW226349   3.568   4.919   2.849
 8484SOL     OW26350   4.954   5.750   4.711
 8484SOL    HW126351   4.906   5.803   4.781
 8484SOL    HW226352   4.941   5.652   4.729
 8485SOL     OW26353   3.672   1.959   0.189
 8485SOL    HW126354   3.611   2.011   0.249
 8485SOL    HW226355   3.691   1.870   0.230
 8486SOL     OW26356   6.331   2.534   3.198
 8486SOL    HW126357   6.255   2.469   3.194
 8486SOL    HW226358   6.390   2.521   3.118
 8487SOL     OW26359   6.905   1.943   6.347
 8487SOL    HW126360   6.837   1.871   6.360
 8487SOL    HW226361   6.862   2.022   6.302
 8488SOL     OW26362   4.797   5.240   1.762
 8488SOL    HW126363   4.807   5.141   1.770
 8488SOL    HW226364   4.886   5.281   1.742
 8489SOL     OW26365   6.052   2.002   1.431
 8489SOL    HW126366   6.006   1.913   1.432
 8489SOL    HW226367   6.055   2.039   1.525
 8490SOL     OW26368   3.193   0.379   6.579
 8490SOL    HW126369   3.259   0.343   6.513
 8490SOL    HW226370   3.109   0.406   6.532
 8491SOL     OW26371   2.932   5.714   1.815
 8491SOL    HW126372   2.868   5.767   1.871
 8491SOL    HW226373   2.972   5.641   1.871
 8492SOL     OW26374   6.183   6.241   4.573
 8492SOL    HW126375   6.180   6.318   4.509
 8492SOL    HW226376   6.275   6.202   4.574
 8493SOL     OW26377   5.020   1.610   6.846
 8493SOL    HW126378   4.927   1.604   6.810
 8493SOL    HW226379   5.082   1.559   6.787
 8494SOL     OW26380   6.588   5.012   2.288
 8494SOL    HW126381   6.674   4.970   2.258
 8494SOL    HW226382   6.607   5.076   2.363
 8495SOL     OW26383   6.509   5.339   6.156
 8495SOL    HW126384   6.414   5.362   6.135
 8495SOL    HW226385   6.524   5.241   6.141
 8496SOL     OW26386   5.192   3.007   2.120
 8496SOL    HW126387   5.164   2.932   2.179
 8496SOL    HW226388   5.177   3.094   2.166
 8497SOL     OW26389   6.531   0.671   3.468
 8497SOL    HW126390   6.506   0.586   3.514
 8497SOL    HW226391   6.493   0.672   3.376
 8498SOL     OW26392   4.743   6.951   3.994
 8498SOL    HW126393   4.742   7.013   3.915
 8498SOL    HW226394   4.784   6.997   4.072
 8499SOL     OW26395   5.715   6.456   5.395
 8499SOL    HW126396   5.815   6.466   5.392
 8499SOL    HW226397   5.689   6.425   5.487
 8500SOL     OW26398   0.936   0.550   6.083
 8500SOL    HW126399   0.998   0.626   6.063
 8500SOL    HW226400   0.863   0.548   6.015
 8501SOL     OW26401   1.583   1.481   6.699
 8501SOL    HW126402   1.575   1.415   6.625
 8501SOL    HW226403   1.625   1.565   6.664
 8502SOL     OW26404   0.590   4.002   6.676
 8502SOL    HW126405   0.594   4.024   6.773
 8502SOL    HW226406   0.540   4.073   6.628
 8503SOL     OW26407   4.912   0.932   4.714
 8503SOL    HW126408   4.911   0.843   4.760
 8503SOL    HW226409   4.995   0.940   4.660
 8504SOL     OW26410   1.450   0.260   1.811
 8504SOL    HW126411   1.515   0.334   1.792
 8504SOL    HW226412   1.499   0.180   1.845
 8505SOL     OW26413   5.209   3.179   2.509
 8505SOL    HW126414   5.257   3.126   2.579
 8505SOL    HW226415   5.252   3.165   2.420
 8506SOL     OW26416   1.564   0.893   5.888
 8506SOL    HW126417   1.576   0.810   5.943
 8506SOL    HW226418   1.543   0.970   5.948
 8507SOL     OW26419   3.346   6.129   5.424
 8507SOL    HW126420   3.428   6.123   5.482
 8507SOL    HW226421   3.272   6.172   5.476
 8508SOL     OW26422   3.175   1.180   6.994
 8508SOL    HW126423   3.105   1.144   6.933
 8508SOL    HW226424   3.135   1.203   0.061
 8509SOL     OW26425   5.498   2.148   2.930
 8509SOL    HW126426   5.463   2.150   2.837
 8509SOL    HW226427   5.484   2.057   2.969
 8510SOL     OW26428   0.116   2.223   4.316
 8510SOL    HW126429   0.172   2.149   4.279
 8510SOL    HW226430   0.021   2.191   4.326
 8511SOL     OW26431   5.444   2.110   2.663
 8511SOL    HW126432   5.530   2.064   2.640
 8511SOL    HW226433   5.378   2.095   2.590
 8512SOL     OW26434   2.000   6.646   5.911
 8512SOL    HW126435   2.094   6.639   5.946
 8512SOL    HW226436   1.959   6.555   5.908
 8513SOL     OW26437   4.760   6.778   6.637
 8513SOL    HW126438   4.844   6.725   6.625
 8513SOL    HW226439   4.681   6.722   6.611
 8514SOL     OW26440   2.878   6.144   4.239
 8514SOL    HW126441   2.879   6.061   4.295
 8514SOL    HW226442   2.969   6.186   4.241
 8515SOL     OW26443   5.634   1.660   0.660
 8515SOL    HW126444   5.624   1.734   0.593
 8515SOL    HW226445   5.728   1.628   0.660
 8516SOL     OW26446   0.095   1.945   2.379
 8516SOL    HW126447   0.033   1.886   2.432
 8516SOL    HW226448   0.083   2.040   2.408
 8517SOL     OW26449   0.892   3.523   0.515
 8517SOL    HW126450   0.936   3.577   0.587
 8517SOL    HW226451   0.864   3.584   0.440
 8518SOL     OW26452   2.981   5.815   0.315
 8518SOL    HW126453   2.918   5.893   0.319
 8518SOL    HW226454   2.929   5.732   0.292
 8519SOL     OW26455   1.829   5.342   2.639
 8519SOL    HW126456   1.927   5.360   2.644
 8519SOL    HW226457   1.793   5.380   2.553
 8520SOL     OW26458   3.547   6.896   6.991
 8520SOL    HW126459   3.461   6.861   6.955
 8520SOL    HW226460   3.612   6.908   6.917
 8521SOL     OW26461   1.126   0.405   0.406
 8521SOL    HW126462   1.039   0.383   0.361
 8521SOL    HW226463   1.201   0.365   0.354
 8522SOL     OW26464   2.332   6.274   4.709
 8522SOL    HW126465   2.367   6.288   4.801
 8522SOL    HW226466   2.394   6.315   4.642
 8523SOL     OW26467   1.302   6.731   0.040
 8523SOL    HW126468   1.280   6.664   6.992
 8523SOL    HW226469   1.217   6.769   0.077
 8524SOL     OW26470   1.883   2.136   6.521
 8524SOL    HW126471   1.902   2.042   6.549
 8524SOL    HW226472   1.784   2.153   6.525
 8525SOL     OW26473   4.832   3.066   3.273
 8525SOL    HW126474   4.772   3.117   3.335
 8525SOL    HW226475   4.790   2.978   3.251
 8526SOL     OW26476   1.798   3.037   2.572
 8526SOL    HW126477   1.769   3.065   2.664
 8526SOL    HW226478   1.896   3.018   2.572
 8527SOL     OW26479   4.153   0.128   3.999
 8527SOL    HW126480   4.194   0.038   4.017
 8527SOL    HW226481   4.096   0.155   4.076
 8528SOL     OW26482   4.973   2.945   6.825
 8528SOL    HW126483   4.934   2.975   6.738
 8528SOL    HW226484   4.916   2.872   6.863
 8529SOL     OW26485   0.309   5.124   6.798
 8529SOL    HW126486   0.372   5.048   6.816
 8529SOL    HW226487   0.311   5.188   6.874
 8530SOL     OW26488   1.456   3.702   5.814
 8530SOL    HW126489   1.525   3.631   5.829
 8530SOL    HW226490   1.446   3.718   5.716
 8531SOL     OW26491   3.997   4.823   2.189
 8531SOL    HW126492   3.899   4.813   2.209
 8531SOL    HW226493   4.010   4.899   2.126
 8532SOL     OW26494   1.565   4.203   6.887
 8532SOL    HW126495   1.539   4.300   6.886
 8532SOL    HW226496   1.659   4.195   6.854
 8533SOL     OW26497   3.844   0.181   5.922
 8533SOL    HW126498   3.808   0.234   5.845
 8533SOL    HW226499   3.853   0.240   6.002
 8534SOL     OW26500   1.720   2.873   2.901
 8534SOL    HW126501   1.678   2.959   2.872
 8534SOL    HW226502   1.820   2.881   2.899
 8535SOL     OW26503   6.490   3.269   4.721
 8535SOL    HW126504   6.559   3.227   4.780
 8535SOL    HW226505   6.422   3.200   4.697
 8536SOL     OW26506   6.933   0.957   4.064
 8536SOL    HW126507   6.922   1.052   4.034
 8536SOL    HW226508   6.986   0.955   4.148
 8537SOL     OW26509   5.677   7.020   2.831
 8537SOL    HW126510   5.644   6.986   2.743
 8537SOL    HW226511   5.604   7.011   2.900
 8538SOL     OW26512   5.521   0.704   5.415
 8538SOL    HW126513   5.506   0.790   5.366
 8538SOL    HW226514   5.433   0.663   5.440
 8539SOL     OW26515   0.192   3.592   3.069
 8539SOL    HW126516   0.234   3.550   2.989
 8539SOL    HW226517   0.246   3.571   3.150
 8540SOL     OW26518   4.027   0.116   6.842
 8540SOL    HW126519   3.996   0.211   6.846
 8540SOL    HW226520   4.121   0.110   6.876
 8541SOL     OW26521   3.246   6.118   5.150
 8541SOL    HW126522   3.274   6.171   5.070
 8541SOL    HW226523   3.305   6.140   5.227
 8542SOL     OW26524   1.517   5.781   5.910
 8542SOL    HW126525   1.610   5.808   5.934
 8542SOL    HW226526   1.499   5.802   5.814
 8543SOL     OW26527   2.868   2.726   5.976
 8543SOL    HW126528   2.937   2.669   5.933
 8543SOL    HW226529   2.801   2.668   6.024
 8544SOL     OW26530   5.384   5.193   5.296
 8544SOL    HW126531   5.452   5.155   5.234
 8544SOL    HW226532   5.381   5.140   5.381
 8545SOL     OW26533   2.382   0.166   6.523
 8545SOL    HW126534   2.465   0.198   6.477
 8545SOL    HW226535   2.312   0.237   6.519
 8546SOL     OW26536   4.539   1.092   3.017
 8546SOL    HW126537   4.616   1.028   3.023
 8546SOL    HW226538   4.565   1.179   3.058
 8547SOL     OW26539   5.723   6.485   5.886
 8547SOL    HW126540   5.769   6.500   5.973
 8547SOL    HW226541   5.641   6.542   5.881
 8548SOL     OW26542   0.899   3.645   4.807
 8548SOL    HW126543   0.865   3.720   4.749
 8548SOL    HW226544   0.967   3.592   4.757
 8549SOL     OW26545   1.249   0.306   4.131
 8549SOL    HW126546   1.225   0.240   4.202
 8549SOL    HW226547   1.247   0.261   4.042
 8550SOL     OW26548   6.828   5.296   5.973
 8550SOL    HW126549   6.906   5.296   6.036
 8550SOL    HW226550   6.751   5.344   6.016
 8551SOL     OW26551   2.399   0.551   5.476
 8551SOL    HW126552   2.334   0.476   5.464
 8551SOL    HW226553   2.376   0.625   5.413
 8552SOL     OW26554   2.874   1.387   2.082
 8552SOL    HW126555   2.859   1.456   2.010
 8552SOL    HW226556   2.931   1.426   2.154
 8553SOL     OW26557   5.368   3.891   0.123
 8553SOL    HW126558   5.422   3.940   0.191
 8553SOL    HW226559   5.276   3.929   0.120
 8554SOL     OW26560   2.185   0.709   0.254
 8554SOL    HW126561   2.163   0.740   0.161
 8554SOL    HW226562   2.250   0.634   0.250
 8555SOL     OW26563   3.803   1.889   3.921
 8555SOL    HW126564   3.748   1.818   3.963
 8555SOL    HW226565   3.771   1.979   3.951
 8556SOL     OW26566   0.532   5.585   6.378
 8556SOL    HW126567   0.614   5.626   6.338
 8556SOL    HW226568   0.497   5.644   6.450
 8557SOL     OW26569   6.893   0.919   6.532
 8557SOL    HW126570   6.868   0.914   6.628
 8557SOL    HW226571   6.953   0.998   6.517
 8558SOL     OW26572   2.617   6.116   4.200
 8558SOL    HW126573   2.715   6.130   4.215
 8558SOL    HW226574   2.568   6.123   4.286
 8559SOL     OW26575   2.072   4.461   2.697
 8559SOL    HW126576   1.982   4.502   2.706
 8559SOL    HW226577   2.066   4.381   2.637
 8560SOL     OW26578   2.841   4.159   0.826
 8560SOL    HW126579   2.799   4.070   0.807
 8560SOL    HW226580   2.769   4.228   0.835
 8561SOL     OW26581   3.756   0.162   3.072
 8561SOL    HW126582   3.725   0.252   3.042
 8561SOL    HW226583   3.854   0.166   3.092
 8562SOL     OW26584   5.457   2.262   0.371
 8562SOL    HW126585   5.513   2.189   0.331
 8562SOL    HW226586   5.512   2.315   0.436
 8563SOL     OW26587   2.987   5.065   2.487
 8563SOL    HW126588   3.022   5.112   2.407
 8563SOL    HW226589   3.024   5.107   2.570
 8564SOL     OW26590   4.098   6.815   0.320
 8564SOL    HW126591   4.067   6.842   0.229
 8564SOL    HW226592   4.071   6.885   0.386
 8565SOL     OW26593   1.762   4.529   1.440
 8565SOL    HW126594   1.718   4.544   1.352
 8565SOL    HW226595   1.704   4.472   1.498
 8566SOL     OW26596   3.239   0.883   2.151
 8566SOL    HW126597   3.297   0.961   2.173
 8566SOL    HW226598   3.156   0.915   2.106
 8567SOL     OW26599   1.633   2.621   2.828
 8567SOL    HW126600   1.696   2.576   2.764
 8567SOL    HW226601   1.664   2.714   2.846
 8568SOL     OW26602   6.112   0.238   6.189
 8568SOL    HW126603   6.194   0.267   6.139
 8568SOL    HW226604   6.116   0.273   6.283
 8569SOL     OW26605   4.327   2.088   0.377
 8569SOL    HW126606   4.423   2.061   0.376
 8569SOL    HW226607   4.308   2.145   0.297
 8570SOL     OW26608   2.437   2.108   1.869
 8570SOL    HW126609   2.533   2.111   1.839
 8570SOL    HW226610   2.432   2.132   1.966
 8571SOL     OW26611   1.706   0.769   2.918
 8571SOL    HW126612   1.668   0.694   2.863
 8571SOL    HW226613   1.634   0.810   2.974
 8572SOL     OW26614   2.627   4.065   5.777
 8572SOL    HW126615   2.697   4.104   5.836
 8572SOL    HW226616   2.667   4.044   5.687
 8573SOL     OW26617   3.225   6.373   7.016
 8573SOL    HW126618   3.204   6.415   0.082
 8573SOL    HW226619   3.206   6.275   7.021
 8574SOL     OW26620   4.777   0.406   5.563
 8574SOL    HW126621   4.841   0.474   5.597
 8574SOL    HW226622   4.722   0.446   5.489
 8575SOL     OW26623   3.330   5.898   3.747
 8575SOL    HW126624   3.301   5.929   3.838
 8575SOL    HW226625   3.251   5.899   3.685
 8576SOL     OW26626   1.421   4.759   4.483
 8576SOL    HW126627   1.504   4.756   4.539
 8576SOL    HW226628   1.397   4.855   4.466
 8577SOL     OW26629   2.069   1.759   1.059
 8577SOL    HW126630   2.045   1.662   1.067
 8577SOL    HW226631   2.094   1.779   0.965
 8578SOL     OW26632   0.382   0.162   6.921
 8578SOL    HW126633   0.423   0.086   6.872
 8578SOL    HW226634   0.448   0.237   6.927
 8579SOL     OW26635   2.461   6.607   2.328
 8579SOL    HW126636   2.451   6.640   2.422
 8579SOL    HW226637   2.465   6.507   2.328
 8580SOL     OW26638   1.652   0.423   1.741
 8580SOL    HW126639   1.689   0.446   1.831
 8580SOL    HW226640   1.728   0.396   1.680
 8581SOL     OW26641   3.231   4.630   0.931
 8581SOL    HW126642   3.325   4.653   0.907
 8581SOL    HW226643   3.212   4.659   1.025
 8582SOL     OW26644   3.761   5.244   5.393
 8582SOL    HW126645   3.756   5.227   5.295
 8582SOL    HW226646   3.769   5.342   5.409
 8583SOL     OW26647   4.023   6.658   2.702
 8583SOL    HW126648   4.106   6.636   2.650
 8583SOL    HW226649   3.943   6.626   2.651
 8584SOL     OW26650   6.514   1.265   4.542
 8584SOL    HW126651   6.574   1.190   4.573
 8584SOL    HW226652   6.506   1.333   4.615
 8585SOL     OW26653   5.412   3.114   3.065
 8585SOL    HW126654   5.412   3.147   2.971
 8585SOL    HW226655   5.503   3.126   3.105
 8586SOL     OW26656   6.630   6.476   6.923
 8586SOL    HW126657   6.653   6.381   6.903
 8586SOL    HW226658   6.540   6.481   6.965
 8587SOL     OW26659   0.342   2.165   0.044
 8587SOL    HW126660   0.326   2.263   0.033
 8587SOL    HW226661   0.430   2.151   0.089
 8588SOL     OW26662   2.784   0.950   5.679
 8588SOL    HW126663   2.709   1.014   5.697
 8588SOL    HW226664   2.830   0.928   5.765
 8589SOL     OW26665   5.669   3.044   6.806
 8589SOL    HW126666   5.659   3.063   6.708
 8589SOL    HW226667   5.765   3.047   6.831
 8590SOL     OW26668   0.706   0.842   4.030
 8590SOL    HW126669   0.710   0.756   4.080
 8590SOL    HW226670   0.639   0.834   3.955
 8591SOL     OW26671   6.832   4.644   6.622
 8591SOL    HW126672   6.923   4.675   6.594
 8591SOL    HW226673   6.839   4.557   6.669
 8592SOL     OW26674   0.595   1.558   4.513
 8592SOL    HW126675   0.540   1.506   4.447
 8592SOL    HW226676   0.535   1.596   4.584
 8593SOL     OW26677   5.193   1.562   0.058
 8593SOL    HW126678   5.169   1.601   0.147
 8593SOL    HW226679   5.125   1.591   7.011
 8594SOL     OW26680   6.184   3.527   6.195
 8594SOL    HW126681   6.222   3.585   6.122
 8594SOL    HW226682   6.086   3.515   6.179
 8595SOL     OW26683   6.111   6.255   3.131
 8595SOL    HW126684   6.120   6.349   3.098
 8595SOL    HW226685   6.015   6.237   3.153
 8596SOL     OW26686   0.417   1.394   4.157
 8596SOL    HW126687   0.324   1.381   4.120
 8596SOL    HW226688   0.428   1.337   4.239
 8597SOL     OW26689   6.098   2.824   5.699
 8597SOL    HW126690   6.051   2.787   5.619
 8597SOL    HW226691   6.184   2.866   5.670
 8598SOL     OW26692   6.327   6.982   5.075
 8598SOL    HW126693   6.228   6.990   5.058
 8598SOL    HW226694   6.376   0.016   5.007
 8599SOL     OW26695   6.793   3.805   4.136
 8599SOL    HW126696   6.823   3.875   4.201
 8599SOL    HW226697   6.787   3.717   4.183
 8600SOL     OW26698   4.908   2.242   0.550
 8600SOL    HW126699   4.997   2.287   0.557
 8600SOL    HW226700   4.920   2.143   0.552
 8601SOL     OW26701   6.673   6.010   3.493
 8601SOL    HW126702   6.697   6.105   3.512
 8601SOL    HW226703   6.753   5.952   3.508
 8602SOL     OW26704   1.907   6.389   5.956
 8602SOL    HW126705   1.830   6.401   6.019
 8602SOL    HW226706   1.977   6.331   5.999
 8603SOL     OW26707   1.095   0.495   0.097
 8603SOL    HW126708   1.080   0.489   7.020
 8603SOL    HW226709   1.159   0.424   0.125
 8604SOL     OW26710   0.904   4.460   5.920
 8604SOL    HW126711   0.814   4.499   5.899
 8604SOL    HW226712   0.929   4.484   6.013
 8605SOL     OW26713   6.830   4.348   4.380
 8605SOL    HW126714   6.907   4.290   4.404
 8605SOL    HW226715   6.763   4.294   4.328
 8606SOL     OW26716   1.811   2.483   0.582
 8606SOL    HW126717   1.751   2.475   0.503
 8606SOL    HW226718   1.756   2.505   0.663
 8607SOL     OW26719   2.286   4.168   1.831
 8607SOL    HW126720   2.271   4.070   1.842
 8607SOL    HW226721   2.241   4.199   1.747
 8608SOL     OW26722   1.722   5.616   2.783
 8608SOL    HW126723   1.702   5.518   2.779
 8608SOL    HW226724   1.740   5.643   2.878
 8609SOL     OW26725   4.413   1.450   4.562
 8609SOL    HW126726   4.409   1.445   4.462
 8609SOL    HW226727   4.342   1.511   4.596
 8610SOL     OW26728   6.933   6.088   3.162
 8610SOL    HW126729   6.847   6.037   3.173
 8610SOL    HW226730   6.912   6.185   3.148
 8611SOL     OW26731   2.902   1.394   4.646
 8611SOL    HW126732   2.820   1.366   4.596
 8611SOL    HW226733   2.953   1.461   4.591
 8612SOL     OW26734   3.386   3.023   3.880
 8612SOL    HW126735   3.347   3.006   3.790
 8612SOL    HW226736   3.474   3.069   3.870
 8613SOL     OW26737   4.014   3.429   2.485
 8613SOL    HW126738   3.945   3.390   2.423
 8613SOL    HW226739   4.067   3.498   2.436
 8614SOL     OW26740   1.169   2.723   3.310
 8614SOL    HW126741   1.236   2.730   3.236
 8614SOL    HW226742   1.218   2.712   3.397
 8615SOL     OW26743   3.589   1.612   4.642
 8615SOL    HW126744   3.547   1.620   4.733
 8615SOL    HW226745   3.582   1.700   4.595
 8616SOL     OW26746   5.566   4.589   3.804
 8616SOL    HW126747   5.607   4.564   3.892
 8616SOL    HW226748   5.601   4.529   3.733
 8617SOL     OW26749   2.271   0.279   3.638
 8617SOL    HW126750   2.198   0.221   3.602
 8617SOL    HW226751   2.240   0.323   3.722
 8618SOL     OW26752   5.701   3.798   1.414
 8618SOL    HW126753   5.753   3.770   1.495
 8618SOL    HW226754   5.655   3.718   1.375
 8619SOL     OW26755   5.070   5.366   0.388
 8619SOL    HW126756   4.996   5.302   0.366
 8619SOL    HW226757   5.103   5.347   0.481
 8620SOL     OW26758   2.335   0.415   4.294
 8620SOL    HW126759   2.268   0.428   4.221
 8620SOL    HW226760   2.290   0.423   4.383
 8621SOL     OW26761   5.677   3.034   1.620
 8621SOL    HW126762   5.717   3.062   1.707
 8621SOL    HW226763   5.610   3.103   1.591
 8622SOL     OW26764   6.962   5.180   2.541
 8622SOL    HW126765   6.970   5.208   2.637
 8622SOL    HW226766   7.016   5.098   2.525
 8623SOL     OW26767   1.281   3.214   3.965
 8623SOL    HW126768   1.309   3.298   4.012
 8623SOL    HW226769   1.286   3.227   3.866
 8624SOL     OW26770   3.052   3.976   4.893
 8624SOL    HW126771   3.037   4.052   4.830
 8624SOL    HW226772   3.078   4.011   4.983
 8625SOL     OW26773   4.013   2.747   5.300
 8625SOL    HW126774   3.931   2.716   5.348
 8625SOL    HW226775   4.059   2.668   5.259
 8626SOL     OW26776   3.758   2.798   1.025
 8626SOL    HW126777   3.736   2.818   1.121
 8626SOL    HW226778   3.716   2.711   0.999
 8627SOL     OW26779   1.844   1.091   2.625
 8627SOL    HW126780   1.774   1.162   2.612
 8627SOL    HW226781   1.912   1.123   2.691
 8628SOL     OW26782   0.559   6.359   0.657
 8628SOL    HW126783   0.597   6.438   0.608
 8628SOL    HW226784   0.468   6.382   0.691
 8629SOL     OW26785   6.850   6.733   5.250
 8629SOL    HW126786   6.811   6.792   5.179
 8629SOL    HW226787   6.925   6.679   5.211
 8630SOL     OW26788   4.776   2.843   2.268
 8630SOL    HW126789   4.812   2.892   2.347
 8630SOL    HW226790   4.757   2.907   2.194
 8631SOL     OW26791   2.510   6.136   6.603
 8631SOL    HW126792   2.596   6.094   6.632
 8631SOL    HW226793   2.528   6.198   6.526
 8632SOL     OW26794   5.579   5.102   4.473
 8632SOL    HW126795   5.645   5.104   4.399
 8632SOL    HW226796   5.589   5.017   4.524
 8633SOL     OW26797   6.036   4.079   5.367
 8633SOL    HW126798   5.948   4.043   5.335
 8633SOL    HW226799   6.038   4.178   5.356
 8634SOL     OW26800   4.908   3.449   0.109
 8634SOL    HW126801   5.002   3.417   0.096
 8634SOL    HW226802   4.848   3.372   0.126
 8635SOL     OW26803   5.979   2.433   6.537
 8635SOL    HW126804   6.052   2.475   6.482
 8635SOL    HW226805   5.929   2.505   6.585
 8636SOL     OW26806   4.485   6.785   1.584
 8636SOL    HW126807   4.399   6.752   1.623
 8636SOL    HW226808   4.491   6.757   1.488
 8637SOL     OW26809   2.365   1.882   6.264
 8637SOL    HW126810   2.328   1.799   6.223
 8637SOL    HW226811   2.334   1.962   6.212
 8638SOL     OW26812   4.750   2.809   3.192
 8638SOL    HW126813   4.709   2.768   3.274
 8638SOL    HW226814   4.766   2.737   3.124
 8639SOL     OW26815   3.698   3.571   6.917
 8639SOL    HW126816   3.692   3.553   7.015
 8639SOL    HW226817   3.740   3.661   6.902
 8640SOL     OW26818   3.158   2.888   0.879
 8640SOL    HW126819   3.163   2.980   0.842
 8640SOL    HW226820   3.063   2.857   0.880
 8641SOL     OW26821   4.304   5.054   2.058
 8641SOL    HW126822   4.336   4.973   2.108
 8641SOL    HW226823   4.378   5.120   2.052
 8642SOL     OW26824   1.140   5.398   3.020
 8642SOL    HW126825   1.053   5.447   3.012
 8642SOL    HW226826   1.200   5.424   2.945
 8643SOL     OW26827   3.910   6.418   1.155
 8643SOL    HW126828   3.967   6.452   1.229
 8643SOL    HW226829   3.936   6.324   1.133
 8644SOL     OW26830   6.297   2.079   5.880
 8644SOL    HW126831   6.364   2.033   5.937
 8644SOL    HW226832   6.215   2.021   5.872
 8645SOL     OW26833   5.653   5.260   2.876
 8645SOL    HW126834   5.677   5.163   2.873
 8645SOL    HW226835   5.704   5.309   2.806
 8646SOL     OW26836   6.593   2.175   4.515
 8646SOL    HW126837   6.571   2.268   4.487
 8646SOL    HW226838   6.592   2.115   4.436
 8647SOL     OW26839   2.198   5.504   1.639
 8647SOL    HW126840   2.210   5.406   1.655
 8647SOL    HW226841   2.164   5.548   1.722
 8648SOL     OW26842   4.926   4.543   0.592
 8648SOL    HW126843   4.894   4.501   0.507
 8648SOL    HW226844   4.936   4.473   0.662
 8649SOL     OW26845   5.616   0.767   1.356
 8649SOL    HW126846   5.521   0.735   1.364
 8649SOL    HW226847   5.627   0.815   1.269
 8650SOL     OW26848   2.614   6.606   5.478
 8650SOL    HW126849   2.528   6.604   5.426
 8650SOL    HW226850   2.637   6.513   5.506
 8651SOL     OW26851   4.134   2.648   1.610
 8651SOL    HW126852   4.189   2.577   1.654
 8651SOL    HW226853   4.194   2.716   1.567
 8652SOL     OW26854   1.436   2.857   3.721
 8652SOL    HW126855   1.523   2.864   3.672
 8652SOL    HW226856   1.394   2.768   3.703
 8653SOL     OW26857   6.401   1.899   6.714
 8653SOL    HW126858   6.497   1.903   6.741
 8653SOL    HW226859   6.374   1.804   6.699
 8654SOL     OW26860   0.466   4.605   2.456
 8654SOL    HW126861   0.447   4.634   2.550
 8654SOL    HW226862   0.497   4.510   2.456
 8655SOL     OW26863   7.011   0.424   4.646
 8655SOL    HW126864   6.965   0.423   4.734
 8655SOL    HW226865   0.071   0.366   4.650
 8656SOL     OW26866   4.794   6.807   1.159
 8656SOL    HW126867   4.750   6.785   1.072
 8656SOL    HW226868   4.773   6.901   1.183
 8657SOL     OW26869   3.624   1.456   2.812
 8657SOL    HW126870   3.714   1.501   2.809
 8657SOL    HW226871   3.632   1.364   2.773
 8658SOL     OW26872   5.723   4.325   1.008
 8658SOL    HW126873   5.624   4.333   0.997
 8658SOL    HW226874   5.764   4.416   1.009
 8659SOL     OW26875   3.094   0.907   2.503
 8659SOL    HW126876   3.166   0.975   2.492
 8659SOL    HW226877   3.124   0.820   2.465
 8660SOL     OW26878   0.816   4.637   1.824
 8660SOL    HW126879   0.894   4.579   1.845
 8660SOL    HW226880   0.743   4.582   1.785
 8661SOL     OW26881   6.839   3.836   2.440
 8661SOL    HW126882   6.888   3.852   2.526
 8661SOL    HW226883   6.767   3.768   2.455
 8662SOL     OW26884   1.747   3.598   3.916
 8662SOL    HW126885   1.720   3.671   3.979
 8662SOL    HW226886   1.847   3.589   3.918
 8663SOL     OW26887   4.154   5.301   2.426
 8663SOL    HW126888   4.198   5.325   2.339
 8663SOL    HW226889   4.154   5.381   2.486
 8664SOL     OW26890   4.011   5.952   3.435
 8664SOL    HW126891   4.099   5.988   3.467
 8664SOL    HW226892   3.939   5.979   3.500
 8665SOL     OW26893   5.638   3.436   6.425
 8665SOL    HW126894   5.719   3.390   6.461
 8665SOL    HW226895   5.631   3.527   6.466
 8666SOL     OW26896   4.740   0.033   2.635
 8666SOL    HW126897   4.754   0.125   2.600
 8666SOL    HW226898   4.724   6.992   2.558
 8667SOL     OW26899   4.729   2.037   2.588
 8667SOL    HW126900   4.691   2.078   2.505
 8667SOL    HW226901   4.822   2.071   2.603
 8668SOL     OW26902   4.831   2.499   4.998
 8668SOL    HW126903   4.859   2.407   4.971
 8668SOL    HW226904   4.763   2.494   5.071
 8669SOL     OW26905   6.668   6.467   6.292
 8669SOL    HW126906   6.574   6.435   6.283
 8669SOL    HW226907   6.688   6.532   6.218
 8670SOL     OW26908   6.664   4.652   5.730
 8670SOL    HW126909   6.646   4.684   5.823
 8670SOL    HW226910   6.607   4.704   5.666
 8671SOL     OW26911   0.957   3.531   3.131
 8671SOL    HW126912   0.947   3.434   3.110
 8671SOL    HW226913   1.048   3.562   3.101
 8672SOL     OW26914   0.322   1.157   2.021
 8672SOL    HW126915   0.418   1.180   2.033
 8672SOL    HW226916   0.312   1.089   1.949
 8673SOL     OW26917   0.544   2.449   1.556
 8673SOL    HW126918   0.502   2.526   1.604
 8673SOL    HW226919   0.550   2.371   1.617
 8674SOL     OW26920   0.157   3.879   3.489
 8674SOL    HW126921   0.066   3.841   3.470
 8674SOL    HW226922   0.154   3.979   3.482
 8675SOL     OW26923   4.054   2.207   4.884
 8675SOL    HW126924   4.122   2.195   4.811
 8675SOL    HW226925   4.074   2.291   4.934
 8676SOL     OW26926   5.287   1.487   0.895
 8676SOL    HW126927   5.361   1.421   0.910
 8676SOL    HW226928   5.295   1.561   0.963
 8677SOL     OW26929   2.437   6.694   5.713
 8677SOL    HW126930   2.400   6.786   5.701
 8677SOL    HW226931   2.408   6.636   5.637
 8678SOL     OW26932   1.842   2.113   0.433
 8678SOL    HW126933   1.868   2.094   0.338
 8678SOL    HW226934   1.870   2.206   0.457
 8679SOL     OW26935   1.391   2.075   6.256
 8679SOL    HW126936   1.454   2.047   6.183
 8679SOL    HW226937   1.373   2.173   6.248
 8680SOL     OW26938   6.943   1.013   0.375
 8680SOL    HW126939   6.997   0.960   0.310
 8680SOL    HW226940   6.846   0.994   0.361
 8681SOL     OW26941   5.387   6.369   1.285
 8681SOL    HW126942   5.415   6.465   1.292
 8681SOL    HW226943   5.464   6.314   1.253
 8682SOL     OW26944   2.016   0.516   1.930
 8682SOL    HW126945   1.995   0.420   1.912
 8682SOL    HW226946   2.080   0.522   2.007
 8683SOL     OW26947   2.503   4.920   4.815
 8683SOL    HW126948   2.480   4.823   4.809
 8683SOL    HW226949   2.487   4.963   4.726
 8684SOL     OW26950   2.424   4.456   4.519
 8684SOL    HW126951   2.389   4.467   4.612
 8684SOL    HW226952   2.487   4.379   4.516
 8685SOL     OW26953   4.900   2.643   4.800
 8685SOL    HW126954   4.853   2.592   4.872
 8685SOL    HW226955   4.958   2.580   4.748
 8686SOL     OW26956   0.857   4.888   3.196
 8686SOL    HW126957   0.820   4.815   3.138
 8686SOL    HW226958   0.828   4.977   3.160
 8687SOL     OW26959   5.377   4.394   5.507
 8687SOL    HW126960   5.374   4.295   5.501
 8687SOL    HW226961   5.329   4.434   5.429
 8688SOL     OW26962   1.223   3.691   4.862
 8688SOL    HW126963   1.161   3.639   4.803
 8688SOL    HW226964   1.204   3.789   4.852
 8689SOL     OW26965   4.142   3.391   6.604
 8689SOL    HW126966   4.043   3.396   6.615
 8689SOL    HW226967   4.178   3.315   6.659
 8690SOL     OW26968   1.396   2.560   2.703
 8690SOL    HW126969   1.318   2.605   2.745
 8690SOL    HW226970   1.479   2.613   2.720
 8691SOL     OW26971   3.697   2.467   5.672
 8691SOL    HW126972   3.661   2.553   5.709
 8691SOL    HW226973   3.788   2.483   5.634
 8692SOL     OW26974   4.466   2.009   5.132
 8692SOL    HW126975   4.403   1.942   5.094
 8692SOL    HW226976   4.438   2.101   5.105
 8693SOL     OW26977   6.875   0.026   6.127
 8693SOL    HW126978   6.954   6.999   6.091
 8693SOL    HW226979   6.792   6.996   6.107
 8694SOL     OW26980   5.069   2.937   5.144
 8694SOL    HW126981   4.981   2.940   5.190
 8694SOL    HW226982   5.056   2.912   5.048
 8695SOL     OW26983   3.746   4.511   0.118
 8695SOL    HW126984   3.843   4.529   0.102
 8695SOL    HW226985   3.733   4.413   0.136
 8696SOL     OW26986   2.885   5.439   5.500
 8696SOL    HW126987   2.896   5.411   5.405
 8696SOL    HW226988   2.932   5.374   5.560
 8697SOL     OW26989   1.798   3.673   5.576
 8697SOL    HW126990   1.802   3.752   5.515
 8697SOL    HW226991   1.773   3.703   5.668
 8698SOL     OW26992   4.585   5.396   6.244
 8698SOL    HW126993   4.513   5.459   6.273
 8698SOL    HW226994   4.659   5.448   6.201
 8699SOL     OW26995   1.677   2.574   0.079
 8699SOL    HW126996   1.588   2.545   0.043
 8699SOL    HW226997   1.692   2.670   0.056
 8700SOL     OW26998   1.388   0.693   4.036
 8700SOL    HW126999   1.400   0.792   4.037
 8700SOL    HW227000   1.375   0.660   4.129
 8701SOL     OW27001   1.306   2.692   0.028
 8701SOL    HW127002   1.269   2.730   6.965
 8701SOL    HW227003   1.375   2.753   0.066
 8702SOL     OW27004   5.243   4.851   0.881
 8702SOL    HW127005   5.199   4.917   0.819
 8702SOL    HW227006   5.290   4.901   0.954
 8703SOL     OW27007   2.906   5.921   0.671
 8703SOL    HW127008   2.966   5.847   0.641
 8703SOL    HW227009   2.869   5.900   0.762
 8704SOL     OW27010   0.547   1.283   5.096
 8704SOL    HW127011   0.455   1.295   5.133
 8704SOL    HW227012   0.565   1.186   5.082
 8705SOL     OW27013   4.061   2.318   6.911
 8705SOL    HW127014   4.064   2.260   6.993
 8705SOL    HW227015   4.145   2.306   6.859
 8706SOL     OW27016   4.992   3.031   6.270
 8706SOL    HW127017   4.974   2.968   6.345
 8706SOL    HW227018   4.909   3.081   6.246
 8707SOL     OW27019   2.536   1.327   4.606
 8707SOL    HW127020   2.536   1.412   4.659
 8707SOL    HW227021   2.449   1.318   4.557
 8708SOL     OW27022   5.621   2.725   0.519
 8708SOL    HW127023   5.630   2.662   0.442
 8708SOL    HW227024   5.711   2.743   0.558
 8709SOL     OW27025   5.758   6.985   5.111
 8709SOL    HW127026   5.670   6.989   5.160
 8709SOL    HW227027   5.770   6.895   5.071
 8710SOL     OW27028   1.855   1.675   3.287
 8710SOL    HW127029   1.856   1.585   3.331
 8710SOL    HW227030   1.948   1.703   3.265
 8711SOL     OW27031   1.392   1.481   1.870
 8711SOL    HW127032   1.479   1.512   1.908
 8711SOL    HW227033   1.403   1.389   1.833
 8712SOL     OW27034   1.200   3.852   5.442
 8712SOL    HW127035   1.111   3.887   5.470
 8712SOL    HW227036   1.189   3.788   5.367
 8713SOL     OW27037   0.365   3.582   1.127
 8713SOL    HW127038   0.274   3.597   1.087
 8713SOL    HW227039   0.410   3.507   1.078
 8714SOL     OW27040   6.773   5.269   6.734
 8714SOL    HW127041   6.755   5.363   6.762
 8714SOL    HW227042   6.870   5.258   6.712
 8715SOL     OW27043   1.778   3.753   1.789
 8715SOL    HW127044   1.858   3.812   1.795
 8715SOL    HW227045   1.767   3.721   1.695
 8716SOL     OW27046   6.523   0.449   2.077
 8716SOL    HW127047   6.552   0.528   2.023
 8716SOL    HW227048   6.426   0.459   2.102
 8717SOL     OW27049   2.811   2.834   0.036
 8717SOL    HW127050   2.793   2.759   6.993
 8717SOL    HW227051   2.726   2.860   0.081
 8718SOL     OW27052   2.568   4.871   6.239
 8718SOL    HW127053   2.572   4.902   6.334
 8718SOL    HW227054   2.493   4.917   6.191
 8719SOL     OW27055   3.386   0.722   4.646
 8719SOL    HW127056   3.302   0.673   4.624
 8719SOL    HW227057   3.451   0.658   4.688
 8720SOL     OW27058   0.104   4.825   5.031
 8720SOL    HW127059   0.164   4.882   5.088
 8720SOL    HW227060   0.064   4.881   4.959
 8721SOL     OW27061   0.525   6.964   6.810
 8721SOL    HW127062   0.575   6.965   6.897
 8721SOL    HW227063   0.489   6.873   6.793
 8722SOL     OW27064   3.204   0.996   0.599
 8722SOL    HW127065   3.117   1.028   0.561
 8722SOL    HW227066   3.278   1.018   0.535
 8723SOL     OW27067   3.744   6.947   2.576
 8723SOL    HW127068   3.773   6.903   2.661
 8723SOL    HW227069   3.659   6.997   2.592
 8724SOL     OW27070   3.667   1.295   4.306
 8724SOL    HW127071   3.686   1.310   4.403
 8724SOL    HW227072   3.688   1.200   4.282
 8725SOL     OW27073   0.023   6.693   3.755
 8725SOL    HW127074   7.001   6.687   3.845
 8725SOL    HW227075   6.995   6.636   3.690
 8726SOL     OW27076   6.865   1.409   0.947
 8726SOL    HW127077   6.921   1.432   1.025
 8726SOL    HW227078   6.904   1.330   0.899
 8727SOL     OW27079   5.049   6.411   6.501
 8727SOL    HW127080   5.025   6.506   6.483
 8727SOL    HW227081   4.995   6.351   6.442
 8728SOL     OW27082   6.330   0.162   4.568
 8728SOL    HW127083   6.300   0.257   4.554
 8728SOL    HW227084   6.279   0.103   4.505
 8729SOL     OW27085   5.577   5.899   6.291
 8729SOL    HW127086   5.656   5.954   6.314
 8729SOL    HW227087   5.495   5.957   6.287
 8730SOL     OW27088   4.847   5.626   1.339
 8730SOL    HW127089   4.814   5.603   1.248
 8730SOL    HW227090   4.884   5.719   1.339
 8731SOL     OW27091   6.225   1.517   3.765
 8731SOL    HW127092   6.137   1.544   3.803
 8731SOL    HW227093   6.259   1.436   3.813
 8732SOL     OW27094   5.828   6.845   6.946
 8732SOL    HW127095   5.792   6.812   6.859
 8732SOL    HW227096   5.788   6.793   7.021
 8733SOL     OW27097   6.522   4.376   2.541
 8733SOL    HW127098   6.570   4.405   2.458
 8733SOL    HW227099   6.442   4.435   2.555
 8734SOL     OW27100   0.657   4.112   1.707
 8734SOL    HW127101   0.630   4.199   1.665
 8734SOL    HW227102   0.755   4.113   1.725
 8735SOL     OW27103   6.985   2.769   5.144
 8735SOL    HW127104   6.915   2.723   5.199
 8735SOL    HW227105   0.034   2.704   5.118
 8736SOL     OW27106   1.235   6.229   3.196
 8736SOL    HW127107   1.278   6.278   3.272
 8736SOL    HW227108   1.208   6.137   3.227
 8737SOL     OW27109   1.087   5.899   0.580
 8737SOL    HW127110   1.133   5.877   0.494
 8737SOL    HW227111   1.024   5.975   0.565
 8738SOL     OW27112   1.474   3.155   3.245
 8738SOL    HW127113   1.445   3.063   3.218
 8738SOL    HW227114   1.480   3.213   3.164
 8739SOL     OW27115   5.535   4.751   4.780
 8739SOL    HW127116   5.598   4.762   4.857
 8739SOL    HW227117   5.451   4.802   4.799
 8740SOL     OW27118   3.011   0.972   4.725
 8740SOL    HW127119   2.989   0.973   4.628
 8740SOL    HW227120   3.026   1.066   4.757
 8741SOL     OW27121   0.855   1.390   3.207
 8741SOL    HW127122   0.930   1.348   3.257
 8741SOL    HW227123   0.878   1.485   3.186
 8742SOL     OW27124   2.989   1.860   2.000
 8742SOL    HW127125   2.984   1.925   2.076
 8742SOL    HW227126   2.950   1.902   1.918
 8743SOL     OW27127   0.913   2.724   1.598
 8743SOL    HW127128   0.962   2.810   1.582
 8743SOL    HW227129   0.936   2.689   1.688
 8744SOL     OW27130   3.367   4.177   5.736
 8744SOL    HW127131   3.340   4.083   5.756
 8744SOL    HW227132   3.467   4.183   5.733
 8745SOL     OW27133   5.958   1.570   5.904
 8745SOL    HW127134   5.879   1.548   5.961
 8745SOL    HW227135   6.036   1.592   5.961
 8746SOL     OW27136   4.094   4.758   5.647
 8746SOL    HW127137   4.178   4.798   5.683
 8746SOL    HW227138   4.112   4.714   5.559
 8747SOL     OW27139   0.741   0.575   2.931
 8747SOL    HW127140   0.683   0.557   3.010
 8747SOL    HW227141   0.813   0.506   2.926
 8748SOL     OW27142   5.839   1.825   4.232
 8748SOL    HW127143   5.825   1.890   4.306
 8748SOL    HW227144   5.938   1.814   4.215
 8749SOL     OW27145   2.556   0.875   3.536
 8749SOL    HW127146   2.650   0.877   3.500
 8749SOL    HW227147   2.552   0.923   3.623
 8750SOL     OW27148   3.497   4.014   0.875
 8750SOL    HW127149   3.440   4.019   0.794
 8750SOL    HW227150   3.445   4.044   0.955
 8751SOL     OW27151   2.665   6.622   0.432
 8751SOL    HW127152   2.716   6.591   0.352
 8751SOL    HW227153   2.721   6.685   0.485
 8752SOL     OW27154   6.793   2.631   5.279
 8752SOL    HW127155   6.863   2.589   5.337
 8752SOL    HW227156   6.737   2.692   5.335
 8753SOL     OW27157   2.916   2.436   0.840
 8753SOL    HW127158   2.886   2.390   0.756
 8753SOL    HW227159   3.016   2.435   0.844
 8754SOL     OW27160   1.426   5.768   0.150
 8754SOL    HW127161   1.386   5.833   0.085
 8754SOL    HW227162   1.360   5.749   0.223
 8755SOL     OW27163   0.544   2.697   2.097
 8755SOL    HW127164   0.558   2.796   2.096
 8755SOL    HW227165   0.450   2.677   2.069
 8756SOL     OW27166   1.599   1.624   1.973
 8756SOL    HW127167   1.656   1.664   1.901
 8756SOL    HW227168   1.571   1.695   2.037
 8757SOL     OW27169   5.178   6.135   5.917
 8757SOL    HW127170   5.250   6.195   5.952
 8757SOL    HW227171   5.137   6.175   5.836
 8758SOL     OW27172   3.585   5.693   5.142
 8758SOL    HW127173   3.671   5.659   5.182
 8758SOL    HW227174   3.540   5.754   5.208
 8759SOL     OW27175   6.004   1.142   0.987
 8759SOL    HW127176   5.932   1.130   0.919
 8759SOL    HW227177   5.981   1.217   1.048
 8760SOL     OW27178   2.630   2.464   4.168
 8760SOL    HW127179   2.679   2.401   4.109
 8760SOL    HW227180   2.639   2.557   4.132
 8761SOL     OW27181   4.977   1.675   2.643
 8761SOL    HW127182   4.903   1.683   2.577
 8761SOL    HW227183   4.941   1.679   2.736
 8762SOL     OW27184   2.863   4.777   3.343
 8762SOL    HW127185   2.909   4.786   3.432
 8762SOL    HW227186   2.929   4.794   3.270
 8763SOL     OW27187   0.492   0.914   6.734
 8763SOL    HW127188   0.554   0.927   6.656
 8763SOL    HW227189   0.408   0.869   6.703
 8764SOL     OW27190   2.806   5.112   5.582
 8764SOL    HW127191   2.875   5.172   5.623
 8764SOL    HW227192   2.717   5.159   5.581
 8765SOL     OW27193   4.101   6.891   4.074
 8765SOL    HW127194   4.009   6.880   4.036
 8765SOL    HW227195   4.166   6.842   4.017
 8766SOL     OW27196   4.994   6.888   6.098
 8766SOL    HW127197   5.075   6.943   6.079
 8766SOL    HW227198   5.023   6.796   6.127
 8767SOL     OW27199   1.643   1.019   3.543
 8767SOL    HW127200   1.715   1.056   3.484
 8767SOL    HW227201   1.669   1.030   3.638
 8768SOL     OW27202   0.049   2.036   6.682
 8768SOL    HW127203   0.129   2.089   6.709
 8768SOL    HW227204   0.073   1.977   6.605
 8769SOL     OW27205   6.165   0.394   0.009
 8769SOL    HW127206   6.229   0.466   7.005
 8769SOL    HW227207   6.074   0.417   6.997
 8770SOL     OW27208   5.139   2.621   0.611
 8770SOL    HW127209   5.094   2.697   0.658
 8770SOL    HW227210   5.133   2.636   0.512
 8771SOL     OW27211   0.525   2.491   6.744
 8771SOL    HW127212   0.602   2.553   6.724
 8771SOL    HW227213   0.439   2.539   6.728
 8772SOL     OW27214   0.006   6.894   4.522
 8772SOL    HW127215   6.938   6.902   4.565
 8772SOL    HW227216   0.027   6.797   4.506
 8773SOL     OW27217   6.813   0.493   4.462
 8773SOL    HW127218   6.871   0.439   4.524
 8773SOL    HW227219   6.830   0.463   4.368
 8774SOL     OW27220   1.185   1.529   0.219
 8774SOL    HW127221   1.237   1.513   0.135
 8774SOL    HW227222   1.137   1.616   0.212
 8775SOL     OW27223   5.776   2.673   3.529
 8775SOL    HW127224   5.767   2.770   3.552
 8775SOL    HW227225   5.872   2.653   3.509
 8776SOL     OW27226   4.522   2.755   0.277
 8776SOL    HW127227   4.513   2.832   0.340
 8776SOL    HW227228   4.468   2.677   0.311
 8777SOL     OW27229   6.857   2.069   3.135
 8777SOL    HW127230   6.847   2.127   3.054
 8777SOL    HW227231   6.841   2.124   3.217
 8778SOL     OW27232   3.399   4.214   6.915
 8778SOL    HW127233   3.492   4.225   6.880
 8778SOL    HW227234   3.335   4.256   6.851
 8779SOL     OW27235   4.385   4.581   2.762
 8779SOL    HW127236   4.401   4.601   2.666
 8779SOL    HW227237   4.301   4.627   2.792
 8780SOL     OW27238   0.376   4.588   3.869
 8780SOL    HW127239   0.318   4.517   3.829
 8780SOL    HW227240   0.410   4.558   3.958
 8781SOL     OW27241   2.459   1.142   1.330
 8781SOL    HW127242   2.399   1.193   1.267
 8781SOL    HW227243   2.548   1.187   1.334
 8782SOL     OW27244   5.772   2.070   0.825
 8782SOL    HW127245   5.682   2.048   0.787
 8782SOL    HW227246   5.764   2.146   0.889
 8783SOL     OW27247   5.315   3.688   4.626
 8783SOL    HW127248   5.378   3.614   4.604
 8783SOL    HW227249   5.248   3.699   4.553
 8784SOL     OW27250   5.040   0.493   0.673
 8784SOL    HW127251   5.043   0.577   0.619
 8784SOL    HW227252   4.995   0.510   0.760
 8785SOL     OW27253   0.002   5.350   5.085
 8785SOL    HW127254   6.952   5.284   5.106
 8785SOL    HW227255   6.985   5.428   5.036
 8786SOL     OW27256   5.041   1.573   2.177
 8786SOL    HW127257   4.955   1.554   2.225
 8786SOL    HW227258   5.044   1.519   2.093
 8787SOL     OW27259   3.795   5.532   1.077
 8787SOL    HW127260   3.851   5.483   1.144
 8787SOL    HW227261   3.840   5.528   0.987
 8788SOL     OW27262   0.501   6.869   3.916
 8788SOL    HW127263   0.426   6.901   3.857
 8788SOL    HW227264   0.475   6.782   3.957
 8789SOL     OW27265   0.897   2.551   6.042
 8789SOL    HW127266   0.904   2.535   5.944
 8789SOL    HW227267   0.988   2.544   6.084
 8790SOL     OW27268   4.395   2.774   5.532
 8790SOL    HW127269   4.337   2.835   5.478
 8790SOL    HW227270   4.465   2.734   5.472
 8791SOL     OW27271   3.508   6.158   4.442
 8791SOL    HW127272   3.514   6.156   4.342
 8791SOL    HW227273   3.569   6.088   4.481
 8792SOL     OW27274   5.100   4.274   1.743
 8792SOL    HW127275   5.089   4.187   1.792
 8792SOL    HW227276   5.196   4.291   1.725
 8793SOL     OW27277   6.849   6.462   5.040
 8793SOL    HW127278   6.749   6.467   5.043
 8793SOL    HW227279   6.887   6.554   5.044
 8794SOL     OW27280   6.535   1.104   2.363
 8794SOL    HW127281   6.558   1.077   2.456
 8794SOL    HW227282   6.542   1.024   2.302
 8795SOL     OW27283   1.626   6.214   6.744
 8795SOL    HW127284   1.671   6.295   6.782
 8795SOL    HW227285   1.623   6.222   6.644
 8796SOL     OW27286   5.975   3.614   4.522
 8796SOL    HW127287   5.970   3.545   4.451
 8796SOL    HW227288   6.024   3.577   4.601
 8797SOL     OW27289   4.764   6.706   3.839
 8797SOL    HW127290   4.789   6.622   3.888
 8797SOL    HW227291   4.738   6.777   3.905
 8798SOL     OW27292   2.953   6.588   5.827
 8798SOL    HW127293   2.976   6.507   5.882
 8798SOL    HW227294   2.946   6.668   5.887
 8799SOL     OW27295   1.562   5.702   1.921
 8799SOL    HW127296   1.573   5.640   1.843
 8799SOL    HW227297   1.465   5.719   1.936
 8800SOL     OW27298   6.702   6.199   5.336
 8800SOL    HW127299   6.708   6.255   5.419
 8800SOL    HW227300   6.625   6.230   5.280
 8801SOL     OW27301   5.791   3.517   5.699
 8801SOL    HW127302   5.808   3.603   5.651
 8801SOL    HW227303   5.864   3.501   5.766
 8802SOL     OW27304   1.463   5.769   6.352
 8802SOL    HW127305   1.417   5.718   6.425
 8802SOL    HW227306   1.440   5.866   6.360
 8803SOL     OW27307   6.441   6.269   6.058
 8803SOL    HW127308   6.436   6.368   6.044
 8803SOL    HW227309   6.358   6.238   6.105
 8804SOL     OW27310   1.958   6.182   2.153
 8804SOL    HW127311   1.881   6.180   2.218
 8804SOL    HW227312   2.030   6.241   2.189
 8805SOL     OW27313   5.417   4.811   3.332
 8805SOL    HW127314   5.484   4.751   3.377
 8805SOL    HW227315   5.394   4.886   3.393
 8806SOL     OW27316   1.439   0.036   1.320
 8806SOL    HW127317   1.439   0.059   1.417
 8806SOL    HW227318   1.464   0.116   1.266
 8807SOL     OW27319   5.500   3.097   0.908
 8807SOL    HW127320   5.589   3.060   0.882
 8807SOL    HW227321   5.505   3.132   1.001
 8808SOL     OW27322   1.626   2.209   6.440
 8808SOL    HW127323   1.551   2.270   6.413
 8808SOL    HW227324   1.603   2.115   6.417
 8809SOL     OW27325   0.380   3.809   3.059
 8809SOL    HW127326   0.360   3.723   3.107
 8809SOL    HW227327   0.462   3.851   3.097
 8810SOL     OW27328   0.720   1.198   5.338
 8810SOL    HW127329   0.681   1.142   5.265
 8810SOL    HW227330   0.819   1.206   5.325
 8811SOL     OW27331   4.431   4.616   2.470
 8811SOL    HW127332   4.363   4.639   2.399
 8811SOL    HW227333   4.481   4.534   2.442
 8812SOL     OW27334   5.025   1.062   6.313
 8812SOL    HW127335   5.023   0.976   6.364
 8812SOL    HW227336   5.076   1.049   6.228
 8813SOL     OW27337   2.015   3.759   3.718
 8813SOL    HW127338   2.027   3.692   3.791
 8813SOL    HW227339   2.061   3.726   3.635
 8814SOL     OW27340   5.024   6.989   5.300
 8814SOL    HW127341   4.963   6.913   5.280
 8814SOL    HW227342   4.971   0.052   5.308
 8815SOL     OW27343   5.397   1.193   1.022
 8815SOL    HW127344   5.490   1.211   1.054
 8815SOL    HW227345   5.389   1.097   0.995
 8816SOL     OW27346   0.734   5.791   4.828
 8816SOL    HW127347   0.640   5.795   4.795
 8816SOL    HW227348   0.735   5.804   4.928
 8817SOL     OW27349   1.530   3.349   3.690
 8817SOL    HW127350   1.441   3.315   3.660
 8817SOL    HW227351   1.602   3.296   3.646
 8818SOL     OW27352   0.802   0.257   5.700
 8818SOL    HW127353   0.706   0.231   5.701
 8818SOL    HW227354   0.811   0.354   5.726
 8819SOL     OW27355   4.943   5.049   6.335
 8819SOL    HW127356   5.013   5.062   6.265
 8819SOL    HW227357   4.882   5.128   6.337
 8820SOL     OW27358   3.943   6.900   5.866
 8820SOL    HW127359   3.948   6.800   5.855
 8820SOL    HW227360   3.851   6.926   5.895
 8821SOL     OW27361   0.166   4.621   6.196
 8821SOL    HW127362   0.151   4.582   6.105
 8821SOL    HW227363   0.164   4.548   6.264
 8822SOL     OW27364   6.013   0.544   4.379
 8822SOL    HW127365   5.979   0.624   4.330
 8822SOL    HW227366   5.962   0.463   4.350
 8823SOL     OW27367   3.405   1.065   2.900
 8823SOL    HW127368   3.467   1.111   2.963
 8823SOL    HW227369   3.314   1.060   2.939
 8824SOL     OW27370   1.183   0.361   2.626
 8824SOL    HW127371   1.171   0.290   2.696
 8824SOL    HW227372   1.113   0.431   2.637
 8825SOL     OW27373   0.458   0.203   0.455
 8825SOL    HW127374   0.412   0.287   0.487
 8825SOL    HW227375   0.452   0.133   0.526
 8826SOL     OW27376   1.052   4.404   0.806
 8826SOL    HW127377   0.984   4.339   0.840
 8826SOL    HW227378   1.010   4.495   0.799
 8827SOL     OW27379   4.770   0.293   2.857
 8827SOL    HW127380   4.696   0.227   2.871
 8827SOL    HW227381   4.740   0.383   2.888
 8828SOL     OW27382   5.291   2.618   6.310
 8828SOL    HW127383   5.297   2.519   6.323
 8828SOL    HW227384   5.230   2.658   6.379
 8829SOL     OW27385   6.889   0.879   2.139
 8829SOL    HW127386   6.949   0.894   2.061
 8829SOL    HW227387   6.941   0.840   2.215
 8830SOL     OW27388   3.514   0.514   3.101
 8830SOL    HW127389   3.434   0.517   3.041
 8830SOL    HW227390   3.596   0.536   3.049
 8831SOL     OW27391   0.361   2.942   1.948
 8831SOL    HW127392   0.457   2.936   1.974
 8831SOL    HW227393   0.304   2.911   2.024
 8832SOL     OW27394   5.453   0.423   5.434
 8832SOL    HW127395   5.460   0.428   5.533
 8832SOL    HW227396   5.363   0.457   5.405
 8833SOL     OW27397   5.219   2.246   1.656
 8833SOL    HW127398   5.150   2.318   1.666
 8833SOL    HW227399   5.175   2.159   1.638
 8834SOL     OW27400   5.961   3.834   5.701
 8834SOL    HW127401   5.863   3.852   5.695
 8834SOL    HW227402   6.012   3.916   5.676
 8835SOL     OW27403   6.789   0.784   5.476
 8835SOL    HW127404   6.689   0.777   5.486
 8835SOL    HW227405   6.832   0.703   5.514
 8836SOL     OW27406   4.658   1.276   1.481
 8836SOL    HW127407   4.697   1.349   1.424
 8836SOL    HW227408   4.630   1.200   1.422
 8837SOL     OW27409   3.620   6.301   0.678
 8837SOL    HW127410   3.706   6.276   0.635
 8837SOL    HW227411   3.575   6.219   0.713
 8838SOL     OW27412   1.730   3.706   4.188
 8838SOL    HW127413   1.789   3.766   4.135
 8838SOL    HW227414   1.634   3.725   4.167
 8839SOL     OW27415   5.336   5.945   2.584
 8839SOL    HW127416   5.380   6.019   2.534
 8839SOL    HW227417   5.382   5.858   2.562
 8840SOL     OW27418   6.548   0.635   0.798
 8840SOL    HW127419   6.568   0.542   0.768
 8840SOL    HW227420   6.631   0.675   0.838
 8841SOL     OW27421   3.720   0.610   0.762
 8841SOL    HW127422   3.704   0.512   0.747
 8841SOL    HW227423   3.815   0.625   0.789
 8842SOL     OW27424   3.292   3.873   4.266
 8842SOL    HW127425   3.308   3.879   4.365
 8842SOL    HW227426   3.202   3.831   4.251
 8843SOL     OW27427   2.962   6.088   6.623
 8843SOL    HW127428   2.911   6.168   6.589
 8843SOL    HW227429   2.898   6.019   6.655
 8844SOL     OW27430   3.532   2.381   6.152
 8844SOL    HW127431   3.470   2.425   6.217
 8844SOL    HW227432   3.615   2.436   6.144
 8845SOL     OW27433   0.233   3.600   2.266
 8845SOL    HW127434   0.265   3.586   2.360
 8845SOL    HW227435   0.167   3.529   2.243
 8846SOL     OW27436   5.823   3.921   4.687
 8846SOL    HW127437   5.752   3.972   4.736
 8846SOL    HW227438   5.828   3.954   4.593
 8847SOL     OW27439   1.684   2.170   3.408
 8847SOL    HW127440   1.619   2.213   3.346
 8847SOL    HW227441   1.729   2.241   3.463
 8848SOL     OW27442   5.340   1.204   0.325
 8848SOL    HW127443   5.247   1.236   0.340
 8848SOL    HW227444   5.398   1.282   0.300
 8849SOL     OW27445   3.172   5.040   4.327
 8849SOL    HW127446   3.197   5.136   4.343
 8849SOL    HW227447   3.084   5.021   4.369
 8850SOL     OW27448   3.377   1.309   1.367
 8850SOL    HW127449   3.420   1.220   1.351
 8850SOL    HW227450   3.446   1.372   1.404
 8851SOL     OW27451   6.640   4.769   2.019
 8851SOL    HW127452   6.644   4.669   2.009
 8851SOL    HW227453   6.589   4.808   1.943
 8852SOL     OW27454   4.536   2.632   4.785
 8852SOL    HW127455   4.489   2.602   4.702
 8852SOL    HW227456   4.548   2.731   4.783
 8853SOL     OW27457   4.228   1.830   5.516
 8853SOL    HW127458   4.295   1.904   5.512
 8853SOL    HW227459   4.272   1.748   5.554
 8854SOL     OW27460   1.296   1.491   7.004
 8854SOL    HW127461   1.364   1.419   6.988
 8854SOL    HW227462   1.330   1.577   6.965
 8855SOL     OW27463   6.529   4.938   0.115
 8855SOL    HW127464   6.622   4.960   0.084
 8855SOL    HW227465   6.500   4.851   0.073
 8856SOL     OW27466   5.457   1.003   4.880
 8856SOL    HW127467   5.521   0.926   4.883
 8856SOL    HW227468   5.503   1.087   4.910
 8857SOL     OW27469   0.094   2.464   4.486
 8857SOL    HW127470   0.004   2.495   4.456
 8857SOL    HW227471   0.118   2.380   4.438
 8858SOL     OW27472   6.772   4.035   6.107
 8858SOL    HW127473   6.785   4.101   6.034
 8858SOL    HW227474   6.681   4.048   6.148
 8859SOL     OW27475   2.930   5.058   5.145
 8859SOL    HW127476   2.836   5.036   5.172
 8859SOL    HW227477   2.949   5.018   5.056
 8860SOL     OW27478   1.958   2.504   1.706
 8860SOL    HW127479   1.918   2.469   1.791
 8860SOL    HW227480   1.973   2.429   1.642
 8861SOL     OW27481   2.902   2.793   0.913
 8861SOL    HW127482   2.896   2.712   0.971
 8861SOL    HW227483   2.817   2.803   0.861
 8862SOL     OW27484   6.598   1.958   4.347
 8862SOL    HW127485   6.686   1.911   4.356
 8862SOL    HW227486   6.528   1.908   4.398
 8863SOL     OW27487   1.059   5.635   4.812
 8863SOL    HW127488   1.052   5.685   4.898
 8863SOL    HW227489   1.116   5.687   4.747
 8864SOL     OW27490   1.475   3.348   5.736
 8864SOL    HW127491   1.480   3.249   5.727
 8864SOL    HW227492   1.423   3.386   5.660
 8865SOL     OW27493   2.280   2.042   5.860
 8865SOL    HW127494   2.321   1.998   5.780
 8865SOL    HW227495   2.217   2.114   5.831
 8866SOL     OW27496   4.062   6.586   5.490
 8866SOL    HW127497   3.979   6.642   5.491
 8866SOL    HW227498   4.105   6.593   5.400
 8867SOL     OW27499   6.223   1.853   3.604
 8867SOL    HW127500   6.149   1.879   3.667
 8867SOL    HW227501   6.280   1.933   3.586
 8868SOL     OW27502   4.486   3.699   1.370
 8868SOL    HW127503   4.477   3.780   1.427
 8868SOL    HW227504   4.583   3.675   1.362
 8869SOL     OW27505   4.956   2.816   3.533
 8869SOL    HW127506   4.926   2.743   3.594
 8869SOL    HW227507   4.936   2.905   3.575
 8870SOL     OW27508   3.860   1.241   1.170
 8870SOL    HW127509   3.840   1.150   1.205
 8870SOL    HW227510   3.833   1.246   1.074
 8871SOL     OW27511   1.475   2.281   4.406
 8871SOL    HW127512   1.503   2.187   4.426
 8871SOL    HW227513   1.519   2.313   4.322
 8872SOL     OW27514   1.814   3.315   3.565
 8872SOL    HW127515   1.864   3.310   3.651
 8872SOL    HW227516   1.863   3.266   3.493
 8873SOL     OW27517   6.878   6.558   4.726
 8873SOL    HW127518   6.792   6.515   4.753
 8873SOL    HW227519   6.915   6.513   4.645
 8874SOL     OW27520   1.464   1.644   0.368
 8874SOL    HW127521   1.401   1.670   0.441
 8874SOL    HW227522   1.412   1.616   0.288
 8875SOL     OW27523   1.907   1.353   3.800
 8875SOL    HW127524   1.965   1.277   3.830
 8875SOL    HW227525   1.821   1.317   3.763
 8876SOL     OW27526   2.085   0.463   4.123
 8876SOL    HW127527   2.017   0.413   4.176
 8876SOL    HW227528   2.098   0.554   4.162
 8877SOL     OW27529   3.391   6.347   4.611
 8877SOL    HW127530   3.440   6.294   4.541
 8877SOL    HW227531   3.310   6.390   4.569
 8878SOL     OW27532   5.748   4.573   6.157
 8878SOL    HW127533   5.804   4.645   6.116
 8878SOL    HW227534   5.670   4.554   6.097
 8879SOL     OW27535   4.429   5.623   4.994
 8879SOL    HW127536   4.528   5.619   4.986
 8879SOL    HW227537   4.404   5.681   5.072
 8880SOL     OW27538   0.341   5.468   5.683
 8880SOL    HW127539   0.394   5.387   5.657
 8880SOL    HW227540   0.401   5.547   5.690
 8881SOL     OW27541   6.824   0.703   1.698
 8881SOL    HW127542   6.767   0.771   1.652
 8881SOL    HW227543   6.861   0.640   1.630
 8882SOL     OW27544   6.236   2.072   6.258
 8882SOL    HW127545   6.236   1.982   6.214
 8882SOL    HW227546   6.284   2.066   6.346
 8883SOL     OW27547   6.705   1.155   5.315
 8883SOL    HW127548   6.769   1.173   5.239
 8883SOL    HW227549   6.714   1.060   5.343
 8884SOL     OW27550   6.332   0.775   5.523
 8884SOL    HW127551   6.378   0.704   5.575
 8884SOL    HW227552   6.295   0.736   5.439
 8885SOL     OW27553   5.093   3.512   1.661
 8885SOL    HW127554   5.075   3.491   1.565
 8885SOL    HW227555   5.096   3.427   1.714
 8886SOL     OW27556   3.094   6.443   6.578
 8886SOL    HW127557   3.038   6.436   6.495
 8886SOL    HW227558   3.179   6.391   6.566
 8887SOL     OW27559   1.652   0.627   1.244
 8887SOL    HW127560   1.676   0.713   1.288
 8887SOL    HW227561   1.734   0.586   1.203
 8888SOL     OW27562   3.733   1.109   3.160
 8888SOL    HW127563   3.769   1.175   3.225
 8888SOL    HW227564   3.716   1.022   3.206
 8889SOL     OW27565   3.757   6.778   4.980
 8889SOL    HW127566   3.699   6.707   5.020
 8889SOL    HW227567   3.787   6.750   4.889
 8890SOL     OW27568   1.161   4.681   4.521
 8890SOL    HW127569   1.259   4.669   4.541
 8890SOL    HW227570   1.143   4.776   4.499
 8891SOL     OW27571   2.579   2.008   6.919
 8891SOL    HW127572   2.486   2.039   6.936
 8891SOL    HW227573   2.635   2.022   7.001
 8892SOL     OW27574   1.227   6.635   2.436
 8892SOL    HW127575   1.311   6.681   2.464
 8892SOL    HW227576   1.206   6.661   2.341
 8893SOL     OW27577   0.727   1.469   1.736
 8893SOL    HW127578   0.756   1.374   1.752
 8893SOL    HW227579   0.664   1.497   1.808
 8894SOL     OW27580   3.909   3.478   6.678
 8894SOL    HW127581   3.829   3.518   6.634
 8894SOL    HW227582   3.900   3.486   6.778
 8895SOL     OW27583   0.618   0.352   2.069
 8895SOL    HW127584   0.578   0.420   2.130
 8895SOL    HW227585   0.564   0.268   2.072
 8896SOL     OW27586   2.036   4.175   5.020
 8896SOL    HW127587   2.105   4.122   5.070
 8896SOL    HW227588   2.031   4.267   5.057
 8897SOL     OW27589   1.477   2.284   1.667
 8897SOL    HW127590   1.564   2.315   1.627
 8897SOL    HW227591   1.494   2.203   1.723
 8898SOL     OW27592   6.590   2.794   4.903
 8898SOL    HW127593   6.584   2.696   4.884
 8898SOL    HW227594   6.577   2.810   5.000
 8899SOL     OW27595   2.695   4.177   0.216
 8899SOL    HW127596   2.651   4.258   0.176
 8899SOL    HW227597   2.682   4.178   0.315
 8900SOL     OW27598   5.753   1.887   3.187
 8900SOL    HW127599   5.810   1.961   3.224
 8900SOL    HW227600   5.806   1.832   3.123
 8901SOL     OW27601   2.234   6.366   2.437
 8901SOL    HW127602   2.183   6.302   2.494
 8901SOL    HW227603   2.186   6.378   2.350
 8902SOL     OW27604   2.179   5.192   6.301
 8902SOL    HW127605   2.093   5.232   6.330
 8902SOL    HW227606   2.250   5.262   6.300
 8903SOL     OW27607   0.959   1.998   3.931
 8903SOL    HW127608   0.939   2.045   4.017
 8903SOL    HW227609   0.877   1.951   3.899
 8904SOL     OW27610   0.927   5.363   3.407
 8904SOL    HW127611   0.843   5.368   3.353
 8904SOL    HW227612   0.906   5.371   3.504
 8905SOL     OW27613   2.572   4.096   5.324
 8905SOL    HW127614   2.556   4.026   5.255
 8905SOL    HW227615   2.607   4.053   5.408
 8906SOL     OW27616   1.448   5.060   4.887
 8906SOL    HW127617   1.352   5.051   4.861
 8906SOL    HW227618   1.490   4.970   4.894
 8907SOL     OW27619   3.963   2.822   5.831
 8907SOL    HW127620   3.941   2.847   5.737
 8907SOL    HW227621   4.050   2.864   5.857
 8908SOL     OW27622   0.259   2.678   1.353
 8908SOL    HW127623   0.335   2.733   1.319
 8908SOL    HW227624   0.175   2.732   1.349
 8909SOL     OW27625   3.038   6.398   6.004
 8909SOL    HW127626   2.950   6.352   5.991
 8909SOL    HW227627   3.108   6.353   5.949
 8910SOL     OW27628   3.705   3.939   6.586
 8910SOL    HW127629   3.609   3.962   6.601
 8910SOL    HW227630   3.759   4.022   6.580
 8911SOL     OW27631   3.741   2.139   4.030
 8911SOL    HW127632   3.645   2.161   4.042
 8911SOL    HW227633   3.788   2.146   4.119
 8912SOL     OW27634   5.306   2.340   6.345
 8912SOL    HW127635   5.316   2.351   6.246
 8912SOL    HW227636   5.382   2.284   6.380
 8913SOL     OW27637   4.931   3.642   0.858
 8913SOL    HW127638   4.972   3.577   0.922
 8913SOL    HW227639   4.849   3.683   0.899
 8914SOL     OW27640   4.604   2.060   3.518
 8914SOL    HW127641   4.531   2.109   3.566
 8914SOL    HW227642   4.586   2.060   3.420
 8915SOL     OW27643   1.247   4.725   1.433
 8915SOL    HW127644   1.288   4.703   1.521
 8915SOL    HW227645   1.148   4.713   1.439
 8916SOL     OW27646   0.155   3.683   1.896
 8916SOL    HW127647   0.148   3.706   1.799
 8916SOL    HW227648   0.155   3.584   1.907
 8917SOL     OW27649   6.142   5.429   5.880
 8917SOL    HW127650   6.096   5.518   5.874
 8917SOL    HW227651   6.177   5.415   5.973
 8918SOL     OW27652   4.551   4.696   6.326
 8918SOL    HW127653   4.556   4.597   6.315
 8918SOL    HW227654   4.643   4.733   6.344
 8919SOL     OW27655   2.111   3.891   1.542
 8919SOL    HW127656   2.128   3.957   1.469
 8919SOL    HW227657   2.084   3.940   1.626
 8920SOL     OW27658   6.301   5.589   5.684
 8920SOL    HW127659   6.269   5.674   5.725
 8920SOL    HW227660   6.243   5.513   5.716
 8921SOL     OW27661   1.779   6.423   3.599
 8921SOL    HW127662   1.684   6.395   3.612
 8921SOL    HW227663   1.840   6.353   3.636
 8922SOL     OW27664   6.466   4.345   0.434
 8922SOL    HW127665   6.560   4.377   0.442
 8922SOL    HW227666   6.465   4.249   0.406
 8923SOL     OW27667   1.739   4.338   5.193
 8923SOL    HW127668   1.732   4.287   5.108
 8923SOL    HW227669   1.733   4.275   5.271
 8924SOL     OW27670   2.797   5.848   5.321
 8924SOL    HW127671   2.894   5.846   5.295
 8924SOL    HW227672   2.752   5.927   5.280
 8925SOL     OW27673   5.860   6.453   1.564
 8925SOL    HW127674   5.835   6.481   1.657
 8925SOL    HW227675   5.850   6.531   1.502
 8926SOL     OW27676   5.999   1.437   0.177
 8926SOL    HW127677   6.050   1.492   0.110
 8926SOL    HW227678   6.055   1.358   0.204
 8927SOL     OW27679   2.454   1.949   4.908
 8927SOL    HW127680   2.476   2.039   4.871
 8927SOL    HW227681   2.380   1.957   4.975
 8928SOL     OW27682   0.436   6.592   5.232
 8928SOL    HW127683   0.417   6.658   5.158
 8928SOL    HW227684   0.404   6.629   5.319
 8929SOL     OW27685   5.639   3.763   4.568
 8929SOL    HW127686   5.702   3.797   4.638
 8929SOL    HW227687   5.613   3.838   4.507
 8930SOL     OW27688   1.118   4.749   4.908
 8930SOL    HW127689   1.048   4.785   4.970
 8930SOL    HW227690   1.187   4.819   4.891
 8931SOL     OW27691   5.466   1.416   1.376
 8931SOL    HW127692   5.545   1.425   1.436
 8931SOL    HW227693   5.390   1.375   1.426
 8932SOL     OW27694   6.823   0.858   6.794
 8932SOL    HW127695   6.728   0.833   6.776
 8932SOL    HW227696   6.827   0.916   6.875
 8933SOL     OW27697   1.917   0.093   5.752
 8933SOL    HW127698   2.012   0.065   5.764
 8933SOL    HW227699   1.910   0.154   5.673
 8934SOL     OW27700   4.814   6.681   3.024
 8934SOL    HW127701   4.788   6.591   2.990
 8934SOL    HW227702   4.876   6.725   2.959
 8935SOL     OW27703   5.490   2.815   3.496
 8935SOL    HW127704   5.550   2.739   3.471
 8935SOL    HW227705   5.396   2.783   3.501
 8936SOL     OW27706   2.098   4.377   2.964
 8936SOL    HW127707   2.056   4.438   2.897
 8936SOL    HW227708   2.034   4.359   3.038
 8937SOL     OW27709   4.939   6.978   5.854
 8937SOL    HW127710   4.954   6.936   5.944
 8937SOL    HW227711   4.877   6.921   5.801
 8938SOL     OW27712   5.653   6.501   2.111
 8938SOL    HW127713   5.617   6.567   2.045
 8938SOL    HW227714   5.618   6.522   2.202
 8939SOL     OW27715   7.008   2.652   3.779
 8939SOL    HW127716   6.992   2.712   3.857
 8939SOL    HW227717   0.067   2.595   3.797
 8940SOL     OW27718   6.402   2.951   1.134
 8940SOL    HW127719   6.471   2.950   1.062
 8940SOL    HW227720   6.370   2.858   1.150
 8941SOL     OW27721   4.763   2.659   2.037
 8941SOL    HW127722   4.757   2.730   2.106
 8941SOL    HW227723   4.849   2.668   1.987
 8942SOL     OW27724   5.571   3.990   4.411
 8942SOL    HW127725   5.540   4.073   4.458
 8942SOL    HW227726   5.622   4.015   4.329
 8943SOL     OW27727   4.625   3.458   1.092
 8943SOL    HW127728   4.565   3.422   1.164
 8943SOL    HW227729   4.571   3.510   1.026
 8944SOL     OW27730   4.947   5.186   5.059
 8944SOL    HW127731   4.949   5.157   4.963
 8944SOL    HW227732   4.938   5.106   5.118
 8945SOL     OW27733   5.473   4.206   3.360
 8945SOL    HW127734   5.533   4.127   3.349
 8945SOL    HW227735   5.389   4.178   3.405
 8946SOL     OW27736   5.199   1.353   5.454
 8946SOL    HW127737   5.105   1.322   5.434
 8946SOL    HW227738   5.245   1.375   5.368
 8947SOL     OW27739   1.978   5.134   6.684
 8947SOL    HW127740   2.073   5.164   6.671
 8947SOL    HW227741   1.977   5.053   6.743
 8948SOL     OW27742   4.595   1.343   2.835
 8948SOL    HW127743   4.592   1.416   2.767
 8948SOL    HW227744   4.519   1.280   2.820
 8949SOL     OW27745   4.051   6.172   1.105
 8949SOL    HW127746   4.095   6.142   1.190
 8949SOL    HW227747   4.121   6.204   1.041
 8950SOL     OW27748   4.213   3.555   1.113
 8950SOL    HW127749   4.129   3.506   1.132
 8950SOL    HW227750   4.219   3.636   1.172
 8951SOL     OW27751   1.389   0.247   4.703
 8951SOL    HW127752   1.489   0.254   4.705
 8951SOL    HW227753   1.351   0.275   4.791
 8952SOL     OW27754   1.373   4.780   3.969
 8952SOL    HW127755   1.338   4.860   4.018
 8952SOL    HW227756   1.424   4.722   4.032
 8953SOL     OW27757   1.103   5.084   1.077
 8953SOL    HW127758   1.139   5.167   1.119
 8953SOL    HW227759   1.022   5.106   1.023
 8954SOL     OW27760   2.716   4.435   5.862
 8954SOL    HW127761   2.781   4.481   5.801
 8954SOL    HW227762   2.639   4.400   5.809
 8955SOL     OW27763   5.056   2.642   5.062
 8955SOL    HW127764   5.042   2.729   5.015
 8955SOL    HW227765   4.990   2.574   5.029
 8956SOL     OW27766   0.597   6.357   0.026
 8956SOL    HW127767   0.511   6.377   0.072
 8956SOL    HW227768   0.658   6.309   0.090
 8957SOL     OW27769   0.307   6.090   2.696
 8957SOL    HW127770   0.233   6.157   2.687
 8957SOL    HW227771   0.395   6.136   2.681
 8958SOL     OW27772   1.486   3.170   5.101
 8958SOL    HW127773   1.520   3.076   5.114
 8958SOL    HW227774   1.555   3.235   5.131
 8959SOL     OW27775   5.997   2.463   3.490
 8959SOL    HW127776   6.004   2.371   3.528
 8959SOL    HW227777   5.927   2.465   3.419
 8960SOL     OW27778   5.269   4.658   2.709
 8960SOL    HW127779   5.184   4.700   2.740
 8960SOL    HW227780   5.265   4.644   2.609
 8961SOL     OW27781   2.339   1.628   5.067
 8961SOL    HW127782   2.426   1.594   5.104
 8961SOL    HW227783   2.332   1.726   5.086
 8962SOL     OW27784   6.744   5.697   1.825
 8962SOL    HW127785   6.807   5.621   1.839
 8962SOL    HW227786   6.706   5.725   1.914
 8963SOL     OW27787   4.260   6.392   6.100
 8963SOL    HW127788   4.286   6.480   6.139
 8963SOL    HW227789   4.225   6.332   6.172
 8964SOL     OW27790   2.162   2.388   4.318
 8964SOL    HW127791   2.259   2.412   4.325
 8964SOL    HW227792   2.118   2.400   4.407
 8965SOL     OW27793   3.740   5.899   6.804
 8965SOL    HW127794   3.701   5.811   6.778
 8965SOL    HW227795   3.668   5.958   6.841
 8966SOL     OW27796   4.907   6.197   4.744
 8966SOL    HW127797   4.992   6.166   4.786
 8966SOL    HW227798   4.874   6.128   4.680
 8967SOL     OW27799   3.458   0.079   3.763
 8967SOL    HW127800   3.482   0.156   3.823
 8967SOL    HW227801   3.446   0.112   3.669
 8968SOL     OW27802   3.379   4.947   2.305
 8968SOL    HW127803   3.417   5.034   2.335
 8968SOL    HW227804   3.441   4.903   2.240
 8969SOL     OW27805   0.633   0.721   2.435
 8969SOL    HW127806   0.692   0.644   2.414
 8969SOL    HW227807   0.585   0.704   2.521
 8970SOL     OW27808   1.936   0.694   3.641
 8970SOL    HW127809   2.024   0.741   3.641
 8970SOL    HW227810   1.864   0.759   3.666
 8971SOL     OW27811   2.967   4.346   0.483
 8971SOL    HW127812   2.878   4.302   0.473
 8971SOL    HW227813   3.036   4.277   0.507
 8972SOL     OW27814   5.639   4.081   6.666
 8972SOL    HW127815   5.706   4.036   6.608
 8972SOL    HW227816   5.608   4.018   6.737
 8973SOL     OW27817   1.738   2.362   3.577
 8973SOL    HW127818   1.766   2.287   3.638
 8973SOL    HW227819   1.809   2.433   3.578
 8974SOL     OW27820   2.466   4.643   4.902
 8974SOL    HW127821   2.523   4.617   4.980
 8974SOL    HW227822   2.447   4.562   4.846
 8975SOL     OW27823   0.227   4.993   5.496
 8975SOL    HW127824   0.145   4.948   5.531
 8975SOL    HW227825   0.266   4.937   5.423
 8976SOL     OW27826   5.753   0.741   2.409
 8976SOL    HW127827   5.835   0.685   2.404
 8976SOL    HW227828   5.732   0.777   2.318
 8977SOL     OW27829   6.289   4.375   6.732
 8977SOL    HW127830   6.339   4.350   6.815
 8977SOL    HW227831   6.324   4.322   6.655
 8978SOL     OW27832   6.213   5.841   0.149
 8978SOL    HW127833   6.138   5.775   0.155
 8978SOL    HW227834   6.184   5.920   0.094
 8979SOL     OW27835   1.321   5.001   4.405
 8979SOL    HW127836   1.266   5.048   4.336
 8979SOL    HW227837   1.339   5.062   4.482
 8980SOL     OW27838   3.154   0.649   0.155
 8980SOL    HW127839   3.211   0.567   0.147
 8980SOL    HW227840   3.172   0.693   0.244
 8981SOL     OW27841   4.499   3.433   6.305
 8981SOL    HW127842   4.474   3.379   6.385
 8981SOL    HW227843   4.458   3.391   6.223
 8982SOL     OW27844   0.474   1.780   2.004
 8982SOL    HW127845   0.405   1.724   2.049
 8982SOL    HW227846   0.443   1.875   1.999
 8983SOL     OW27847   1.980   6.427   1.948
 8983SOL    HW127848   1.915   6.355   1.926
 8983SOL    HW227849   1.936   6.496   2.006
 8984SOL     OW27850   6.687   0.715   4.287
 8984SOL    HW127851   6.669   0.676   4.196
 8984SOL    HW227852   6.714   0.642   4.349
 8985SOL     OW27853   4.759   1.807   1.851
 8985SOL    HW127854   4.679   1.837   1.799
 8985SOL    HW227855   4.754   1.844   1.944
 8986SOL     OW27856   0.112   4.868   0.225
 8986SOL    HW127857   0.189   4.885   0.163
 8986SOL    HW227858   0.128   4.783   0.275
 8987SOL     OW27859   2.298   6.296   1.601
 8987SOL    HW127860   2.327   6.381   1.645
 8987SOL    HW227861   2.233   6.317   1.528
 8988SOL     OW27862   2.754   0.018   1.062
 8988SOL    HW127863   2.776   6.946   1.089
 8988SOL    HW227864   2.816   0.081   1.107
 8989SOL     OW27865   5.151   1.497   2.747
 8989SOL    HW127866   5.095   1.570   2.709
 8989SOL    HW227867   5.130   1.411   2.702
 8990SOL     OW27868   3.193   0.682   2.372
 8990SOL    HW127869   3.218   0.731   2.288
 8990SOL    HW227870   3.179   0.586   2.351
 8991SOL     OW27871   1.372   2.153   0.880
 8991SOL    HW127872   1.307   2.227   0.864
 8991SOL    HW227873   1.463   2.182   0.851
 8992SOL     OW27874   6.940   4.046   6.524
 8992SOL    HW127875   6.997   4.036   6.606
 8992SOL    HW227876   6.882   3.965   6.514
 8993SOL     OW27877   5.189   3.615   4.850
 8993SOL    HW127878   5.242   3.657   4.777
 8993SOL    HW227879   5.212   3.658   4.937
 8994SOL     OW27880   1.164   5.690   2.703
 8994SOL    HW127881   1.143   5.630   2.626
 8994SOL    HW227882   1.240   5.651   2.756
 8995SOL     OW27883   2.116   3.842   5.006
 8995SOL    HW127884   2.184   3.911   4.981
 8995SOL    HW227885   2.052   3.830   4.930
 8996SOL     OW27886   1.339   3.834   1.904
 8996SOL    HW127887   1.292   3.793   1.826
 8996SOL    HW227888   1.408   3.899   1.872
 8997SOL     OW27889   4.413   2.004   5.397
 8997SOL    HW127890   4.476   2.065   5.445
 8997SOL    HW227891   4.433   2.006   5.299
 8998SOL     OW27892   1.339   1.148   6.288
 8998SOL    HW127893   1.268   1.078   6.280
 8998SOL    HW227894   1.317   1.210   6.363
 8999SOL     OW27895   4.945   1.414   5.119
 8999SOL    HW127896   4.891   1.457   5.192
 8999SOL    HW227897   4.895   1.335   5.083
 9000SOL     OW27898   2.388   4.622   0.135
 9000SOL    HW127899   2.452   4.683   0.088
 9000SOL    HW227900   2.376   4.654   0.229
 9001SOL     OW27901   2.192   4.685   3.769
 9001SOL    HW127902   2.154   4.768   3.727
 9001SOL    HW227903   2.259   4.644   3.706
 9002SOL     OW27904   5.234   4.411   5.242
 9002SOL    HW127905   5.251   4.321   5.202
 9002SOL    HW227906   5.217   4.477   5.170
 9003SOL     OW27907   6.422   3.181   6.847
 9003SOL    HW127908   6.373   3.174   6.934
 9003SOL    HW227909   6.380   3.251   6.790
 9004SOL     OW27910   4.502   5.831   0.761
 9004SOL    HW127911   4.550   5.749   0.792
 9004SOL    HW227912   4.568   5.906   0.751
 9005SOL     OW27913   4.351   2.235   2.682
 9005SOL    HW127914   4.385   2.143   2.705
 9005SOL    HW227915   4.359   2.250   2.584
 9006SOL     OW27916   2.430   6.630   0.983
 9006SOL    HW127917   2.376   6.576   0.918
 9006SOL    HW227918   2.414   6.597   1.076
 9007SOL     OW27919   2.286   6.768   4.468
 9007SOL    HW127920   2.326   6.742   4.556
 9007SOL    HW227921   2.243   6.689   4.426
 9008SOL     OW27922   6.883   4.713   2.618
 9008SOL    HW127923   6.790   4.682   2.639
 9008SOL    HW227924   6.903   4.796   2.670
 9009SOL     OW27925   4.304   6.126   0.732
 9009SOL    HW127926   4.267   6.035   0.754
 9009SOL    HW227927   4.244   6.196   0.769
 9010SOL     OW27928   0.500   5.526   5.107
 9010SOL    HW127929   0.543   5.445   5.069
 9010SOL    HW227930   0.403   5.508   5.125
 9011SOL     OW27931   4.229   2.213   1.910
 9011SOL    HW127932   4.167   2.138   1.885
 9011SOL    HW227933   4.300   2.179   1.971
 9012SOL     OW27934   5.689   5.277   1.778
 9012SOL    HW127935   5.755   5.320   1.717
 9012SOL    HW227936   5.601   5.324   1.770
 9013SOL     OW27937   4.453   5.858   2.504
 9013SOL    HW127938   4.464   5.915   2.586
 9013SOL    HW227939   4.534   5.800   2.492
 9014SOL     OW27940   2.634   0.647   0.840
 9014SOL    HW127941   2.685   0.633   0.925
 9014SOL    HW227942   2.616   0.744   0.827
 9015SOL     OW27943   6.701   1.239   4.956
 9015SOL    HW127944   6.679   1.273   4.865
 9015SOL    HW227945   6.733   1.144   4.949
 9016SOL     OW27946   6.806   5.574   6.527
 9016SOL    HW127947   6.871   5.647   6.507
 9016SOL    HW227948   6.853   5.500   6.576
 9017SOL     OW27949   0.264   4.372   3.745
 9017SOL    HW127950   0.355   4.362   3.705
 9017SOL    HW227951   0.195   4.350   3.675
 9018SOL     OW27952   3.611   1.498   6.265
 9018SOL    HW127953   3.706   1.484   6.292
 9018SOL    HW227954   3.562   1.545   6.338
 9019SOL     OW27955   1.578   5.551   0.535
 9019SOL    HW127956   1.623   5.530   0.622
 9019SOL    HW227957   1.644   5.542   0.460
 9020SOL     OW27958   0.395   4.944   2.983
 9020SOL    HW127959   0.413   4.967   2.888
 9020SOL    HW227960   0.441   4.857   3.005
 9021SOL     OW27961   6.619   5.977   5.477
 9021SOL    HW127962   6.663   6.041   5.414
 9021SOL    HW227963   6.520   5.980   5.462
 9022SOL     OW27964   3.529   1.190   6.743
 9022SOL    HW127965   3.479   1.104   6.728
 9022SOL    HW227966   3.481   1.245   6.811
 9023SOL     OW27967   3.018   3.136   2.948
 9023SOL    HW127968   2.987   3.159   3.041
 9023SOL    HW227969   2.975   3.199   2.882
 9024SOL     OW27970   1.124   0.495   6.612
 9024SOL    HW127971   1.045   0.433   6.606
 9024SOL    HW227972   1.179   0.470   6.691
 9025SOL     OW27973   0.442   3.824   0.573
 9025SOL    HW127974   0.362   3.768   0.595
 9025SOL    HW227975   0.481   3.861   0.657
 9026SOL     OW27976   3.148   3.015   5.628
 9026SOL    HW127977   3.129   2.940   5.565
 9026SOL    HW227978   3.139   3.102   5.579
 9027SOL     OW27979   2.322   2.590   2.846
 9027SOL    HW127980   2.314   2.665   2.781
 9027SOL    HW227981   2.243   2.589   2.906
 9028SOL     OW27982   2.672   5.077   5.212
 9028SOL    HW127983   2.600   5.096   5.280
 9028SOL    HW227984   2.651   4.992   5.165
 9029SOL     OW27985   4.932   5.375   2.693
 9029SOL    HW127986   5.026   5.343   2.697
 9029SOL    HW227987   4.871   5.304   2.728
 9030SOL     OW27988   3.293   1.751   1.677
 9030SOL    HW127989   3.257   1.673   1.728
 9030SOL    HW227990   3.258   1.836   1.718
 9031SOL     OW27991   1.611   1.484   1.486
 9031SOL    HW127992   1.540   1.515   1.423
 9031SOL    HW227993   1.570   1.424   1.555
 9032SOL     OW27994   1.249   2.560   3.001
 9032SOL    HW127995   1.190   2.534   2.924
 9032SOL    HW227996   1.237   2.658   3.021
 9033SOL     OW27997   1.354   3.564   2.495
 9033SOL    HW127998   1.356   3.604   2.403
 9033SOL    HW227999   1.260   3.539   2.518
 9034SOL     OW28000   0.985   0.316   5.907
 9034SOL    HW128001   1.015   0.380   5.978
 9034SOL    HW228002   0.888   0.296   5.918
 9035SOL     OW28003   6.901   0.181   4.345
 9035SOL    HW128004   6.899   0.185   4.245
 9035SOL    HW228005   6.989   0.145   4.375
 9036SOL     OW28006   1.265   1.329   4.937
 9036SOL    HW128007   1.270   1.230   4.953
 9036SOL    HW228008   1.265   1.377   5.025
 9037SOL     OW28009   2.958   3.789   5.656
 9037SOL    HW128010   3.039   3.820   5.607
 9037SOL    HW228011   2.969   3.694   5.683
 9038SOL     OW28012   5.194   6.595   5.769
 9038SOL    HW128013   5.260   6.530   5.732
 9038SOL    HW228014   5.224   6.625   5.859
 9039SOL     OW28015   2.325   4.722   6.575
 9039SOL    HW128016   2.297   4.812   6.540
 9039SOL    HW228017   2.407   4.692   6.526
 9040SOL     OW28018   2.656   1.706   1.975
 9040SOL    HW128019   2.644   1.680   2.071
 9040SOL    HW228020   2.667   1.805   1.968
 9041SOL     OW28021   1.770   3.045   0.020
 9041SOL    HW128022   1.772   3.124   6.980
 9041SOL    HW228023   1.747   2.963   6.990
 9042SOL     OW28024   2.127   5.488   3.164
 9042SOL    HW128025   2.168   5.439   3.088
 9042SOL    HW228026   2.111   5.583   3.139
 9043SOL     OW28027   6.628   2.446   0.683
 9043SOL    HW128028   6.609   2.363   0.735
 9043SOL    HW228029   6.602   2.526   0.737
 9044SOL     OW28030   6.523   4.694   0.987
 9044SOL    HW128031   6.522   4.720   1.083
 9044SOL    HW228032   6.429   4.678   0.956
 9045SOL     OW28033   3.008   5.731   3.979
 9045SOL    HW128034   2.916   5.723   4.016
 9045SOL    HW228035   3.023   5.659   3.912
 9046SOL     OW28036   3.643   4.469   5.828
 9046SOL    HW128037   3.633   4.370   5.819
 9046SOL    HW228038   3.729   4.497   5.785
 9047SOL     OW28039   1.325   4.737   5.242
 9047SOL    HW128040   1.258   4.810   5.226
 9047SOL    HW228041   1.413   4.764   5.203
 9048SOL     OW28042   1.468   1.944   5.480
 9048SOL    HW128043   1.551   1.889   5.473
 9048SOL    HW228044   1.492   2.041   5.480
 9049SOL     OW28045   5.359   6.118   6.274
 9049SOL    HW128046   5.398   6.133   6.365
 9049SOL    HW228047   5.262   6.097   6.282
 9050SOL     OW28048   6.995   5.730   5.382
 9050SOL    HW128049   6.980   5.782   5.298
 9050SOL    HW228050   0.067   5.697   5.385
 9051SOL     OW28051   5.655   6.728   6.355
 9051SOL    HW128052   5.642   6.631   6.378
 9051SOL    HW228053   5.731   6.737   6.290
 9052SOL     OW28054   2.340   5.068   4.991
 9052SOL    HW128055   2.384   5.024   4.913
 9052SOL    HW228056   2.344   5.007   5.070
 9053SOL     OW28057   2.996   1.578   3.849
 9053SOL    HW128058   2.940   1.552   3.771
 9053SOL    HW228059   3.088   1.541   3.838
 9054SOL     OW28060   3.658   0.241   0.968
 9054SOL    HW128061   3.695   0.160   0.922
 9054SOL    HW228062   3.592   0.213   1.038
 9055SOL     OW28063   0.846   1.416   4.868
 9055SOL    HW128064   0.819   1.331   4.824
 9055SOL    HW228065   0.799   1.493   4.824
 9056SOL     OW28066   5.239   1.761   2.503
 9056SOL    HW128067   5.192   1.749   2.591
 9056SOL    HW228068   5.305   1.836   2.511
 9057SOL     OW28069   4.670   6.574   0.059
 9057SOL    HW128070   4.586   6.556   0.111
 9057SOL    HW228071   4.667   6.524   6.995
 9058SOL     OW28072   2.475   2.166   4.136
 9058SOL    HW128073   2.551   2.129   4.188
 9058SOL    HW228074   2.469   2.265   4.150
 9059SOL     OW28075   6.770   0.423   2.529
 9059SOL    HW128076   6.764   0.520   2.506
 9059SOL    HW228077   6.835   0.378   2.468
 9060SOL     OW28078   0.823   5.662   1.643
 9060SOL    HW128079   0.835   5.745   1.589
 9060SOL    HW228080   0.732   5.660   1.683
 9061SOL     OW28081   5.721   4.234   2.596
 9061SOL    HW128082   5.819   4.218   2.610
 9061SOL    HW228083   5.708   4.292   2.516
 9062SOL     OW28084   0.743   6.088   2.957
 9062SOL    HW128085   0.840   6.112   2.958
 9062SOL    HW228086   0.700   6.120   3.042
 9063SOL     OW28087   4.441   2.195   1.677
 9063SOL    HW128088   4.397   2.256   1.611
 9063SOL    HW228089   4.376   2.125   1.706
 9064SOL     OW28090   0.767   5.802   3.011
 9064SOL    HW128091   0.682   5.762   2.978
 9064SOL    HW228092   0.757   5.901   3.018
 9065SOL     OW28093   3.102   4.161   5.989
 9065SOL    HW128094   3.142   4.234   5.934
 9065SOL    HW228095   3.007   4.183   6.010
 9066SOL     OW28096   4.718   5.108   4.635
 9066SOL    HW128097   4.790   5.110   4.704
 9066SOL    HW228098   4.677   5.199   4.628
 9067SOL     OW28099   1.001   6.017   4.474
 9067SOL    HW128100   0.990   5.963   4.391
 9067SOL    HW228101   1.002   6.114   4.451
 9068SOL     OW28102   4.487   0.009   6.290
 9068SOL    HW128103   4.578   6.993   6.306
 9068SOL    HW228104   4.446   6.987   6.210
 9069SOL     OW28105   5.088   2.345   0.940
 9069SOL    HW128106   5.143   2.425   0.916
 9069SOL    HW228107   5.133   2.295   1.015
 9070SOL     OW28108   2.105   1.512   5.767
 9070SOL    HW128109   2.146   1.484   5.680
 9070SOL    HW228110   2.061   1.601   5.757
 9071SOL     OW28111   5.401   2.402   6.667
 9071SOL    HW128112   5.318   2.377   6.617
 9071SOL    HW228113   5.439   2.486   6.629
 9072SOL     OW28114   5.261   0.581   2.829
 9072SOL    HW128115   5.209   0.519   2.888
 9072SOL    HW228116   5.335   0.530   2.785
 9073SOL     OW28117   4.697   2.219   5.026
 9073SOL    HW128118   4.623   2.201   4.962
 9073SOL    HW228119   4.660   2.223   5.119
 9074SOL     OW28120   1.877   0.921   2.234
 9074SOL    HW128121   1.872   0.987   2.160
 9074SOL    HW228122   1.789   0.918   2.282
 9075SOL     OW28123   6.133   6.035   0.345
 9075SOL    HW128124   6.109   6.133   0.348
 9075SOL    HW228125   6.190   6.017   0.266
 9076SOL     OW28126   6.625   0.105   2.442
 9076SOL    HW128127   6.595   0.144   2.529
 9076SOL    HW228128   6.565   0.137   2.368
 9077SOL     OW28129   6.650   1.679   6.229
 9077SOL    HW128130   6.680   1.715   6.141
 9077SOL    HW228131   6.729   1.643   6.279
 9078SOL     OW28132   5.357   6.831   0.176
 9078SOL    HW128133   5.427   6.894   0.142
 9078SOL    HW228134   5.394   6.778   0.253
 9079SOL     OW28135   1.356   1.743   6.822
 9079SOL    HW128136   1.427   1.768   6.887
 9079SOL    HW228137   1.388   1.669   6.763
 9080SOL     OW28138   6.448   3.429   2.070
 9080SOL    HW128139   6.490   3.499   2.012
 9080SOL    HW228140   6.515   3.395   2.136
 9081SOL     OW28141   4.909   0.933   0.382
 9081SOL    HW128142   4.990   0.901   0.432
 9081SOL    HW228143   4.863   1.005   0.433
 9082SOL     OW28144   3.573   5.770   5.798
 9082SOL    HW128145   3.623   5.826   5.733
 9082SOL    HW228146   3.638   5.717   5.853
 9083SOL     OW28147   4.005   5.863   6.734
 9083SOL    HW128148   4.042   5.942   6.783
 9083SOL    HW228149   3.907   5.874   6.720
 9084SOL     OW28150   6.699   2.927   5.617
 9084SOL    HW128151   6.758   2.966   5.547
 9084SOL    HW228152   6.663   2.999   5.675
 9085SOL     OW28153   2.521   5.088   0.071
 9085SOL    HW128154   2.524   5.180   0.032
 9085SOL    HW228155   2.573   5.087   0.157
 9086SOL     OW28156   0.161   4.577   1.124
 9086SOL    HW128157   0.199   4.525   1.047
 9086SOL    HW228158   0.076   4.535   1.155
 9087SOL     OW28159   5.917   0.783   1.131
 9087SOL    HW128160   5.836   0.805   1.077
 9087SOL    HW228161   5.998   0.782   1.072
 9088SOL     OW28162   6.365   6.294   0.745
 9088SOL    HW128163   6.267   6.299   0.763
 9088SOL    HW228164   6.414   6.288   0.832
 9089SOL     OW28165   5.354   5.523   3.517
 9089SOL    HW128166   5.403   5.480   3.594
 9089SOL    HW228167   5.361   5.464   3.437
 9090SOL     OW28168   5.079   6.219   5.647
 9090SOL    HW128169   4.998   6.252   5.694
 9090SOL    HW228170   5.112   6.289   5.583
 9091SOL     OW28171   2.232   1.585   1.722
 9091SOL    HW128172   2.277   1.673   1.738
 9091SOL    HW228173   2.293   1.511   1.750
 9092SOL     OW28174   2.038   1.244   5.588
 9092SOL    HW128175   2.015   1.151   5.561
 9092SOL    HW228176   2.124   1.271   5.546
 9093SOL     OW28177   1.778   3.912   0.723
 9093SOL    HW128178   1.750   3.817   0.730
 9093SOL    HW228179   1.733   3.955   0.645
 9094SOL     OW28180   0.084   4.268   1.832
 9094SOL    HW128181   0.145   4.199   1.794
 9094SOL    HW228182   0.128   4.312   1.910
 9095SOL     OW28183   3.394   2.928   6.989
 9095SOL    HW128184   3.303   2.922   6.950
 9095SOL    HW228185   3.462   2.911   6.918
 9096SOL     OW28186   5.188   2.926   3.004
 9096SOL    HW128187   5.257   2.974   3.060
 9096SOL    HW228188   5.129   2.871   3.064
 9097SOL     OW28189   0.844   4.831   6.585
 9097SOL    HW128190   0.779   4.906   6.595
 9097SOL    HW228191   0.798   4.744   6.603
 9098SOL     OW28192   4.068   3.722   3.376
 9098SOL    HW128193   4.090   3.627   3.353
 9098SOL    HW228194   4.104   3.743   3.467
 9099SOL     OW28195   2.142   3.234   0.848
 9099SOL    HW128196   2.200   3.165   0.806
 9099SOL    HW228197   2.070   3.189   0.902
 9100SOL     OW28198   0.596   3.316   1.220
 9100SOL    HW128199   0.636   3.406   1.237
 9100SOL    HW228200   0.589   3.266   1.306
 9101SOL     OW28201   2.333   2.543   0.879
 9101SOL    HW128202   2.408   2.555   0.814
 9101SOL    HW228203   2.328   2.447   0.906
 9102SOL     OW28204   3.627   5.412   2.818
 9102SOL    HW128205   3.531   5.415   2.846
 9102SOL    HW228206   3.672   5.498   2.842
 9103SOL     OW28207   0.357   3.843   6.850
 9103SOL    HW128208   0.284   3.882   6.794
 9103SOL    HW228209   0.440   3.899   6.841
 9104SOL     OW28210   4.251   6.667   1.619
 9104SOL    HW128211   4.196   6.744   1.652
 9104SOL    HW228212   4.191   6.598   1.579
 9105SOL     OW28213   2.030   1.899   5.880
 9105SOL    HW128214   2.003   1.902   5.977
 9105SOL    HW228215   2.118   1.945   5.868
 9106SOL     OW28216   6.883   5.190   1.130
 9106SOL    HW128217   6.800   5.235   1.162
 9106SOL    HW228218   6.913   5.122   1.198
 9107SOL     OW28219   4.631   0.700   1.207
 9107SOL    HW128220   4.663   0.615   1.248
 9107SOL    HW228221   4.621   0.770   1.277
 9108SOL     OW28222   4.396   5.440   5.914
 9108SOL    HW128223   4.340   5.489   5.980
 9108SOL    HW228224   4.370   5.343   5.913
 9109SOL     OW28225   3.186   2.087   3.849
 9109SOL    HW128226   3.189   2.126   3.757
 9109SOL    HW228227   3.101   2.034   3.860
 9110SOL     OW28228   1.508   3.906   3.756
 9110SOL    HW128229   1.539   3.812   3.743
 9110SOL    HW228230   1.416   3.906   3.795
 9111SOL     OW28231   3.953   4.305   1.691
 9111SOL    HW128232   3.853   4.309   1.686
 9111SOL    HW228233   3.981   4.216   1.725
 9112SOL     OW28234   0.005   5.085   2.137
 9112SOL    HW128235   6.952   5.150   2.126
 9112SOL    HW228236   7.001   5.016   2.205
 9113SOL     OW28237   3.983   6.432   0.175
 9113SOL    HW128238   3.920   6.474   0.241
 9113SOL    HW228239   3.965   6.469   0.084
 9114SOL     OW28240   2.604   4.576   1.787
 9114SOL    HW128241   2.701   4.566   1.809
 9114SOL    HW228242   2.551   4.577   1.872
 9115SOL     OW28243   1.575   4.858   5.172
 9115SOL    HW128244   1.546   4.861   5.268
 9115SOL    HW228245   1.645   4.928   5.156
 9116SOL     OW28246   0.630   1.225   6.078
 9116SOL    HW128247   0.697   1.259   6.145
 9116SOL    HW228248   0.543   1.208   6.125
 9117SOL     OW28249   6.713   2.453   6.903
 9117SOL    HW128250   6.674   2.367   6.936
 9117SOL    HW228251   6.809   2.439   6.880
 9118SOL     OW28252   6.378   6.369   1.839
 9118SOL    HW128253   6.446   6.429   1.796
 9118SOL    HW228254   6.364   6.288   1.783
 9119SOL     OW28255   6.610   0.460   1.576
 9119SOL    HW128256   6.682   0.507   1.526
 9119SOL    HW228257   6.607   0.494   1.670
 9120SOL     OW28258   5.476   1.244   6.242
 9120SOL    HW128259   5.399   1.276   6.187
 9120SOL    HW228260   5.482   1.300   6.325
 9121SOL     OW28261   1.084   0.969   6.423
 9121SOL    HW128262   1.039   1.048   6.466
 9121SOL    HW228263   1.101   0.899   6.492
 9122SOL     OW28264   1.443   2.702   2.094
 9122SOL    HW128265   1.368   2.739   2.150
 9122SOL    HW228266   1.495   2.636   2.148
 9123SOL     OW28267   2.403   5.505   6.967
 9123SOL    HW128268   2.479   5.441   6.962
 9123SOL    HW228269   2.345   5.494   6.886
 9124SOL     OW28270   6.594   5.756   5.286
 9124SOL    HW128271   6.613   5.802   5.373
 9124SOL    HW228272   6.667   5.691   5.266
 9125SOL     OW28273   4.542   4.882   3.913
 9125SOL    HW128274   4.590   4.795   3.914
 9125SOL    HW228275   4.608   4.957   3.902
 9126SOL     OW28276   5.943   0.801   1.398
 9126SOL    HW128277   5.855   0.780   1.440
 9126SOL    HW228278   5.935   0.790   1.299
 9127SOL     OW28279   5.077   0.795   0.000
 9127SOL    HW128280   5.125   0.727   0.055
 9127SOL    HW228281   5.057   0.875   0.057
 9128SOL     OW28282   4.303   2.050   4.770
 9128SOL    HW128283   4.275   2.122   4.707
 9128SOL    HW228284   4.254   1.965   4.749
 9129SOL     OW28285   2.114   1.669   6.436
 9129SOL    HW128286   2.107   1.569   6.434
 9129SOL    HW228287   2.159   1.700   6.352
 9130SOL     OW28288   6.110   4.446   0.835
 9130SOL    HW128289   6.192   4.438   0.777
 9130SOL    HW228290   6.138   4.449   0.931
 9131SOL     OW28291   0.985   4.247   4.680
 9131SOL    HW128292   1.045   4.201   4.615
 9131SOL    HW228293   1.021   4.337   4.702
 9132SOL     OW28294   6.974   3.039   4.559
 9132SOL    HW128295   0.005   2.967   4.515
 9132SOL    HW228296   6.942   3.006   4.648
 9133SOL     OW28297   2.242   4.182   1.283
 9133SOL    HW128298   2.310   4.109   1.290
 9133SOL    HW228299   2.152   4.141   1.266
 9134SOL     OW28300   2.801   5.785   6.487
 9134SOL    HW128301   2.855   5.732   6.423
 9134SOL    HW228302   2.827   5.882   6.481
 9135SOL     OW28303   6.458   5.973   4.314
 9135SOL    HW128304   6.557   5.955   4.306
 9135SOL    HW228305   6.418   5.980   4.223
 9136SOL     OW28306   4.543   5.325   5.709
 9136SOL    HW128307   4.561   5.228   5.723
 9136SOL    HW228308   4.517   5.367   5.796
 9137SOL     OW28309   4.441   1.261   1.640
 9137SOL    HW128310   4.462   1.222   1.730
 9137SOL    HW228311   4.526   1.276   1.590
 9138SOL     OW28312   4.508   5.128   6.190
 9138SOL    HW128313   4.541   5.223   6.190
 9138SOL    HW228314   4.507   5.094   6.096
 9139SOL     OW28315   3.167   1.251   5.446
 9139SOL    HW128316   3.255   1.244   5.492
 9139SOL    HW228317   3.171   1.324   5.378
 9140SOL     OW28318   0.066   2.453   3.002
 9140SOL    HW128319   0.107   2.394   2.932
 9140SOL    HW228320   0.089   2.417   3.093
 9141SOL     OW28321   5.395   6.999   5.831
 9141SOL    HW128322   5.442   0.045   5.774
 9141SOL    HW228323   5.376   6.917   5.777
 9142SOL     OW28324   7.018   3.166   5.978
 9142SOL    HW128325   7.002   3.119   5.891
 9142SOL    HW228326   0.018   3.099   6.048
 9143SOL     OW28327   4.847   3.764   0.629
 9143SOL    HW128328   4.874   3.718   0.714
 9143SOL    HW228329   4.748   3.776   0.627
 9144SOL     OW28330   2.379   5.449   5.666
 9144SOL    HW128331   2.397   5.524   5.603
 9144SOL    HW228332   2.281   5.431   5.669
 9145SOL     OW28333   0.078   4.683   6.590
 9145SOL    HW128334   0.130   4.765   6.565
 9145SOL    HW228335   0.116   4.604   6.543
 9146SOL     OW28336   5.877   2.570   1.385
 9146SOL    HW128337   5.811   2.593   1.314
 9146SOL    HW228338   5.937   2.498   1.353
 9147SOL     OW28339   4.337   5.600   4.738
 9147SOL    HW128340   4.389   5.592   4.824
 9147SOL    HW228341   4.392   5.563   4.663
 9148SOL     OW28342   4.895   5.453   3.315
 9148SOL    HW128343   4.942   5.449   3.226
 9148SOL    HW228344   4.959   5.483   3.385
 9149SOL     OW28345   5.219   3.149   4.412
 9149SOL    HW128346   5.163   3.076   4.452
 9149SOL    HW228347   5.210   3.232   4.467
 9150SOL     OW28348   4.947   0.186   3.533
 9150SOL    HW128349   5.030   0.170   3.479
 9150SOL    HW228350   4.868   0.184   3.473
 9151SOL     OW28351   1.738   4.173   1.885
 9151SOL    HW128352   1.647   4.178   1.845
 9151SOL    HW228353   1.732   4.141   1.980
 9152SOL     OW28354   2.166   6.042   3.677
 9152SOL    HW128355   2.227   6.082   3.609
 9152SOL    HW228356   2.214   6.033   3.764
 9153SOL     OW28357   1.995   2.850   6.261
 9153SOL    HW128358   1.926   2.920   6.281
 9153SOL    HW228359   2.017   2.800   6.345
 9154SOL     OW28360   2.728   5.987   6.708
 9154SOL    HW128361   2.681   6.028   6.785
 9154SOL    HW228362   2.705   5.889   6.702
 9155SOL     OW28363   1.525   3.815   6.837
 9155SOL    HW128364   1.611   3.765   6.835
 9155SOL    HW228365   1.524   3.883   6.763
 9156SOL     OW28366   4.450   2.484   1.275
 9156SOL    HW128367   4.546   2.475   1.247
 9156SOL    HW228368   4.446   2.492   1.375
 9157SOL     OW28369   5.599   3.720   5.410
 9157SOL    HW128370   5.544   3.651   5.362
 9157SOL    HW228371   5.551   3.748   5.494
 9158SOL     OW28372   0.985   3.300   4.494
 9158SOL    HW128373   0.933   3.225   4.454
 9158SOL    HW228374   0.978   3.381   4.436
 9159SOL     OW28375   6.492   5.609   2.352
 9159SOL    HW128376   6.408   5.573   2.313
 9159SOL    HW228377   6.500   5.580   2.448
 9160SOL     OW28378   0.796   0.069   6.590
 9160SOL    HW128379   0.744   7.005   6.601
 9160SOL    HW228380   0.886   0.048   6.552
 9161SOL     OW28381   4.835   3.779   4.562
 9161SOL    HW128382   4.824   3.728   4.647
 9161SOL    HW228383   4.797   3.871   4.573
 9162SOL     OW28384   4.534   2.538   2.563
 9162SOL    HW128385   4.588   2.619   2.586
 9162SOL    HW228386   4.552   2.466   2.630
 9163SOL     OW28387   3.102   2.149   3.591
 9163SOL    HW128388   3.007   2.151   3.620
 9163SOL    HW228389   3.107   2.169   3.493
 9164SOL     OW28390   2.840   0.621   6.280
 9164SOL    HW128391   2.936   0.602   6.256
 9164SOL    HW228392   2.781   0.582   6.209
 9165SOL     OW28393   5.621   0.899   6.771
 9165SOL    HW128394   5.536   0.861   6.808
 9165SOL    HW228395   5.601   0.984   6.723
 9166SOL     OW28396   3.349   5.259   1.066
 9166SOL    HW128397   3.357   5.356   1.090
 9166SOL    HW228398   3.410   5.205   1.124
 9167SOL     OW28399   1.785   3.890   5.768
 9167SOL    HW128400   1.789   3.935   5.679
 9167SOL    HW228401   1.703   3.921   5.816
 9168SOL     OW28402   2.332   0.278   5.768
 9168SOL    HW128403   2.344   0.188   5.726
 9168SOL    HW228404   2.412   0.334   5.749
 9169SOL     OW28405   0.924   1.039   4.048
 9169SOL    HW128406   0.844   0.980   4.036
 9169SOL    HW228407   0.964   1.061   3.959
 9170SOL     OW28408   0.057   5.679   0.136
 9170SOL    HW128409   0.025   5.744   0.205
 9170SOL    HW228410   0.015   5.701   0.048
 9171SOL     OW28411   2.674   5.748   0.008
 9171SOL    HW128412   2.609   5.782   6.961
 9171SOL    HW228413   2.623   5.708   0.084
 9172SOL     OW28414   3.244   1.505   3.718
 9172SOL    HW128415   3.269   1.598   3.743
 9172SOL    HW228416   3.309   1.470   3.650
 9173SOL     OW28417   7.008   5.233   4.647
 9173SOL    HW128418   6.958   5.233   4.734
 9173SOL    HW228419   0.031   5.145   4.634
 9174SOL     OW28420   0.041   4.450   6.934
 9174SOL    HW128421   0.137   4.458   6.962
 9174SOL    HW228422   0.031   4.370   6.875
 9175SOL     OW28423   2.234   5.707   5.924
 9175SOL    HW128424   2.328   5.723   5.893
 9175SOL    HW228425   2.218   5.609   5.931
 9176SOL     OW28426   2.028   0.602   5.522
 9176SOL    HW128427   2.080   0.517   5.517
 9176SOL    HW228428   2.065   0.667   5.455
 9177SOL     OW28429   1.055   4.671   3.875
 9177SOL    HW128430   1.106   4.692   3.958
 9177SOL    HW228431   0.982   4.738   3.863
 9178SOL     OW28432   2.003   5.068   0.731
 9178SOL    HW128433   1.928   5.083   0.796
 9178SOL    HW228434   2.011   4.970   0.712
 9179SOL     OW28435   3.235   5.168   3.913
 9179SOL    HW128436   3.185   5.195   3.995
 9179SOL    HW228437   3.330   5.149   3.938
 9180SOL     OW28438   6.026   2.371   3.861
 9180SOL    HW128439   5.939   2.401   3.901
 9180SOL    HW228440   6.102   2.410   3.914
 9181SOL     OW28441   4.213   2.334   2.255
 9181SOL    HW128442   4.150   2.257   2.252
 9181SOL    HW228443   4.162   2.419   2.240
 9182SOL     OW28444   1.129   6.368   1.947
 9182SOL    HW128445   1.059   6.440   1.952
 9182SOL    HW228446   1.214   6.401   1.986
 9183SOL     OW28447   5.164   6.408   0.875
 9183SOL    HW128448   5.083   6.405   0.933
 9183SOL    HW228449   5.139   6.439   0.783
 9184SOL     OW28450   5.011   6.765   0.848
 9184SOL    HW128451   4.922   6.787   0.809
 9184SOL    HW228452   5.001   6.751   0.947
 9185SOL     OW28453   3.409   0.533   5.163
 9185SOL    HW128454   3.405   0.443   5.206
 9185SOL    HW228455   3.338   0.592   5.202
 9186SOL     OW28456   5.751   0.960   5.554
 9186SOL    HW128457   5.768   0.929   5.460
 9186SOL    HW228458   5.662   1.007   5.558
 9187SOL     OW28459   2.375   5.994   2.056
 9187SOL    HW128460   2.327   5.914   2.021
 9187SOL    HW228461   2.328   6.077   2.026
 9188SOL     OW28462   2.888   6.687   0.841
 9188SOL    HW128463   2.973   6.651   0.879
 9188SOL    HW228464   2.848   6.752   0.905
 9189SOL     OW28465   5.102   5.691   3.127
 9189SOL    HW128466   5.070   5.713   3.219
 9189SOL    HW228467   5.113   5.776   3.074
 9190SOL     OW28468   1.703   5.532   0.756
 9190SOL    HW128469   1.779   5.470   0.735
 9190SOL    HW228470   1.739   5.624   0.775
 9191SOL     OW28471   6.452   0.362   5.770
 9191SOL    HW128472   6.538   0.312   5.766
 9191SOL    HW228473   6.470   0.459   5.785
 9192SOL     OW28474   0.221   4.282   4.273
 9192SOL    HW128475   0.269   4.194   4.275
 9192SOL    HW228476   0.223   4.319   4.180
 9193SOL     OW28477   3.236   3.206   6.704
 9193SOL    HW128478   3.147   3.246   6.685
 9193SOL    HW228479   3.226   3.130   6.769
 9194SOL     OW28480   2.967   0.653   3.631
 9194SOL    HW128481   2.952   0.738   3.682
 9194SOL    HW228482   2.899   0.644   3.559
 9195SOL     OW28483   2.101   2.001   4.079
 9195SOL    HW128484   2.142   2.036   4.164
 9195SOL    HW228485   2.156   2.030   4.001
 9196SOL     OW28486   4.548   1.710   5.310
 9196SOL    HW128487   4.614   1.768   5.261
 9196SOL    HW228488   4.510   1.643   5.247
 9197SOL     OW28489   2.409   3.713   1.695
 9197SOL    HW128490   2.433   3.623   1.733
 9197SOL    HW228491   2.481   3.743   1.633
 9198SOL     OW28492   6.525   5.465   5.629
 9198SOL    HW128493   6.435   5.509   5.630
 9198SOL    HW228494   6.513   5.366   5.616
 9199SOL     OW28495   0.049   4.267   5.095
 9199SOL    HW128496   0.049   4.242   4.998
 9199SOL    HW228497   0.085   4.359   5.106
 9200SOL     OW28498   3.337   0.524   0.849
 9200SOL    HW128499   3.293   0.542   0.761
 9200SOL    HW228500   3.304   0.591   0.916
 9201SOL     OW28501   1.202   3.959   0.484
 9201SOL    HW128502   1.225   3.879   0.428
 9201SOL    HW228503   1.271   3.971   0.555
 9202SOL     OW28504   1.416   6.999   3.295
 9202SOL    HW128505   1.330   6.950   3.309
 9202SOL    HW228506   1.452   0.009   3.383
 9203SOL     OW28507   6.618   5.575   0.842
 9203SOL    HW128508   6.568   5.537   0.920
 9203SOL    HW228509   6.552   5.603   0.771
 9204SOL     OW28510   5.143   0.948   6.074
 9204SOL    HW128511   5.113   1.007   5.999
 9204SOL    HW228512   5.234   0.978   6.105
 9205SOL     OW28513   6.955   4.043   3.044
 9205SOL    HW128514   0.009   3.999   2.996
 9205SOL    HW228515   6.870   3.995   3.023
 9206SOL     OW28516   4.058   5.955   0.658
 9206SOL    HW128517   4.044   6.034   0.598
 9206SOL    HW228518   3.987   5.954   0.728
 9207SOL     OW28519   4.801   5.660   0.620
 9207SOL    HW128520   4.888   5.618   0.647
 9207SOL    HW228521   4.737   5.589   0.591
 9208SOL     OW28522   0.568   4.107   4.448
 9208SOL    HW128523   0.534   4.032   4.391
 9208SOL    HW228524   0.665   4.095   4.465
 9209SOL     OW28525   2.420   1.305   6.230
 9209SOL    HW128526   2.439   1.207   6.238
 9209SOL    HW228527   2.416   1.329   6.133
 9210SOL     OW28528   6.658   1.480   3.285
 9210SOL    HW128529   6.564   1.470   3.253
 9210SOL    HW228530   6.711   1.532   3.218
 9211SOL     OW28531   0.232   1.835   3.766
 9211SOL    HW128532   0.301   1.877   3.825
 9211SOL    HW228533   0.246   1.737   3.762
 9212SOL     OW28534   3.236   4.930   4.948
 9212SOL    HW128535   3.285   4.870   4.884
 9212SOL    HW228536   3.280   5.020   4.949
 9213SOL     OW28537   5.809   3.768   6.090
 9213SOL    HW128538   5.794   3.866   6.102
 9213SOL    HW228539   5.738   3.731   6.030
 9214SOL     OW28540   0.533   5.933   1.060
 9214SOL    HW128541   0.564   5.903   1.150
 9214SOL    HW228542   0.602   5.910   0.992
 9215SOL     OW28543   0.934   1.044   0.577
 9215SOL    HW128544   0.910   1.038   0.674
 9215SOL    HW228545   1.014   1.103   0.566
 9216SOL     OW28546   2.197   6.964   2.489
 9216SOL    HW128547   2.283   6.951   2.539
 9216SOL    HW228548   2.130   6.897   2.520
 9217SOL     OW28549   0.896   1.821   6.380
 9217SOL    HW128550   0.847   1.830   6.294
 9217SOL    HW228551   0.980   1.769   6.365
 9218SOL     OW28552   3.290   0.144   0.797
 9218SOL    HW128553   3.303   0.045   0.789
 9218SOL    HW228554   3.301   0.186   0.707
 9219SOL     OW28555   0.834   2.606   1.095
 9219SOL    HW128556   0.747   2.568   1.064
 9219SOL    HW228557   0.824   2.638   1.189
 9220SOL     OW28558   3.356   6.610   1.522
 9220SOL    HW128559   3.324   6.642   1.433
 9220SOL    HW228560   3.378   6.689   1.580
 9221SOL     OW28561   2.774   6.222   3.543
 9221SOL    HW128562   2.816   6.303   3.584
 9221SOL    HW228563   2.814   6.139   3.583
 9222SOL     OW28564   2.734   1.657   6.552
 9222SOL    HW128565   2.692   1.745   6.529
 9222SOL    HW228566   2.832   1.671   6.569
 9223SOL     OW28567   2.531   2.830   5.392
 9223SOL    HW128568   2.476   2.843   5.475
 9223SOL    HW228569   2.529   2.914   5.337
 9224SOL     OW28570   1.810   5.526   4.290
 9224SOL    HW128571   1.802   5.579   4.374
 9224SOL    HW228572   1.783   5.583   4.212
 9225SOL     OW28573   3.129   5.772   6.897
 9225SOL    HW128574   3.065   5.747   6.969
 9225SOL    HW228575   3.130   5.872   6.886
 9226SOL     OW28576   5.091   6.494   1.264
 9226SOL    HW128577   5.050   6.540   1.343
 9226SOL    HW228578   5.181   6.458   1.290
 9227SOL     OW28579   1.459   5.266   2.566
 9227SOL    HW128580   1.445   5.227   2.475
 9227SOL    HW228581   1.459   5.192   2.634
 9228SOL     OW28582   1.334   0.867   6.818
 9228SOL    HW128583   1.413   0.925   6.802
 9228SOL    HW228584   1.288   0.894   6.902
 9229SOL     OW28585   1.049   6.088   4.045
 9229SOL    HW128586   1.071   6.020   4.115
 9229SOL    HW228587   1.048   6.045   3.955
 9230SOL     OW28588   5.494   0.822   4.062
 9230SOL    HW128589   5.436   0.855   4.136
 9230SOL    HW228590   5.446   0.835   3.975
 9231SOL     OW28591   1.252   2.417   4.331
 9231SOL    HW128592   1.246   2.380   4.239
 9231SOL    HW228593   1.316   2.363   4.385
 9232SOL     OW28594   3.426   5.205   0.558
 9232SOL    HW128595   3.373   5.255   0.626
 9232SOL    HW228596   3.495   5.148   0.605
 9233SOL     OW28597   5.625   4.745   1.126
 9233SOL    HW128598   5.674   4.832   1.122
 9233SOL    HW228599   5.547   4.753   1.189
 9234SOL     OW28600   2.572   5.528   3.511
 9234SOL    HW128601   2.586   5.530   3.412
 9234SOL    HW228602   2.479   5.497   3.531
 9235SOL     OW28603   0.606   2.019   3.132
 9235SOL    HW128604   0.529   2.013   3.196
 9235SOL    HW228605   0.581   2.078   3.055
 9236SOL     OW28606   2.960   3.338   5.141
 9236SOL    HW128607   2.876   3.382   5.173
 9236SOL    HW228608   3.033   3.407   5.132
 9237SOL     OW28609   1.851   3.907   3.966
 9237SOL    HW128610   1.896   3.993   3.990
 9237SOL    HW228611   1.854   3.894   3.867
 9238SOL     OW28612   4.596   2.967   6.415
 9238SOL    HW128613   4.524   3.023   6.456
 9238SOL    HW228614   4.561   2.923   6.332
 9239SOL     OW28615   0.834   3.907   1.002
 9239SOL    HW128616   0.801   3.922   1.095
 9239SOL    HW228617   0.763   3.864   0.948
 9240SOL     OW28618   4.772   1.208   1.731
 9240SOL    HW128619   4.742   1.239   1.640
 9240SOL    HW228620   4.860   1.251   1.753
 9241SOL     OW28621   0.176   5.425   6.998
 9241SOL    HW128622   0.096   5.438   0.034
 9241SOL    HW228623   0.232   5.350   0.012
 9242SOL     OW28624   6.176   5.904   2.052
 9242SOL    HW128625   6.099   5.951   2.009
 9242SOL    HW228626   6.233   5.971   2.101
 9243SOL     OW28627   6.307   5.968   4.944
 9243SOL    HW128628   6.342   5.956   4.851
 9243SOL    HW228629   6.384   5.972   5.008
 9244SOL     OW28630   3.827   5.040   6.609
 9244SOL    HW128631   3.783   4.955   6.581
 9244SOL    HW228632   3.760   5.100   6.652
 9245SOL     OW28633   0.516   5.971   1.571
 9245SOL    HW128634   0.588   6.015   1.517
 9245SOL    HW228635   0.460   6.041   1.615
 9246SOL     OW28636   6.210   5.419   3.815
 9246SOL    HW128637   6.292   5.369   3.790
 9246SOL    HW228638   6.230   5.484   3.888
 9247SOL     OW28639   1.140   6.793   2.707
 9247SOL    HW128640   1.155   6.705   2.663
 9247SOL    HW228641   1.204   6.860   2.669
 9248SOL     OW28642   2.865   2.332   6.208
 9248SOL    HW128643   2.923   2.408   6.235
 9248SOL    HW228644   2.914   2.246   6.221
 9249SOL     OW28645   4.840   0.707   3.963
 9249SOL    HW128646   4.763   0.720   4.025
 9249SOL    HW228647   4.834   0.617   3.920
 9250SOL     OW28648   4.879   3.807   3.948
 9250SOL    HW128649   4.862   3.870   4.023
 9250SOL    HW228650   4.851   3.850   3.862
 9251SOL     OW28651   3.403   1.626   2.713
 9251SOL    HW128652   3.489   1.596   2.756
 9251SOL    HW228653   3.399   1.590   2.620
 9252SOL     OW28654   0.198   0.204   4.974
 9252SOL    HW128655   0.244   0.222   4.887
 9252SOL    HW228656   0.215   0.280   5.036
 9253SOL     OW28657   1.921   0.120   5.454
 9253SOL    HW128658   1.855   0.163   5.393
 9253SOL    HW228659   1.893   0.026   5.473
 9254SOL     OW28660   5.842   3.695   1.636
 9254SOL    HW128661   5.910   3.638   1.589
 9254SOL    HW228662   5.843   3.675   1.734
 9255SOL     OW28663   5.313   3.629   0.980
 9255SOL    HW128664   5.337   3.694   1.052
 9255SOL    HW228665   5.325   3.535   1.014
 9256SOL     OW28666   4.176   4.665   1.921
 9256SOL    HW128667   4.256   4.610   1.945
 9256SOL    HW228668   4.129   4.693   2.005
 9257SOL     OW28669   0.897   4.136   1.865
 9257SOL    HW128670   0.906   4.062   1.931
 9257SOL    HW228671   0.851   4.214   1.907
 9258SOL     OW28672   4.070   3.231   3.478
 9258SOL    HW128673   4.011   3.204   3.402
 9258SOL    HW228674   4.064   3.163   3.551
 9259SOL     OW28675   1.264   2.277   1.504
 9259SOL    HW128676   1.240   2.374   1.501
 9259SOL    HW228677   1.335   2.262   1.573
 9260SOL     OW28678   5.162   3.588   6.195
 9260SOL    HW128679   5.180   3.496   6.160
 9260SOL    HW228680   5.211   3.602   6.281
 9261SOL     OW28681   4.228   0.381   6.597
 9261SOL    HW128682   4.260   0.304   6.542
 9261SOL    HW228683   4.263   0.466   6.559
 9262SOL     OW28684   5.232   1.108   5.545
 9262SOL    HW128685   5.230   1.204   5.517
 9262SOL    HW228686   5.212   1.050   5.466
 9263SOL     OW28687   5.162   3.789   1.420
 9263SOL    HW128688   5.226   3.810   1.493
 9263SOL    HW228689   5.109   3.871   1.396
 9264SOL     OW28690   6.141   4.147   6.946
 9264SOL    HW128691   6.120   4.092   0.005
 9264SOL    HW228692   6.056   4.171   6.899
 9265SOL     OW28693   2.812   1.208   0.212
 9265SOL    HW128694   2.763   1.132   0.255
 9265SOL    HW228695   2.879   1.245   0.276
 9266SOL     OW28696   2.374   6.420   2.699
 9266SOL    HW128697   2.420   6.336   2.726
 9266SOL    HW228698   2.300   6.399   2.634
 9267SOL     OW28699   0.669   4.604   4.777
 9267SOL    HW128700   0.725   4.542   4.832
 9267SOL    HW228701   0.725   4.645   4.705
 9268SOL     OW28702   0.333   6.689   2.761
 9268SOL    HW128703   0.299   6.699   2.667
 9268SOL    HW228704   0.286   6.613   2.805
 9269SOL     OW28705   3.445   2.042   6.766
 9269SOL    HW128706   3.410   2.058   6.859
 9269SOL    HW228707   3.401   1.961   6.727
 9270SOL     OW28708   6.810   6.760   6.308
 9270SOL    HW128709   6.910   6.760   6.302
 9270SOL    HW228710   6.772   6.704   6.234
 9271SOL     OW28711   1.969   5.675   0.785
 9271SOL    HW128712   2.050   5.691   0.728
 9271SOL    HW228713   1.916   5.759   0.793
 9272SOL     OW28714   2.255   4.433   6.237
 9272SOL    HW128715   2.203   4.451   6.154
 9272SOL    HW228716   2.345   4.477   6.231
 9273SOL     OW28717   4.354   5.224   4.331
 9273SOL    HW128718   4.405   5.141   4.310
 9273SOL    HW228719   4.259   5.200   4.355
 9274SOL     OW28720   5.780   2.093   6.503
 9274SOL    HW128721   5.695   2.045   6.484
 9274SOL    HW228722   5.765   2.159   6.577
 9275SOL     OW28723   1.434   0.574   5.646
 9275SOL    HW128724   1.355   0.562   5.707
 9275SOL    HW228725   1.457   0.487   5.604
 9276SOL     OW28726   3.729   6.027   4.716
 9276SOL    HW128727   3.685   5.958   4.773
 9276SOL    HW228728   3.739   6.112   4.768
 9277SOL     OW28729   3.735   3.294   6.876
 9277SOL    HW128730   3.710   3.388   6.901
 9277SOL    HW228731   3.834   3.288   6.864
 9278SOL     OW28732   1.153   2.074   3.566
 9278SOL    HW128733   1.065   2.030   3.583
 9278SOL    HW228734   1.227   2.010   3.586
 9279SOL     OW28735   3.269   0.418   2.253
 9279SOL    HW128736   3.357   0.373   2.241
 9279SOL    HW228737   3.237   0.404   2.347
 9280SOL     OW28738   1.881   6.878   4.142
 9280SOL    HW128739   1.857   6.975   4.144
 9280SOL    HW228740   1.961   6.865   4.084
 9281SOL     OW28741   2.124   2.516   0.701
 9281SOL    HW128742   2.182   2.529   0.781
 9281SOL    HW228743   2.072   2.432   0.711
 9282SOL     OW28744   4.424   1.561   5.124
 9282SOL    HW128745   4.475   1.532   5.043
 9282SOL    HW228746   4.339   1.510   5.130
 9283SOL     OW28747   5.771   2.500   2.379
 9283SOL    HW128748   5.774   2.584   2.433
 9283SOL    HW228749   5.755   2.523   2.283
 9284SOL     OW28750   3.222   3.435   1.357
 9284SOL    HW128751   3.174   3.352   1.385
 9284SOL    HW228752   3.269   3.475   1.436
 9285SOL     OW28753   0.032   2.522   6.612
 9285SOL    HW128754   0.042   2.540   6.514
 9285SOL    HW228755   6.984   2.452   6.627
 9286SOL     OW28756   5.468   0.017   5.185
 9286SOL    HW128757   5.428   0.101   5.221
 9286SOL    HW228758   5.395   6.974   5.162
 9287SOL     OW28759   2.851   6.230   0.879
 9287SOL    HW128760   2.836   6.199   0.785
 9287SOL    HW228761   2.851   6.150   0.940
 9288SOL     OW28762   4.574   2.061   5.835
 9288SOL    HW128763   4.633   2.124   5.784
 9288SOL    HW228764   4.495   2.111   5.871
 9289SOL     OW28765   4.778   2.291   2.153
 9289SOL    HW128766   4.782   2.387   2.180
 9289SOL    HW228767   4.686   2.270   2.119
 9290SOL     OW28768   4.634   1.460   4.730
 9290SOL    HW128769   4.550   1.449   4.678
 9290SOL    HW228770   4.628   1.409   4.815
 9291SOL     OW28771   1.386   0.522   4.852
 9291SOL    HW128772   1.356   0.431   4.882
 9291SOL    HW228773   1.307   0.574   4.819
 9292SOL     OW28774   0.190   3.351   5.951
 9292SOL    HW128775   0.144   3.437   5.928
 9292SOL    HW228776   0.124   3.276   5.947
 9293SOL     OW28777   5.565   4.459   0.424
 9293SOL    HW128778   5.602   4.404   0.350
 9293SOL    HW228779   5.502   4.404   0.479
 9294SOL     OW28780   5.318   6.301   6.913
 9294SOL    HW128781   5.227   6.330   6.944
 9294SOL    HW228782   5.370   6.381   6.884
 9295SOL     OW28783   4.557   1.406   3.138
 9295SOL    HW128784   4.536   1.497   3.174
 9295SOL    HW228785   4.566   1.411   3.039
 9296SOL     OW28786   5.987   6.304   5.986
 9296SOL    HW128787   5.956   6.387   6.032
 9296SOL    HW228788   6.047   6.328   5.910
 9297SOL     OW28789   0.353   0.854   1.050
 9297SOL    HW128790   0.431   0.807   1.010
 9297SOL    HW228791   0.271   0.798   1.038
 9298SOL     OW28792   1.946   6.024   5.348
 9298SOL    HW128793   1.933   6.120   5.370
 9298SOL    HW228794   1.966   6.014   5.251
 9299SOL     OW28795   1.406   3.856   4.390
 9299SOL    HW128796   1.476   3.926   4.401
 9299SOL    HW228797   1.425   3.780   4.452
 9300SOL     OW28798   5.439   4.263   4.892
 9300SOL    HW128799   5.389   4.342   4.858
 9300SOL    HW228800   5.514   4.293   4.951
 9301SOL     OW28801   5.201   4.252   2.582
 9301SOL    HW128802   5.153   4.318   2.526
 9301SOL    HW228803   5.170   4.159   2.559
 9302SOL     OW28804   2.321   2.162   2.875
 9302SOL    HW128805   2.305   2.070   2.909
 9302SOL    HW228806   2.381   2.212   2.938
 9303SOL     OW28807   3.695   6.373   6.666
 9303SOL    HW128808   3.668   6.309   6.738
 9303SOL    HW228809   3.616   6.393   6.607
 9304SOL     OW28810   3.195   3.245   0.809
 9304SOL    HW128811   3.099   3.222   0.794
 9304SOL    HW228812   3.224   3.314   0.742
 9305SOL     OW28813   6.073   2.514   1.926
 9305SOL    HW128814   6.045   2.439   1.986
 9305SOL    HW228815   6.151   2.484   1.871
 9306SOL     OW28816   6.700   4.677   4.236
 9306SOL    HW128817   6.676   4.592   4.190
 9306SOL    HW228818   6.789   4.666   4.282
 9307SOL     OW28819   1.640   1.790   0.745
 9307SOL    HW128820   1.542   1.780   0.728
 9307SOL    HW228821   1.663   1.888   0.749
 9308SOL     OW28822   0.678   3.440   0.860
 9308SOL    HW128823   0.609   3.404   0.922
 9308SOL    HW228824   0.666   3.400   0.769
 9309SOL     OW28825   4.481   3.975   5.894
 9309SOL    HW128826   4.575   4.002   5.871
 9309SOL    HW228827   4.429   3.961   5.809
 9310SOL     OW28828   4.427   5.787   6.438
 9310SOL    HW128829   4.406   5.702   6.390
 9310SOL    HW228830   4.343   5.829   6.471
 9311SOL     OW28831   5.641   4.012   0.732
 9311SOL    HW128832   5.581   4.085   0.765
 9311SOL    HW228833   5.597   3.964   0.656
 9312SOL     OW28834   1.032   4.235   6.485
 9312SOL    HW128835   0.985   4.295   6.420
 9312SOL    HW228836   0.965   4.188   6.542
 9313SOL     OW28837   6.958   6.883   2.636
 9313SOL    HW128838   6.880   6.821   2.641
 9313SOL    HW228839   6.975   6.924   2.726
 9314SOL     OW28840   4.722   5.490   6.737
 9314SOL    HW128841   4.651   5.448   6.680
 9314SOL    HW228842   4.801   5.429   6.742
 9315SOL     OW28843   6.907   0.343   5.500
 9315SOL    HW128844   6.893   0.319   5.404
 9315SOL    HW228845   6.997   0.386   5.512
 9316SOL     OW28846   3.799   6.004   3.595
 9316SOL    HW128847   3.708   5.963   3.596
 9316SOL    HW228848   3.859   5.954   3.657
 9317SOL     OW28849   6.377   5.211   3.694
 9317SOL    HW128850   6.306   5.153   3.734
 9317SOL    HW228851   6.344   5.247   3.606
 9318SOL     OW28852   0.385   0.450   6.799
 9318SOL    HW128853   0.420   0.513   6.730
 9318SOL    HW228854   0.313   0.495   6.852
 9319SOL     OW28855   0.625   3.201   6.177
 9319SOL    HW128856   0.541   3.174   6.129
 9319SOL    HW228857   0.611   3.191   6.275
 9320SOL     OW28858   4.396   2.484   5.877
 9320SOL    HW128859   4.356   2.424   5.808
 9320SOL    HW228860   4.457   2.431   5.936
 9321SOL     OW28861   6.353   6.139   2.858
 9321SOL    HW128862   6.363   6.122   2.956
 9321SOL    HW228863   6.346   6.052   2.810
 9322SOL     OW28864   0.702   6.197   5.614
 9322SOL    HW128865   0.637   6.121   5.618
 9322SOL    HW228866   0.765   6.192   5.691
 9323SOL     OW28867   1.068   1.460   6.860
 9323SOL    HW128868   1.157   1.474   6.902
 9323SOL    HW228869   1.056   1.524   6.784
 9324SOL     OW28870   1.366   5.428   0.432
 9324SOL    HW128871   1.430   5.493   0.472
 9324SOL    HW228872   1.308   5.390   0.504
 9325SOL     OW28873   5.723   1.978   1.108
 9325SOL    HW128874   5.670   2.043   1.052
 9325SOL    HW228875   5.661   1.910   1.146
 9326SOL     OW28876   1.890   6.933   1.293
 9326SOL    HW128877   1.959   6.943   1.364
 9326SOL    HW228878   1.799   6.924   1.335
 9327SOL     OW28879   4.412   0.422   2.720
 9327SOL    HW128880   4.322   0.463   2.703
 9327SOL    HW228881   4.482   0.476   2.675
 9328SOL     OW28882   3.538   1.503   0.842
 9328SOL    HW128883   3.546   1.589   0.893
 9328SOL    HW228884   3.498   1.522   0.752
 9329SOL     OW28885   0.592   3.446   2.519
 9329SOL    HW128886   0.593   3.352   2.552
 9329SOL    HW228887   0.686   3.480   2.512
 9330SOL     OW28888   6.339   0.802   0.815
 9330SOL    HW128889   6.372   0.896   0.803
 9330SOL    HW228890   6.413   0.738   0.798
 9331SOL     OW28891   0.600   0.801   6.956
 9331SOL    HW128892   0.583   0.704   6.972
 9331SOL    HW228893   0.554   0.829   6.872
 9332SOL     OW28894   3.136   3.075   4.324
 9332SOL    HW128895   3.074   3.153   4.312
 9332SOL    HW228896   3.129   3.042   4.418
 9333SOL     OW28897   6.516   4.717   1.315
 9333SOL    HW128898   6.569   4.693   1.397
 9333SOL    HW228899   6.419   4.698   1.331
 9334SOL     OW28900   2.611   0.436   4.401
 9334SOL    HW128901   2.688   0.466   4.344
 9334SOL    HW228902   2.525   0.459   4.356
 9335SOL     OW28903   1.956   0.736   0.005
 9335SOL    HW128904   1.930   0.667   6.959
 9335SOL    HW228905   2.020   0.801   6.985
 9336SOL     OW28906   2.934   6.806   5.989
 9336SOL    HW128907   2.950   6.899   5.956
 9336SOL    HW228908   2.899   6.809   6.083
 9337SOL     OW28909   5.011   0.519   2.112
 9337SOL    HW128910   5.061   0.601   2.140
 9337SOL    HW228911   5.065   0.438   2.136
 9338SOL     OW28912   3.645   6.967   2.957
 9338SOL    HW128913   3.677   0.038   2.977
 9338SOL    HW228914   3.713   6.919   2.901
 9339SOL     OW28915   4.360   6.387   1.695
 9339SOL    HW128916   4.408   6.400   1.782
 9339SOL    HW228917   4.346   6.476   1.652
 9340SOL     OW28918   6.076   3.566   0.094
 9340SOL    HW128919   5.984   3.543   0.062
 9340SOL    HW228920   6.144   3.536   0.026
 9341SOL     OW28921   0.769   5.469   6.547
 9341SOL    HW128922   0.746   5.379   6.585
 9341SOL    HW228923   0.728   5.479   6.456
 9342SOL     OW28924   1.489   6.763   6.121
 9342SOL    HW128925   1.483   6.766   6.022
 9342SOL    HW228926   1.580   6.793   6.150
 9343SOL     OW28927   6.414   5.278   4.997
 9343SOL    HW128928   6.433   5.349   4.929
 9343SOL    HW228929   6.458   5.193   4.969
 9344SOL     OW28930   5.021   6.643   1.486
 9344SOL    HW128931   4.958   6.575   1.522
 9344SOL    HW228932   4.979   6.734   1.491
 9345SOL     OW28933   0.129   3.372   0.742
 9345SOL    HW128934   0.201   3.440   0.752
 9345SOL    HW228935   0.087   3.353   0.831
 9346SOL     OW28936   6.130   0.075   1.075
 9346SOL    HW128937   6.116   0.174   1.068
 9346SOL    HW228938   6.207   0.049   1.017
 9347SOL     OW28939   1.755   6.525   1.606
 9347SOL    HW128940   1.839   6.578   1.604
 9347SOL    HW228941   1.762   6.450   1.540
 9348SOL     OW28942   3.378   4.802   0.247
 9348SOL    HW128943   3.446   4.764   0.309
 9348SOL    HW228944   3.424   4.844   0.169
 9349SOL     OW28945   1.476   6.486   2.679
 9349SOL    HW128946   1.451   6.581   2.665
 9349SOL    HW228947   1.439   6.430   2.605
 9350SOL     OW28948   0.617   2.530   5.819
 9350SOL    HW128949   0.653   2.623   5.828
 9350SOL    HW228950   0.596   2.493   5.909
 9351SOL     OW28951   3.789   2.305   6.852
 9351SOL    HW128952   3.883   2.337   6.836
 9351SOL    HW228953   3.724   2.367   6.809
 9352SOL     OW28954   2.195   4.437   6.506
 9352SOL    HW128955   2.176   4.459   6.410
 9352SOL    HW228956   2.183   4.518   6.562
 9353SOL     OW28957   6.634   6.866   1.339
 9353SOL    HW128958   6.600   6.947   1.290
 9353SOL    HW228959   6.701   6.895   1.408
 9354SOL     OW28960   6.833   2.365   6.560
 9354SOL    HW128961   6.862   2.401   6.471
 9354SOL    HW228962   6.733   2.367   6.566
 9355SOL     OW28963   0.467   1.854   5.296
 9355SOL    HW128964   0.499   1.858   5.201
 9355SOL    HW228965   0.499   1.934   5.346
 9356SOL     OW28966   4.598   6.547   2.234
 9356SOL    HW128967   4.560   6.639   2.246
 9356SOL    HW228968   4.649   6.542   2.148
 9357SOL     OW28969   0.642   1.733   6.980
 9357SOL    HW128970   0.575   1.660   6.977
 9357SOL    HW228971   0.688   1.733   0.047
 9358SOL     OW28972   1.103   3.473   2.553
 9358SOL    HW128973   1.038   3.402   2.581
 9358SOL    HW228974   1.064   3.563   2.574
 9359SOL     OW28975   1.560   0.321   5.954
 9359SOL    HW128976   1.537   0.241   5.899
 9359SOL    HW228977   1.477   0.376   5.969
 9360SOL     OW28978   0.721   0.691   6.553
 9360SOL    HW128979   0.781   0.719   6.628
 9360SOL    HW228980   0.775   0.643   6.484
 9361SOL     OW28981   2.304   6.001   4.336
 9361SOL    HW128982   2.316   5.970   4.242
 9361SOL    HW228983   2.372   5.958   4.395
 9362SOL     OW28984   1.666   0.217   2.441
 9362SOL    HW128985   1.712   0.189   2.357
 9362SOL    HW228986   1.627   0.137   2.488
 9363SOL     OW28987   3.183   5.151   2.726
 9363SOL    HW128988   3.104   5.144   2.787
 9363SOL    HW228989   3.191   5.244   2.691
 9364SOL     OW28990   1.138   2.140   1.317
 9364SOL    HW128991   1.223   2.171   1.361
 9364SOL    HW228992   1.068   2.212   1.326
 9365SOL     OW28993   3.227   2.152   4.495
 9365SOL    HW128994   3.191   2.209   4.568
 9365SOL    HW228995   3.164   2.153   4.417
 9366SOL     OW28996   3.771   5.828   0.334
 9366SOL    HW128997   3.844   5.845   0.400
 9366SOL    HW228998   3.792   5.876   0.249
 9367SOL     OW28999   6.411   0.885   1.549
 9367SOL    HW129000   6.461   0.963   1.587
 9367SOL    HW229001   6.452   0.859   1.462
 9368SOL     OW29002   3.577   0.480   2.441
 9368SOL    HW129003   3.533   0.570   2.436
 9368SOL    HW229004   3.541   0.422   2.368
 9369SOL     OW29005   2.236   5.473   6.743
 9369SOL    HW129006   2.234   5.376   6.720
 9369SOL    HW229007   2.155   5.519   6.707
 9370SOL     OW29008   4.271   1.680   4.069
 9370SOL    HW129009   4.324   1.649   3.990
 9370SOL    HW229010   4.316   1.760   4.109
 9371SOL     OW29011   4.517   5.486   1.463
 9371SOL    HW129012   4.556   5.495   1.554
 9371SOL    HW229013   4.418   5.469   1.470
 9372SOL     OW29014   4.847   6.467   1.574
 9372SOL    HW129015   4.760   6.456   1.526
 9372SOL    HW229016   4.831   6.473   1.672
 9373SOL     OW29017   6.649   1.844   0.289
 9373SOL    HW129018   6.633   1.828   0.386
 9373SOL    HW229019   6.737   1.888   0.276
 9374SOL     OW29020   0.387   5.250   6.077
 9374SOL    HW129021   0.379   5.349   6.068
 9374SOL    HW229022   0.296   5.209   6.073
 9375SOL     OW29023   0.185   0.645   6.934
 9375SOL    HW129024   0.153   0.569   6.991
 9375SOL    HW229025   0.198   0.726   6.991
 9376SOL     OW29026   2.258   3.902   1.841
 9376SOL    HW129027   2.323   3.854   1.783
 9376SOL    HW229028   2.269   3.872   1.935
 9377SOL     OW29029   1.986   0.439   3.523
 9377SOL    HW129030   1.944   0.366   3.576
 9377SOL    HW229031   1.968   0.527   3.567
 9378SOL     OW29032   2.970   0.790   4.091
 9378SOL    HW129033   3.033   0.806   4.167
 9378SOL    HW229034   2.974   0.693   4.064
 9379SOL     OW29035   4.083   6.150   5.084
 9379SOL    HW129036   4.071   6.181   4.990
 9379SOL    HW229037   4.160   6.087   5.089
 9380SOL     OW29038   5.193   5.954   0.242
 9380SOL    HW129039   5.252   5.929   0.318
 9380SOL    HW229040   5.224   6.040   0.202
 9381SOL     OW29041   5.449   1.599   4.795
 9381SOL    HW129042   5.469   1.563   4.704
 9381SOL    HW229043   5.530   1.589   4.853
 9382SOL     OW29044   3.180   6.370   4.989
 9382SOL    HW129045   3.265   6.346   4.943
 9382SOL    HW229046   3.180   6.468   5.010
 9383SOL     OW29047   5.616   4.349   3.119
 9383SOL    HW129048   5.582   4.438   3.088
 9383SOL    HW229049   5.579   4.328   3.209
 9384SOL     OW29050   3.044   0.374   2.060
 9384SOL    HW129051   3.053   0.456   2.004
 9384SOL    HW229052   3.104   0.380   2.139
 9385SOL     OW29053   4.244   1.619   3.379
 9385SOL    HW129054   4.176   1.605   3.451
 9385SOL    HW229055   4.210   1.580   3.293
 9386SOL     OW29056   4.629   6.551   6.547
 9386SOL    HW129057   4.544   6.501   6.560
 9386SOL    HW229058   4.690   6.498   6.488
 9387SOL     OW29059   2.618   2.101   0.500
 9387SOL    HW129060   2.578   2.140   0.583
 9387SOL    HW229061   2.577   2.012   0.481
 9388SOL     OW29062   2.468   6.310   4.933
 9388SOL    HW129063   2.499   6.288   5.026
 9388SOL    HW229064   2.546   6.316   4.872
 9389SOL     OW29065   2.620   4.868   1.687
 9389SOL    HW129066   2.709   4.837   1.654
 9389SOL    HW229067   2.558   4.790   1.692
 9390SOL     OW29068   4.908   5.212   4.804
 9390SOL    HW129069   4.977   5.271   4.762
 9390SOL    HW229070   4.835   5.269   4.842
 9391SOL     OW29071   1.494   5.391   4.278
 9391SOL    HW129072   1.464   5.337   4.200
 9391SOL    HW229073   1.589   5.368   4.299
 9392SOL     OW29074   5.595   3.982   3.034
 9392SOL    HW129075   5.561   4.074   3.011
 9392SOL    HW229076   5.647   3.945   2.957
 9393SOL     OW29077   2.502   6.931   6.427
 9393SOL    HW129078   2.599   6.946   6.447
 9393SOL    HW229079   2.452   7.018   6.436
 9394SOL     OW29080   3.498   0.179   0.150
 9394SOL    HW129081   3.582   0.126   0.153
 9394SOL    HW229082   3.454   0.167   0.061
 9395SOL     OW29083   1.930   1.680   0.679
 9395SOL    HW129084   1.930   1.586   0.715
 9395SOL    HW229085   1.869   1.685   0.600
 9396SOL     OW29086   0.620   6.556   6.714
 9396SOL    HW129087   0.625   6.464   6.673
 9396SOL    HW229088   0.708   6.602   6.702
 9397SOL     OW29089   3.170   0.661   5.241
 9397SOL    HW129090   3.093   0.689   5.184
 9397SOL    HW229091   3.152   0.569   5.277
 9398SOL     OW29092   0.955   1.795   0.398
 9398SOL    HW129093   0.960   1.843   0.486
 9398SOL    HW229094   1.046   1.791   0.357
 9399SOL     OW29095   1.645   2.451   4.221
 9399SOL    HW129096   1.664   2.385   4.148
 9399SOL    HW229097   1.700   2.430   4.301
 9400SOL     OW29098   5.379   0.993   0.474
 9400SOL    HW129099   5.334   0.905   0.463
 9400SOL    HW229100   5.342   1.058   0.407
 9401SOL     OW29101   0.228   2.526   3.854
 9401SOL    HW129102   0.317   2.571   3.851
 9401SOL    HW229103   0.210   2.493   3.947
 9402SOL     OW29104   1.855   6.608   4.294
 9402SOL    HW129105   1.936   6.579   4.345
 9402SOL    HW229106   1.852   6.708   4.290
 9403SOL     OW29107   5.973   2.503   2.545
 9403SOL    HW129108   5.903   2.475   2.479
 9403SOL    HW229109   6.030   2.574   2.503
 9404SOL     OW29110   2.240   2.844   1.008
 9404SOL    HW129111   2.150   2.881   0.982
 9404SOL    HW229112   2.249   2.752   0.973
 9405SOL     OW29113   0.085   5.457   5.781
 9405SOL    HW129114   0.175   5.452   5.737
 9405SOL    HW229115   0.017   5.412   5.722
 9406SOL     OW29116   0.705   2.711   0.185
 9406SOL    HW129117   0.727   2.701   0.282
 9406SOL    HW229118   0.615   2.752   0.175
 9407SOL     OW29119   1.151   5.547   5.696
 9407SOL    HW129120   1.069   5.573   5.747
 9407SOL    HW229121   1.227   5.532   5.759
 9408SOL     OW29122   0.640   3.641   4.545
 9408SOL    HW129123   0.690   3.718   4.584
 9408SOL    HW229124   0.692   3.603   4.469
 9409SOL     OW29125   6.869   5.075   2.981
 9409SOL    HW129126   6.791   5.122   2.939
 9409SOL    HW229127   6.889   5.117   3.070
 9410SOL     OW29128   3.600   1.012   0.774
 9410SOL    HW129129   3.595   0.935   0.711
 9410SOL    HW229130   3.515   1.018   0.827
 9411SOL     OW29131   2.917   3.553   3.242
 9411SOL    HW129132   2.853   3.561   3.318
 9411SOL    HW229133   2.946   3.644   3.214
 9412SOL     OW29134   6.106   6.125   0.749
 9412SOL    HW129135   6.179   6.058   0.764
 9412SOL    HW229136   6.093   6.179   0.832
 9413SOL     OW29137   5.212   3.857   2.877
 9413SOL    HW129138   5.241   3.777   2.930
 9413SOL    HW229139   5.141   3.830   2.812
 9414SOL     OW29140   1.671   2.051   3.055
 9414SOL    HW129141   1.597   2.103   3.098
 9414SOL    HW229142   1.716   1.994   3.123
 9415SOL     OW29143   4.067   1.142   1.870
 9415SOL    HW129144   3.993   1.196   1.911
 9415SOL    HW229145   4.074   1.164   1.773
 9416SOL     OW29146   5.671   5.438   5.636
 9416SOL    HW129147   5.764   5.463   5.607
 9416SOL    HW229148   5.664   5.448   5.735
 9417SOL     OW29149   3.647   5.382   2.390
 9417SOL    HW129150   3.577   5.321   2.426
 9417SOL    HW229151   3.732   5.369   2.440
 9418SOL     OW29152   3.833   1.880   4.911
 9418SOL    HW129153   3.868   1.837   4.827
 9418SOL    HW229154   3.832   1.812   4.985
 9419SOL     OW29155   1.854   3.140   6.464
 9419SOL    HW129156   1.855   3.184   6.374
 9419SOL    HW229157   1.769   3.088   6.474
 9420SOL     OW29158   6.465   4.261   6.026
 9420SOL    HW129159   6.528   4.295   5.956
 9420SOL    HW229160   6.372   4.288   6.004
 9421SOL     OW29161   3.972   5.988   6.178
 9421SOL    HW129162   3.970   6.037   6.091
 9421SOL    HW229163   3.963   6.054   6.253
 9422SOL     OW29164   2.288   5.896   5.415
 9422SOL    HW129165   2.199   5.871   5.451
 9422SOL    HW229166   2.277   5.955   5.335
 9423SOL     OW29167   5.064   4.757   2.903
 9423SOL    HW129168   5.129   4.694   2.946
 9423SOL    HW229169   4.976   4.750   2.949
 9424SOL     OW29170   5.886   6.723   4.063
 9424SOL    HW129171   5.869   6.652   4.132
 9424SOL    HW229172   5.980   6.755   4.070
 9425SOL     OW29173   6.710   4.684   1.493
 9425SOL    HW129174   6.692   4.753   1.564
 9425SOL    HW229175   6.803   4.650   1.502
 9426SOL     OW29176   0.300   2.134   6.115
 9426SOL    HW129177   0.316   2.057   6.177
 9426SOL    HW229178   0.378   2.144   6.053
 9427SOL     OW29179   4.652   4.290   2.613
 9427SOL    HW129180   4.601   4.302   2.528
 9427SOL    HW229181   4.719   4.217   2.601
 9428SOL     OW29182   0.407   6.234   5.668
 9428SOL    HW129183   0.488   6.283   5.700
 9428SOL    HW229184   0.432   6.141   5.642
 9429SOL     OW29185   2.755   2.299   4.389
 9429SOL    HW129186   2.737   2.362   4.314
 9429SOL    HW229187   2.745   2.205   4.357
 9430SOL     OW29188   1.713   1.943   4.973
 9430SOL    HW129189   1.620   1.909   4.963
 9430SOL    HW229190   1.741   1.988   4.888
 9431SOL     OW29191   0.949   4.638   5.310
 9431SOL    HW129192   0.852   4.652   5.291
 9431SOL    HW229193   0.989   4.581   5.239
 9432SOL     OW29194   0.091   1.304   3.176
 9432SOL    HW129195   0.036   1.349   3.247
 9432SOL    HW229196   0.030   1.251   3.116
 9433SOL     OW29197   4.503   5.468   2.078
 9433SOL    HW129198   4.518   5.382   2.126
 9433SOL    HW229199   4.591   5.505   2.047
 9434SOL     OW29200   4.508   5.399   3.922
 9434SOL    HW129201   4.582   5.360   3.977
 9434SOL    HW229202   4.548   5.450   3.845
 9435SOL     OW29203   0.743   3.583   1.733
 9435SOL    HW129204   0.788   3.530   1.806
 9435SOL    HW229205   0.702   3.665   1.773
 9436SOL     OW29206   2.105   0.729   2.710
 9436SOL    HW129207   2.052   0.682   2.640
 9436SOL    HW229208   2.115   0.826   2.686
 9437SOL     OW29209   5.205   6.596   4.600
 9437SOL    HW129210   5.127   6.551   4.643
 9437SOL    HW229211   5.255   6.649   4.669
 9438SOL     OW29212   4.501   6.814   2.266
 9438SOL    HW129213   4.426   6.872   2.299
 9438SOL    HW229214   4.516   6.832   2.168
 9439SOL     OW29215   1.574   3.530   1.039
 9439SOL    HW129216   1.575   3.443   1.087
 9439SOL    HW229217   1.651   3.586   1.069
 9440SOL     OW29218   2.272   5.328   3.766
 9440SOL    HW129219   2.203   5.356   3.833
 9440SOL    HW229220   2.280   5.228   3.768
 9441SOL     OW29221   0.352   6.642   4.469
 9441SOL    HW129222   0.431   6.581   4.477
 9441SOL    HW229223   0.375   6.731   4.508
 9442SOL     OW29224   5.420   3.079   0.441
 9442SOL    HW129225   5.335   3.111   0.482
 9442SOL    HW229226   5.431   2.982   0.459
 9443SOL     OW29227   2.303   4.192   2.582
 9443SOL    HW129228   2.246   4.183   2.663
 9443SOL    HW229229   2.378   4.256   2.601
 9444SOL     OW29230   1.015   4.229   5.974
 9444SOL    HW129231   1.059   4.184   5.896
 9444SOL    HW229232   0.972   4.314   5.943
 9445SOL     OW29233   1.082   1.574   4.175
 9445SOL    HW129234   0.982   1.569   4.175
 9445SOL    HW229235   1.111   1.664   4.206
 9446SOL     OW29236   6.541   4.036   3.618
 9446SOL    HW129237   6.617   4.015   3.558
 9446SOL    HW229238   6.500   4.123   3.591
 9447SOL     OW29239   4.772   4.199   1.820
 9447SOL    HW129240   4.677   4.192   1.852
 9447SOL    HW229241   4.773   4.245   1.731
 9448SOL     OW29242   6.266   1.179   5.709
 9448SOL    HW129243   6.314   1.135   5.785
 9448SOL    HW229244   6.181   1.219   5.742
 9449SOL     OW29245   5.515   0.298   1.819
 9449SOL    HW129246   5.417   0.318   1.825
 9449SOL    HW229247   5.528   0.204   1.789
 9450SOL     OW29248   1.081   5.980   2.765
 9450SOL    HW129249   1.161   5.921   2.754
 9450SOL    HW229250   0.998   5.928   2.745
 9451SOL     OW29251   3.770   4.614   6.749
 9451SOL    HW129252   3.757   4.669   6.666
 9451SOL    HW229253   3.696   4.632   6.813
 9452SOL     OW29254   5.753   4.644   6.757
 9452SOL    HW129255   5.726   4.558   6.801
 9452SOL    HW229256   5.781   4.626   6.663
 9453SOL     OW29257   5.026   5.386   1.700
 9453SOL    HW129258   5.092   5.354   1.769
 9453SOL    HW229259   5.073   5.444   1.634
 9454SOL     OW29260   6.125   4.473   0.337
 9454SOL    HW129261   6.027   4.465   0.352
 9454SOL    HW229262   6.161   4.549   0.392
 9455SOL     OW29263   3.391   1.309   1.789
 9455SOL    HW129264   3.489   1.326   1.783
 9455SOL    HW229265   3.370   1.220   1.748
 9456SOL     OW29266   0.027   3.140   2.624
 9456SOL    HW129267   0.046   3.198   2.545
 9456SOL    HW229268   6.993   3.190   2.690
 9457SOL     OW29269   6.510   6.304   5.167
 9457SOL    HW129270   6.491   6.391   5.122
 9457SOL    HW229271   6.506   6.230   5.099
 9458SOL     OW29272   6.622   4.101   6.888
 9458SOL    HW129273   6.536   4.133   6.930
 9458SOL    HW229274   6.607   4.084   6.791
 9459SOL     OW29275   4.775   4.754   5.758
 9459SOL    HW129276   4.836   4.732   5.682
 9459SOL    HW229277   4.703   4.685   5.765
 9460SOL     OW29278   1.143   2.942   2.857
 9460SOL    HW129279   1.060   2.931   2.911
 9460SOL    HW229280   1.128   2.904   2.765
 9461SOL     OW29281   1.526   1.812   2.210
 9461SOL    HW129282   1.446   1.859   2.173
 9461SOL    HW229283   1.600   1.878   2.224
 9462SOL     OW29284   0.149   1.128   4.303
 9462SOL    HW129285   0.073   1.175   4.348
 9462SOL    HW229286   0.128   1.031   4.295
 9463SOL     OW29287   5.806   4.331   1.557
 9463SOL    HW129288   5.722   4.344   1.608
 9463SOL    HW229289   5.804   4.242   1.512
 9464SOL     OW29290   0.970   1.303   1.799
 9464SOL    HW129291   0.960   1.220   1.854
 9464SOL    HW229292   1.032   1.366   1.845
 9465SOL     OW29293   6.689   4.857   1.168
 9465SOL    HW129294   6.779   4.815   1.152
 9465SOL    HW229295   6.632   4.795   1.221
 9466SOL     OW29296   3.935   4.492   5.632
 9466SOL    HW129297   3.909   4.579   5.674
 9466SOL    HW229298   3.944   4.423   5.703
 9467SOL     OW29299   2.029   3.842   0.618
 9467SOL    HW129300   1.943   3.869   0.662
 9467SOL    HW229301   2.034   3.882   0.527
 9468SOL     OW29302   6.251   1.703   0.453
 9468SOL    HW129303   6.155   1.717   0.477
 9468SOL    HW229304   6.301   1.667   0.531
 9469SOL     OW29305   6.897   6.241   0.944
 9469SOL    HW129306   6.855   6.330   0.965
 9469SOL    HW229307   6.829   6.181   0.904
 9470SOL     OW29308   3.514   3.517   0.554
 9470SOL    HW129309   3.586   3.583   0.533
 9470SOL    HW229310   3.517   3.442   0.488
 9471SOL     OW29311   6.353   2.582   4.716
 9471SOL    HW129312   6.321   2.653   4.654
 9471SOL    HW229313   6.314   2.597   4.807
 9472SOL     OW29314   1.817   3.222   6.203
 9472SOL    HW129315   1.843   3.189   6.112
 9472SOL    HW229316   1.740   3.285   6.195
 9473SOL     OW29317   2.439   3.971   1.346
 9473SOL    HW129318   2.441   3.876   1.376
 9473SOL    HW229319   2.499   4.026   1.405
 9474SOL     OW29320   6.242   3.660   0.954
 9474SOL    HW129321   6.267   3.753   0.928
 9474SOL    HW229322   6.222   3.656   1.052
 9475SOL     OW29323   5.219   4.467   6.267
 9475SOL    HW129324   5.233   4.559   6.303
 9475SOL    HW229325   5.159   4.416   6.328
 9476SOL     OW29326   3.952   3.775   0.192
 9476SOL    HW129327   3.964   3.806   0.098
 9476SOL    HW229328   3.877   3.825   0.235
 9477SOL     OW29329   1.842   4.097   0.416
 9477SOL    HW129330   1.902   4.134   0.487
 9477SOL    HW229331   1.747   4.103   0.447
 9478SOL     OW29332   5.369   3.805   6.447
 9478SOL    HW129333   5.464   3.794   6.476
 9478SOL    HW229334   5.309   3.751   6.506
 9479SOL     OW29335   3.923   0.281   2.140
 9479SOL    HW129336   3.981   0.303   2.062
 9479SOL    HW229337   3.829   0.312   2.122
 9480SOL     OW29338   6.383   1.108   0.545
 9480SOL    HW129339   6.348   1.200   0.532
 9480SOL    HW229340   6.450   1.107   0.619
 9481SOL     OW29341   4.191   6.725   3.409
 9481SOL    HW129342   4.181   6.626   3.397
 9481SOL    HW229343   4.112   6.771   3.369
 9482SOL     OW29344   6.372   6.206   6.874
 9482SOL    HW129345   6.447   6.167   6.928
 9482SOL    HW229346   6.352   6.298   6.907
 9483SOL     OW29347   6.653   6.897   0.393
 9483SOL    HW129348   6.635   6.801   0.370
 9483SOL    HW229349   6.598   6.956   0.335
 9484SOL     OW29350   4.031   6.040   4.681
 9484SOL    HW129351   3.955   6.046   4.745
 9484SOL    HW229352   4.039   5.946   4.648
 9485SOL     OW29353   0.256   0.907   0.036
 9485SOL    HW129354   0.224   0.921   0.129
 9485SOL    HW229355   0.277   0.996   7.016
 9486SOL     OW29356   5.506   5.836   0.014
 9486SOL    HW129357   5.440   5.901   0.051
 9486SOL    HW229358   5.497   5.832   6.936
 9487SOL     OW29359   3.458   3.171   3.149
 9487SOL    HW129360   3.372   3.199   3.190
 9487SOL    HW229361   3.460   3.197   3.052
 9488SOL     OW29362   1.426   0.608   1.361
 9488SOL    HW129363   1.514   0.609   1.313
 9488SOL    HW229364   1.441   0.588   1.457
 9489SOL     OW29365   5.664   2.813   0.167
 9489SOL    HW129366   5.618   2.735   0.210
 9489SOL    HW229367   5.724   2.857   0.234
 9490SOL     OW29368   5.400   3.441   4.429
 9490SOL    HW129369   5.347   3.408   4.507
 9490SOL    HW229370   5.496   3.450   4.454
 9491SOL     OW29371   5.001   6.208   2.934
 9491SOL    HW129372   4.903   6.187   2.931
 9491SOL    HW229373   5.040   6.192   2.843
 9492SOL     OW29374   5.222   2.748   3.443
 9492SOL    HW129375   5.126   2.737   3.466
 9492SOL    HW229376   5.274   2.669   3.476
 9493SOL     OW29377   4.286   6.053   1.316
 9493SOL    HW129378   4.246   6.087   1.402
 9493SOL    HW229379   4.375   6.095   1.303
 9494SOL     OW29380   5.775   2.234   1.759
 9494SOL    HW129381   5.751   2.263   1.851
 9494SOL    HW229382   5.795   2.315   1.703
 9495SOL     OW29383   0.297   2.220   1.563
 9495SOL    HW129384   0.333   2.295   1.507
 9495SOL    HW229385   0.322   2.133   1.523
 9496SOL     OW29386   5.620   2.072   1.622
 9496SOL    HW129387   5.685   2.106   1.689
 9496SOL    HW229388   5.585   1.983   1.651
 9497SOL     OW29389   4.543   4.525   4.538
 9497SOL    HW129390   4.510   4.603   4.592
 9497SOL    HW229391   4.518   4.537   4.443
 9498SOL     OW29392   0.218   5.601   4.142
 9498SOL    HW129393   0.229   5.548   4.226
 9498SOL    HW229394   0.208   5.538   4.065
 9499SOL     OW29395   6.038   5.766   5.373
 9499SOL    HW129396   6.124   5.717   5.355
 9499SOL    HW229397   6.036   5.850   5.319
 9500SOL     OW29398   3.798   1.722   0.808
 9500SOL    HW129399   3.730   1.774   0.860
 9500SOL    HW229400   3.854   1.667   0.871
 9501SOL     OW29401   1.764   3.267   5.155
 9501SOL    HW129402   1.828   3.326   5.203
 9501SOL    HW229403   1.759   3.295   5.059
 9502SOL     OW29404   5.106   4.569   4.147
 9502SOL    HW129405   5.133   4.664   4.129
 9502SOL    HW229406   5.177   4.508   4.114
 9503SOL     OW29407   6.690   1.468   0.123
 9503SOL    HW129408   6.603   1.494   0.166
 9503SOL    HW229409   6.736   1.549   0.088
 9504SOL     OW29410   6.275   5.496   2.243
 9504SOL    HW129411   6.293   5.460   2.151
 9504SOL    HW229412   6.187   5.544   2.243
 9505SOL     OW29413   3.919   4.893   6.112
 9505SOL    HW129414   3.924   4.904   6.211
 9505SOL    HW229415   4.001   4.845   6.080
 9506SOL     OW29416   2.839   0.831   1.158
 9506SOL    HW129417   2.747   0.816   1.195
 9506SOL    HW229418   2.875   0.745   1.122
 9507SOL     OW29419   5.138   0.269   2.123
 9507SOL    HW129420   5.067   0.237   2.186
 9507SOL    HW229421   5.227   0.265   2.169
 9508SOL     OW29422   4.343   1.977   2.472
 9508SOL    HW129423   4.393   1.994   2.556
 9508SOL    HW229424   4.390   1.906   2.419
 9509SOL     OW29425   5.276   0.561   3.303
 9509SOL    HW129426   5.309   0.583   3.211
 9509SOL    HW229427   5.249   0.646   3.349
 9510SOL     OW29428   1.117   2.960   3.715
 9510SOL    HW129429   1.151   2.905   3.791
 9510SOL    HW229430   1.171   3.044   3.707
 9511SOL     OW29431   0.413   1.749   1.087
 9511SOL    HW129432   0.425   1.742   0.988
 9511SOL    HW229433   0.438   1.662   1.130
 9512SOL     OW29434   6.457   2.000   1.120
 9512SOL    HW129435   6.455   2.037   1.027
 9512SOL    HW229436   6.377   1.942   1.135
 9513SOL     OW29437   4.624   4.389   5.643
 9513SOL    HW129438   4.595   4.397   5.548
 9513SOL    HW229439   4.669   4.300   5.656
 9514SOL     OW29440   3.486   2.889   6.712
 9514SOL    HW129441   3.577   2.933   6.708
 9514SOL    HW229442   3.495   2.798   6.752
 9515SOL     OW29443   0.993   5.674   3.049
 9515SOL    HW129444   0.922   5.734   3.011
 9515SOL    HW229445   1.074   5.728   3.071
 9516SOL     OW29446   0.310   4.428   0.010
 9516SOL    HW129447   0.328   4.331   0.025
 9516SOL    HW229448   0.354   4.482   0.083
 9517SOL     OW29449   0.550   5.822   1.305
 9517SOL    HW129450   0.565   5.831   1.404
 9517SOL    HW229451   0.453   5.811   1.287
 9518SOL     OW29452   0.961   1.240   0.824
 9518SOL    HW129453   0.928   1.190   0.904
 9518SOL    HW229454   0.891   1.304   0.794
 9519SOL     OW29455   1.230   3.261   5.150
 9519SOL    HW129456   1.325   3.234   5.134
 9519SOL    HW229457   1.194   3.304   5.067
 9520SOL     OW29458   4.211   6.938   1.708
 9520SOL    HW129459   4.179   6.887   1.788
 9520SOL    HW229460   4.307   6.963   1.720
 9521SOL     OW29461   5.099   5.259   3.714
 9521SOL    HW129462   5.150   5.197   3.774
 9521SOL    HW229463   5.001   5.248   3.730
 9522SOL     OW29464   3.344   6.266   0.985
 9522SOL    HW129465   3.267   6.209   1.012
 9522SOL    HW229466   3.405   6.280   1.063
 9523SOL     OW29467   2.773   5.696   5.800
 9523SOL    HW129468   2.794   5.790   5.829
 9523SOL    HW229469   2.859   5.647   5.782
 9524SOL     OW29470   4.588   2.690   0.597
 9524SOL    HW129471   4.517   2.748   0.635
 9524SOL    HW229472   4.546   2.606   0.562
 9525SOL     OW29473   3.447   0.093   5.846
 9525SOL    HW129474   3.472   0.175   5.795
 9525SOL    HW229475   3.514   0.021   5.829
 9526SOL     OW29476   4.997   5.576   1.972
 9526SOL    HW129477   5.002   5.558   1.873
 9526SOL    HW229478   5.087   5.605   2.005
 9527SOL     OW29479   6.036   2.047   1.159
 9527SOL    HW129480   5.937   2.055   1.149
 9527SOL    HW229481   6.061   2.056   1.255
 9528SOL     OW29482   6.140   0.542   1.865
 9528SOL    HW129483   6.161   0.525   1.961
 9528SOL    HW229484   6.041   0.550   1.854
 9529SOL     OW29485   0.845   3.268   4.726
 9529SOL    HW129486   0.759   3.309   4.698
 9529SOL    HW229487   0.914   3.281   4.654
 9530SOL     OW29488   1.779   2.157   4.144
 9530SOL    HW129489   1.815   2.110   4.225
 9530SOL    HW229490   1.741   2.091   4.080
 9531SOL     OW29491   2.797   6.417   3.231
 9531SOL    HW129492   2.836   6.365   3.155
 9531SOL    HW229493   2.713   6.372   3.262
 9532SOL     OW29494   2.988   1.089   1.237
 9532SOL    HW129495   2.946   1.008   1.198
 9532SOL    HW229496   2.941   1.113   1.322
 9533SOL     OW29497   1.651   0.241   4.899
 9533SOL    HW129498   1.646   0.163   4.962
 9533SOL    HW229499   1.661   0.326   4.952
 9534SOL     OW29500   4.411   1.888   4.169
 9534SOL    HW129501   4.384   1.965   4.111
 9534SOL    HW229502   4.422   1.919   4.264
 9535SOL     OW29503   2.495   2.081   5.617
 9535SOL    HW129504   2.484   2.168   5.666
 9535SOL    HW229505   2.571   2.030   5.655
 9536SOL     OW29506   3.305   0.138   6.919
 9536SOL    HW129507   3.317   0.233   6.892
 9536SOL    HW229508   3.235   0.095   6.862
 9537SOL     OW29509   2.803   6.796   0.588
 9537SOL    HW129510   2.812   6.741   0.671
 9537SOL    HW229511   2.894   6.816   0.551
 9538SOL     OW29512   5.810   3.186   4.123
 9538SOL    HW129513   5.833   3.278   4.091
 9538SOL    HW229514   5.753   3.193   4.205
 9539SOL     OW29515   0.450   4.760   0.987
 9539SOL    HW129516   0.393   4.701   1.044
 9539SOL    HW229517   0.523   4.799   1.043
 9540SOL     OW29518   5.472   3.251   5.309
 9540SOL    HW129519   5.502   3.160   5.339
 9540SOL    HW229520   5.413   3.291   5.379
 9541SOL     OW29521   0.398   1.768   3.342
 9541SOL    HW129522   0.369   1.755   3.248
 9541SOL    HW229523   0.327   1.816   3.393
 9542SOL     OW29524   5.002   4.016   4.304
 9542SOL    HW129525   5.068   4.037   4.376
 9542SOL    HW229526   5.044   3.956   4.236
 9543SOL     OW29527   5.316   2.093   1.877
 9543SOL    HW129528   5.293   2.168   1.815
 9543SOL    HW229529   5.232   2.053   1.914
 9544SOL     OW29530   3.462   1.670   2.112
 9544SOL    HW129531   3.559   1.694   2.120
 9544SOL    HW229532   3.407   1.754   2.112
 9545SOL     OW29533   0.195   0.048   4.382
 9545SOL    HW129534   0.196   7.008   4.304
 9545SOL    HW229535   0.276   0.107   4.380
 9546SOL     OW29536   2.516   4.309   1.730
 9546SOL    HW129537   2.552   4.401   1.747
 9546SOL    HW229538   2.437   4.293   1.791
 9547SOL     OW29539   6.396   5.567   3.037
 9547SOL    HW129540   6.459   5.638   3.003
 9547SOL    HW229541   6.428   5.535   3.126
 9548SOL     OW29542   4.524   6.290   2.719
 9548SOL    HW129543   4.445   6.316   2.775
 9548SOL    HW229544   4.514   6.327   2.627
 9549SOL     OW29545   2.896   5.403   0.139
 9549SOL    HW129546   2.916   5.460   0.059
 9549SOL    HW229547   2.961   5.327   0.143
 9550SOL     OW29548   1.283   2.008   0.373
 9550SOL    HW129549   1.376   2.046   0.373
 9550SOL    HW229550   1.283   1.920   0.421
 9551SOL     OW29551   1.929   6.000   5.777
 9551SOL    HW129552   1.997   5.989   5.849
 9551SOL    HW229553   1.899   6.095   5.775
 9552SOL     OW29554   0.341   5.498   3.399
 9552SOL    HW129555   0.375   5.592   3.405
 9552SOL    HW229556   0.406   5.436   3.443
 9553SOL     OW29557   5.155   4.616   5.423
 9553SOL    HW129558   5.201   4.537   5.382
 9553SOL    HW229559   5.175   4.698   5.368
 9554SOL     OW29560   2.005   1.214   1.637
 9554SOL    HW129561   2.004   1.313   1.650
 9554SOL    HW229562   1.925   1.173   1.683
 9555SOL     OW29563   6.879   2.471   6.315
 9555SOL    HW129564   6.960   2.484   6.256
 9555SOL    HW229565   6.805   2.529   6.282
 9556SOL     OW29566   0.086   2.022   1.290
 9556SOL    HW129567   0.024   2.074   1.349
 9556SOL    HW229568   0.164   2.079   1.265
 9557SOL     OW29569   5.609   2.673   1.574
 9557SOL    HW129570   5.708   2.677   1.558
 9557SOL    HW229571   5.583   2.748   1.635
 9558SOL     OW29572   5.800   4.595   1.722
 9558SOL    HW129573   5.749   4.672   1.761
 9558SOL    HW229574   5.820   4.528   1.794
 9559SOL     OW29575   6.305   2.682   2.803
 9559SOL    HW129576   6.292   2.620   2.726
 9559SOL    HW229577   6.335   2.771   2.769
 9560SOL     OW29578   3.971   1.536   4.701
 9560SOL    HW129579   4.070   1.527   4.686
 9560SOL    HW229580   3.939   1.457   4.753
 9561SOL     OW29581   3.524   6.605   0.211
 9561SOL    HW129582   3.513   6.514   0.251
 9561SOL    HW229583   3.588   6.600   0.134
 9562SOL     OW29584   5.651   5.319   3.491
 9562SOL    HW129585   5.629   5.321   3.393
 9562SOL    HW229586   5.664   5.412   3.524
 9563SOL     OW29587   0.261   5.852   6.975
 9563SOL    HW129588   0.294   5.815   0.040
 9563SOL    HW229589   0.163   5.867   6.980
 9564SOL     OW29590   1.870   0.234   6.420
 9564SOL    HW129591   1.968   0.221   6.406
 9564SOL    HW229592   1.820   0.189   6.346
 9565SOL     OW29593   3.961   5.750   3.998
 9565SOL    HW129594   3.980   5.798   3.913
 9565SOL    HW229595   3.863   5.757   4.020
 9566SOL     OW29596   3.004   4.756   5.508
 9566SOL    HW129597   2.951   4.811   5.444
 9566SOL    HW229598   3.056   4.687   5.458
 9567SOL     OW29599   6.266   5.664   5.336
 9567SOL    HW129600   6.353   5.680   5.382
 9567SOL    HW229601   6.260   5.568   5.307
 9568SOL     OW29602   5.324   4.084   6.090
 9568SOL    HW129603   5.394   4.139   6.134
 9568SOL    HW229604   5.328   3.990   6.124
 9569SOL     OW29605   5.075   6.610   1.791
 9569SOL    HW129606   5.129   6.692   1.771
 9569SOL    HW229607   5.130   6.546   1.843
 9570SOL     OW29608   0.867   0.543   6.879
 9570SOL    HW129609   0.925   0.594   6.815
 9570SOL    HW229610   0.828   0.605   6.947
 9571SOL     OW29611   2.510   2.853   0.023
 9571SOL    HW129612   2.496   2.842   6.946
 9571SOL    HW229613   2.453   2.928   0.057
 9572SOL     OW29614   0.567   4.269   0.690
 9572SOL    HW129615   0.551   4.214   0.608
 9572SOL    HW229616   0.621   4.349   0.667
 9573SOL     OW29617   6.019   1.781   2.245
 9573SOL    HW129618   5.968   1.739   2.170
 9573SOL    HW229619   6.107   1.813   2.210
 9574SOL     OW29620   2.303   2.098   3.930
 9574SOL    HW129621   2.346   2.139   4.011
 9574SOL    HW229622   2.331   2.003   3.921
 9575SOL     OW29623   4.726   1.176   2.347
 9575SOL    HW129624   4.796   1.207   2.411
 9575SOL    HW229625   4.753   1.199   2.253
 9576SOL     OW29626   3.949   2.227   5.416
 9576SOL    HW129627   4.016   2.195   5.482
 9576SOL    HW229628   3.902   2.149   5.374
 9577SOL     OW29629   0.560   6.490   3.121
 9577SOL    HW129630   0.512   6.438   3.051
 9577SOL    HW229631   0.555   6.588   3.099
 9578SOL     OW29632   6.285   3.899   1.993
 9578SOL    HW129633   6.267   3.976   2.055
 9578SOL    HW229634   6.298   3.933   1.900
 9579SOL     OW29635   1.646   6.236   2.875
 9579SOL    HW129636   1.584   6.248   2.798
 9579SOL    HW229637   1.593   6.218   2.958
 9580SOL     OW29638   4.347   3.650   5.674
 9580SOL    HW129639   4.410   3.619   5.746
 9580SOL    HW229640   4.350   3.749   5.666
 9581SOL     OW29641   1.564   5.443   5.832
 9581SOL    HW129642   1.640   5.494   5.871
 9581SOL    HW229643   1.478   5.476   5.870
 9582SOL     OW29644   4.260   4.672   3.563
 9582SOL    HW129645   4.291   4.620   3.484
 9582SOL    HW229646   4.236   4.765   3.535
 9583SOL     OW29647   2.211   4.687   1.841
 9583SOL    HW129648   2.266   4.683   1.758
 9583SOL    HW229649   2.120   4.723   1.819
 9584SOL     OW29650   6.081   5.271   6.912
 9584SOL    HW129651   5.981   5.269   6.902
 9584SOL    HW229652   6.122   5.311   6.831
 9585SOL     OW29653   0.399   7.017   3.158
 9585SOL    HW129654   0.389   6.929   3.112
 9585SOL    HW229655   0.309   0.039   3.166
 9586SOL     OW29656   5.345   2.783   2.466
 9586SOL    HW129657   5.387   2.695   2.443
 9586SOL    HW229658   5.248   2.781   2.441
 9587SOL     OW29659   4.846   6.439   2.666
 9587SOL    HW129660   4.842   6.419   2.568
 9587SOL    HW229661   4.940   6.462   2.692
 9588SOL     OW29662   6.989   0.160   3.473
 9588SOL    HW129663   6.915   0.204   3.523
 9588SOL    HW229664   0.016   0.228   3.418
 9589SOL     OW29665   2.584   1.580   5.252
 9589SOL    HW129666   2.654   1.646   5.226
 9589SOL    HW229667   2.540   1.609   5.337
 9590SOL     OW29668   0.443   4.864   4.206
 9590SOL    HW129669   0.536   4.853   4.170
 9590SOL    HW229670   0.446   4.866   4.306
 9591SOL     OW29671   1.498   4.663   3.130
 9591SOL    HW129672   1.426   4.645   3.198
 9591SOL    HW229673   1.463   4.727   3.061
 9592SOL     OW29674   4.497   5.996   1.549
 9592SOL    HW129675   4.533   5.925   1.488
 9592SOL    HW229676   4.500   6.084   1.503
 9593SOL     OW29677   1.703   2.968   3.842
 9593SOL    HW129678   1.740   2.889   3.794
 9593SOL    HW229679   1.696   2.948   3.940
 9594SOL     OW29680   6.063   6.922   1.785
 9594SOL    HW129681   5.992   6.938   1.853
 9594SOL    HW229682   6.021   6.911   1.695
 9595SOL     OW29683   1.078   4.513   4.737
 9595SOL    HW129684   1.085   4.580   4.811
 9595SOL    HW229685   1.098   4.558   4.650
 9596SOL     OW29686   5.181   5.289   2.698
 9596SOL    HW129687   5.251   5.221   2.719
 9596SOL    HW229688   5.174   5.300   2.599
 9597SOL     OW29689   1.790   4.520   0.883
 9597SOL    HW129690   1.754   4.550   0.972
 9597SOL    HW229691   1.841   4.596   0.841
 9598SOL     OW29692   1.498   5.898   5.649
 9598SOL    HW129693   1.492   5.994   5.676
 9598SOL    HW229694   1.574   5.886   5.585
 9599SOL     OW29695   4.410   1.450   4.291
 9599SOL    HW129696   4.431   1.487   4.200
 9599SOL    HW229697   4.390   1.352   4.284
 9600SOL     OW29698   1.915   5.747   0.178
 9600SOL    HW129699   1.934   5.691   0.097
 9600SOL    HW229700   1.930   5.843   0.156
 9601SOL     OW29701   0.778   6.726   6.404
 9601SOL    HW129702   0.816   6.739   6.313
 9601SOL    HW229703   0.678   6.730   6.400
 9602SOL     OW29704   0.803   5.540   0.273
 9602SOL    HW129705   0.881   5.523   0.333
 9602SOL    HW229706   0.786   5.638   0.267
 9603SOL     OW29707   1.066   4.998   3.456
 9603SOL    HW129708   1.047   5.065   3.384
 9603SOL    HW229709   1.022   4.912   3.433
 9604SOL     OW29710   6.737   0.144   0.474
 9604SOL    HW129711   6.677   0.072   0.507
 9604SOL    HW229712   6.823   0.141   0.525
 9605SOL     OW29713   2.510   5.607   0.171
 9605SOL    HW129714   2.487   5.544   0.245
 9605SOL    HW229715   2.476   5.570   0.084
 9606SOL     OW29716   6.210   0.711   5.236
 9606SOL    HW129717   6.115   0.741   5.233
 9606SOL    HW229718   6.213   0.613   5.257
 9607SOL     OW29719   7.005   2.082   2.718
 9607SOL    HW129720   7.018   2.114   2.624
 9607SOL    HW229721   6.923   2.026   2.723
 9608SOL     OW29722   6.111   0.258   2.464
 9608SOL    HW129723   6.130   0.210   2.550
 9608SOL    HW229724   6.179   0.231   2.396
 9609SOL     OW29725   1.505   2.193   3.864
 9609SOL    HW129726   1.565   2.274   3.862
 9609SOL    HW229727   1.558   2.114   3.895
 9610SOL     OW29728   3.919   1.295   6.072
 9610SOL    HW129729   3.844   1.231   6.086
 9610SOL    HW229730   3.950   1.290   5.977
 9611SOL     OW29731   6.229   5.326   0.779
 9611SOL    HW129732   6.292   5.355   0.852
 9611SOL    HW229733   6.154   5.273   0.819
 9612SOL     OW29734   4.912   3.411   2.792
 9612SOL    HW129735   4.934   3.356   2.711
 9612SOL    HW229736   4.876   3.351   2.864
 9613SOL     OW29737   6.225   6.655   5.338
 9613SOL    HW129738   6.158   6.723   5.369
 9613SOL    HW229739   6.299   6.702   5.289
 9614SOL     OW29740   3.429   2.905   1.921
 9614SOL    HW129741   3.488   2.876   1.846
 9614SOL    HW229742   3.385   2.991   1.898
 9615SOL     OW29743   0.655   6.160   3.870
 9615SOL    HW129744   0.728   6.151   3.937
 9615SOL    HW229745   0.683   6.118   3.783
 9616SOL     OW29746   1.670   3.184   1.758
 9616SOL    HW129747   1.635   3.092   1.776
 9616SOL    HW229748   1.706   3.224   1.842
 9617SOL     OW29749   0.030   2.862   2.352
 9617SOL    HW129750   0.122   2.858   2.313
 9617SOL    HW229751   0.036   2.875   2.451
 9618SOL     OW29752   4.432   4.114   0.371
 9618SOL    HW129753   4.356   4.145   0.428
 9618SOL    HW229754   4.399   4.094   0.279
 9619SOL     OW29755   1.321   6.946   1.096
 9619SOL    HW129756   1.342   6.976   1.190
 9619SOL    HW229757   1.240   6.994   1.063
 9620SOL     OW29758   3.827   2.102   0.002
 9620SOL    HW129759   3.765   2.058   0.067
 9620SOL    HW229760   3.786   2.186   6.990
 9621SOL     OW29761   0.663   1.430   2.271
 9621SOL    HW129762   0.650   1.526   2.246
 9621SOL    HW229763   0.755   1.401   2.244
 9622SOL     OW29764   0.224   5.989   6.283
 9622SOL    HW129765   0.223   6.073   6.337
 9622SOL    HW229766   0.313   5.945   6.293
 9623SOL     OW29767   4.037   6.349   5.626
 9623SOL    HW129768   4.074   6.360   5.718
 9623SOL    HW229769   4.044   6.436   5.577
 9624SOL     OW29770   4.465   5.400   4.602
 9624SOL    HW129771   4.435   5.330   4.667
 9624SOL    HW229772   4.418   5.387   4.515
 9625SOL     OW29773   4.995   3.982   6.416
 9625SOL    HW129774   5.062   4.020   6.480
 9625SOL    HW229775   5.010   3.884   6.406
 9626SOL     OW29776   2.460   2.460   6.925
 9626SOL    HW129777   2.487   2.442   6.830
 9626SOL    HW229778   2.535   2.506   6.972
 9627SOL     OW29779   0.375   5.295   0.358
 9627SOL    HW129780   0.322   5.374   0.389
 9627SOL    HW229781   0.472   5.313   0.370
 9628SOL     OW29782   6.528   2.113   6.312
 9628SOL    HW129783   6.487   2.026   6.338
 9628SOL    HW229784   6.535   2.173   6.392
 9629SOL     OW29785   0.370   6.011   3.851
 9629SOL    HW129786   0.319   6.009   3.937
 9629SOL    HW229787   0.427   6.093   3.849
 9630SOL     OW29788   5.897   1.193   5.541
 9630SOL    HW129789   5.967   1.173   5.472
 9630SOL    HW229790   5.856   1.108   5.572
 9631SOL     OW29791   4.135   6.396   0.572
 9631SOL    HW129792   4.142   6.393   0.672
 9631SOL    HW229793   4.110   6.488   0.543
 9632SOL     OW29794   2.662   4.915   2.765
 9632SOL    HW129795   2.695   4.913   2.670
 9632SOL    HW229796   2.701   4.838   2.815
 9633SOL     OW29797   3.358   3.505   3.476
 9633SOL    HW129798   3.364   3.604   3.489
 9633SOL    HW229799   3.442   3.471   3.433
 9634SOL     OW29800   5.310   4.808   3.080
 9634SOL    HW129801   5.337   4.809   3.176
 9634SOL    HW229802   5.334   4.895   3.037
 9635SOL     OW29803   0.651   5.502   3.693
 9635SOL    HW129804   0.724   5.563   3.661
 9635SOL    HW229805   0.612   5.538   3.777
 9636SOL     OW29806   5.363   4.069   3.877
 9636SOL    HW129807   5.272   4.109   3.870
 9636SOL    HW229808   5.371   3.991   3.816
 9637SOL     OW29809   1.403   3.591   0.087
 9637SOL    HW129810   1.498   3.615   0.106
 9637SOL    HW229811   1.363   3.659   0.026
 9638SOL     OW29812   6.256   5.751   6.203
 9638SOL    HW129813   6.177   5.692   6.221
 9638SOL    HW229814   6.279   5.802   6.286
 9639SOL     OW29815   4.612   1.855   1.474
 9639SOL    HW129816   4.549   1.847   1.397
 9639SOL    HW229817   4.655   1.946   1.474
 9640SOL     OW29818   4.325   0.303   3.754
 9640SOL    HW129819   4.396   0.249   3.710
 9640SOL    HW229820   4.251   0.322   3.689
 9641SOL     OW29821   6.707   3.242   3.402
 9641SOL    HW129822   6.726   3.144   3.412
 9641SOL    HW229823   6.635   3.269   3.466
 9642SOL     OW29824   0.551   0.851   4.539
 9642SOL    HW129825   0.592   0.942   4.529
 9642SOL    HW229826   0.621   0.787   4.571
 9643SOL     OW29827   4.796   5.271   4.031
 9643SOL    HW129828   4.868   5.334   4.059
 9643SOL    HW229829   4.721   5.276   4.097
 9644SOL     OW29830   0.604   5.626   3.976
 9644SOL    HW129831   0.521   5.610   4.029
 9644SOL    HW229832   0.672   5.556   3.998
 9645SOL     OW29833   1.037   5.119   6.277
 9645SOL    HW129834   1.014   5.210   6.244
 9645SOL    HW229835   1.127   5.121   6.321
 9646SOL     OW29836   4.198   5.460   6.900
 9646SOL    HW129837   4.101   5.481   6.915
 9646SOL    HW229838   4.251   5.545   6.898
 9647SOL     OW29839   5.998   6.499   2.794
 9647SOL    HW129840   6.018   6.593   2.768
 9647SOL    HW229841   6.061   6.437   2.746
 9648SOL     OW29842   4.040   2.072   1.028
 9648SOL    HW129843   4.124   2.023   1.054
 9648SOL    HW229844   4.010   2.042   0.937
 9649SOL     OW29845   0.440   5.815   0.610
 9649SOL    HW129846   0.537   5.790   0.615
 9649SOL    HW229847   0.421   5.889   0.674
 9650SOL     OW29848   0.246   4.983   4.030
 9650SOL    HW129849   0.284   4.958   3.941
 9650SOL    HW229850   0.299   4.939   4.103
 9651SOL     OW29851   4.060   1.734   0.056
 9651SOL    HW129852   4.001   1.783   7.014
 9651SOL    HW229853   4.120   1.800   0.102
 9652SOL     OW29854   0.781   4.102   0.235
 9652SOL    HW129855   0.864   4.047   0.242
 9652SOL    HW229856   0.793   4.187   0.287
 9653SOL     OW29857   4.882   4.495   5.980
 9653SOL    HW129858   4.945   4.491   5.902
 9653SOL    HW229859   4.790   4.515   5.948
 9654SOL     OW29860   3.347   3.590   3.111
 9654SOL    HW129861   3.310   3.657   3.175
 9654SOL    HW229862   3.293   3.506   3.114
 9655SOL     OW29863   4.357   1.734   0.862
 9655SOL    HW129864   4.432   1.785   0.903
 9655SOL    HW229865   4.328   1.779   0.778
 9656SOL     OW29866   5.682   4.110   6.266
 9656SOL    HW129867   5.733   4.087   6.349
 9656SOL    HW229868   5.587   4.132   6.290
 9657SOL     OW29869   5.732   4.102   4.186
 9657SOL    HW129870   5.706   4.128   4.093
 9657SOL    HW229871   5.825   4.067   4.187
 9658SOL     OW29872   4.859   1.564   1.893
 9658SOL    HW129873   4.833   1.658   1.869
 9658SOL    HW229874   4.920   1.528   1.823
 9659SOL     OW29875   2.434   2.761   6.777
 9659SOL    HW129876   2.375   2.694   6.731
 9659SOL    HW229877   2.462   2.831   6.711
 9660SOL     OW29878   1.707   6.232   1.488
 9660SOL    HW129879   1.750   6.183   1.563
 9660SOL    HW229880   1.680   6.167   1.416
 9661SOL     OW29881   4.000   3.969   1.456
 9661SOL    HW129882   3.991   4.066   1.436
 9661SOL    HW229883   4.047   3.958   1.544
 9662SOL     OW29884   5.657   6.450   6.444
 9662SOL    HW129885   5.573   6.418   6.402
 9662SOL    HW229886   5.736   6.409   6.398
 9663SOL     OW29887   0.914   5.301   2.037
 9663SOL    HW129888   0.902   5.325   1.941
 9663SOL    HW229889   0.961   5.213   2.044
 9664SOL     OW29890   4.045   4.989   1.981
 9664SOL    HW129891   3.994   5.048   1.919
 9664SOL    HW229892   4.141   5.018   1.983
 9665SOL     OW29893   0.062   5.394   6.051
 9665SOL    HW129894   0.045   5.486   6.088
 9665SOL    HW229895   0.111   5.402   5.964
 9666SOL     OW29896   5.668   4.375   6.777
 9666SOL    HW129897   5.575   4.367   6.813
 9666SOL    HW229898   5.695   4.288   6.735
 9667SOL     OW29899   5.779   6.205   6.824
 9667SOL    HW129900   5.773   6.107   6.806
 9667SOL    HW229901   5.836   6.221   6.905
 9668SOL     OW29902   1.204   1.036   5.954
 9668SOL    HW129903   1.128   0.976   5.981
 9668SOL    HW229904   1.171   1.100   5.884
 9669SOL     OW29905   3.220   0.510   0.578
 9669SOL    HW129906   3.134   0.509   0.526
 9669SOL    HW229907   3.262   0.420   0.575
 9670SOL     OW29908   0.574   0.118   0.173
 9670SOL    HW129909   0.497   0.105   0.110
 9670SOL    HW229910   0.539   0.143   0.264
 9671SOL     OW29911   0.804   5.181   6.522
 9671SOL    HW129912   0.895   5.163   6.561
 9671SOL    HW229913   0.805   5.160   6.425
 9672SOL     OW29914   1.057   3.586   4.358
 9672SOL    HW129915   1.085   3.681   4.348
 9672SOL    HW229916   0.957   3.580   4.359
 9673SOL     OW29917   1.896   3.368   0.241
 9673SOL    HW129918   1.829   3.332   0.307
 9673SOL    HW229919   1.852   3.379   0.152
 9674SOL     OW29920   2.037   6.369   4.167
 9674SOL    HW129921   2.010   6.412   4.081
 9674SOL    HW229922   1.960   6.316   4.204
 9675SOL     OW29923   6.269   3.696   6.005
 9675SOL    HW129924   6.343   3.663   5.948
 9675SOL    HW229925   6.300   3.774   6.059
 9676SOL     OW29926   0.915   2.856   6.633
 9676SOL    HW129927   0.969   2.885   6.554
 9676SOL    HW229928   0.889   2.937   6.687
 9677SOL     OW29929   6.732   5.352   2.138
 9677SOL    HW129930   6.788   5.339   2.221
 9677SOL    HW229931   6.674   5.432   2.149
 9678SOL     OW29932   3.156   3.540   5.166
 9678SOL    HW129933   3.179   3.603   5.092
 9678SOL    HW229934   3.151   3.591   5.253
 9679SOL     OW29935   1.799   1.445   4.298
 9679SOL    HW129936   1.811   1.542   4.278
 9679SOL    HW229937   1.719   1.411   4.247
 9680SOL     OW29938   4.416   6.725   1.931
 9680SOL    HW129939   4.326   6.766   1.947
 9680SOL    HW229940   4.474   6.791   1.882
 9681SOL     OW29941   0.903   2.085   2.016
 9681SOL    HW129942   0.985   2.067   2.070
 9681SOL    HW229943   0.928   2.120   1.926
 9682SOL     OW29944   5.081   6.377   6.086
 9682SOL    HW129945   5.084   6.305   6.155
 9682SOL    HW229946   5.150   6.359   6.016
 9683SOL     OW29947   3.279   6.261   3.150
 9683SOL    HW129948   3.362   6.296   3.106
 9683SOL    HW229949   3.300   6.176   3.199
 9684SOL     OW29950   6.966   3.679   5.300
 9684SOL    HW129951   0.024   3.652   5.246
 9684SOL    HW229952   6.883   3.647   5.255
 9685SOL     OW29953   3.397   4.175   1.360
 9685SOL    HW129954   3.441   4.181   1.270
 9685SOL    HW229955   3.303   4.145   1.348
 9686SOL     OW29956   6.085   1.075   5.303
 9686SOL    HW129957   6.073   1.108   5.210
 9686SOL    HW229958   6.017   1.004   5.323
 9687SOL     OW29959   5.429   0.977   3.056
 9687SOL    HW129960   5.477   0.941   2.976
 9687SOL    HW229961   5.334   0.946   3.055
 9688SOL     OW29962   1.077   5.209   1.377
 9688SOL    HW129963   1.057   5.119   1.415
 9688SOL    HW229964   1.171   5.211   1.343
 9689SOL     OW29965   2.336   6.401   0.875
 9689SOL    HW129966   2.304   6.358   0.790
 9689SOL    HW229967   2.436   6.396   0.879
 9690SOL     OW29968   6.625   4.314   4.820
 9690SOL    HW129969   6.700   4.248   4.812
 9690SOL    HW229970   6.661   4.399   4.859
 9691SOL     OW29971   2.898   3.730   1.762
 9691SOL    HW129972   2.876   3.677   1.844
 9691SOL    HW229973   2.975   3.791   1.782
 9692SOL     OW29974   5.062   4.364   0.810
 9692SOL    HW129975   5.147   4.416   0.803
 9692SOL    HW229976   5.076   4.272   0.774
 9693SOL     OW29977   4.708   2.766   5.155
 9693SOL    HW129978   4.658   2.703   5.096
 9693SOL    HW229979   4.710   2.729   5.248
 9694SOL     OW29980   2.860   6.998   2.053
 9694SOL    HW129981   2.950   6.999   2.097
 9694SOL    HW229982   2.789   7.002   2.123
 9695SOL     OW29983   1.106   2.716   3.607
 9695SOL    HW129984   1.108   2.800   3.660
 9695SOL    HW229985   1.196   2.699   3.566
 9696SOL     OW29986   5.380   2.497   3.935
 9696SOL    HW129987   5.395   2.513   3.838
 9696SOL    HW229988   5.319   2.568   3.972
 9697SOL     OW29989   0.387   6.963   0.599
 9697SOL    HW129990   0.295   6.986   0.567
 9697SOL    HW229991   0.397   6.863   0.602
 9698SOL     OW29992   6.869   3.235   2.039
 9698SOL    HW129993   6.921   3.154   2.067
 9698SOL    HW229994   6.792   3.249   2.101
 9699SOL     OW29995   2.020   5.855   1.342
 9699SOL    HW129996   2.058   5.772   1.301
 9699SOL    HW229997   2.001   5.922   1.271
 9700SOL     OW29998   5.429   6.783   5.667
 9700SOL    HW129999   5.343   6.772   5.616
 9700SOL    HW230000   5.501   6.811   5.604
 9701SOL     OW30001   4.628   4.458   6.850
 9701SOL    HW130002   4.602   4.522   6.922
 9701SOL    HW230003   4.558   4.457   6.779
 9702SOL     OW30004   3.788   4.026   2.470
 9702SOL    HW130005   3.823   4.114   2.439
 9702SOL    HW230006   3.830   3.953   2.417
 9703SOL     OW30007   5.672   4.446   4.052
 9703SOL    HW130008   5.690   4.363   3.999
 9703SOL    HW230009   5.637   4.421   4.142
 9704SOL     OW30010   1.424   4.443   2.934
 9704SOL    HW130011   1.417   4.507   3.011
 9704SOL    HW230012   1.421   4.495   2.849
 9705SOL     OW30013   0.373   2.686   5.281
 9705SOL    HW130014   0.421   2.599   5.265
 9705SOL    HW230015   0.434   2.749   5.330
 9706SOL     OW30016   0.931   1.364   2.757
 9706SOL    HW130017   0.881   1.344   2.673
 9706SOL    HW230018   0.939   1.463   2.769
 9707SOL     OW30019   0.861   4.747   2.085
 9707SOL    HW130020   0.892   4.673   2.145
 9707SOL    HW230021   0.836   4.709   1.996
 9708SOL     OW30022   2.783   0.289   2.153
 9708SOL    HW130023   2.862   0.348   2.170
 9708SOL    HW230024   2.748   0.306   2.061
 9709SOL     OW30025   5.783   2.240   1.230
 9709SOL    HW130026   5.767   2.143   1.250
 9709SOL    HW230027   5.705   2.294   1.261
 9710SOL     OW30028   6.218   5.606   4.304
 9710SOL    HW130029   6.197   5.649   4.391
 9710SOL    HW230030   6.194   5.509   4.307
 9711SOL     OW30031   3.426   0.676   0.387
 9711SOL    HW130032   3.436   0.580   0.358
 9711SOL    HW230033   3.341   0.686   0.438
 9712SOL     OW30034   5.544   1.363   6.758
 9712SOL    HW130035   5.490   1.384   6.839
 9712SOL    HW230036   5.640   1.384   6.775
 9713SOL     OW30037   2.058   6.662   2.505
 9713SOL    HW130038   2.140   6.640   2.557
 9713SOL    HW230039   2.002   6.579   2.495
 9714SOL     OW30040   2.320   4.392   4.783
 9714SOL    HW130041   2.349   4.391   4.878
 9714SOL    HW230042   2.307   4.298   4.751
 9715SOL     OW30043   6.534   3.991   6.629
 9715SOL    HW130044   6.521   3.892   6.631
 9715SOL    HW230045   6.445   4.036   6.619
 9716SOL     OW30046   2.123   5.422   0.508
 9716SOL    HW130047   2.160   5.330   0.521
 9716SOL    HW230048   2.029   5.425   0.543
 9717SOL     OW30049   3.806   1.973   5.234
 9717SOL    HW130050   3.828   2.048   5.172
 9717SOL    HW230051   3.864   1.894   5.213
 9718SOL     OW30052   4.364   2.184   5.967
 9718SOL    HW130053   4.292   2.234   5.918
 9718SOL    HW230054   4.336   2.089   5.981
 9719SOL     OW30055   5.049   6.618   6.175
 9719SOL    HW130056   5.044   6.528   6.131
 9719SOL    HW230057   5.059   6.607   6.274
 9720SOL     OW30058   2.172   3.238   3.278
 9720SOL    HW130059   2.169   3.329   3.319
 9720SOL    HW230060   2.193   3.246   3.181
 9721SOL     OW30061   1.001   1.649   0.949
 9721SOL    HW130062   1.077   1.707   0.979
 9721SOL    HW230063   0.922   1.706   0.929
 9722SOL     OW30064   3.835   2.251   5.145
 9722SOL    HW130065   3.765   2.313   5.180
 9722SOL    HW230066   3.808   2.218   5.055
 9723SOL     OW30067   6.532   0.266   5.164
 9723SOL    HW130068   6.502   0.359   5.186
 9723SOL    HW230069   6.607   0.240   5.225
 9724SOL     OW30070   1.687   4.910   0.193
 9724SOL    HW130071   1.765   4.971   0.175
 9724SOL    HW230072   1.720   4.824   0.232
 9725SOL     OW30073   4.199   4.974   4.736
 9725SOL    HW130074   4.156   5.028   4.808
 9725SOL    HW230075   4.152   4.988   4.650
 9726SOL     OW30076   0.231   0.668   3.543
 9726SOL    HW130077   0.319   0.624   3.564
 9726SOL    HW230078   0.247   0.758   3.504
 9727SOL     OW30079   6.450   2.043   1.717
 9727SOL    HW130080   6.433   2.031   1.619
 9727SOL    HW230081   6.466   2.140   1.736
 9728SOL     OW30082   4.752   1.854   4.324
 9728SOL    HW130083   4.788   1.807   4.243
 9728SOL    HW230084   4.730   1.948   4.300
 9729SOL     OW30085   0.132   4.893   3.029
 9729SOL    HW130086   0.082   4.907   2.944
 9729SOL    HW230087   0.230   4.889   3.010
 9730SOL     OW30088   1.051   4.534   3.155
 9730SOL    HW130089   1.074   4.535   3.253
 9730SOL    HW230090   1.102   4.605   3.108
 9731SOL     OW30091   5.567   3.075   1.987
 9731SOL    HW130092   5.630   3.141   1.945
 9731SOL    HW230093   5.620   3.006   2.037
 9732SOL     OW30094   1.266   3.908   2.703
 9732SOL    HW130095   1.358   3.881   2.674
 9732SOL    HW230096   1.214   3.826   2.727
 9733SOL     OW30097   5.777   4.550   1.991
 9733SOL    HW130098   5.842   4.476   2.010
 9733SOL    HW230099   5.727   4.573   2.074
 9734SOL     OW30100   5.537   5.488   6.356
 9734SOL    HW130101   5.556   5.422   6.283
 9734SOL    HW230102   5.469   5.449   6.419
 9735SOL     OW30103   0.630   2.422   1.051
 9735SOL    HW130104   0.537   2.449   1.029
 9735SOL    HW230105   0.629   2.336   1.101
 9736SOL     OW30106   4.843   2.256   4.531
 9736SOL    HW130107   4.759   2.233   4.581
 9736SOL    HW230108   4.922   2.222   4.582
 9737SOL     OW30109   6.452   3.447   3.305
 9737SOL    HW130110   6.512   3.525   3.323
 9737SOL    HW230111   6.422   3.407   3.392
 9738SOL     OW30112   2.319   6.849   1.905
 9738SOL    HW130113   2.290   6.753   1.900
 9738SOL    HW230114   2.330   6.875   2.001
 9739SOL     OW30115   5.967   6.952   0.334
 9739SOL    HW130116   5.901   0.004   0.316
 9739SOL    HW230117   6.014   6.928   0.249
 9740SOL     OW30118   6.607   1.310   2.541
 9740SOL    HW130119   6.530   1.306   2.604
 9740SOL    HW230120   6.584   1.260   2.457
 9741SOL     OW30121   2.381   1.880   4.348
 9741SOL    HW130122   2.413   1.855   4.440
 9741SOL    HW230123   2.329   1.966   4.353
 9742SOL     OW30124   3.725   2.296   6.416
 9742SOL    HW130125   3.681   2.249   6.493
 9742SOL    HW230126   3.683   2.265   6.330
 9743SOL     OW30127   5.172   3.819   4.100
 9743SOL    HW130128   5.222   3.808   4.185
 9743SOL    HW230129   5.188   3.739   4.041
 9744SOL     OW30130   1.722   1.765   2.899
 9744SOL    HW130131   1.699   1.820   2.979
 9744SOL    HW230132   1.793   1.811   2.846
 9745SOL     OW30133   0.168   0.586   6.213
 9745SOL    HW130134   0.225   0.508   6.240
 9745SOL    HW230135   0.072   0.565   6.228
 9746SOL     OW30136   4.098   5.150   5.992
 9746SOL    HW130137   4.070   5.189   5.904
 9746SOL    HW230138   4.083   5.051   5.991
 9747SOL     OW30139   2.512   1.215   2.713
 9747SOL    HW130140   2.431   1.268   2.741
 9747SOL    HW230141   2.592   1.247   2.764
 9748SOL     OW30142   1.088   1.188   3.393
 9748SOL    HW130143   1.048   1.129   3.323
 9748SOL    HW230144   1.184   1.204   3.372
 9749SOL     OW30145   6.972   0.532   2.045
 9749SOL    HW130146   6.992   0.618   1.998
 9749SOL    HW230147   6.987   0.456   1.982
 9750SOL     OW30148   6.017   3.388   4.337
 9750SOL    HW130149   5.965   3.389   4.251
 9750SOL    HW230150   5.975   3.323   4.401
 9751SOL     OW30151   3.762   6.855   1.482
 9751SOL    HW130152   3.689   6.809   1.432
 9751SOL    HW230153   3.726   6.938   1.525
 9752SOL     OW30154   3.232   3.015   0.320
 9752SOL    HW130155   3.230   3.080   0.245
 9752SOL    HW230156   3.256   2.924   0.285
 9753SOL     OW30157   6.754   6.328   5.567
 9753SOL    HW130158   6.852   6.320   5.553
 9753SOL    HW230159   6.730   6.296   5.659
 9754SOL     OW30160   2.976   0.957   2.052
 9754SOL    HW130161   2.950   1.047   2.018
 9754SOL    HW230162   2.925   0.938   2.137
 9755SOL     OW30163   2.308   3.424   0.318
 9755SOL    HW130164   2.373   3.475   0.263
 9755SOL    HW230165   2.267   3.484   0.387
 9756SOL     OW30166   5.986   0.427   5.727
 9756SOL    HW130167   6.012   0.430   5.630
 9756SOL    HW230168   6.061   0.388   5.781
 9757SOL     OW30169   5.535   4.223   3.999
 9757SOL    HW130170   5.507   4.253   4.091
 9757SOL    HW230171   5.462   4.166   3.960
 9758SOL     OW30172   1.934   0.652   2.255
 9758SOL    HW130173   1.923   0.749   2.232
 9758SOL    HW230174   1.908   0.596   2.176
 9759SOL     OW30175   6.977   1.457   1.647
 9759SOL    HW130176   6.990   1.522   1.721
 9759SOL    HW230177   0.035   1.397   1.641
 9760SOL     OW30178   4.948   0.654   6.846
 9760SOL    HW130179   4.994   0.719   6.907
 9760SOL    HW230180   5.014   0.616   6.781
 9761SOL     OW30181   1.557   2.357   1.276
 9761SOL    HW130182   1.509   2.295   1.214
 9761SOL    HW230183   1.570   2.312   1.364
 9762SOL     OW30184   2.512   1.290   5.253
 9762SOL    HW130185   2.538   1.227   5.327
 9762SOL    HW230186   2.514   1.384   5.288
 9763SOL     OW30187   6.590   1.844   1.342
 9763SOL    HW130188   6.518   1.818   1.406
 9763SOL    HW230189   6.549   1.887   1.261
 9764SOL     OW30190   0.110   1.884   2.869
 9764SOL    HW130191   0.022   1.845   2.897
 9764SOL    HW230192   0.096   1.975   2.830
 9765SOL     OW30193   6.642   0.269   1.909
 9765SOL    HW130194   6.571   0.205   1.882
 9765SOL    HW230195   6.604   0.335   1.974
 9766SOL     OW30196   1.961   2.153   3.627
 9766SOL    HW130197   1.953   2.056   3.647
 9766SOL    HW230198   2.043   2.189   3.672
 9767SOL     OW30199   2.175   1.633   5.277
 9767SOL    HW130200   2.233   1.601   5.201
 9767SOL    HW230201   2.132   1.555   5.321
 9768SOL     OW30202   5.577   3.243   0.692
 9768SOL    HW130203   5.534   3.222   0.780
 9768SOL    HW230204   5.519   3.307   0.642
 9769SOL     OW30205   3.638   1.799   5.807
 9769SOL    HW130206   3.589   1.764   5.727
 9769SOL    HW230207   3.701   1.871   5.779
 9770SOL     OW30208   2.477   2.842   6.157
 9770SOL    HW130209   2.407   2.874   6.221
 9770SOL    HW230210   2.458   2.748   6.130
 9771SOL     OW30211   3.292   0.042   2.202
 9771SOL    HW130212   3.264   0.080   2.290
 9771SOL    HW230213   3.390   0.020   2.205
 9772SOL     OW30214   1.055   0.745   1.088
 9772SOL    HW130215   0.978   0.796   1.050
 9772SOL    HW230216   1.136   0.803   1.088
 9773SOL     OW30217   5.605   5.163   2.196
 9773SOL    HW130218   5.658   5.248   2.193
 9773SOL    HW230219   5.659   5.088   2.160
 9774SOL     OW30220   1.198   4.348   5.365
 9774SOL    HW130221   1.230   4.254   5.377
 9774SOL    HW230222   1.274   4.405   5.332
 9775SOL     OW30223   2.459   1.494   3.516
 9775SOL    HW130224   2.551   1.483   3.553
 9775SOL    HW230225   2.461   1.477   3.418
 9776SOL     OW30226   2.378   5.036   0.327
 9776SOL    HW130227   2.419   4.949   0.354
 9776SOL    HW230228   2.443   5.110   0.345
 9777SOL     OW30229   4.170   0.754   5.433
 9777SOL    HW130230   4.077   0.720   5.420
 9777SOL    HW230231   4.224   0.686   5.484
 9778SOL     OW30232   0.470   4.355   3.588
 9778SOL    HW130233   0.450   4.275   3.531
 9778SOL    HW230234   0.560   4.392   3.564
 9779SOL     OW30235   2.444   0.934   3.278
 9779SOL    HW130236   2.346   0.950   3.293
 9779SOL    HW230237   2.491   0.926   3.366
 9780SOL     OW30238   0.946   2.461   2.080
 9780SOL    HW130239   1.033   2.445   2.033
 9780SOL    HW230240   0.957   2.535   2.146
 9781SOL     OW30241   1.763   2.091   2.793
 9781SOL    HW130242   1.721   2.061   2.879
 9781SOL    HW230243   1.692   2.100   2.723
 9782SOL     OW30244   0.161   2.360   1.007
 9782SOL    HW130245   0.193   2.330   0.917
 9782SOL    HW230246   0.170   2.285   1.073
 9783SOL     OW30247   4.104   1.159   2.991
 9783SOL    HW130248   4.180   1.184   2.930
 9783SOL    HW230249   4.120   1.198   3.082
 9784SOL     OW30250   1.589   1.307   6.488
 9784SOL    HW130251   1.584   1.210   6.510
 9784SOL    HW230252   1.516   1.330   6.424
 9785SOL     OW30253   0.294   3.971   4.344
 9785SOL    HW130254   0.324   3.946   4.252
 9785SOL    HW230255   0.346   3.918   4.411
 9786SOL     OW30256   2.231   4.040   6.814
 9786SOL    HW130257   2.207   4.108   6.744
 9786SOL    HW230258   2.235   3.949   6.772
 9787SOL     OW30259   3.173   3.955   2.956
 9787SOL    HW130260   3.154   4.049   2.925
 9787SOL    HW230261   3.256   3.922   2.911
 9788SOL     OW30262   4.012   0.001   2.038
 9788SOL    HW130263   3.924   6.990   2.074
 9788SOL    HW230264   4.013   0.101   2.037
 9789SOL     OW30265   3.865   1.848   6.932
 9789SOL    HW130266   3.857   1.937   6.976
 9789SOL    HW230267   3.775   1.818   6.902
 9790SOL     OW30268   6.001   5.457   4.619
 9790SOL    HW130269   6.028   5.382   4.559
 9790SOL    HW230270   6.072   5.470   4.689
 9791SOL     OW30271   0.916   0.014   1.296
 9791SOL    HW130272   0.974   0.017   1.214
 9791SOL    HW230273   0.840   6.973   1.280
 9792SOL     OW30274   4.098   5.155   0.789
 9792SOL    HW130275   4.066   5.111   0.873
 9792SOL    HW230276   4.196   5.137   0.777
 9793SOL     OW30277   5.859   0.924   3.530
 9793SOL    HW130278   5.915   0.965   3.459
 9793SOL    HW230279   5.878   0.969   3.618
 9794SOL     OW30280   4.464   4.803   4.725
 9794SOL    HW130281   4.369   4.826   4.704
 9794SOL    HW230282   4.467   4.720   4.780
 9795SOL     OW30283   1.639   3.381   3.346
 9795SOL    HW130284   1.685   3.370   3.434
 9795SOL    HW230285   1.594   3.295   3.321
 9796SOL     OW30286   3.696   4.128   4.219
 9796SOL    HW130287   3.711   4.128   4.318
 9796SOL    HW230288   3.782   4.107   4.172
 9797SOL     OW30289   2.632   5.323   0.247
 9797SOL    HW130290   2.614   5.336   0.344
 9797SOL    HW230291   2.719   5.365   0.223
 9798SOL     OW30292   6.999   3.809   6.752
 9798SOL    HW130293   6.949   3.858   6.823
 9798SOL    HW230294   7.004   3.712   6.776
 9799SOL     OW30295   2.630   0.256   6.420
 9799SOL    HW130296   2.678   0.221   6.340
 9799SOL    HW230297   2.697   0.280   6.491
 9800SOL     OW30298   6.593   3.259   4.457
 9800SOL    HW130299   6.554   3.298   4.540
 9800SOL    HW230300   6.668   3.317   4.425
 9801SOL     OW30301   6.363   6.495   0.020
 9801SOL    HW130302   6.271   6.470   7.013
 9801SOL    HW230303   6.365   6.509   0.119
 9802SOL     OW30304   3.761   4.195   0.206
 9802SOL    HW130305   3.703   4.210   0.286
 9802SOL    HW230306   3.804   4.105   0.213
 9803SOL     OW30307   1.088   3.633   6.738
 9803SOL    HW130308   0.990   3.647   6.745
 9803SOL    HW230309   1.112   3.608   6.644
 9804SOL     OW30310   0.572   5.782   2.685
 9804SOL    HW130311   0.500   5.830   2.636
 9804SOL    HW230312   0.534   5.737   2.766
 9805SOL     OW30313   0.836   6.264   4.080
 9805SOL    HW130314   0.830   6.287   4.177
 9805SOL    HW230315   0.891   6.181   4.069
 9806SOL     OW30316   3.843   1.503   0.040
 9806SOL    HW130317   3.812   1.575   7.000
 9806SOL    HW230318   3.878   1.545   0.124
 9807SOL     OW30319   3.895   2.985   2.553
 9807SOL    HW130320   3.842   2.990   2.469
 9807SOL    HW230321   3.989   3.013   2.535
 9808SOL     OW30322   4.136   5.518   2.595
 9808SOL    HW130323   4.133   5.611   2.557
 9808SOL    HW230324   4.142   5.523   2.695
 9809SOL     OW30325   6.677   3.637   0.727
 9809SOL    HW130326   6.697   3.641   0.629
 9809SOL    HW230327   6.678   3.542   0.758
 9810SOL     OW30328   3.088   2.149   0.086
 9810SOL    HW130329   3.145   2.134   0.005
 9810SOL    HW230330   3.045   2.063   0.114
 9811SOL     OW30331   5.624   3.652   4.276
 9811SOL    HW130332   5.643   3.584   4.346
 9811SOL    HW230333   5.539   3.700   4.299
 9812SOL     OW30334   3.652   6.303   5.558
 9812SOL    HW130335   3.733   6.246   5.546
 9812SOL    HW230336   3.678   6.391   5.597
 9813SOL     OW30337   5.314   0.889   1.578
 9813SOL    HW130338   5.387   0.956   1.573
 9813SOL    HW230339   5.318   0.829   1.499
 9814SOL     OW30340   5.764   1.251   0.208
 9814SOL    HW130341   5.676   1.285   0.241
 9814SOL    HW230342   5.819   1.328   0.175
 9815SOL     OW30343   4.454   2.500   4.535
 9815SOL    HW130344   4.372   2.483   4.480
 9815SOL    HW230345   4.532   2.514   4.474
 9816SOL     OW30346   2.378   0.294   0.406
 9816SOL    HW130347   2.298   0.331   0.359
 9816SOL    HW230348   2.449   0.364   0.411
 9817SOL     OW30349   6.403   6.749   2.716
 9817SOL    HW130350   6.433   6.730   2.623
 9817SOL    HW230351   6.426   6.671   2.775
 9818SOL     OW30352   6.025   2.885   4.645
 9818SOL    HW130353   6.008   2.969   4.592
 9818SOL    HW230354   5.963   2.813   4.613
 9819SOL     OW30355   4.010   0.670   2.399
 9819SOL    HW130356   3.938   0.721   2.352
 9819SOL    HW230357   4.090   0.729   2.412
 9820SOL     OW30358   4.674   3.041   5.598
 9820SOL    HW130359   4.579   3.029   5.568
 9820SOL    HW230360   4.679   3.038   5.698
 9821SOL     OW30361   6.560   4.921   0.592
 9821SOL    HW130362   6.546   4.994   0.525
 9821SOL    HW230363   6.656   4.918   0.620
 9822SOL     OW30364   0.723   7.001   2.179
 9822SOL    HW130365   0.693   6.915   2.221
 9822SOL    HW230366   0.761   0.039   2.249
 9823SOL     OW30367   3.820   0.771   1.534
 9823SOL    HW130368   3.863   0.844   1.481
 9823SOL    HW230369   3.738   0.740   1.488
 9824SOL     OW30370   1.287   3.809   5.982
 9824SOL    HW130371   1.339   3.790   5.899
 9824SOL    HW230372   1.193   3.777   5.970
 9825SOL     OW30373   3.992   4.853   5.110
 9825SOL    HW130374   3.974   4.951   5.110
 9825SOL    HW230375   3.942   4.810   5.186
 9826SOL     OW30376   4.909   0.610   5.692
 9826SOL    HW130377   4.832   0.640   5.749
 9826SOL    HW230378   4.988   0.590   5.749
 9827SOL     OW30379   1.558   4.384   4.549
 9827SOL    HW130380   1.500   4.366   4.469
 9827SOL    HW230381   1.548   4.310   4.615
 9828SOL     OW30382   3.392   2.846   6.456
 9828SOL    HW130383   3.297   2.848   6.426
 9828SOL    HW230384   3.398   2.874   6.552
 9829SOL     OW30385   2.997   4.538   0.170
 9829SOL    HW130386   2.985   4.446   0.206
 9829SOL    HW230387   2.945   4.603   0.225
 9830SOL     OW30388   5.885   0.759   0.812
 9830SOL    HW130389   5.978   0.748   0.777
 9830SOL    HW230390   5.856   0.854   0.798
 9831SOL     OW30391   6.522   6.358   1.378
 9831SOL    HW130392   6.464   6.279   1.360
 9831SOL    HW230393   6.469   6.430   1.422
 9832SOL     OW30394   4.566   4.880   1.116
 9832SOL    HW130395   4.545   4.962   1.062
 9832SOL    HW230396   4.512   4.803   1.083
 9833SOL     OW30397   3.485   3.873   4.892
 9833SOL    HW130398   3.392   3.842   4.914
 9833SOL    HW230399   3.485   3.971   4.873
 9834SOL     OW30400   0.540   3.134   4.226
 9834SOL    HW130401   0.562   3.189   4.307
 9834SOL    HW230402   0.552   3.189   4.144
 9835SOL     OW30403   4.994   2.104   4.122
 9835SOL    HW130404   4.979   2.005   4.119
 9835SOL    HW230405   5.030   2.135   4.034
 9836SOL     OW30406   4.865   5.167   3.020
 9836SOL    HW130407   4.884   5.261   3.046
 9836SOL    HW230408   4.803   5.126   3.088
 9837SOL     OW30409   2.304   6.262   4.239
 9837SOL    HW130410   2.303   6.166   4.267
 9837SOL    HW230411   2.212   6.288   4.207
 9838SOL     OW30412   0.763   5.741   6.343
 9838SOL    HW130413   0.806   5.792   6.269
 9838SOL    HW230414   0.831   5.723   6.415
 9839SOL     OW30415   6.908   1.993   2.123
 9839SOL    HW130416   6.850   1.956   2.195
 9839SOL    HW230417   6.986   2.041   2.164
 9840SOL     OW30418   6.527   0.799   1.299
 9840SOL    HW130419   6.601   0.854   1.259
 9840SOL    HW230420   6.508   0.721   1.240
 9841SOL     OW30421   1.793   3.637   4.450
 9841SOL    HW130422   1.883   3.617   4.488
 9841SOL    HW230423   1.801   3.656   4.352
 9842SOL     OW30424   3.318   3.148   2.367
 9842SOL    HW130425   3.221   3.167   2.352
 9842SOL    HW230426   3.329   3.050   2.388
 9843SOL     OW30427   6.410   2.422   2.172
 9843SOL    HW130428   6.374   2.363   2.244
 9843SOL    HW230429   6.354   2.505   2.165
 9844SOL     OW30430   4.930   0.194   2.266
 9844SOL    HW130431   4.860   0.254   2.306
 9844SOL    HW230432   4.961   0.128   2.334
 9845SOL     OW30433   1.409   1.984   3.686
 9845SOL    HW130434   1.441   1.974   3.592
 9845SOL    HW230435   1.488   1.985   3.748
 9846SOL     OW30436   2.950   3.514   2.957
 9846SOL    HW130437   2.927   3.490   3.052
 9846SOL    HW230438   2.961   3.613   2.949
 9847SOL     OW30439   2.017   3.861   5.885
 9847SOL    HW130440   1.928   3.892   5.852
 9847SOL    HW230441   2.071   3.939   5.917
 9848SOL     OW30442   5.086   3.171   6.611
 9848SOL    HW130443   5.050   3.229   6.684
 9848SOL    HW230444   5.016   3.105   6.582
 9849SOL     OW30445   0.097   6.889   6.377
 9849SOL    HW130446   0.109   6.899   6.476
 9849SOL    HW230447   0.146   6.963   6.330
 9850SOL     OW30448   3.950   5.958   2.416
 9850SOL    HW130449   3.902   5.898   2.352
 9850SOL    HW230450   3.913   6.051   2.410
 9851SOL     OW30451   5.641   1.762   5.238
 9851SOL    HW130452   5.547   1.795   5.228
 9851SOL    HW230453   5.643   1.663   5.224
 9852SOL     OW30454   5.103   1.494   3.737
 9852SOL    HW130455   5.185   1.518   3.789
 9852SOL    HW230456   5.048   1.576   3.721
 9853SOL     OW30457   6.491   4.038   2.702
 9853SOL    HW130458   6.512   4.116   2.760
 9853SOL    HW230459   6.449   4.069   2.617
 9854SOL     OW30460   5.112   5.502   3.846
 9854SOL    HW130461   5.204   5.529   3.876
 9854SOL    HW230462   5.117   5.416   3.795
 9855SOL     OW30463   1.132   3.822   1.720
 9855SOL    HW130464   1.048   3.873   1.707
 9855SOL    HW230465   1.162   3.783   1.633
 9856SOL     OW30466   3.734   2.892   0.749
 9856SOL    HW130467   3.786   2.851   0.823
 9856SOL    HW230468   3.638   2.899   0.776
 9857SOL     OW30469   5.514   3.769   3.160
 9857SOL    HW130470   5.521   3.848   3.098
 9857SOL    HW230471   5.562   3.691   3.119
 9858SOL     OW30472   5.381   0.870   1.873
 9858SOL    HW130473   5.382   0.861   1.774
 9858SOL    HW230474   5.305   0.818   1.911
 9859SOL     OW30475   5.997   0.334   2.237
 9859SOL    HW130476   6.039   0.307   2.323
 9859SOL    HW230477   6.027   0.273   2.164
 9860SOL     OW30478   0.579   1.173   2.180
 9860SOL    HW130479   0.560   1.141   2.272
 9860SOL    HW230480   0.598   1.271   2.182
 9861SOL     OW30481   4.042   6.268   4.527
 9861SOL    HW130482   4.039   6.191   4.591
 9861SOL    HW230483   3.954   6.317   4.530
 9862SOL     OW30484   1.447   2.660   1.026
 9862SOL    HW130485   1.442   2.621   0.934
 9862SOL    HW230486   1.526   2.622   1.074
 9863SOL     OW30487   3.470   6.792   2.466
 9863SOL    HW130488   3.419   6.735   2.530
 9863SOL    HW230489   3.546   6.740   2.427
 9864SOL     OW30490   5.341   6.135   2.226
 9864SOL    HW130491   5.241   6.132   2.225
 9864SOL    HW230492   5.376   6.082   2.149
 9865SOL     OW30493   0.348   0.621   4.050
 9865SOL    HW130494   0.437   0.589   4.081
 9865SOL    HW230495   0.284   0.545   4.048
 9866SOL     OW30496   4.806   4.046   4.058
 9866SOL    HW130497   4.748   4.107   4.003
 9866SOL    HW230498   4.818   4.085   4.149
 9867SOL     OW30499   4.439   1.182   7.020
 9867SOL    HW130500   4.357   1.238   7.009
 9867SOL    HW230501   4.413   1.087   0.010
 9868SOL     OW30502   0.154   4.631   0.354
 9868SOL    HW130503   0.071   4.600   0.399
 9868SOL    HW230504   0.215   4.553   0.338
 9869SOL     OW30505   1.612   4.359   3.143
 9869SOL    HW130506   1.701   4.313   3.136
 9869SOL    HW230507   1.568   4.361   3.053
 9870SOL     OW30508   5.286   4.955   2.546
 9870SOL    HW130509   5.186   4.949   2.554
 9870SOL    HW230510   5.320   4.878   2.493
 9871SOL     OW30511   2.374   0.753   5.064
 9871SOL    HW130512   2.450   0.801   5.107
 9871SOL    HW230513   2.407   0.700   4.986
 9872SOL     OW30514   2.624   4.745   3.529
 9872SOL    HW130515   2.723   4.744   3.511
 9872SOL    HW230516   2.576   4.779   3.448
 9873SOL     OW30517   1.415   2.522   0.393
 9873SOL    HW130518   1.318   2.510   0.371
 9873SOL    HW230519   1.427   2.609   0.443
 9874SOL     OW30520   0.634   3.177   3.671
 9874SOL    HW130521   0.717   3.127   3.643
 9874SOL    HW230522   0.555   3.138   3.625
 9875SOL     OW30523   0.380   0.775   2.991
 9875SOL    HW130524   0.315   0.841   2.952
 9875SOL    HW230525   0.472   0.799   2.963
 9876SOL     OW30526   6.740   6.709   2.533
 9876SOL    HW130527   6.643   6.714   2.511
 9876SOL    HW230528   6.790   6.675   2.454
 9877SOL     OW30529   3.135   6.598   2.792
 9877SOL    HW130530   3.128   6.688   2.835
 9877SOL    HW230531   3.078   6.596   2.710
 9878SOL     OW30532   0.957   5.951   5.674
 9878SOL    HW130533   1.041   5.897   5.677
 9878SOL    HW230534   0.912   5.936   5.586
 9879SOL     OW30535   4.358   5.717   5.289
 9879SOL    HW130536   4.313   5.689   5.374
 9879SOL    HW230537   4.445   5.761   5.310
 9880SOL     OW30538   1.349   1.912   5.853
 9880SOL    HW130539   1.426   1.849   5.857
 9880SOL    HW230540   1.264   1.861   5.846
 9881SOL     OW30541   0.700   2.363   6.031
 9881SOL    HW130542   0.780   2.424   6.039
 9881SOL    HW230543   0.700   2.300   6.109
 9882SOL     OW30544   1.287   2.302   3.646
 9882SOL    HW130545   1.345   2.279   3.725
 9882SOL    HW230546   1.243   2.219   3.612
 9883SOL     OW30547   1.576   0.888   2.304
 9883SOL    HW130548   1.613   0.811   2.356
 9883SOL    HW230549   1.497   0.858   2.251
 9884SOL     OW30550   4.040   0.618   4.203
 9884SOL    HW130551   4.112   0.665   4.254
 9884SOL    HW230552   3.961   0.603   4.263
 9885SOL     OW30553   5.640   4.854   4.544
 9885SOL    HW130554   5.602   4.795   4.614
 9885SOL    HW230555   5.719   4.810   4.502
 9886SOL     OW30556   1.002   4.799   2.801
 9886SOL    HW130557   1.035   4.739   2.728
 9886SOL    HW230558   0.920   4.760   2.842
 9887SOL     OW30559   3.389   1.165   0.236
 9887SOL    HW130560   3.418   1.069   0.240
 9887SOL    HW230561   3.406   1.208   0.324
 9888SOL     OW30562   6.965   4.452   0.539
 9888SOL    HW130563   6.917   4.375   0.497
 9888SOL    HW230564   6.899   4.513   0.581
 9889SOL     OW30565   6.178   4.707   0.492
 9889SOL    HW130566   6.086   4.711   0.532
 9889SOL    HW230567   6.246   4.717   0.565
 9890SOL     OW30568   1.706   2.884   1.557
 9890SOL    HW130569   1.793   2.904   1.512
 9890SOL    HW230570   1.697   2.786   1.571
 9891SOL     OW30571   5.643   2.515   0.803
 9891SOL    HW130572   5.728   2.463   0.806
 9891SOL    HW230573   5.591   2.499   0.886
 9892SOL     OW30574   6.872   4.844   0.184
 9892SOL    HW130575   6.972   4.856   0.190
 9892SOL    HW230576   6.845   4.841   0.088
 9893SOL     OW30577   2.240   1.599   0.858
 9893SOL    HW130578   2.290   1.583   0.773
 9893SOL    HW230579   2.188   1.517   0.881
 9894SOL     OW30580   0.926   2.049   0.577
 9894SOL    HW130581   0.945   2.050   0.676
 9894SOL    HW230582   0.835   2.012   0.561
 9895SOL     OW30583   5.445   2.965   5.385
 9895SOL    HW130584   5.386   2.904   5.332
 9895SOL    HW230585   5.433   2.946   5.483
 9896SOL     OW30586   6.694   0.396   0.411
 9896SOL    HW130587   6.679   0.412   0.313
 9896SOL    HW230588   6.722   0.301   0.425
 9897SOL     OW30589   5.462   5.427   3.036
 9897SOL    HW130590   5.432   5.512   2.993
 9897SOL    HW230591   5.528   5.382   2.976
 9898SOL     OW30592   3.257   5.775   5.783
 9898SOL    HW130593   3.355   5.769   5.761
 9898SOL    HW230594   3.207   5.809   5.703
 9899SOL     OW30595   6.771   5.573   0.506
 9899SOL    HW130596   6.759   5.625   0.422
 9899SOL    HW230597   6.776   5.475   0.485
 9900SOL     OW30598   1.949   4.302   3.672
 9900SOL    HW130599   1.871   4.297   3.609
 9900SOL    HW230600   2.031   4.270   3.625
 9901SOL     OW30601   2.837   2.242   5.350
 9901SOL    HW130602   2.894   2.276   5.425
 9901SOL    HW230603   2.814   2.318   5.289
 9902SOL     OW30604   1.994   4.771   6.923
 9902SOL    HW130605   1.964   4.724   6.840
 9902SOL    HW230606   1.934   4.849   6.941
 9903SOL     OW30607   5.233   1.279   3.136
 9903SOL    HW130608   5.186   1.367   3.145
 9903SOL    HW230609   5.165   1.206   3.127
 9904SOL     OW30610   6.671   3.382   6.996
 9904SOL    HW130611   6.757   3.372   6.946
 9904SOL    HW230612   6.662   3.477   0.007
 9905SOL     OW30613   4.347   1.513   0.500
 9905SOL    HW130614   4.441   1.508   0.467
 9905SOL    HW230615   4.284   1.512   0.422
 9906SOL     OW30616   3.884   3.089   3.018
 9906SOL    HW130617   3.938   3.081   2.934
 9906SOL    HW230618   3.809   3.022   3.017
 9907SOL     OW30619   0.128   0.583   1.632
 9907SOL    HW130620   0.187   0.632   1.696
 9907SOL    HW230621   0.073   0.516   1.682
 9908SOL     OW30622   5.038   2.660   2.591
 9908SOL    HW130623   5.069   2.572   2.629
 9908SOL    HW230624   5.093   2.734   2.630
 9909SOL     OW30625   2.131   6.551   4.372
 9909SOL    HW130626   2.097   6.487   4.303
 9909SOL    HW230627   2.206   6.508   4.423
 9910SOL     OW30628   0.752   4.624   2.695
 9910SOL    HW130629   0.711   4.533   2.707
 9910SOL    HW230630   0.787   4.633   2.602
 9911SOL     OW30631   3.876   6.549   2.243
 9911SOL    HW130632   3.955   6.529   2.301
 9911SOL    HW230633   3.793   6.550   2.299
 9912SOL     OW30634   4.906   1.935   0.568
 9912SOL    HW130635   4.911   1.874   0.647
 9912SOL    HW230636   4.996   1.942   0.525
 9913SOL     OW30637   5.884   2.735   0.604
 9913SOL    HW130638   5.915   2.802   0.536
 9913SOL    HW230639   5.960   2.709   0.663
 9914SOL     OW30640   0.779   2.570   4.758
 9914SOL    HW130641   0.849   2.544   4.691
 9914SOL    HW230642   0.809   2.651   4.807
 9915SOL     OW30643   5.476   1.181   3.264
 9915SOL    HW130644   5.398   1.241   3.247
 9915SOL    HW230645   5.506   1.140   3.178
 9916SOL     OW30646   2.279   2.819   2.162
 9916SOL    HW130647   2.336   2.737   2.164
 9916SOL    HW230648   2.263   2.847   2.068
 9917SOL     OW30649   6.804   4.174   5.859
 9917SOL    HW130650   6.899   4.205   5.858
 9917SOL    HW230651   6.745   4.249   5.829
 9918SOL     OW30652   3.950   1.519   2.723
 9918SOL    HW130653   3.964   1.442   2.786
 9918SOL    HW230654   4.008   1.596   2.751
 9919SOL     OW30655   6.147   6.421   1.632
 9919SOL    HW130656   6.163   6.323   1.645
 9919SOL    HW230657   6.049   6.437   1.616
 9920SOL     OW30658   4.258   1.701   2.862
 9920SOL    HW130659   4.357   1.711   2.867
 9920SOL    HW230660   4.215   1.791   2.861
 9921SOL     OW30661   3.922   5.518   6.091
 9921SOL    HW130662   3.919   5.421   6.067
 9921SOL    HW230663   3.940   5.527   6.189
 9922SOL     OW30664   0.705   5.679   0.556
 9922SOL    HW130665   0.705   5.724   0.467
 9922SOL    HW230666   0.800   5.660   0.583
 9923SOL     OW30667   4.891   5.198   0.121
 9923SOL    HW130668   4.910   5.295   0.106
 9923SOL    HW230669   4.960   5.142   0.075
 9924SOL     OW30670   0.230   3.180   4.898
 9924SOL    HW130671   0.150   3.237   4.917
 9924SOL    HW230672   0.201   3.086   4.879
 9925SOL     OW30673   5.173   2.689   4.402
 9925SOL    HW130674   5.150   2.782   4.431
 9925SOL    HW230675   5.272   2.679   4.396
 9926SOL     OW30676   2.049   4.347   6.892
 9926SOL    HW130677   2.109   4.406   6.946
 9926SOL    HW230678   2.030   4.263   6.943
 9927SOL     OW30679   5.896   0.125   2.751
 9927SOL    HW130680   5.843   0.174   2.681
 9927SOL    HW230681   5.834   0.067   2.805
 9928SOL     OW30682   4.958   4.976   1.333
 9928SOL    HW130683   5.042   4.964   1.280
 9928SOL    HW230684   4.943   4.894   1.389
 9929SOL     OW30685   2.564   5.221   4.832
 9929SOL    HW130686   2.648   5.170   4.815
 9929SOL    HW230687   2.543   5.219   4.930
 9930SOL     OW30688   6.803   0.176   4.757
 9930SOL    HW130689   6.879   0.123   4.719
 9930SOL    HW230690   6.723   0.167   4.699
 9931SOL     OW30691   1.241   3.991   5.104
 9931SOL    HW130692   1.283   4.065   5.051
 9931SOL    HW230693   1.294   3.907   5.091
 9932SOL     OW30694   1.017   6.323   6.403
 9932SOL    HW130695   1.043   6.373   6.485
 9932SOL    HW230696   1.031   6.225   6.418
 9933SOL     OW30697   1.352   5.209   1.838
 9933SOL    HW130698   1.368   5.260   1.922
 9933SOL    HW230699   1.258   5.224   1.807
 9934SOL     OW30700   6.228   2.218   5.350
 9934SOL    HW130701   6.136   2.244   5.381
 9934SOL    HW230702   6.227   2.122   5.323
 9935SOL     OW30703   2.544   1.093   6.500
 9935SOL    HW130704   2.511   1.056   6.414
 9935SOL    HW230705   2.611   1.165   6.482
 9936SOL     OW30706   0.460   4.848   4.540
 9936SOL    HW130707   0.544   4.901   4.551
 9936SOL    HW230708   0.411   4.846   4.627
 9937SOL     OW30709   0.043   2.083   6.047
 9937SOL    HW130710   7.006   2.096   6.127
 9937SOL    HW230711   0.135   2.116   6.067
 9938SOL     OW30712   6.821   6.150   2.893
 9938SOL    HW130713   6.746   6.109   2.945
 9938SOL    HW230714   6.905   6.099   2.908
 9939SOL     OW30715   3.217   2.684   1.441
 9939SOL    HW130716   3.256   2.652   1.355
 9939SOL    HW230717   3.151   2.757   1.423
 9940SOL     OW30718   6.667   1.156   0.706
 9940SOL    HW130719   6.669   1.208   0.621
 9940SOL    HW230720   6.749   1.099   0.712
 9941SOL     OW30721   2.882   4.250   5.591
 9941SOL    HW130722   2.862   4.344   5.616
 9941SOL    HW230723   2.842   4.230   5.501
 9942SOL     OW30724   2.764   5.550   2.902
 9942SOL    HW130725   2.741   5.475   2.840
 9942SOL    HW230726   2.720   5.535   2.990
 9943SOL     OW30727   0.503   5.889   6.344
 9943SOL    HW130728   0.599   5.862   6.349
 9943SOL    HW230729   0.483   5.955   6.416
 9944SOL     OW30730   1.193   3.950   6.581
 9944SOL    HW130731   1.097   3.978   6.577
 9944SOL    HW230732   1.202   3.857   6.545
 9945SOL     OW30733   6.802   5.305   0.474
 9945SOL    HW130734   6.813   5.313   0.573
 9945SOL    HW230735   6.822   5.212   0.445
 9946SOL     OW30736   4.850   0.673   5.115
 9946SOL    HW130737   4.778   0.649   5.181
 9946SOL    HW230738   4.928   0.612   5.128
 9947SOL     OW30739   6.508   4.741   5.156
 9947SOL    HW130740   6.512   4.824   5.101
 9947SOL    HW230741   6.565   4.752   5.238
 9948SOL     OW30742   4.673   4.346   4.843
 9948SOL    HW130743   4.669   4.330   4.745
 9948SOL    HW230744   4.767   4.366   4.871
 9949SOL     OW30745   5.669   4.988   2.901
 9949SOL    HW130746   5.753   4.942   2.930
 9949SOL    HW230747   5.597   4.921   2.886
 9950SOL     OW30748   4.441   6.314   5.113
 9950SOL    HW130749   4.453   6.230   5.061
 9950SOL    HW230750   4.420   6.292   5.209
 9951SOL     OW30751   5.623   2.755   3.141
 9951SOL    HW130752   5.523   2.755   3.135
 9951SOL    HW230753   5.657   2.661   3.129
 9952SOL     OW30754   6.868   4.178   0.744
 9952SOL    HW130755   6.859   4.184   0.645
 9952SOL    HW230756   6.778   4.168   0.785
 9953SOL     OW30757   6.098   1.688   3.425
 9953SOL    HW130758   6.145   1.698   3.512
 9953SOL    HW230759   6.107   1.772   3.371
 9954SOL     OW30760   5.876   7.005   5.393
 9954SOL    HW130761   5.847   0.072   5.427
 9954SOL    HW230762   5.840   6.990   5.301
 9955SOL     OW30763   6.877   3.963   4.344
 9955SOL    HW130764   6.791   4.012   4.360
 9955SOL    HW230765   6.954   4.019   4.373
 9956SOL     OW30766   2.198   6.194   1.958
 9956SOL    HW130767   2.193   6.150   1.869
 9956SOL    HW230768   2.120   6.256   1.970
 9957SOL     OW30769   6.398   4.879   3.536
 9957SOL    HW130770   6.376   4.837   3.448
 9957SOL    HW230771   6.395   4.978   3.527
 9958SOL     OW30772   2.774   3.741   0.853
 9958SOL    HW130773   2.805   3.736   0.948
 9958SOL    HW230774   2.674   3.749   0.852
 9959SOL     OW30775   4.124   3.345   6.323
 9959SOL    HW130776   4.158   3.383   6.409
 9959SOL    HW230777   4.045   3.287   6.342
 9960SOL     OW30778   6.679   1.563   2.506
 9960SOL    HW130779   6.658   1.475   2.549
 9960SOL    HW230780   6.713   1.547   2.413
 9961SOL     OW30781   1.704   5.662   4.052
 9961SOL    HW130782   1.797   5.672   4.017
 9961SOL    HW230783   1.649   5.611   3.986
 9962SOL     OW30784   4.662   6.302   4.835
 9962SOL    HW130785   4.758   6.273   4.826
 9962SOL    HW230786   4.653   6.396   4.804
 9963SOL     OW30787   3.471   1.324   1.043
 9963SOL    HW130788   3.487   1.375   0.958
 9963SOL    HW230789   3.420   1.381   1.106
 9964SOL     OW30790   4.510   6.084   4.926
 9964SOL    HW130791   4.462   6.038   4.851
 9964SOL    HW230792   4.556   6.166   4.892
 9965SOL     OW30793   4.249   0.174   6.998
 9965SOL    HW130794   4.328   0.120   6.968
 9965SOL    HW230795   4.212   0.134   0.061
 9966SOL     OW30796   0.598   6.173   2.194
 9966SOL    HW130797   0.690   6.214   2.195
 9966SOL    HW230798   0.594   6.101   2.125
 9967SOL     OW30799   1.734   5.529   1.715
 9967SOL    HW130800   1.806   5.489   1.658
 9967SOL    HW230801   1.645   5.496   1.685
 9968SOL     OW30802   4.043   3.857   2.618
 9968SOL    HW130803   3.974   3.927   2.633
 9968SOL    HW230804   4.089   3.837   2.705
 9969SOL     OW30805   1.666   3.779   2.145
 9969SOL    HW130806   1.573   3.760   2.177
 9969SOL    HW230807   1.691   3.712   2.075
 9970SOL     OW30808   6.117   4.333   1.683
 9970SOL    HW130809   6.022   4.362   1.672
 9970SOL    HW230810   6.120   4.235   1.701
 9971SOL     OW30811   2.298   4.171   0.395
 9971SOL    HW130812   2.324   4.103   0.327
 9971SOL    HW230813   2.214   4.218   0.365
 9972SOL     OW30814   6.921   4.636   2.330
 9972SOL    HW130815   7.017   4.651   2.305
 9972SOL    HW230816   6.904   4.672   2.422
 9973SOL     OW30817   5.968   1.016   4.384
 9973SOL    HW130818   6.037   0.976   4.324
 9973SOL    HW230819   5.936   0.948   4.449
 9974SOL     OW30820   1.673   1.009   3.802
 9974SOL    HW130821   1.746   0.966   3.855
 9974SOL    HW230822   1.589   0.956   3.811
 9975SOL     OW30823   0.449   2.809   0.207
 9975SOL    HW130824   0.358   2.851   0.208
 9975SOL    HW230825   0.486   2.806   0.299
 9976SOL     OW30826   1.758   6.620   4.788
 9976SOL    HW130827   1.712   6.532   4.776
 9976SOL    HW230828   1.808   6.620   4.874
 9977SOL     OW30829   6.168   4.031   4.906
 9977SOL    HW130830   6.259   4.029   4.947
 9977SOL    HW230831   6.175   4.012   4.808
 9978SOL     OW30832   6.874   1.846   4.054
 9978SOL    HW130833   6.859   1.786   3.975
 9978SOL    HW230834   6.969   1.877   4.054
 9979SOL     OW30835   6.386   3.522   4.657
 9979SOL    HW130836   6.408   3.439   4.708
 9979SOL    HW230837   6.420   3.514   4.564
 9980SOL     OW30838   3.688   0.614   6.459
 9980SOL    HW130839   3.653   0.669   6.535
 9980SOL    HW230840   3.681   0.667   6.374
 9981SOL     OW30841   3.117   1.911   4.186
 9981SOL    HW130842   3.076   1.828   4.224
 9981SOL    HW230843   3.077   1.991   4.230
 9982SOL     OW30844   0.169   6.139   4.051
 9982SOL    HW130845   0.183   6.236   4.029
 9982SOL    HW230846   0.080   6.127   4.095
 9983SOL     OW30847   6.962   1.567   1.966
 9983SOL    HW130848   7.018   1.484   1.968
 9983SOL    HW230849   6.988   1.627   2.041
 9984SOL     OW30850   3.042   1.915   6.787
 9984SOL    HW130851   2.954   1.963   6.789
 9984SOL    HW230852   3.057   1.869   6.874
 9985SOL     OW30853   1.253   1.191   2.084
 9985SOL    HW130854   1.335   1.182   2.140
 9985SOL    HW230855   1.270   1.157   1.992
 9986SOL     OW30856   5.486   3.614   5.034
 9986SOL    HW130857   5.486   3.519   5.002
 9986SOL    HW230858   5.577   3.653   5.023
 9987SOL     OW30859   6.514   3.605   5.848
 9987SOL    HW130860   6.567   3.667   5.905
 9987SOL    HW230861   6.484   3.653   5.765
 9988SOL     OW30862   6.858   0.214   5.243
 9988SOL    HW130863   6.856   0.208   5.143
 9988SOL    HW230864   6.827   0.127   5.282
 9989SOL     OW30865   0.573   3.030   5.077
 9989SOL    HW130866   0.569   3.013   4.978
 9989SOL    HW230867   0.666   3.057   5.101
 9990SOL     OW30868   0.894   5.061   2.875
 9990SOL    HW130869   0.873   5.056   2.973
 9990SOL    HW230870   0.943   4.979   2.847
 9991SOL     OW30871   3.617   1.896   3.654
 9991SOL    HW130872   3.667   1.977   3.622
 9991SOL    HW230873   3.565   1.919   3.736
 9992SOL     OW30874   6.480   5.839   6.077
 9992SOL    HW130875   6.469   5.915   6.013
 9992SOL    HW230876   6.391   5.810   6.111
 9993SOL     OW30877   0.914   1.807   1.962
 9993SOL    HW130878   0.906   1.751   1.880
 9993SOL    HW230879   0.907   1.904   1.938
 9994SOL     OW30880   5.989   4.812   3.370
 9994SOL    HW130881   5.924   4.886   3.389
 9994SOL    HW230882   5.964   4.767   3.284
 9995SOL     OW30883   5.321   0.649   4.614
 9995SOL    HW130884   5.231   0.651   4.570
 9995SOL    HW230885   5.334   0.559   4.657
 9996SOL     OW30886   3.132   4.046   0.285
 9996SOL    HW130887   3.124   4.125   0.225
 9996SOL    HW230888   3.117   4.074   0.380
 9997SOL     OW30889   2.607   0.096   5.500
 9997SOL    HW130890   2.592   0.116   5.403
 9997SOL    HW230891   2.649   0.005   5.509
 9998SOL     OW30892   5.718   5.914   5.368
 9998SOL    HW130893   5.632   5.878   5.403
 9998SOL    HW230894   5.723   5.900   5.269
 9999SOL     OW30895   6.726   2.155   4.940
 9999SOL    HW130896   6.717   2.180   5.037
 9999SOL    HW230897   6.810   2.196   4.904
10000SOL     OW30898   0.327   2.791   6.309
10000SOL    HW130899   0.369   2.829   6.226
10000SOL    HW230900   0.262   2.857   6.346
10001SOL     OW30901   4.289   0.640   2.905
10001SOL    HW130902   4.306   0.730   2.865
10001SOL    HW230903   4.192   0.619   2.901
10002SOL     OW30904   0.813   0.927   2.135
10002SOL    HW130905   0.836   0.873   2.054
10002SOL    HW230906   0.721   0.903   2.165
10003SOL     OW30907   4.200   2.225   3.662
10003SOL    HW130908   4.138   2.209   3.739
10003SOL    HW230909   4.153   2.279   3.593
10004SOL     OW30910   6.948   1.421   2.840
10004SOL    HW130911   0.018   1.456   2.824
10004SOL    HW230912   6.934   1.407   2.938
10005SOL     OW30913   5.032   6.751   3.979
10005SOL    HW130914   5.045   6.663   3.934
10005SOL    HW230915   4.964   6.805   3.930
10006SOL     OW30916   3.693   6.844   4.232
10006SOL    HW130917   3.709   6.934   4.273
10006SOL    HW230918   3.602   6.812   4.258
10007SOL     OW30919   6.668   3.523   3.663
10007SOL    HW130920   6.650   3.570   3.749
10007SOL    HW230921   6.630   3.576   3.587
10008SOL     OW30922   2.827   0.051   3.886
10008SOL    HW130923   2.917   0.036   3.845
10008SOL    HW230924   2.763   7.004   3.854
10009SOL     OW30925   1.296   4.479   2.102
10009SOL    HW130926   1.270   4.429   2.184
10009SOL    HW230927   1.299   4.417   2.024
10010SOL     OW30928   0.855   1.023   6.040
10010SOL    HW130929   0.795   1.097   6.071
10010SOL    HW230930   0.877   0.964   6.117
10011SOL     OW30931   0.091   6.611   5.185
10011SOL    HW130932   0.106   6.575   5.093
10011SOL    HW230933   0.079   6.535   5.249
10012SOL     OW30934   5.875   1.274   3.760
10012SOL    HW130935   5.844   1.363   3.792
10012SOL    HW230936   5.826   1.249   3.676
10013SOL     OW30937   0.472   0.708   2.648
10013SOL    HW130938   0.380   0.744   2.637
10013SOL    HW230939   0.470   0.628   2.708
10014SOL     OW30940   0.592   4.409   6.374
10014SOL    HW130941   0.531   4.346   6.326
10014SOL    HW230942   0.562   4.418   6.470
10015SOL     OW30943   2.035   4.386   0.322
10015SOL    HW130944   1.960   4.324   0.301
10015SOL    HW230945   2.092   4.399   0.241
10016SOL     OW30946   2.576   0.695   5.647
10016SOL    HW130947   2.622   0.735   5.568
10016SOL    HW230948   2.490   0.653   5.617
10017SOL     OW30949   1.527   2.176   4.800
10017SOL    HW130950   1.447   2.232   4.779
10017SOL    HW230951   1.565   2.202   4.888
10018SOL     OW30952   4.767   0.232   6.469
10018SOL    HW130953   4.815   0.194   6.548
10018SOL    HW230954   4.740   0.159   6.407
10019SOL     OW30955   0.676   1.187   2.574
10019SOL    HW130956   0.744   1.146   2.513
10019SOL    HW230957   0.670   1.134   2.658
10020SOL     OW30958   0.506   2.779   1.283
10020SOL    HW130959   0.498   2.857   1.345
10020SOL    HW230960   0.592   2.731   1.299
10021SOL     OW30961   0.040   3.977   0.450
10021SOL    HW130962   6.968   3.977   0.484
10021SOL    HW230963   0.065   3.885   0.420
10022SOL     OW30964   1.599   1.703   6.268
10022SOL    HW130965   1.638   1.703   6.360
10022SOL    HW230966   1.501   1.726   6.273
10023SOL     OW30967   0.210   3.756   0.728
10023SOL    HW130968   0.143   3.795   0.665
10023SOL    HW230969   0.165   3.737   0.816
10024SOL     OW30970   1.793   4.891   4.001
10024SOL    HW130971   1.881   4.845   4.008
10024SOL    HW230972   1.738   4.847   3.930
10025SOL     OW30973   1.397   1.536   0.899
10025SOL    HW130974   1.321   1.564   0.841
10025SOL    HW230975   1.369   1.456   0.953
10026SOL     OW30976   6.532   0.300   3.575
10026SOL    HW130977   6.558   0.221   3.520
10026SOL    HW230978   6.599   0.313   3.648
10027SOL     OW30979   4.619   2.244   5.283
10027SOL    HW130980   4.654   2.168   5.338
10027SOL    HW230981   4.557   2.300   5.339
10028SOL     OW30982   1.841   0.615   0.728
10028SOL    HW130983   1.932   0.610   0.771
10028SOL    HW230984   1.848   0.584   0.633
10029SOL     OW30985   5.517   1.852   3.448
10029SOL    HW130986   5.476   1.843   3.357
10029SOL    HW230987   5.506   1.767   3.498
10030SOL     OW30988   1.701   0.432   3.098
10030SOL    HW130989   1.738   0.340   3.082
10030SOL    HW230990   1.716   0.457   3.194
10031SOL     OW30991   6.119   4.468   5.089
10031SOL    HW130992   6.192   4.408   5.122
10031SOL    HW230993   6.113   4.463   4.989
10032SOL     OW30994   2.900   1.723   4.964
10032SOL    HW130995   2.985   1.756   4.923
10032SOL    HW230996   2.855   1.660   4.901
10033SOL     OW30997   5.453   2.803   4.607
10033SOL    HW130998   5.362   2.773   4.637
10033SOL    HW230999   5.493   2.733   4.548
10034SOL     OW31000   5.484   0.484   5.701
10034SOL    HW131001   5.460   0.448   5.791
10034SOL    HW231002   5.478   0.584   5.702
10035SOL     OW31003   0.286   6.150   2.029
10035SOL    HW131004   0.379   6.180   2.006
10035SOL    HW231005   0.270   6.059   1.993
10036SOL     OW31006   6.980   0.871   0.605
10036SOL    HW131007   6.983   0.771   0.596
10036SOL    HW231008   6.988   0.913   0.515
10037SOL     OW31009   0.855   6.779   0.621
10037SOL    HW131010   0.910   6.710   0.574
10037SOL    HW231011   0.799   6.828   0.554
10038SOL     OW31012   6.351   0.476   1.536
10038SOL    HW131013   6.444   0.456   1.566
10038SOL    HW231014   6.343   0.573   1.513
10039SOL     OW31015   3.234   0.666   3.654
10039SOL    HW131016   3.136   0.646   3.653
10039SOL    HW231017   3.274   0.643   3.566
10040SOL     OW31018   1.121   2.903   1.319
10040SOL    HW131019   1.152   2.809   1.306
10040SOL    HW231020   1.040   2.919   1.261
10041SOL     OW31021   2.390   5.990   0.018
10041SOL    HW131022   2.402   5.958   0.112
10041SOL    HW231023   2.350   5.917   6.985
10042SOL     OW31024   5.725   3.433   2.766
10042SOL    HW131025   5.758   3.409   2.675
10042SOL    HW231026   5.665   3.360   2.799
10043SOL     OW31027   0.447   1.763   4.648
10043SOL    HW131028   0.425   1.710   4.730
10043SOL    HW231029   0.476   1.855   4.674
10044SOL     OW31030   3.035   1.281   5.925
10044SOL    HW131031   3.014   1.229   5.841
10044SOL    HW231032   3.109   1.345   5.906
10045SOL     OW31033   3.097   1.236   0.923
10045SOL    HW131034   3.074   1.143   0.952
10045SOL    HW231035   3.137   1.286   1.000
10046SOL     OW31036   1.298   5.681   0.860
10046SOL    HW131037   1.328   5.725   0.775
10046SOL    HW231038   1.248   5.597   0.838
10047SOL     OW31039   0.995   3.086   0.969
10047SOL    HW131040   1.000   3.104   0.870
10047SOL    HW231041   0.902   3.106   1.001
10048SOL     OW31042   6.234   5.383   3.472
10048SOL    HW131043   6.181   5.312   3.425
10048SOL    HW231044   6.173   5.458   3.499
10049SOL     OW31045   6.780   0.635   5.234
10049SOL    HW131046   6.848   0.634   5.308
10049SOL    HW231047   6.747   0.729   5.222
10050SOL     OW31048   0.129   2.923   6.666
10050SOL    HW131049   0.093   2.860   6.735
10050SOL    HW231050   0.104   3.017   6.689
10051SOL     OW31051   2.450   2.596   3.772
10051SOL    HW131052   2.436   2.665   3.701
10051SOL    HW231053   2.456   2.641   3.861
10052SOL     OW31054   1.331   6.710   3.386
10052SOL    HW131055   1.430   6.709   3.397
10052SOL    HW231056   1.289   6.646   3.450
10053SOL     OW31057   5.555   5.427   4.486
10053SOL    HW131058   5.513   5.338   4.506
10053SOL    HW231059   5.643   5.434   4.533
10054SOL     OW31060   6.741   3.709   4.929
10054SOL    HW131061   6.643   3.726   4.945
10054SOL    HW231062   6.754   3.617   4.893
10055SOL     OW31063   1.336   2.195   0.018
10055SOL    HW131064   1.348   2.289   0.049
10055SOL    HW231065   1.426   2.151   0.010
10056SOL     OW31066   5.962   2.220   3.644
10056SOL    HW131067   5.979   2.288   3.716
10056SOL    HW231068   5.982   2.129   3.679
10057SOL     OW31069   5.726   5.295   4.885
10057SOL    HW131070   5.730   5.319   4.982
10057SOL    HW231071   5.723   5.379   4.830
10058SOL     OW31072   0.046   3.393   4.971
10058SOL    HW131073   6.974   3.363   4.990
10058SOL    HW231074   0.094   3.410   5.057
10059SOL     OW31075   5.938   0.488   6.938
10059SOL    HW131076   5.888   0.515   7.021
10059SOL    HW231077   5.909   0.546   6.862
10060SOL     OW31078   2.606   1.551   1.468
10060SOL    HW131079   2.633   1.613   1.542
10060SOL    HW231080   2.526   1.499   1.495
10061SOL     OW31081   3.841   6.824   2.828
10061SOL    HW131082   3.932   6.801   2.795
10061SOL    HW231083   3.805   6.748   2.883
10062SOL     OW31084   0.542   6.932   5.055
10062SOL    HW131085   0.581   6.939   5.147
10062SOL    HW231086   0.455   6.883   5.060
10063SOL     OW31087   2.369   2.516   5.194
10063SOL    HW131088   2.351   2.612   5.174
10063SOL    HW231089   2.444   2.509   5.261
10064SOL     OW31090   2.747   0.063   0.547
10064SOL    HW131091   2.769   6.988   0.530
10064SOL    HW231092   2.832   0.116   0.551
10065SOL     OW31093   0.569   2.144   1.693
10065SOL    HW131094   0.494   2.117   1.633
10065SOL    HW231095   0.621   2.063   1.720
10066SOL     OW31096   6.105   4.306   4.476
10066SOL    HW131097   6.088   4.214   4.512
10066SOL    HW231098   6.204   4.320   4.466
10067SOL     OW31099   6.805   2.954   5.144
10067SOL    HW131100   6.878   2.887   5.129
10067SOL    HW231101   6.721   2.905   5.168
10068SOL     OW31102   1.847   3.232   3.165
10068SOL    HW131103   1.872   3.179   3.246
10068SOL    HW231104   1.787   3.308   3.192
10069SOL     OW31105   2.730   4.722   0.348
10069SOL    HW131106   2.694   4.751   0.437
10069SOL    HW231107   2.658   4.728   0.279
10070SOL     OW31108   4.232   6.629   6.467
10070SOL    HW131109   4.290   6.554   6.501
10070SOL    HW231110   4.195   6.679   6.545
10071SOL     OW31111   5.767   0.537   4.764
10071SOL    HW131112   5.724   0.450   4.740
10071SOL    HW231113   5.721   0.611   4.715
10072SOL     OW31114   6.569   3.125   1.227
10072SOL    HW131115   6.602   3.104   1.319
10072SOL    HW231116   6.495   3.062   1.203
10073SOL     OW31117   5.581   4.583   5.150
10073SOL    HW131118   5.617   4.580   5.243
10073SOL    HW231119   5.605   4.499   5.102
10074SOL     OW31120   1.892   5.340   0.610
10074SOL    HW131121   1.922   5.302   0.698
10074SOL    HW231122   1.833   5.273   0.563
10075SOL     OW31123   1.527   3.424   2.132
10075SOL    HW131124   1.558   3.476   2.053
10075SOL    HW231125   1.443   3.463   2.168
10076SOL     OW31126   5.320   5.147   4.389
10076SOL    HW131127   5.279   5.160   4.479
10076SOL    HW231128   5.410   5.104   4.399
10077SOL     OW31129   5.237   4.090   6.497
10077SOL    HW131130   5.254   4.161   6.428
10077SOL    HW231131   5.308   4.020   6.491
10078SOL     OW31132   6.523   5.030   4.890
10078SOL    HW131133   6.610   5.001   4.849
10078SOL    HW231134   6.447   4.989   4.840
10079SOL     OW31135   5.372   3.501   4.158
10079SOL    HW131136   5.458   3.547   4.137
10079SOL    HW231137   5.364   3.489   4.257
10080SOL     OW31138   5.281   1.345   6.059
10080SOL    HW131139   5.349   1.374   5.991
10080SOL    HW231140   5.208   1.295   6.012
10081SOL     OW31141   1.338   4.653   0.462
10081SOL    HW131142   1.397   4.707   0.522
10081SOL    HW231143   1.329   4.561   0.499
10082SOL     OW31144   1.488   4.824   1.284
10082SOL    HW131145   1.539   4.892   1.336
10082SOL    HW231146   1.404   4.801   1.333
10083SOL     OW31147   2.972   5.703   2.591
10083SOL    HW131148   2.910   5.637   2.549
10083SOL    HW231149   3.008   5.764   2.520
10084SOL     OW31150   0.857   1.698   4.401
10084SOL    HW131151   0.803   1.624   4.441
10084SOL    HW231152   0.821   1.720   4.310
10085SOL     OW31153   5.272   7.001   0.842
10085SOL    HW131154   5.194   6.995   0.780
10085SOL    HW231155   5.244   0.025   0.927
10086SOL     OW31156   4.609   6.958   3.434
10086SOL    HW131157   4.679   7.016   3.392
10086SOL    HW231158   4.647   6.867   3.451
10087SOL     OW31159   1.078   5.889   5.095
10087SOL    HW131160   1.050   5.959   5.029
10087SOL    HW231161   1.066   5.924   5.188
10088SOL     OW31162   6.739   2.914   2.214
10088SOL    HW131163   6.734   2.965   2.300
10088SOL    HW231164   6.835   2.897   2.191
10089SOL     OW31165   3.614   0.641   1.448
10089SOL    HW131166   3.604   0.585   1.366
10089SOL    HW231167   3.535   0.626   1.508
10090SOL     OW31168   2.337   6.553   3.325
10090SOL    HW131169   2.313   6.480   3.390
10090SOL    HW231170   2.255   6.583   3.277
10091SOL     OW31171   5.849   5.019   4.876
10091SOL    HW131172   5.780   4.956   4.911
10091SOL    HW231173   5.810   5.110   4.866
10092SOL     OW31174   1.028   2.382   4.004
10092SOL    HW131175   1.123   2.351   4.011
10092SOL    HW231176   0.988   2.350   3.918
10093SOL     OW31177   4.411   4.219   5.992
10093SOL    HW131178   4.422   4.124   5.964
10093SOL    HW231179   4.464   4.236   6.075
10094SOL     OW31180   3.867   2.449   1.134
10094SOL    HW131181   3.767   2.458   1.134
10094SOL    HW231182   3.899   2.431   1.227
10095SOL     OW31183   4.474   3.312   5.334
10095SOL    HW131184   4.457   3.315   5.432
10095SOL    HW231185   4.414   3.243   5.292
10096SOL     OW31186   7.014   3.407   1.866
10096SOL    HW131187   6.947   3.352   1.916
10096SOL    HW231188   0.085   3.375   1.888
10097SOL     OW31189   0.224   1.695   0.672
10097SOL    HW131190   0.164   1.765   0.711
10097SOL    HW231191   0.178   1.652   0.595
10098SOL     OW31192   3.217   5.307   4.238
10098SOL    HW131193   3.288   5.314   4.168
10098SOL    HW231194   3.132   5.275   4.196
10099SOL     OW31195   0.215   5.061   2.637
10099SOL    HW131196   0.307   5.027   2.658
10099SOL    HW231197   0.217   5.161   2.631
10100SOL     OW31198   5.361   4.454   4.034
10100SOL    HW131199   5.448   4.451   4.084
10100SOL    HW231200   5.362   4.384   3.962
10101SOL     OW31201   6.697   3.211   0.611
10101SOL    HW131202   6.738   3.120   0.619
10101SOL    HW231203   6.711   3.261   0.696
10102SOL     OW31204   6.782   5.376   3.534
10102SOL    HW131205   6.834   5.442   3.480
10102SOL    HW231206   6.845   5.326   3.594
10103SOL     OW31207   0.336   6.131   6.944
10103SOL    HW131208   0.368   6.114   6.851
10103SOL    HW231209   0.332   6.044   6.994
10104SOL     OW31210   2.712   0.848   4.128
10104SOL    HW131211   2.808   0.840   4.103
10104SOL    HW231212   2.672   0.757   4.139
10105SOL     OW31213   2.975   1.393   4.364
10105SOL    HW131214   2.982   1.421   4.268
10105SOL    HW231215   2.881   1.362   4.383
10106SOL     OW31216   5.337   4.341   1.368
10106SOL    HW131217   5.408   4.371   1.304
10106SOL    HW231218   5.345   4.242   1.381
10107SOL     OW31219   5.261   5.579   0.381
10107SOL    HW131220   5.238   5.489   0.417
10107SOL    HW231221   5.197   5.603   0.307
10108SOL     OW31222   2.179   2.500   5.880
10108SOL    HW131223   2.117   2.546   5.817
10108SOL    HW231224   2.163   2.401   5.877
10109SOL     OW31225   1.012   2.427   1.204
10109SOL    HW131226   1.096   2.482   1.209
10109SOL    HW231227   0.947   2.473   1.144
10110SOL     OW31228   5.767   5.655   2.715
10110SOL    HW131229   5.697   5.671   2.784
10110SOL    HW231230   5.773   5.735   2.655
10111SOL     OW31231   0.238   2.816   2.173
10111SOL    HW131232   0.325   2.806   2.222
10111SOL    HW231233   0.236   2.753   2.096
10112SOL     OW31234   6.562   2.845   3.261
10112SOL    HW131235   6.527   2.926   3.309
10112SOL    HW231236   6.513   2.764   3.295
10113SOL     OW31237   6.090   0.610   6.645
10113SOL    HW131238   6.092   0.524   6.594
10113SOL    HW231239   5.995   0.638   6.660
10114SOL     OW31240   5.942   2.736   2.011
10114SOL    HW131241   5.879   2.757   1.937
10114SOL    HW231242   5.994   2.653   1.989
10115SOL     OW31243   3.519   2.274   5.886
10115SOL    HW131244   3.493   2.324   5.968
10115SOL    HW231245   3.599   2.317   5.845
10116SOL     OW31246   0.190   0.264   5.769
10116SOL    HW131247   0.209   0.236   5.863
10116SOL    HW231248   0.195   0.364   5.762
10117SOL     OW31249   6.537   4.161   2.975
10117SOL    HW131250   6.593   4.080   2.961
10117SOL    HW231251   6.474   4.146   3.052
10118SOL     OW31252   3.780   4.867   3.203
10118SOL    HW131253   3.702   4.883   3.142
10118SOL    HW231254   3.752   4.880   3.298
10119SOL     OW31255   6.124   6.294   6.686
10119SOL    HW131256   6.143   6.215   6.629
10119SOL    HW231257   6.034   6.331   6.663
10120SOL     OW31258   2.422   2.259   3.101
10120SOL    HW131259   2.492   2.329   3.088
10120SOL    HW231260   2.443   2.206   3.183
10121SOL     OW31261   0.287   5.224   1.070
10121SOL    HW131262   0.256   5.158   1.002
10121SOL    HW231263   0.229   5.305   1.066
10122SOL     OW31264   2.057   0.121   3.189
10122SOL    HW131265   2.120   0.173   3.246
10122SOL    HW231266   2.108   0.071   3.119
10123SOL     OW31267   0.050   5.684   6.494
10123SOL    HW131268   0.116   5.631   6.440
10123SOL    HW231269   0.088   5.774   6.513
10124SOL     OW31270   2.641   5.388   2.726
10124SOL    HW131271   2.643   5.377   2.626
10124SOL    HW231272   2.559   5.344   2.763
10125SOL     OW31273   0.803   0.821   4.677
10125SOL    HW131274   0.867   0.852   4.606
10125SOL    HW231275   0.790   0.894   4.744
10126SOL     OW31276   6.864   6.297   5.929
10126SOL    HW131277   6.888   6.206   5.894
10126SOL    HW231278   6.938   6.361   5.909
10127SOL     OW31279   2.199   6.616   6.097
10127SOL    HW131280   2.242   6.528   6.079
10127SOL    HW231281   2.251   6.666   6.167
10128SOL     OW31282   2.098   2.841   0.153
10128SOL    HW131283   2.164   2.904   0.113
10128SOL    HW231284   2.008   2.857   0.112
10129SOL     OW31285   6.129   1.921   4.677
10129SOL    HW131286   6.158   1.987   4.746
10129SOL    HW231287   6.151   1.828   4.708
10130SOL     OW31288   0.492   1.988   3.837
10130SOL    HW131289   0.472   1.963   3.743
10130SOL    HW231290   0.586   1.962   3.859
10131SOL     OW31291   2.110   6.213   4.857
10131SOL    HW131292   2.184   6.248   4.800
10131SOL    HW231293   2.039   6.173   4.799
10132SOL     OW31294   5.389   6.872   2.088
10132SOL    HW131295   5.407   6.901   2.182
10132SOL    HW231296   5.442   6.789   2.068
10133SOL     OW31297   5.838   6.114   0.678
10133SOL    HW131298   5.937   6.116   0.695
10133SOL    HW231299   5.814   6.187   0.614
10134SOL     OW31300   6.966   6.866   3.326
10134SOL    HW131301   6.983   6.768   3.337
10134SOL    HW231302   6.946   6.906   3.416
10135SOL     OW31303   6.007   6.857   3.046
10135SOL    HW131304   5.982   6.953   3.053
10135SOL    HW231305   6.055   6.841   2.959
10136SOL     OW31306   4.669   1.071   3.334
10136SOL    HW131307   4.699   1.033   3.422
10136SOL    HW231308   4.594   1.135   3.349
10137SOL     OW31309   6.661   5.191   4.648
10137SOL    HW131310   6.660   5.100   4.607
10137SOL    HW231311   6.731   5.195   4.719
10138SOL     OW31312   6.579   2.708   2.324
10138SOL    HW131313   6.486   2.691   2.293
10138SOL    HW231314   6.630   2.757   2.254
10139SOL     OW31315   2.963   2.956   6.679
10139SOL    HW131316   2.876   2.907   6.681
10139SOL    HW231317   2.953   3.039   6.624
10140SOL     OW31318   0.869   5.826   5.462
10140SOL    HW131319   0.816   5.868   5.389
10140SOL    HW231320   0.939   5.766   5.423
10141SOL     OW31321   1.864   2.662   4.029
10141SOL    HW131322   1.770   2.655   3.995
10141SOL    HW231323   1.883   2.585   4.091
10142SOL     OW31324   4.259   6.095   3.057
10142SOL    HW131325   4.242   6.058   2.966
10142SOL    HW231326   4.280   6.020   3.120
10143SOL     OW31327   5.747   2.723   5.741
10143SOL    HW131328   5.744   2.735   5.840
10143SOL    HW231329   5.832   2.761   5.705
10144SOL     OW31330   3.271   6.873   0.752
10144SOL    HW131331   3.269   6.791   0.694
10144SOL    HW231332   3.179   6.913   0.757
10145SOL     OW31333   6.513   6.802   6.293
10145SOL    HW131334   6.612   6.807   6.311
10145SOL    HW231335   6.475   6.895   6.292
10146SOL     OW31336   1.536   2.821   5.298
10146SOL    HW131337   1.453   2.828   5.242
10146SOL    HW231338   1.612   2.866   5.251
10147SOL     OW31339   3.999   5.973   5.647
10147SOL    HW131340   3.999   6.051   5.584
10147SOL    HW231341   4.084   5.974   5.701
10148SOL     OW31342   0.653   4.348   0.116
10148SOL    HW131343   0.673   4.341   0.214
10148SOL    HW231344   0.711   4.418   0.075
10149SOL     OW31345   4.074   3.597   1.683
10149SOL    HW131346   4.075   3.675   1.745
10149SOL    HW231347   4.168   3.578   1.652
10150SOL     OW31348   4.846   4.070   1.043
10150SOL    HW131349   4.818   3.982   1.005
10150SOL    HW231350   4.840   4.140   0.972
10151SOL     OW31351   6.783   1.106   6.169
10151SOL    HW131352   6.866   1.064   6.133
10151SOL    HW231353   6.736   1.041   6.229
10152SOL     OW31354   3.714   6.659   3.026
10152SOL    HW131355   3.702   6.695   3.118
10152SOL    HW231356   3.722   6.559   3.030
10153SOL     OW31357   4.927   4.206   1.516
10153SOL    HW131358   4.972   4.225   1.603
10153SOL    HW231359   4.845   4.152   1.533
10154SOL     OW31360   3.727   5.152   5.114
10154SOL    HW131361   3.670   5.076   5.147
10154SOL    HW231362   3.823   5.126   5.118
10155SOL     OW31363   3.992   1.248   3.784
10155SOL    HW131364   4.089   1.232   3.799
10155SOL    HW231365   3.969   1.343   3.808
10156SOL     OW31366   4.066   1.610   5.537
10156SOL    HW131367   4.075   1.596   5.636
10156SOL    HW231368   4.103   1.700   5.513
10157SOL     OW31369   0.590   4.336   1.493
10157SOL    HW131370   0.542   4.278   1.427
10157SOL    HW231371   0.654   4.395   1.443
10158SOL     OW31372   5.819   5.164   6.826
10158SOL    HW131373   5.864   5.078   6.804
10158SOL    HW231374   5.797   5.165   6.924
10159SOL     OW31375   3.329   3.176   1.839
10159SOL    HW131376   3.413   3.216   1.801
10159SOL    HW231377   3.323   3.198   1.937
10160SOL     OW31378   6.887   4.355   2.329
10160SOL    HW131379   6.874   4.324   2.423
10160SOL    HW231380   6.932   4.445   2.329
10161SOL     OW31381   5.301   3.118   5.779
10161SOL    HW131382   5.401   3.121   5.792
10161SOL    HW231383   5.275   3.027   5.748
10162SOL     OW31384   1.793   2.949   2.162
10162SOL    HW131385   1.849   2.940   2.080
10162SOL    HW231386   1.726   3.022   2.149
10163SOL     OW31387   2.805   5.124   4.762
10163SOL    HW131388   2.749   5.073   4.696
10163SOL    HW231389   2.861   5.060   4.815
10164SOL     OW31390   6.971   1.221   3.964
10164SOL    HW131391   6.889   1.277   3.976
10164SOL    HW231392   6.973   1.184   3.871
10165SOL     OW31393   1.186   3.792   4.097
10165SOL    HW131394   1.104   3.737   4.084
10165SOL    HW231395   1.173   3.854   4.175
10166SOL     OW31396   2.506   6.168   2.738
10166SOL    HW131397   2.593   6.206   2.771
10166SOL    HW231398   2.449   6.143   2.816
10167SOL     OW31399   2.628   2.135   6.567
10167SOL    HW131400   2.528   2.136   6.574
10167SOL    HW231401   2.666   2.216   6.611
10168SOL     OW31402   0.133   0.102   6.793
10168SOL    HW131403   0.175   0.126   6.881
10168SOL    HW231404   0.035   0.088   6.806
10169SOL     OW31405   5.162   4.751   3.426
10169SOL    HW131406   5.250   4.784   3.392
10169SOL    HW231407   5.169   4.653   3.447
10170SOL     OW31408   5.111   6.217   0.461
10170SOL    HW131409   5.061   6.134   0.485
10170SOL    HW231410   5.208   6.205   0.483
10171SOL     OW31411   2.307   4.628   5.110
10171SOL    HW131412   2.280   4.639   5.014
10171SOL    HW231413   2.406   4.637   5.117
10172SOL     OW31414   6.824   0.882   2.826
10172SOL    HW131415   6.848   0.810   2.761
10172SOL    HW231416   6.773   0.843   2.902
10173SOL     OW31417   3.672   3.368   5.136
10173SOL    HW131418   3.617   3.451   5.139
10173SOL    HW231419   3.645   3.313   5.057
10174SOL     OW31420   4.585   5.321   1.273
10174SOL    HW131421   4.568   5.388   1.345
10174SOL    HW231422   4.504   5.314   1.214
10175SOL     OW31423   6.727   6.684   4.449
10175SOL    HW131424   6.645   6.682   4.507
10175SOL    HW231425   6.735   6.773   4.406
10176SOL     OW31426   0.498   0.505   4.650
10176SOL    HW131427   0.585   0.506   4.699
10176SOL    HW231428   0.446   0.588   4.671
10177SOL     OW31429   2.402   0.781   4.210
10177SOL    HW131430   2.393   0.743   4.302
10177SOL    HW231431   2.458   0.719   4.154
10178SOL     OW31432   0.430   2.033   1.455
10178SOL    HW131433   0.436   1.933   1.448
10178SOL    HW231434   0.484   2.075   1.383
10179SOL     OW31435   0.273   5.564   0.485
10179SOL    HW131436   0.337   5.640   0.500
10179SOL    HW231437   0.184   5.587   0.524
10180SOL     OW31438   3.404   0.074   6.632
10180SOL    HW131439   3.337   0.006   6.664
10180SOL    HW231440   3.470   0.093   6.705
10181SOL     OW31441   6.592   3.697   3.438
10181SOL    HW131442   6.521   3.691   3.508
10181SOL    HW231443   6.562   3.759   3.365
10182SOL     OW31444   3.995   0.852   0.929
10182SOL    HW131445   3.900   0.871   0.952
10182SOL    HW231446   4.039   0.935   0.895
10183SOL     OW31447   4.493   6.600   5.630
10183SOL    HW131448   4.401   6.637   5.645
10183SOL    HW231449   4.548   6.614   5.712
10184SOL     OW31450   5.183   1.904   5.755
10184SOL    HW131451   5.211   1.808   5.742
10184SOL    HW231452   5.178   1.923   5.853
10185SOL     OW31453   3.326   5.188   1.411
10185SOL    HW131454   3.402   5.203   1.349
10185SOL    HW231455   3.352   5.214   1.504
10186SOL     OW31456   3.469   3.263   6.517
10186SOL    HW131457   3.551   3.215   6.549
10186SOL    HW231458   3.389   3.231   6.568
10187SOL     OW31459   1.910   4.110   5.337
10187SOL    HW131460   1.942   4.132   5.429
10187SOL    HW231461   1.961   4.164   5.270
10188SOL     OW31462   2.676   6.927   6.208
10188SOL    HW131463   2.576   6.930   6.206
10188SOL    HW231464   2.712   7.020   6.209
10189SOL     OW31465   1.980   1.590   4.650
10189SOL    HW131466   2.059   1.616   4.705
10189SOL    HW231467   1.984   1.492   4.629
10190SOL     OW31468   4.231   4.031   0.769
10190SOL    HW131469   4.270   3.962   0.707
10190SOL    HW231470   4.156   3.989   0.821
10191SOL     OW31471   5.541   0.523   0.145
10191SOL    HW131472   5.490   0.606   0.126
10191SOL    HW231473   5.506   0.480   0.228
10192SOL     OW31474   2.208   1.088   4.682
10192SOL    HW131475   2.169   1.019   4.621
10192SOL    HW231476   2.228   1.171   4.630
10193SOL     OW31477   3.767   3.539   3.902
10193SOL    HW131478   3.784   3.531   4.000
10193SOL    HW231479   3.837   3.487   3.852
10194SOL     OW31480   2.969   0.353   3.255
10194SOL    HW131481   3.006   0.279   3.311
10194SOL    HW231482   2.988   0.441   3.299
10195SOL     OW31483   5.222   0.384   1.871
10195SOL    HW131484   5.280   0.448   1.922
10195SOL    HW231485   5.177   0.322   1.935
10196SOL     OW31486   5.093   3.734   4.458
10196SOL    HW131487   5.037   3.670   4.405
10196SOL    HW231488   5.033   3.793   4.513
10197SOL     OW31489   5.283   1.582   2.307
10197SOL    HW131490   5.271   1.641   2.387
10197SOL    HW231491   5.197   1.573   2.258
10198SOL     OW31492   2.825   0.656   1.734
10198SOL    HW131493   2.808   0.589   1.807
10198SOL    HW231494   2.879   0.613   1.662
10199SOL     OW31495   0.867   2.315   0.889
10199SOL    HW131496   0.793   2.365   0.934
10199SOL    HW231497   0.854   2.318   0.790
10200SOL     OW31498   5.894   5.586   5.529
10200SOL    HW131499   5.974   5.618   5.479
10200SOL    HW231500   5.866   5.655   5.595
10201SOL     OW31501   1.736   5.118   3.336
10201SOL    HW131502   1.773   5.027   3.322
10201SOL    HW231503   1.673   5.117   3.414
10202SOL     OW31504   0.398   2.631   3.014
10202SOL    HW131505   0.466   2.557   3.017
10202SOL    HW231506   0.372   2.656   3.107
10203SOL     OW31507   1.173   3.040   1.887
10203SOL    HW131508   1.218   3.037   1.976
10203SOL    HW231509   1.221   2.980   1.823
10204SOL     OW31510   3.115   4.863   4.101
10204SOL    HW131511   3.176   4.787   4.120
10204SOL    HW231512   3.153   4.947   4.140
10205SOL     OW31513   4.345   0.454   1.322
10205SOL    HW131514   4.261   0.492   1.361
10205SOL    HW231515   4.323   0.379   1.261
10206SOL     OW31516   5.010   0.435   6.047
10206SOL    HW131517   5.109   0.416   6.051
10206SOL    HW231518   4.960   0.350   6.031
10207SOL     OW31519   3.854   1.004   2.929
10207SOL    HW131520   3.941   1.045   2.954
10207SOL    HW231521   3.785   1.026   2.998
10208SOL     OW31522   6.532   4.130   5.389
10208SOL    HW131523   6.536   4.067   5.466
10208SOL    HW231524   6.506   4.221   5.423
10209SOL     OW31525   5.435   6.822   6.488
10209SOL    HW131526   5.441   6.798   6.585
10209SOL    HW231527   5.524   6.806   6.444
10210SOL     OW31528   5.445   5.926   0.799
10210SOL    HW131529   5.531   5.959   0.837
10210SOL    HW231530   5.435   5.829   0.818
10211SOL     OW31531   3.642   5.769   4.881
10211SOL    HW131532   3.623   5.728   4.970
10211SOL    HW231533   3.612   5.707   4.808
10212SOL     OW31534   6.028   6.190   5.443
10212SOL    HW131535   6.026   6.286   5.413
10212SOL    HW231536   6.099   6.141   5.393
10213SOL     OW31537   4.753   0.659   4.374
10213SOL    HW131538   4.850   0.650   4.352
10213SOL    HW231539   4.708   0.571   4.359
10214SOL     OW31540   6.971   1.370   1.293
10214SOL    HW131541   0.018   1.435   1.263
10214SOL    HW231542   6.913   1.412   1.362
10215SOL     OW31543   4.050   3.085   6.484
10215SOL    HW131544   4.025   3.111   6.577
10215SOL    HW231545   4.149   3.074   6.478
10216SOL     OW31546   4.744   0.287   2.502
10216SOL    HW131547   4.767   0.365   2.561
10216SOL    HW231548   4.685   0.318   2.428
10217SOL     OW31549   3.137   1.991   5.599
10217SOL    HW131550   3.235   1.987   5.617
10217SOL    HW231551   3.121   2.021   5.505
10218SOL     OW31552   2.795   2.443   0.324
10218SOL    HW131553   2.842   2.530   0.343
10218SOL    HW231554   2.818   2.413   0.231
10219SOL     OW31555   0.715   4.745   0.228
10219SOL    HW131556   0.724   4.699   0.316
10219SOL    HW231557   0.797   4.800   0.210
10220SOL     OW31558   4.194   2.806   0.317
10220SOL    HW131559   4.237   2.871   0.380
10220SOL    HW231560   4.184   2.717   0.362
10221SOL     OW31561   3.321   1.225   4.947
10221SOL    HW131562   3.333   1.292   5.021
10221SOL    HW231563   3.229   1.233   4.910
10222SOL     OW31564   1.920   5.186   5.723
10222SOL    HW131565   1.933   5.087   5.726
10222SOL    HW231566   1.848   5.208   5.658
10223SOL     OW31567   7.021   4.308   0.967
10223SOL    HW131568   0.070   4.365   0.925
10223SOL    HW231569   6.977   4.251   0.898
10224SOL     OW31570   2.528   0.352   4.915
10224SOL    HW131571   2.460   0.319   4.849
10224SOL    HW231572   2.610   0.381   4.866
10225SOL     OW31573   5.256   5.937   4.166
10225SOL    HW131574   5.164   5.920   4.201
10225SOL    HW231575   5.277   6.034   4.173
10226SOL     OW31576   0.137   2.928   0.274
10226SOL    HW131577   0.101   2.836   0.289
10226SOL    HW231578   0.069   2.996   0.300
10227SOL     OW31579   5.838   5.761   6.132
10227SOL    HW131580   5.741   5.764   6.104
10227SOL    HW231581   5.892   5.722   6.058
10228SOL     OW31582   1.225   4.244   2.972
10228SOL    HW131583   1.131   4.260   3.001
10228SOL    HW231584   1.269   4.331   2.951
10229SOL     OW31585   1.866   1.354   2.064
10229SOL    HW131586   1.783   1.341   2.009
10229SOL    HW231587   1.883   1.452   2.076
10230SOL     OW31588   6.269   6.453   5.009
10230SOL    HW131589   6.204   6.528   5.017
10230SOL    HW231590   6.358   6.481   5.045
10231SOL     OW31591   4.450   0.085   4.469
10231SOL    HW131592   4.415   0.115   4.381
10231SOL    HW231593   4.396   0.006   4.501
10232SOL     OW31594   3.895   2.168   4.256
10232SOL    HW131595   3.853   2.189   4.345
10232SOL    HW231596   3.947   2.083   4.263
10233SOL     OW31597   4.942   1.258   5.463
10233SOL    HW131598   4.939   1.162   5.489
10233SOL    HW231599   4.852   1.299   5.477
10234SOL     OW31600   4.720   6.072   1.690
10234SOL    HW131601   4.702   6.050   1.786
10234SOL    HW231602   4.639   6.049   1.635
10235SOL     OW31603   4.849   1.723   6.338
10235SOL    HW131604   4.802   1.648   6.385
10235SOL    HW231605   4.941   1.732   6.376
10236SOL     OW31606   2.163   6.017   1.749
10236SOL    HW131607   2.190   5.922   1.762
10236SOL    HW231608   2.126   6.030   1.657
10237SOL     OW31609   5.744   2.523   3.006
10237SOL    HW131610   5.658   2.511   2.955
10237SOL    HW231611   5.760   2.442   3.063
10238SOL     OW31612   4.606   5.667   4.249
10238SOL    HW131613   4.659   5.747   4.277
10238SOL    HW231614   4.520   5.697   4.207
10239SOL     OW31615   6.508   3.862   4.034
10239SOL    HW131616   6.599   3.875   4.073
10239SOL    HW231617   6.515   3.798   3.957
10240SOL     OW31618   6.096   3.861   3.794
10240SOL    HW131619   6.167   3.900   3.735
10240SOL    HW231620   6.049   3.787   3.745
10241SOL     OW31621   1.693   1.317   3.133
10241SOL    HW131622   1.593   1.321   3.133
10241SOL    HW231623   1.728   1.350   3.221
10242SOL     OW31624   0.736   6.354   6.351
10242SOL    HW131625   0.683   6.370   6.434
10242SOL    HW231626   0.834   6.362   6.372
10243SOL     OW31627   1.180   6.200   2.291
10243SOL    HW131628   1.081   6.201   2.309
10243SOL    HW231629   1.206   6.110   2.256
10244SOL     OW31630   1.294   6.079   0.062
10244SOL    HW131631   1.381   6.079   0.111
10244SOL    HW231632   1.294   6.005   7.016
10245SOL     OW31633   2.014   2.378   0.372
10245SOL    HW131634   2.105   2.344   0.396
10245SOL    HW231635   1.964   2.402   0.455
10246SOL     OW31636   2.992   3.824   4.145
10246SOL    HW131637   2.983   3.906   4.088
10246SOL    HW231638   3.070   3.770   4.113
10247SOL     OW31639   1.033   5.977   5.955
10247SOL    HW131640   1.131   5.989   5.971
10247SOL    HW231641   1.016   5.975   5.857
10248SOL     OW31642   4.536   0.796   2.681
10248SOL    HW131643   4.524   0.747   2.595
10248SOL    HW231644   4.574   0.734   2.750
10249SOL     OW31645   4.602   1.359   6.880
10249SOL    HW131646   4.562   1.286   6.935
10249SOL    HW231647   4.616   1.326   6.786
10250SOL     OW31648   5.353   0.150   0.404
10250SOL    HW131649   5.315   0.068   0.448
10250SOL    HW231650   5.352   0.137   0.305
10251SOL     OW31651   4.012   4.337   6.758
10251SOL    HW131652   3.948   4.411   6.740
10251SOL    HW231653   4.005   4.308   6.854
10252SOL     OW31654   6.028   5.071   2.185
10252SOL    HW131655   5.967   5.092   2.109
10252SOL    HW231656   6.023   5.144   2.253
10253SOL     OW31657   3.996   4.766   6.755
10253SOL    HW131658   3.989   4.838   6.824
10253SOL    HW231659   3.921   4.701   6.767
10254SOL     OW31660   2.203   1.528   4.116
10254SOL    HW131661   2.177   1.461   4.185
10254SOL    HW231662   2.205   1.619   4.158
10255SOL     OW31663   3.141   5.207   3.172
10255SOL    HW131664   3.232   5.194   3.134
10255SOL    HW231665   3.085   5.258   3.106
10256SOL     OW31666   6.136   6.385   6.953
10256SOL    HW131667   6.136   6.348   6.860
10256SOL    HW231668   6.076   6.464   6.958
10257SOL     OW31669   2.018   6.694   6.538
10257SOL    HW131670   2.114   6.685   6.564
10257SOL    HW231671   2.010   6.693   6.439
10258SOL     OW31672   4.146   0.139   3.489
10258SOL    HW131673   4.093   0.123   3.572
10258SOL    HW231674   4.222   0.074   3.484
10259SOL     OW31675   0.804   3.941   3.780
10259SOL    HW131676   0.801   3.855   3.832
10259SOL    HW231677   0.754   4.011   3.831
10260SOL     OW31678   0.216   6.371   1.265
10260SOL    HW131679   0.230   6.467   1.242
10260SOL    HW231680   0.125   6.343   1.234
10261SOL     OW31681   2.295   6.930   1.535
10261SOL    HW131682   2.217   6.985   1.503
10261SOL    HW231683   2.349   6.984   1.599
10262SOL     OW31684   0.983   5.648   5.105
10262SOL    HW131685   1.024   5.739   5.097
10262SOL    HW231686   0.996   5.614   5.198
10263SOL     OW31687   6.557   2.108   5.427
10263SOL    HW131688   6.642   2.063   5.399
10263SOL    HW231689   6.508   2.051   5.492
10264SOL     OW31690   0.418   6.598   7.007
10264SOL    HW131691   0.484   6.544   6.953
10264SOL    HW231692   0.373   6.539   0.051
10265SOL     OW31693   4.010   2.141   2.137
10265SOL    HW131694   3.984   2.113   2.044
10265SOL    HW231695   3.928   2.172   2.186
10266SOL     OW31696   4.154   4.105   6.066
10266SOL    HW131697   4.196   4.194   6.047
10266SOL    HW231698   4.146   4.092   6.164
10267SOL     OW31699   0.173   1.722   6.182
10267SOL    HW131700   0.212   1.800   6.231
10267SOL    HW231701   0.112   1.754   6.110
10268SOL     OW31702   6.456   4.163   1.920
10268SOL    HW131703   6.409   4.250   1.930
10268SOL    HW231704   6.412   4.109   1.848
10269SOL     OW31705   3.113   2.644   6.223
10269SOL    HW131706   3.139   2.703   6.146
10269SOL    HW231707   3.016   2.654   6.242
10270SOL     OW31708   3.050   6.394   1.162
10270SOL    HW131709   3.091   6.444   1.238
10270SOL    HW231710   3.100   6.414   1.078
10271SOL     OW31711   3.592   5.022   0.710
10271SOL    HW131712   3.609   5.050   0.805
10271SOL    HW231713   3.583   4.923   0.706
10272SOL     OW31714   0.956   1.096   5.552
10272SOL    HW131715   0.891   1.026   5.522
10272SOL    HW231716   0.950   1.175   5.491
10273SOL     OW31717   4.156   6.464   3.939
10273SOL    HW131718   4.209   6.390   3.897
10273SOL    HW231719   4.096   6.426   4.010
10274SOL     OW31720   2.104   5.855   6.610
10274SOL    HW131721   2.170   5.786   6.582
10274SOL    HW231722   2.145   5.915   6.679
10275SOL     OW31723   1.202   6.677   2.181
10275SOL    HW131724   1.114   6.630   2.187
10275SOL    HW231725   1.193   6.758   2.123
10276SOL     OW31726   6.833   6.575   0.031
10276SOL    HW131727   6.743   6.555   7.013
10276SOL    HW231728   6.832   6.552   0.128
10277SOL     OW31729   1.201   5.877   2.486
10277SOL    HW131730   1.154   5.810   2.543
10277SOL    HW231731   1.299   5.857   2.485
10278SOL     OW31732   6.636   0.184   6.576
10278SOL    HW131733   6.577   0.111   6.542
10278SOL    HW231734   6.638   0.260   6.512
10279SOL     OW31735   3.486   6.177   3.387
10279SOL    HW131736   3.507   6.259   3.441
10279SOL    HW231737   3.396   6.143   3.413
10280SOL     OW31738   3.339   2.507   6.282
10280SOL    HW131739   3.250   2.554   6.280
10280SOL    HW231740   3.401   2.556   6.343
10281SOL     OW31741   3.750   6.628   4.061
10281SOL    HW131742   3.738   6.703   4.127
10281SOL    HW231743   3.665   6.614   4.011
10282SOL     OW31744   1.256   2.637   4.868
10282SOL    HW131745   1.266   2.736   4.857
10282SOL    HW231746   1.310   2.590   4.798
10283SOL     OW31747   1.613   3.042   5.470
10283SOL    HW131748   1.589   2.956   5.424
10283SOL    HW231749   1.704   3.070   5.440
10284SOL     OW31750   5.443   3.097   6.404
10284SOL    HW131751   5.415   3.016   6.353
10284SOL    HW231752   5.363   3.155   6.421
10285SOL     OW31753   6.258   0.389   0.632
10285SOL    HW131754   6.287   0.316   0.694
10285SOL    HW231755   6.186   0.355   0.572
10286SOL     OW31756   4.318   0.546   4.139
10286SOL    HW131757   4.231   0.555   4.091
10286SOL    HW231758   4.330   0.624   4.201
10287SOL     OW31759   1.741   5.102   1.081
10287SOL    HW131760   1.822   5.091   1.138
10287SOL    HW231761   1.766   5.148   0.996
10288SOL     OW31762   5.056   6.339   4.038
10288SOL    HW131763   5.144   6.333   3.991
10288SOL    HW231764   5.066   6.396   4.120
10289SOL     OW31765   2.910   1.419   1.402
10289SOL    HW131766   2.857   1.479   1.462
10289SOL    HW231767   3.005   1.416   1.433
10290SOL     OW31768   2.868   3.556   1.957
10290SOL    HW131769   2.852   3.582   2.052
10290SOL    HW231770   2.966   3.538   1.944
10291SOL     OW31771   4.152   0.471   5.847
10291SOL    HW131772   4.161   0.374   5.868
10291SOL    HW231773   4.191   0.526   5.921
10292SOL     OW31774   6.751   0.719   4.667
10292SOL    HW131775   6.814   0.641   4.670
10292SOL    HW231776   6.729   0.740   4.572
10293SOL     OW31777   2.831   5.950   3.046
10293SOL    HW131778   2.870   5.882   2.983
10293SOL    HW231779   2.849   6.042   3.011
10294SOL     OW31780   6.007   1.759   3.053
10294SOL    HW131781   6.080   1.730   3.115
10294SOL    HW231782   5.963   1.678   3.013
10295SOL     OW31783   1.820   4.451   4.899
10295SOL    HW131784   1.901   4.449   4.957
10295SOL    HW231785   1.828   4.381   4.828
10296SOL     OW31786   6.301   2.390   0.756
10296SOL    HW131787   6.203   2.373   0.756
10296SOL    HW231788   6.319   2.486   0.775
10297SOL     OW31789   2.508   5.524   5.030
10297SOL    HW131790   2.411   5.512   5.011
10297SOL    HW231791   2.549   5.435   5.054
10298SOL     OW31792   5.596   3.960   3.346
10298SOL    HW131793   5.593   3.908   3.261
10298SOL    HW231794   5.593   3.897   3.424
10299SOL     OW31795   4.901   4.003   2.177
10299SOL    HW131796   4.897   3.940   2.255
10299SOL    HW231797   4.851   3.964   2.100
10300SOL     OW31798   2.287   5.129   2.341
10300SOL    HW131799   2.241   5.127   2.252
10300SOL    HW231800   2.291   5.223   2.374
10301SOL     OW31801   5.204   1.678   1.287
10301SOL    HW131802   5.130   1.611   1.292
10301SOL    HW231803   5.260   1.660   1.207
10302SOL     OW31804   1.240   5.341   3.571
10302SOL    HW131805   1.246   5.439   3.584
10302SOL    HW231806   1.231   5.321   3.473
10303SOL     OW31807   3.401   3.127   1.458
10303SOL    HW131808   3.312   3.132   1.413
10303SOL    HW231809   3.423   3.031   1.477
10304SOL     OW31810   6.175   6.570   4.011
10304SOL    HW131811   6.192   6.633   3.935
10304SOL    HW231812   6.084   6.529   3.999
10305SOL     OW31813   1.913   5.534   1.021
10305SOL    HW131814   1.936   5.575   0.932
10305SOL    HW231815   1.873   5.603   1.081
10306SOL     OW31816   4.346   4.826   0.250
10306SOL    HW131817   4.419   4.883   0.287
10306SOL    HW231818   4.262   4.841   0.302
10307SOL     OW31819   3.063   0.936   5.301
10307SOL    HW131820   3.071   0.956   5.398
10307SOL    HW231821   3.069   0.837   5.287
10308SOL     OW31822   3.046   5.518   3.799
10308SOL    HW131823   3.119   5.449   3.804
10308SOL    HW231824   2.958   5.474   3.816
10309SOL     OW31825   0.508   6.334   3.370
10309SOL    HW131826   0.553   6.245   3.361
10309SOL    HW231827   0.514   6.383   3.283
10310SOL     OW31828   3.168   3.336   4.549
10310SOL    HW131829   3.263   3.304   4.549
10310SOL    HW231830   3.110   3.271   4.596
10311SOL     OW31831   0.565   6.427   1.264
10311SOL    HW131832   0.472   6.445   1.234
10311SOL    HW231833   0.606   6.512   1.299
10312SOL     OW31834   2.493   4.244   0.763
10312SOL    HW131835   2.570   4.302   0.787
10312SOL    HW231836   2.462   4.194   0.844
10313SOL     OW31837   6.181   6.160   3.777
10313SOL    HW131838   6.150   6.143   3.871
10313SOL    HW231839   6.268   6.209   3.780
10314SOL     OW31840   6.448   4.850   5.578
10314SOL    HW131841   6.393   4.838   5.660
10314SOL    HW231842   6.411   4.926   5.524
10315SOL     OW31843   5.370   6.375   5.154
10315SOL    HW131844   5.424   6.405   5.075
10315SOL    HW231845   5.429   6.329   5.220
10316SOL     OW31846   0.146   3.880   2.931
10316SOL    HW131847   0.122   3.811   2.864
10316SOL    HW231848   0.235   3.858   2.972
10317SOL     OW31849   3.841   4.718   0.504
10317SOL    HW131850   3.882   4.783   0.568
10317SOL    HW231851   3.913   4.680   0.445
10318SOL     OW31852   6.610   5.621   2.094
10318SOL    HW131853   6.532   5.591   2.039
10318SOL    HW231854   6.580   5.640   2.187
10319SOL     OW31855   4.959   6.215   4.334
10319SOL    HW131856   4.973   6.184   4.240
10319SOL    HW231857   4.896   6.153   4.380
10320SOL     OW31858   4.450   6.241   1.435
10320SOL    HW131859   4.392   6.285   1.504
10320SOL    HW231860   4.524   6.303   1.408
10321SOL     OW31861   3.816   6.997   4.022
10321SOL    HW131862   3.799   6.937   4.100
10321SOL    HW231863   3.752   6.975   3.948
10322SOL     OW31864   0.055   2.676   0.335
10322SOL    HW131865   0.020   2.632   0.253
10322SOL    HW231866   0.014   2.634   0.416
10323SOL     OW31867   6.780   1.866   4.939
10323SOL    HW131868   6.744   1.958   4.959
10323SOL    HW231869   6.832   1.833   5.018
10324SOL     OW31870   3.180   3.209   3.650
10324SOL    HW131871   3.201   3.112   3.666
10324SOL    HW231872   3.263   3.263   3.663
10325SOL     OW31873   0.778   3.843   3.415
10325SOL    HW131874   0.739   3.780   3.481
10325SOL    HW231875   0.787   3.934   3.456
10326SOL     OW31876   4.813   1.500   0.963
10326SOL    HW131877   4.876   1.422   0.958
10326SOL    HW231878   4.725   1.469   0.998
10327SOL     OW31879   6.732   0.801   3.358
10327SOL    HW131880   6.704   0.898   3.354
10327SOL    HW231881   6.655   0.746   3.391
10328SOL     OW31882   5.950   3.153   2.397
10328SOL    HW131883   6.047   3.170   2.384
10328SOL    HW231884   5.936   3.058   2.425
10329SOL     OW31885   3.798   6.388   3.010
10329SOL    HW131886   3.894   6.401   2.986
10329SOL    HW231887   3.782   6.292   3.035
10330SOL     OW31888   3.330   3.978   1.153
10330SOL    HW131889   3.429   3.990   1.165
10330SOL    HW231890   3.309   3.881   1.146
10331SOL     OW31891   5.610   0.491   4.385
10331SOL    HW131892   5.520   0.479   4.428
10331SOL    HW231893   5.675   0.427   4.426
10332SOL     OW31894   0.306   1.772   0.235
10332SOL    HW131895   0.277   1.837   0.164
10332SOL    HW231896   0.313   1.681   0.195
10333SOL     OW31897   4.931   4.451   4.798
10333SOL    HW131898   4.966   4.523   4.858
10333SOL    HW231899   4.981   4.366   4.815
10334SOL     OW31900   1.128   5.277   5.114
10334SOL    HW131901   1.217   5.298   5.155
10334SOL    HW231902   1.123   5.319   5.023
10335SOL     OW31903   2.642   5.480   1.490
10335SOL    HW131904   2.613   5.533   1.411
10335SOL    HW231905   2.618   5.384   1.476
10336SOL     OW31906   4.291   6.353   2.945
10336SOL    HW131907   4.268   6.260   2.974
10336SOL    HW231908   4.329   6.403   3.023
10337SOL     OW31909   1.085   4.917   5.173
10337SOL    HW131910   1.101   4.982   5.099
10337SOL    HW231911   0.987   4.899   5.181
10338SOL     OW31912   3.527   4.957   3.055
10338SOL    HW131913   3.606   5.015   3.032
10338SOL    HW231914   3.467   4.951   2.975
10339SOL     OW31915   3.370   5.525   0.222
10339SOL    HW131916   3.319   5.467   0.159
10339SOL    HW231917   3.315   5.543   0.303
10340SOL     OW31918   2.081   6.831   0.145
10340SOL    HW131919   2.154   6.812   0.211
10340SOL    HW231920   2.121   6.847   0.055
10341SOL     OW31921   1.238   2.354   2.250
10341SOL    HW131922   1.144   2.351   2.283
10341SOL    HW231923   1.300   2.368   2.328
10342SOL     OW31924   2.977   6.413   3.550
10342SOL    HW131925   2.958   6.503   3.512
10342SOL    HW231926   3.075   6.395   3.549
10343SOL     OW31927   2.247   3.023   3.605
10343SOL    HW131928   2.160   2.979   3.628
10343SOL    HW231929   2.250   3.114   3.648
10344SOL     OW31930   4.335   3.836   0.619
10344SOL    HW131931   4.300   3.751   0.660
10344SOL    HW231932   4.421   3.817   0.573
10345SOL     OW31933   1.681   1.533   5.818
10345SOL    HW131934   1.694   1.438   5.845
10345SOL    HW231935   1.584   1.549   5.800
10346SOL     OW31936   5.667   4.756   0.723
10346SOL    HW131937   5.599   4.722   0.658
10346SOL    HW231938   5.694   4.683   0.785
10347SOL     OW31939   5.147   0.720   1.886
10347SOL    HW131940   5.141   0.657   1.808
10347SOL    HW231941   5.056   0.738   1.922
10348SOL     OW31942   6.666   4.773   6.005
10348SOL    HW131943   6.747   4.824   5.975
10348SOL    HW231944   6.608   4.833   6.061
10349SOL     OW31945   6.844   2.108   1.095
10349SOL    HW131946   6.933   2.132   1.056
10349SOL    HW231947   6.829   2.160   1.178
10350SOL     OW31948   2.147   4.624   4.852
10350SOL    HW131949   2.199   4.566   4.789
10350SOL    HW231950   2.058   4.646   4.812
10351SOL     OW31951   4.261   4.761   4.454
10351SOL    HW131952   4.164   4.783   4.454
10351SOL    HW231953   4.315   4.845   4.461
10352SOL     OW31954   6.390   1.199   6.844
10352SOL    HW131955   6.383   1.210   6.745
10352SOL    HW231956   6.457   1.263   6.881
10353SOL     OW31957   6.360   2.824   3.647
10353SOL    HW131958   6.403   2.748   3.697
10353SOL    HW231959   6.294   2.787   3.581
10354SOL     OW31960   6.459   2.865   1.562
10354SOL    HW131961   6.468   2.766   1.556
10354SOL    HW231962   6.362   2.889   1.569
10355SOL     OW31963   0.656   1.635   0.648
10355SOL    HW131964   0.719   1.692   0.702
10355SOL    HW231965   0.707   1.590   0.575
10356SOL     OW31966   5.851   3.144   5.425
10356SOL    HW131967   5.826   3.239   5.407
10356SOL    HW231968   5.890   3.137   5.517
10357SOL     OW31969   1.315   0.765   5.850
10357SOL    HW131970   1.303   0.856   5.890
10357SOL    HW231971   1.357   0.773   5.760
10358SOL     OW31972   0.710   3.209   3.319
10358SOL    HW131973   0.799   3.192   3.361
10358SOL    HW231974   0.721   3.222   3.220
10359SOL     OW31975   6.523   1.982   2.468
10359SOL    HW131976   6.565   2.066   2.502
10359SOL    HW231977   6.433   2.003   2.429
10360SOL     OW31978   5.532   4.066   1.222
10360SOL    HW131979   5.631   4.063   1.213
10360SOL    HW231980   5.507   4.070   1.319
10361SOL     OW31981   6.244   2.296   2.398
10361SOL    HW131982   6.300   2.228   2.350
10361SOL    HW231983   6.192   2.250   2.470
10362SOL     OW31984   1.474   6.319   1.573
10362SOL    HW131985   1.484   6.311   1.673
10362SOL    HW231986   1.556   6.284   1.529
10363SOL     OW31987   5.434   4.309   6.242
10363SOL    HW131988   5.348   4.352   6.270
10363SOL    HW231989   5.489   4.290   6.324
10364SOL     OW31990   6.042   4.777   2.137
10364SOL    HW131991   5.952   4.753   2.101
10364SOL    HW231992   6.035   4.862   2.189
10365SOL     OW31993   6.185   4.919   0.832
10365SOL    HW131994   6.243   4.962   0.901
10365SOL    HW231995   6.169   4.982   0.757
10366SOL     OW31996   3.240   6.101   3.444
10366SOL    HW131997   3.167   6.151   3.398
10366SOL    HW231998   3.205   6.013   3.475
10367SOL     OW31999   5.440   6.328   1.640
10367SOL    HW132000   5.503   6.342   1.563
10367SOL    HW232001   5.376   6.255   1.617
10368SOL     OW32002   2.148   6.334   1.284
10368SOL    HW132003   2.161   6.355   1.187
10368SOL    HW232004   2.080   6.397   1.323
10369SOL     OW32005   2.409   6.993   6.015
10369SOL    HW132006   2.368   0.050   6.061
10369SOL    HW232007   2.478   0.003   5.950
10370SOL     OW32008   1.482   1.226   5.180
10370SOL    HW132009   1.433   1.161   5.122
10370SOL    HW232010   1.576   1.194   5.194
10371SOL     OW32011   4.561   5.441   2.604
10371SOL    HW132012   4.478   5.389   2.624
10371SOL    HW232013   4.640   5.381   2.610
10372SOL     OW32014   2.184   6.667   1.201
10372SOL    HW132015   2.129   6.584   1.199
10372SOL    HW232016   2.160   6.725   1.123
10373SOL     OW32017   6.395   1.685   6.015
10373SOL    HW132018   6.478   1.740   6.019
10373SOL    HW232019   6.410   1.604   5.960
10374SOL     OW32020   3.336   5.198   3.469
10374SOL    HW132021   3.273   5.202   3.392
10374SOL    HW232022   3.425   5.164   3.438
10375SOL     OW32023   2.672   5.010   0.300
10375SOL    HW132024   2.696   4.913   0.298
10375SOL    HW232025   2.704   5.050   0.386
10376SOL     OW32026   1.978   5.215   4.459
10376SOL    HW132027   1.987   5.133   4.402
10376SOL    HW232028   2.057   5.223   4.519
10377SOL     OW32029   1.799   0.804   2.648
10377SOL    HW132030   1.769   0.796   2.743
10377SOL    HW232031   1.847   0.891   2.635
10378SOL     OW32032   0.149   5.481   3.905
10378SOL    HW132033   0.204   5.422   3.846
10378SOL    HW232034   0.095   5.425   3.968
10379SOL     OW32035   1.813   0.369   4.250
10379SOL    HW132036   1.796   0.381   4.348
10379SOL    HW232037   1.753   0.430   4.199
10380SOL     OW32038   3.019   2.136   4.285
10380SOL    HW132039   2.939   2.192   4.310
10380SOL    HW232040   3.046   2.156   4.191
10381SOL     OW32041   4.209   6.224   2.316
10381SOL    HW132042   4.193   6.282   2.235
10381SOL    HW232043   4.226   6.130   2.286
10382SOL     OW32044   4.140   5.528   1.202
10382SOL    HW132045   4.174   5.486   1.118
10382SOL    HW232046   4.145   5.628   1.194
10383SOL     OW32047   1.175   5.003   0.305
10383SOL    HW132048   1.224   4.999   0.218
10383SOL    HW232049   1.241   5.001   0.380
10384SOL     OW32050   5.469   5.906   1.341
10384SOL    HW132051   5.502   5.816   1.313
10384SOL    HW232052   5.547   5.962   1.370
10385SOL     OW32053   4.321   4.485   0.477
10385SOL    HW132054   4.278   4.403   0.514
10385SOL    HW232055   4.310   4.486   0.378
10386SOL     OW32056   6.840   0.956   0.814
10386SOL    HW132057   6.872   0.913   0.730
10386SOL    HW232058   6.905   1.025   0.844
10387SOL     OW32059   5.462   3.207   1.615
10387SOL    HW132060   5.435   3.277   1.549
10387SOL    HW232061   5.461   3.246   1.707
10388SOL     OW32062   2.280   6.589   5.357
10388SOL    HW132063   2.289   6.666   5.421
10388SOL    HW232064   2.262   6.625   5.265
10389SOL     OW32065   0.556   4.150   6.911
10389SOL    HW132066   0.621   4.186   6.978
10389SOL    HW232067   0.465   4.145   6.953
10390SOL     OW32068   2.600   2.492   1.897
10390SOL    HW132069   2.586   2.402   1.855
10390SOL    HW232070   2.695   2.519   1.888
10391SOL     OW32071   5.467   6.967   4.250
10391SOL    HW132072   5.553   6.924   4.225
10391SOL    HW232073   5.411   6.981   4.169
10392SOL     OW32074   6.521   3.788   4.309
10392SOL    HW132075   6.437   3.738   4.327
10392SOL    HW232076   6.520   3.824   4.216
10393SOL     OW32077   1.380   3.466   4.067
10393SOL    HW132078   1.342   3.471   4.159
10393SOL    HW232079   1.431   3.550   4.048
10394SOL     OW32080   3.182   0.435   4.291
10394SOL    HW132081   3.182   0.480   4.202
10394SOL    HW232082   3.105   0.372   4.297
10395SOL     OW32083   1.074   0.736   0.743
10395SOL    HW132084   1.124   0.750   0.829
10395SOL    HW232085   1.117   0.662   0.692
10396SOL     OW32086   2.922   2.168   4.657
10396SOL    HW132087   2.941   2.139   4.564
10396SOL    HW232088   2.855   2.106   4.699
10397SOL     OW32089   4.175   1.952   3.552
10397SOL    HW132090   4.115   1.904   3.615
10397SOL    HW232091   4.185   2.047   3.581
10398SOL     OW32092   6.176   2.948   1.510
10398SOL    HW132093   6.119   3.019   1.471
10398SOL    HW232094   6.164   2.863   1.458
10399SOL     OW32095   1.048   4.239   1.635
10399SOL    HW132096   0.999   4.169   1.689
10399SOL    HW232097   1.130   4.198   1.595
10400SOL     OW32098   3.587   5.804   0.629
10400SOL    HW132099   3.679   5.765   0.623
10400SOL    HW232100   3.553   5.821   0.536
10401SOL     OW32101   0.453   1.428   5.864
10401SOL    HW132102   0.533   1.481   5.837
10401SOL    HW232103   0.408   1.473   5.942
10402SOL     OW32104   0.341   2.839   5.036
10402SOL    HW132105   0.424   2.894   5.041
10402SOL    HW232106   0.314   2.811   5.128
10403SOL     OW32107   3.238   0.669   1.664
10403SOL    HW132108   3.145   0.705   1.673
10403SOL    HW232109   3.299   0.722   1.723
10404SOL     OW32110   0.157   6.664   6.248
10404SOL    HW132111   0.141   6.591   6.314
10404SOL    HW232112   0.130   6.752   6.288
10405SOL     OW32113   0.292   2.267   6.423
10405SOL    HW132114   0.314   2.340   6.358
10405SOL    HW232115   0.205   2.288   6.468
10406SOL     OW32116   2.640   4.896   1.257
10406SOL    HW132117   2.712   4.957   1.290
10406SOL    HW232118   2.660   4.868   1.163
10407SOL     OW32119   2.637   0.075   6.760
10407SOL    HW132120   2.670   0.075   6.854
10407SOL    HW232121   2.591   0.161   6.741
10408SOL     OW32122   4.032   1.708   6.745
10408SOL    HW132123   3.981   1.771   6.803
10408SOL    HW232124   4.127   1.704   6.776
10409SOL     OW32125   6.278   4.615   1.430
10409SOL    HW132126   6.185   4.634   1.463
10409SOL    HW232127   6.326   4.557   1.497
10410SOL     OW32128   6.028   0.334   1.013
10410SOL    HW132129   5.988   0.354   0.923
10410SOL    HW232130   5.973   0.378   1.084
10411SOL     OW32131   2.309   5.433   3.502
10411SOL    HW132132   2.309   5.368   3.577
10411SOL    HW232133   2.215   5.464   3.486
10412SOL     OW32134   6.591   0.399   0.683
10412SOL    HW132135   6.612   0.422   0.588
10412SOL    HW232136   6.521   0.328   0.686
10413SOL     OW32137   6.825   2.592   1.458
10413SOL    HW132138   6.839   2.592   1.557
10413SOL    HW232139   6.802   2.685   1.427
10414SOL     OW32140   4.579   2.539   4.224
10414SOL    HW132141   4.642   2.532   4.301
10414SOL    HW232142   4.608   2.615   4.165
10415SOL     OW32143   0.731   6.110   6.237
10415SOL    HW132144   0.755   6.204   6.263
10415SOL    HW232145   0.638   6.108   6.202
10416SOL     OW32146   5.483   2.297   4.325
10416SOL    HW132147   5.519   2.351   4.250
10416SOL    HW232148   5.508   2.201   4.312
10417SOL     OW32149   2.658   4.643   4.324
10417SOL    HW132150   2.626   4.626   4.417
10417SOL    HW232151   2.637   4.564   4.267
10418SOL     OW32152   0.826   4.636   5.674
10418SOL    HW132153   0.821   4.726   5.630
10418SOL    HW232154   0.779   4.638   5.761
10419SOL     OW32155   1.383   1.189   1.019
10419SOL    HW132156   1.335   1.242   1.090
10419SOL    HW232157   1.480   1.213   1.021
10420SOL     OW32158   0.134   3.236   3.682
10420SOL    HW132159   0.169   3.327   3.660
10420SOL    HW232160   0.138   3.178   3.600
10421SOL     OW32161   0.212   0.806   2.648
10421SOL    HW132162   0.185   0.849   2.734
10421SOL    HW232163   0.180   0.861   2.571
10422SOL     OW32164   6.223   3.105   6.406
10422SOL    HW132165   6.273   3.038   6.463
10422SOL    HW232166   6.127   3.079   6.401
10423SOL     OW32167   5.364   4.462   3.257
10423SOL    HW132168   5.380   4.365   3.269
10423SOL    HW232169   5.331   4.502   3.342
10424SOL     OW32170   5.035   2.028   6.550
10424SOL    HW132171   5.078   2.113   6.581
10424SOL    HW232172   4.935   2.040   6.550
10425SOL     OW32173   2.137   6.443   2.208
10425SOL    HW132174   2.152   6.442   2.109
10425SOL    HW232175   2.073   6.515   2.231
10426SOL     OW32176   6.661   4.445   6.928
10426SOL    HW132177   6.667   4.345   6.922
10426SOL    HW232178   6.692   4.474   7.019
10427SOL     OW32179   5.130   1.870   0.100
10427SOL    HW132180   5.114   1.947   0.039
10427SOL    HW232181   5.227   1.867   0.127
10428SOL     OW32182   4.602   0.427   4.357
10428SOL    HW132183   4.505   0.421   4.379
10428SOL    HW232184   4.625   0.357   4.289
10429SOL     OW32185   6.276   5.732   1.705
10429SOL    HW132186   6.210   5.806   1.693
10429SOL    HW232187   6.339   5.730   1.628
10430SOL     OW32188   4.085   6.467   2.409
10430SOL    HW132189   4.133   6.388   2.371
10430SOL    HW232190   4.152   6.537   2.434
10431SOL     OW32191   2.806   0.829   4.870
10431SOL    HW132192   2.759   0.767   4.807
10431SOL    HW232193   2.874   0.883   4.820
10432SOL     OW32194   5.982   0.648   5.511
10432SOL    HW132195   5.885   0.633   5.529
10432SOL    HW232196   6.026   0.561   5.489
10433SOL     OW32197   2.330   6.682   0.629
10433SOL    HW132198   2.416   6.631   0.630
10433SOL    HW232199   2.266   6.640   0.693
10434SOL     OW32200   2.025   1.128   3.919
10434SOL    HW132201   2.122   1.123   3.899
10434SOL    HW232202   1.990   1.036   3.937
10435SOL     OW32203   5.072   6.762   6.748
10435SOL    HW132204   5.142   6.761   6.819
10435SOL    HW232205   5.108   6.809   6.667
10436SOL     OW32206   1.529   5.737   3.197
10436SOL    HW132207   1.470   5.679   3.253
10436SOL    HW232208   1.565   5.812   3.253
10437SOL     OW32209   0.038   5.075   6.329
10437SOL    HW132210   0.025   4.978   6.309
10437SOL    HW232211   0.004   5.095   6.421
10438SOL     OW32212   4.117   6.191   0.055
10438SOL    HW132213   4.105   6.114   0.118
10438SOL    HW232214   4.121   6.277   0.107
10439SOL     OW32215   3.712   6.969   5.992
10439SOL    HW132216   3.757   0.034   5.972
10439SOL    HW232217   3.741   6.936   6.082
10440SOL     OW32218   2.203   5.785   0.620
10440SOL    HW132219   2.235   5.876   0.594
10440SOL    HW232220   2.269   5.744   0.684
10441SOL     OW32221   5.176   1.922   6.788
10441SOL    HW132222   5.106   1.853   6.769
10441SOL    HW232223   5.185   1.982   6.708
10442SOL     OW32224   4.091   5.238   5.726
10442SOL    HW132225   4.073   5.198   5.636
10442SOL    HW232226   4.185   5.271   5.730
10443SOL     OW32227   6.032   2.762   4.917
10443SOL    HW132228   5.968   2.797   4.985
10443SOL    HW232229   6.035   2.824   4.839
10444SOL     OW32230   3.755   4.877   3.935
10444SOL    HW132231   3.689   4.869   3.861
10444SOL    HW232232   3.814   4.957   3.919
10445SOL     OW32233   6.772   5.937   4.965
10445SOL    HW132234   6.768   5.847   5.010
10445SOL    HW232235   6.863   5.976   4.980
10446SOL     OW32236   1.154   5.444   6.526
10446SOL    HW132237   1.129   5.416   6.619
10446SOL    HW232238   1.113   5.381   6.460
10447SOL     OW32239   5.843   2.465   1.646
10447SOL    HW132240   5.865   2.540   1.707
10447SOL    HW232241   5.861   2.492   1.551
10448SOL     OW32242   3.789   4.015   2.739
10448SOL    HW132243   3.789   3.925   2.783
10448SOL    HW232244   3.782   4.004   2.640
10449SOL     OW32245   2.229   5.311   4.082
10449SOL    HW132246   2.286   5.229   4.078
10449SOL    HW232247   2.165   5.304   4.158
10450SOL     OW32248   6.506   2.585   0.906
10450SOL    HW132249   6.475   2.678   0.887
10450SOL    HW232250   6.519   2.573   1.004
10451SOL     OW32251   2.308   4.226   3.229
10451SOL    HW132252   2.278   4.151   3.171
10451SOL    HW232253   2.385   4.273   3.185
10452SOL     OW32254   0.816   3.008   4.733
10452SOL    HW132255   0.722   2.979   4.753
10452SOL    HW232256   0.817   3.106   4.715
10453SOL     OW32257   4.706   0.216   1.580
10453SOL    HW132258   4.700   0.116   1.575
10453SOL    HW232259   4.634   0.256   1.522
10454SOL     OW32260   4.952   3.484   2.361
10454SOL    HW132261   4.899   3.479   2.276
10454SOL    HW232262   5.027   3.549   2.350
10455SOL     OW32263   6.869   4.934   3.401
10455SOL    HW132264   6.818   5.011   3.362
10455SOL    HW232265   6.886   4.952   3.498
10456SOL     OW32266   4.281   5.890   0.916
10456SOL    HW132267   4.366   5.876   0.866
10456SOL    HW232268   4.301   5.911   1.012
10457SOL     OW32269   4.062   3.767   4.104
10457SOL    HW132270   4.082   3.670   4.090
10457SOL    HW232271   4.014   3.778   4.191
10458SOL     OW32272   0.742   6.864   1.182
10458SOL    HW132273   0.702   6.772   1.188
10458SOL    HW232274   0.668   6.932   1.181
10459SOL     OW32275   6.632   5.215   2.489
10459SOL    HW132276   6.553   5.243   2.544
10459SOL    HW232277   6.689   5.294   2.470
10460SOL     OW32278   1.917   5.300   2.241
10460SOL    HW132279   1.913   5.228   2.172
10460SOL    HW232280   2.012   5.328   2.255
10461SOL     OW32281   2.787   2.009   6.736
10461SOL    HW132282   2.729   1.970   6.807
10461SOL    HW232283   2.729   2.048   6.664
10462SOL     OW32284   6.848   6.996   1.079
10462SOL    HW132285   6.924   7.000   1.014
10462SOL    HW232286   6.799   6.910   1.067
10463SOL     OW32287   3.052   3.844   0.815
10463SOL    HW132288   2.989   3.813   0.887
10463SOL    HW232289   3.000   3.862   0.732
10464SOL     OW32290   5.177   0.501   1.294
10464SOL    HW132291   5.225   0.434   1.352
10464SOL    HW232292   5.201   0.485   1.198
10465SOL     OW32293   6.132   4.927   6.281
10465SOL    HW132294   6.184   5.002   6.321
10465SOL    HW232295   6.145   4.844   6.336
10466SOL     OW32296   4.873   6.145   5.985
10466SOL    HW132297   4.971   6.152   6.005
10466SOL    HW232298   4.851   6.052   5.955
10467SOL     OW32299   3.581   0.615   4.197
10467SOL    HW132300   3.650   0.652   4.258
10467SOL    HW232301   3.541   0.689   4.143
10468SOL     OW32302   3.655   6.095   2.837
10468SOL    HW132303   3.608   6.023   2.888
10468SOL    HW232304   3.739   6.057   2.797
10469SOL     OW32305   1.514   4.795   0.636
10469SOL    HW132306   1.570   4.729   0.585
10469SOL    HW232307   1.555   4.886   0.629
10470SOL     OW32308   2.968   1.706   4.303
10470SOL    HW132309   2.941   1.754   4.387
10470SOL    HW232310   2.888   1.689   4.246
10471SOL     OW32311   3.859   3.531   0.758
10471SOL    HW132312   3.873   3.582   0.843
10471SOL    HW232313   3.947   3.508   0.717
10472SOL     OW32314   4.440   1.005   2.438
10472SOL    HW132315   4.521   1.006   2.497
10472SOL    HW232316   4.413   1.099   2.418
10473SOL     OW32317   4.733   5.909   0.550
10473SOL    HW132318   4.731   5.810   0.563
10473SOL    HW232319   4.727   5.955   0.639
10474SOL     OW32320   4.218   0.158   4.808
10474SOL    HW132321   4.140   0.205   4.849
10474SOL    HW232322   4.267   0.222   4.748
10475SOL     OW32323   3.978   6.281   1.589
10475SOL    HW132324   4.058   6.220   1.586
10475SOL    HW232325   3.933   6.272   1.678
10476SOL     OW32326   0.128   4.725   0.832
10476SOL    HW132327   0.198   4.660   0.860
10476SOL    HW232328   0.160   4.818   0.845
10477SOL     OW32329   5.696   4.376   5.009
10477SOL    HW132330   5.747   4.422   4.936
10477SOL    HW232331   5.749   4.299   5.043
10478SOL     OW32332   0.630   6.727   1.731
10478SOL    HW132333   0.652   6.636   1.767
10478SOL    HW232334   0.703   6.791   1.756
10479SOL     OW32335   1.660   4.851   3.551
10479SOL    HW132336   1.568   4.858   3.513
10479SOL    HW232337   1.655   4.817   3.645
10480SOL     OW32338   5.974   6.744   2.280
10480SOL    HW132339   6.019   6.833   2.272
10480SOL    HW232340   5.968   6.702   2.190
10481SOL     OW32341   2.177   0.572   4.750
10481SOL    HW132342   2.273   0.578   4.776
10481SOL    HW232343   2.133   0.499   4.804
10482SOL     OW32344   1.118   5.379   6.239
10482SOL    HW132345   1.151   5.336   6.155
10482SOL    HW232346   1.070   5.464   6.216
10483SOL     OW32347   0.058   5.367   1.057
10483SOL    HW132348   7.015   5.301   1.094
10483SOL    HW232349   0.008   5.447   1.022
10484SOL     OW32350   6.353   1.859   1.477
10484SOL    HW132351   6.270   1.909   1.454
10484SOL    HW232352   6.332   1.788   1.544
10485SOL     OW32353   3.687   3.857   3.927
10485SOL    HW132354   3.624   3.824   3.857
10485SOL    HW232355   3.658   3.824   4.016
10486SOL     OW32356   5.965   5.959   5.564
10486SOL    HW132357   5.983   5.884   5.500
10486SOL    HW232358   5.984   6.046   5.519
10487SOL     OW32359   4.453   2.263   2.080
10487SOL    HW132360   4.394   2.280   2.158
10487SOL    HW232361   4.471   2.165   2.072
10488SOL     OW32362   6.578   2.432   5.270
10488SOL    HW132363   6.530   2.449   5.184
10488SOL    HW232364   6.642   2.507   5.288
10489SOL     OW32365   5.848   4.100   4.459
10489SOL    HW132366   5.779   4.161   4.419
10489SOL    HW232367   5.925   4.091   4.395
10490SOL     OW32368   5.877   6.395   6.648
10490SOL    HW132369   5.801   6.404   6.584
10490SOL    HW232370   5.856   6.322   6.714
10491SOL     OW32371   1.962   2.574   5.701
10491SOL    HW132372   1.904   2.498   5.730
10491SOL    HW232373   1.906   2.646   5.661
10492SOL     OW32374   3.715   0.049   6.804
10492SOL    HW132375   3.720   0.124   6.869
10492SOL    HW232376   3.807   0.028   6.770
10493SOL     OW32377   3.622   5.425   1.340
10493SOL    HW132378   3.565   5.472   1.407
10493SOL    HW232379   3.718   5.440   1.362
10494SOL     OW32380   1.447   4.427   4.952
10494SOL    HW132381   1.524   4.477   4.914
10494SOL    HW232382   1.362   4.476   4.931
10495SOL     OW32383   6.522   6.851   0.913
10495SOL    HW132384   6.459   6.777   0.891
10495SOL    HW232385   6.599   6.816   0.966
10496SOL     OW32386   0.743   3.186   5.908
10496SOL    HW132387   0.710   3.188   6.003
10496SOL    HW232388   0.836   3.221   5.904
10497SOL     OW32389   2.078   0.088   1.438
10497SOL    HW132390   2.121   0.090   1.529
10497SOL    HW232391   2.029   0.173   1.423
10498SOL     OW32392   4.834   4.308   6.992
10498SOL    HW132393   4.751   4.342   6.948
10498SOL    HW232394   4.809   4.258   0.054
10499SOL     OW32395   6.181   4.218   2.428
10499SOL    HW132396   6.168   4.268   2.342
10499SOL    HW232397   6.240   4.139   2.411
10500SOL     OW32398   0.860   3.260   5.361
10500SOL    HW132399   0.957   3.257   5.387
10500SOL    HW232400   0.826   3.353   5.373
10501SOL     OW32401   4.001   4.783   3.100
10501SOL    HW132402   4.058   4.764   3.180
10501SOL    HW232403   3.908   4.803   3.129
10502SOL     OW32404   3.173   3.606   2.476
10502SOL    HW132405   3.177   3.679   2.543
10502SOL    HW232406   3.246   3.617   2.408
10503SOL     OW32407   0.073   2.555   6.118
10503SOL    HW132408   0.036   2.647   6.106
10503SOL    HW232409   0.074   2.507   6.030
10504SOL     OW32410   1.048   3.010   5.935
10504SOL    HW132411   1.068   3.108   5.935
10504SOL    HW232412   0.973   2.991   5.870
10505SOL     OW32413   6.046   6.847   1.183
10505SOL    HW132414   6.059   6.939   1.146
10505SOL    HW232415   5.967   6.804   1.140
10506SOL     OW32416   1.504   2.713   6.604
10506SOL    HW132417   1.472   2.794   6.653
10506SOL    HW232418   1.493   2.633   6.662
10507SOL     OW32419   0.835   5.282   5.747
10507SOL    HW132420   0.884   5.349   5.803
10507SOL    HW232421   0.864   5.189   5.772
10508SOL     OW32422   1.911   4.940   5.555
10508SOL    HW132423   1.857   4.961   5.474
10508SOL    HW232424   2.005   4.972   5.542
10509SOL     OW32425   4.437   2.307   2.406
10509SOL    HW132426   4.461   2.399   2.439
10509SOL    HW232427   4.346   2.309   2.364
10510SOL     OW32428   5.719   6.168   3.894
10510SOL    HW132429   5.753   6.086   3.941
10510SOL    HW232430   5.715   6.244   3.958
10511SOL     OW32431   4.793   2.135   1.738
10511SOL    HW132432   4.792   2.091   1.648
10511SOL    HW232433   4.707   2.185   1.752
10512SOL     OW32434   4.568   0.756   5.203
10512SOL    HW132435   4.561   0.818   5.281
10512SOL    HW232436   4.538   0.803   5.120
10513SOL     OW32437   4.185   2.776   0.910
10513SOL    HW132438   4.204   2.813   0.819
10513SOL    HW232439   4.267   2.786   0.967
10514SOL     OW32440   1.387   3.533   1.673
10514SOL    HW132441   1.343   3.460   1.726
10514SOL    HW232442   1.466   3.497   1.624
10515SOL     OW32443   2.368   2.728   4.931
10515SOL    HW132444   2.455   2.679   4.927
10515SOL    HW232445   2.382   2.819   4.970
10516SOL     OW32446   4.270   2.143   1.354
10516SOL    HW132447   4.237   2.210   1.421
10516SOL    HW232448   4.241   2.051   1.381
10517SOL     OW32449   0.973   2.578   2.518
10517SOL    HW132450   1.014   2.498   2.475
10517SOL    HW232451   0.873   2.565   2.523
10518SOL     OW32452   0.599   5.400   2.966
10518SOL    HW132453   0.591   5.346   2.882
10518SOL    HW232454   0.679   5.368   3.018
10519SOL     OW32455   3.954   6.728   0.967
10519SOL    HW132456   3.967   6.701   0.872
10519SOL    HW232457   3.886   6.801   0.973
10520SOL     OW32458   1.055   2.727   5.501
10520SOL    HW132459   0.962   2.702   5.527
10520SOL    HW232460   1.070   2.825   5.518
10521SOL     OW32461   6.542   3.102   2.725
10521SOL    HW132462   6.488   3.114   2.808
10521SOL    HW232463   6.598   3.019   2.733
10522SOL     OW32464   5.130   2.119   3.894
10522SOL    HW132465   5.142   2.111   3.795
10522SOL    HW232466   5.209   2.165   3.934
10523SOL     OW32467   1.095   4.557   3.417
10523SOL    HW132468   1.064   4.473   3.462
10523SOL    HW232469   1.019   4.623   3.414
10524SOL     OW32470   0.071   6.348   5.351
10524SOL    HW132471   0.006   6.283   5.311
10524SOL    HW232472   0.159   6.302   5.367
10525SOL     OW32473   4.955   1.286   3.481
10525SOL    HW132474   4.890   1.289   3.557
10525SOL    HW232475   5.047   1.270   3.517
10526SOL     OW32476   0.772   4.505   6.962
10526SOL    HW132477   0.844   4.574   6.968
10526SOL    HW232478   0.762   4.474   6.867
10527SOL     OW32479   0.613   6.980   5.334
10527SOL    HW132480   0.707   6.976   5.367
10527SOL    HW232481   0.553   6.932   5.398
10528SOL     OW32482   1.349   3.436   5.495
10528SOL    HW132483   1.364   3.535   5.495
10528SOL    HW232484   1.422   3.391   5.444
10529SOL     OW32485   6.873   5.776   0.659
10529SOL    HW132486   6.957   5.771   0.713
10529SOL    HW232487   6.864   5.694   0.603
10530SOL     OW32488   6.938   6.256   1.475
10530SOL    HW132489   6.921   6.335   1.417
10530SOL    HW232490   0.015   6.237   1.477
10531SOL     OW32491   2.966   3.090   5.355
10531SOL    HW132492   2.937   3.152   5.282
10531SOL    HW232493   2.888   3.072   5.415
10532SOL     OW32494   5.053   6.336   6.971
10532SOL    HW132495   5.029   6.341   0.046
10532SOL    HW232496   5.028   6.421   6.926
10533SOL     OW32497   4.200   0.005   3.120
10533SOL    HW132498   4.143   6.945   3.111
10533SOL    HW232499   4.295   7.003   3.104
10534SOL     OW32500   1.407   5.834   4.334
10534SOL    HW132501   1.387   5.760   4.270
10534SOL    HW232502   1.489   5.882   4.305
10535SOL     OW32503   3.699   1.930   2.608
10535SOL    HW132504   3.630   1.949   2.538
10535SOL    HW232505   3.766   1.865   2.572
10536SOL     OW32506   4.938   3.172   4.556
10536SOL    HW132507   4.910   3.267   4.564
10536SOL    HW232508   4.927   3.126   4.644
10537SOL     OW32509   3.136   6.851   4.220
10537SOL    HW132510   3.152   6.754   4.202
10537SOL    HW232511   3.155   6.904   4.137
10538SOL     OW32512   0.437   3.678   2.818
10538SOL    HW132513   0.406   3.746   2.884
10538SOL    HW232514   0.486   3.605   2.865
10539SOL     OW32515   6.591   0.050   3.473
10539SOL    HW132516   6.513   7.011   3.460
10539SOL    HW232517   6.656   0.009   3.537
10540SOL     OW32518   1.611   4.430   6.190
10540SOL    HW132519   1.619   4.360   6.119
10540SOL    HW232520   1.600   4.520   6.148
10541SOL     OW32521   3.424   3.289   5.246
10541SOL    HW132522   3.523   3.293   5.261
10541SOL    HW232523   3.394   3.373   5.201
10542SOL     OW32524   4.837   0.106   3.759
10542SOL    HW132525   4.890   0.146   3.684
10542SOL    HW232526   4.802   0.179   3.818
10543SOL     OW32527   1.129   3.517   4.662
10543SOL    HW132528   1.168   3.438   4.711
10543SOL    HW232529   1.120   3.495   4.565
10544SOL     OW32530   2.126   1.396   3.373
10544SOL    HW132531   2.154   1.478   3.324
10544SOL    HW232532   2.187   1.321   3.349
10545SOL     OW32533   2.203   2.933   2.407
10545SOL    HW132534   2.226   2.838   2.429
10545SOL    HW232535   2.205   2.946   2.308
10546SOL     OW32536   3.258   6.735   6.469
10546SOL    HW132537   3.353   6.744   6.499
10546SOL    HW232538   3.219   6.651   6.506
10547SOL     OW32539   4.563   6.551   5.378
10547SOL    HW132540   4.527   6.577   5.468
10547SOL    HW232541   4.521   6.610   5.308
10548SOL     OW32542   6.607   6.096   3.055
10548SOL    HW132543   6.594   6.185   3.100
10548SOL    HW232544   6.523   6.043   3.062
10549SOL     OW32545   0.093   0.093   1.593
10549SOL    HW132546   0.037   0.032   1.647
10549SOL    HW232547   0.036   0.165   1.554
10550SOL     OW32548   4.735   5.741   3.441
10550SOL    HW132549   4.829   5.710   3.432
10550SOL    HW232550   4.673   5.664   3.426
10551SOL     OW32551   3.146   0.811   5.657
10551SOL    HW132552   3.090   0.891   5.636
10551SOL    HW232553   3.100   0.757   5.728
10552SOL     OW32554   3.028   0.399   3.748
10552SOL    HW132555   2.997   0.318   3.699
10552SOL    HW232556   3.008   0.480   3.694
10553SOL     OW32557   6.968   5.614   1.381
10553SOL    HW132558   0.005   5.535   1.400
10553SOL    HW232559   0.000   5.698   1.391
10554SOL     OW32560   5.428   6.181   2.496
10554SOL    HW132561   5.355   6.210   2.435
10554SOL    HW232562   5.506   6.149   2.442
10555SOL     OW32563   3.718   3.310   1.050
10555SOL    HW132564   3.618   3.305   1.048
10555SOL    HW232565   3.756   3.251   0.979
10556SOL     OW32566   2.136   1.376   2.570
10556SOL    HW132567   2.095   1.343   2.655
10556SOL    HW232568   2.065   1.389   2.501
10557SOL     OW32569   2.931   4.797   3.607
10557SOL    HW132570   3.021   4.824   3.574
10557SOL    HW232571   2.932   4.791   3.707
10558SOL     OW32572   3.413   5.288   5.006
10558SOL    HW132573   3.510   5.310   4.998
10558SOL    HW232574   3.403   5.208   5.066
10559SOL     OW32575   4.333   6.832   1.250
10559SOL    HW132576   4.280   6.905   1.294
10559SOL    HW232577   4.341   6.851   1.152
10560SOL     OW32578   5.418   6.952   2.648
10560SOL    HW132579   5.491   6.887   2.668
10560SOL    HW232580   5.451   0.023   2.662
10561SOL     OW32581   6.670   4.736   0.350
10561SOL    HW132582   6.605   4.799   0.392
10561SOL    HW232583   6.734   4.788   0.293
10562SOL     OW32584   4.373   5.571   2.412
10562SOL    HW132585   4.464   5.603   2.439
10562SOL    HW232586   4.305   5.637   2.442
10563SOL     OW32587   0.388   6.784   2.115
10563SOL    HW132588   0.383   6.838   2.199
10563SOL    HW232589   0.379   6.845   2.036
10564SOL     OW32590   5.060   4.165   3.647
10564SOL    HW132591   5.032   4.261   3.650
10564SOL    HW232592   5.069   4.130   3.740
10565SOL     OW32593   0.643   0.751   6.156
10565SOL    HW132594   0.690   0.819   6.212
10565SOL    HW232595   0.621   0.790   6.067
10566SOL     OW32596   3.865   2.931   7.004
10566SOL    HW132597   3.948   2.922   0.037
10566SOL    HW232598   3.794   2.977   0.036
10567SOL     OW32599   1.766   2.470   6.496
10567SOL    HW132600   1.678   2.425   6.508
10567SOL    HW232601   1.806   2.442   6.409
10568SOL     OW32602   4.639   2.439   6.032
10568SOL    HW132603   4.637   2.453   6.131
10568SOL    HW232604   4.692   2.357   6.011
10569SOL     OW32605   5.814   0.146   0.281
10569SOL    HW132606   5.723   0.118   0.312
10569SOL    HW232607   5.825   0.244   0.297
10570SOL     OW32608   1.049   4.243   3.448
10570SOL    HW132609   0.972   4.182   3.469
10570SOL    HW232610   1.123   4.191   3.406
10571SOL     OW32611   6.482   4.391   5.459
10571SOL    HW132612   6.580   4.389   5.440
10571SOL    HW232613   6.446   4.482   5.439
10572SOL     OW32614   6.330   4.165   1.094
10572SOL    HW132615   6.346   4.241   1.158
10572SOL    HW232616   6.345   4.197   1.001
10573SOL     OW32617   6.341   2.277   3.045
10573SOL    HW132618   6.375   2.361   3.003
10573SOL    HW232619   6.393   2.199   3.010
10574SOL     OW32620   6.139   3.134   2.671
10574SOL    HW132621   6.055   3.171   2.710
10574SOL    HW232622   6.185   3.205   2.617
10575SOL     OW32623   6.225   6.446   2.064
10575SOL    HW132624   6.272   6.430   1.977
10575SOL    HW232625   6.260   6.530   2.105
10576SOL     OW32626   1.811   4.546   4.506
10576SOL    HW132627   1.838   4.533   4.410
10576SOL    HW232628   1.714   4.523   4.516
10577SOL     OW32629   3.376   4.081   0.606
10577SOL    HW132630   3.380   3.982   0.593
10577SOL    HW232631   3.439   4.126   0.542
10578SOL     OW32632   0.368   3.574   4.059
10578SOL    HW132633   0.281   3.545   4.101
10578SOL    HW232634   0.354   3.589   3.961
10579SOL     OW32635   0.822   3.451   6.492
10579SOL    HW132636   0.796   3.500   6.409
10579SOL    HW232637   0.775   3.491   6.570
10580SOL     OW32638   6.346   6.940   0.333
10580SOL    HW132639   6.337   6.949   0.432
10580SOL    HW232640   6.402   7.015   0.297
10581SOL     OW32641   4.579   0.145   3.131
10581SOL    HW132642   4.589   0.118   3.035
10581SOL    HW232643   4.517   0.223   3.138
10582SOL     OW32644   6.037   4.111   6.236
10582SOL    HW132645   6.025   4.210   6.236
10582SOL    HW232646   5.972   4.070   6.172
10583SOL     OW32647   3.005   2.066   5.038
10583SOL    HW132648   3.072   2.140   5.041
10583SOL    HW232649   3.050   1.979   5.055
10584SOL     OW32650   1.214   6.757   3.928
10584SOL    HW132651   1.306   6.781   3.961
10584SOL    HW232652   1.187   6.669   3.966
10585SOL     OW32653   1.231   0.543   5.381
10585SOL    HW132654   1.309   0.594   5.346
10585SOL    HW232655   1.148   0.598   5.372
10586SOL     OW32656   3.949   4.209   5.241
10586SOL    HW132657   3.988   4.124   5.277
10586SOL    HW232658   4.012   4.249   5.174
10587SOL     OW32659   1.781   5.134   6.020
10587SOL    HW132660   1.843   5.211   6.011
10587SOL    HW232661   1.691   5.159   5.985
10588SOL     OW32662   1.245   4.263   3.624
10588SOL    HW132663   1.245   4.357   3.658
10588SOL    HW232664   1.162   4.248   3.569
10589SOL     OW32665   5.740   6.355   4.080
10589SOL    HW132666   5.752   6.295   4.160
10589SOL    HW232667   5.680   6.431   4.105
10590SOL     OW32668   0.744   5.344   2.258
10590SOL    HW132669   0.727   5.431   2.304
10590SOL    HW232670   0.813   5.357   2.186
10591SOL     OW32671   6.669   2.923   1.739
10591SOL    HW132672   6.683   3.003   1.798
10591SOL    HW232673   6.582   2.932   1.691
10592SOL     OW32674   0.063   1.630   4.964
10592SOL    HW132675   0.161   1.614   4.959
10592SOL    HW232676   0.035   1.695   4.894
10593SOL     OW32677   3.546   5.299   3.172
10593SOL    HW132678   3.512   5.244   3.096
10593SOL    HW232679   3.645   5.289   3.179
10594SOL     OW32680   3.113   5.573   3.533
10594SOL    HW132681   3.169   5.654   3.519
10594SOL    HW232682   3.090   5.565   3.630
10595SOL     OW32683   5.219   6.967   0.495
10595SOL    HW132684   5.173   6.902   0.435
10595SOL    HW232685   5.253   6.920   0.576
10596SOL     OW32686   5.193   3.411   0.130
10596SOL    HW132687   5.267   3.478   0.123
10596SOL    HW232688   5.213   3.333   0.070
10597SOL     OW32689   1.913   6.956   5.022
10597SOL    HW132690   1.917   6.871   5.073
10597SOL    HW232691   1.927   6.938   4.924
10598SOL     OW32692   2.669   1.255   6.042
10598SOL    HW132693   2.575   1.228   6.020
10598SOL    HW232694   2.714   1.182   6.093
10599SOL     OW32695   0.107   2.357   0.235
10599SOL    HW132696   0.164   2.372   0.316
10599SOL    HW232697   0.025   2.414   0.241
10600SOL     OW32698   3.509   2.138   1.459
10600SOL    HW132699   3.493   2.173   1.552
10600SOL    HW232700   3.582   2.070   1.461
10601SOL     OW32701   1.617   0.926   5.424
10601SOL    HW132702   1.618   1.026   5.419
10601SOL    HW232703   1.637   0.897   5.517
10602SOL     OW32704   6.999   6.909   1.360
10602SOL    HW132705   6.951   6.973   1.420
10602SOL    HW232706   0.041   6.854   1.414
10603SOL     OW32707   5.511   0.729   2.562
10603SOL    HW132708   5.479   0.823   2.575
10603SOL    HW232709   5.574   0.726   2.484
10604SOL     OW32710   4.746   0.129   4.822
10604SOL    HW132711   4.701   0.040   4.826
10604SOL    HW232712   4.758   0.155   4.726
10605SOL     OW32713   2.688   1.722   1.671
10605SOL    HW132714   2.671   1.729   1.769
10605SOL    HW232715   2.780   1.754   1.650
10606SOL     OW32716   6.373   0.863   0.412
10606SOL    HW132717   6.283   0.820   0.408
10606SOL    HW232718   6.362   0.959   0.438
10607SOL     OW32719   3.067   4.271   6.807
10607SOL    HW132720   3.065   4.362   6.849
10607SOL    HW232721   2.993   4.264   6.740
10608SOL     OW32722   6.067   4.108   3.596
10608SOL    HW132723   5.994   4.080   3.534
10608SOL    HW232724   6.042   4.083   3.690
10609SOL     OW32725   5.160   1.358   6.772
10609SOL    HW132726   5.251   1.353   6.814
10609SOL    HW232727   5.165   1.326   6.677
10610SOL     OW32728   0.298   1.574   3.694
10610SOL    HW132729   0.277   1.537   3.603
10610SOL    HW232730   0.395   1.559   3.714
10611SOL     OW32731   4.118   5.752   4.769
10611SOL    HW132732   4.203   5.704   4.749
10611SOL    HW232733   4.106   5.759   4.868
10612SOL     OW32734   5.850   2.067   3.362
10612SOL    HW132735   5.932   2.074   3.419
10612SOL    HW232736   5.772   2.107   3.410
10613SOL     OW32737   4.226   6.474   4.520
10613SOL    HW132738   4.233   6.523   4.433
10613SOL    HW232739   4.150   6.409   4.516
10614SOL     OW32740   3.695   1.768   6.147
10614SOL    HW132741   3.615   1.810   6.104
10614SOL    HW232742   3.681   1.669   6.154
10615SOL     OW32743   2.052   1.858   5.349
10615SOL    HW132744   2.105   1.896   5.426
10615SOL    HW232745   2.104   1.784   5.307
10616SOL     OW32746   1.952   6.500   0.030
10616SOL    HW132747   1.931   6.485   0.127
10616SOL    HW232748   1.868   6.515   7.001
10617SOL     OW32749   2.106   3.259   1.443
10617SOL    HW132750   2.007   3.270   1.445
10617SOL    HW232751   2.150   3.343   1.476
10618SOL     OW32752   0.891   5.379   3.698
10618SOL    HW132753   0.936   5.397   3.785
10618SOL    HW232754   0.796   5.413   3.702
10619SOL     OW32755   1.714   2.443   3.034
10619SOL    HW132756   1.762   2.369   2.985
10619SOL    HW232757   1.673   2.506   2.968
10620SOL     OW32758   3.280   1.048   6.296
10620SOL    HW132759   3.350   1.032   6.226
10620SOL    HW232760   3.208   1.106   6.259
10621SOL     OW32761   0.865   3.933   3.180
10621SOL    HW132762   0.842   3.890   3.268
10621SOL    HW232763   0.918   4.015   3.196
10622SOL     OW32764   4.306   1.701   6.817
10622SOL    HW132765   4.384   1.744   6.772
10622SOL    HW232766   4.311   1.602   6.805
10623SOL     OW32767   4.753   6.996   6.326
10623SOL    HW132768   4.779   6.907   6.364
10623SOL    HW232769   4.812   7.017   6.248
10624SOL     OW32770   0.636   2.292   0.404
10624SOL    HW132771   0.590   2.346   0.333
10624SOL    HW232772   0.578   2.215   0.430
10625SOL     OW32773   5.727   5.183   0.051
10625SOL    HW132774   5.719   5.267   0.104
10625SOL    HW232775   5.781   5.116   0.102
10626SOL     OW32776   5.560   3.225   1.153
10626SOL    HW132777   5.541   3.153   1.220
10626SOL    HW232778   5.631   3.286   1.188
10627SOL     OW32779   5.677   5.602   5.324
10627SOL    HW132780   5.609   5.673   5.336
10627SOL    HW232781   5.746   5.608   5.397
10628SOL     OW32782   3.268   6.620   0.615
10628SOL    HW132783   3.297   6.551   0.682
10628SOL    HW232784   3.289   6.587   0.523
10629SOL     OW32785   3.555   5.767   4.347
10629SOL    HW132786   3.490   5.692   4.355
10629SOL    HW232787   3.558   5.799   4.252
10630SOL     OW32788   4.176   1.449   1.674
10630SOL    HW132789   4.225   1.520   1.624
10630SOL    HW232790   4.149   1.376   1.611
10631SOL     OW32791   3.781   6.038   1.103
10631SOL    HW132792   3.766   6.022   1.201
10631SOL    HW232793   3.871   6.078   1.089
10632SOL     OW32794   5.118   6.074   3.373
10632SOL    HW132795   5.146   6.132   3.297
10632SOL    HW232796   5.140   6.120   3.459
10633SOL     OW32797   1.784   3.316   1.107
10633SOL    HW132798   1.785   3.301   1.205
10633SOL    HW232799   1.871   3.357   1.078
10634SOL     OW32800   0.147   3.853   0.092
10634SOL    HW132801   0.225   3.852   0.155
10634SOL    HW232802   0.181   3.851   7.019
10635SOL     OW32803   2.296   4.985   6.471
10635SOL    HW132804   2.216   5.037   6.443
10635SOL    HW232805   2.379   5.027   6.433
10636SOL     OW32806   6.928   2.126   0.053
10636SOL    HW132807   7.001   2.191   0.074
10636SOL    HW232808   6.900   2.137   6.980
10637SOL     OW32809   2.753   0.614   6.904
10637SOL    HW132810   2.666   0.634   6.860
10637SOL    HW232811   2.825   0.612   6.835
10638SOL     OW32812   5.618   5.505   1.554
10638SOL    HW132813   5.536   5.523   1.609
10638SOL    HW232814   5.606   5.545   1.463
10639SOL     OW32815   1.114   5.248   1.736
10639SOL    HW132816   1.017   5.254   1.758
10639SOL    HW232817   1.126   5.208   1.645
10640SOL     OW32818   4.246   6.306   3.290
10640SOL    HW132819   4.337   6.346   3.300
10640SOL    HW232820   4.248   6.238   3.217
10641SOL     OW32821   1.219   1.434   3.736
10641SOL    HW132822   1.158   1.374   3.684
10641SOL    HW232823   1.164   1.503   3.783
10642SOL     OW32824   6.732   2.766   6.118
10642SOL    HW132825   6.753   2.680   6.072
10642SOL    HW232826   6.671   2.748   6.195
10643SOL     OW32827   2.328   5.004   6.123
10643SOL    HW132828   2.246   5.039   6.168
10643SOL    HW232829   2.302   4.963   6.036
10644SOL     OW32830   6.624   3.367   2.682
10644SOL    HW132831   6.607   3.271   2.701
10644SOL    HW232832   6.587   3.424   2.755
10645SOL     OW32833   2.645   2.374   3.248
10645SOL    HW132834   2.638   2.428   3.164
10645SOL    HW232835   2.603   2.423   3.324
10646SOL     OW32836   5.333   0.779   3.481
10646SOL    HW132837   5.329   0.865   3.431
10646SOL    HW232838   5.426   0.765   3.517
10647SOL     OW32839   3.162   5.560   4.606
10647SOL    HW132840   3.069   5.595   4.605
10647SOL    HW232841   3.225   5.633   4.632
10648SOL     OW32842   4.546   4.593   5.770
10648SOL    HW132843   4.512   4.575   5.862
10648SOL    HW232844   4.583   4.509   5.730
10649SOL     OW32845   6.356   3.786   2.728
10649SOL    HW132846   6.409   3.870   2.714
10649SOL    HW232847   6.417   3.713   2.759
10650SOL     OW32848   0.734   0.113   3.913
10650SOL    HW132849   0.657   0.093   3.853
10650SOL    HW232850   0.807   0.046   3.898
10651SOL     OW32851   3.547   6.071   6.229
10651SOL    HW132852   3.595   5.995   6.186
10651SOL    HW232853   3.613   6.136   6.266
10652SOL     OW32854   2.424   0.549   0.208
10652SOL    HW132855   2.448   0.486   0.134
10652SOL    HW232856   2.501   0.556   0.272
10653SOL     OW32857   4.392   5.974   4.689
10653SOL    HW132858   4.412   5.920   4.608
10653SOL    HW232859   4.294   5.969   4.710
10654SOL     OW32860   6.187   1.456   4.443
10654SOL    HW132861   6.108   1.397   4.427
10654SOL    HW232862   6.216   1.498   4.357
10655SOL     OW32863   0.141   4.605   1.754
10655SOL    HW132864   0.167   4.540   1.826
10655SOL    HW232865   0.178   4.574   1.666
10656SOL     OW32866   5.766   2.724   3.888
10656SOL    HW132867   5.826   2.793   3.926
10656SOL    HW232868   5.727   2.757   3.802
10657SOL     OW32869   5.158   6.749   4.215
10657SOL    HW132870   5.087   6.719   4.279
10657SOL    HW232871   5.119   6.758   4.124
10658SOL     OW32872   0.877   2.789   4.889
10658SOL    HW132873   0.856   2.856   4.818
10658SOL    HW232874   0.976   2.773   4.891
10659SOL     OW32875   0.978   5.675   0.664
10659SOL    HW132876   0.943   5.693   0.756
10659SOL    HW232877   1.016   5.760   0.626
10660SOL     OW32878   5.602   2.923   5.162
10660SOL    HW132879   5.544   2.952   5.238
10660SOL    HW232880   5.645   2.835   5.184
10661SOL     OW32881   2.528   4.852   5.732
10661SOL    HW132882   2.554   4.799   5.812
10661SOL    HW232883   2.609   4.872   5.677
10662SOL     OW32884   2.640   1.243   2.112
10662SOL    HW132885   2.736   1.273   2.119
10662SOL    HW232886   2.638   1.144   2.097
10663SOL     OW32887   0.905   1.954   3.602
10663SOL    HW132888   0.909   1.907   3.513
10663SOL    HW232889   0.810   1.960   3.632
10664SOL     OW32890   0.654   5.217   4.786
10664SOL    HW132891   0.627   5.214   4.882
10664SOL    HW232892   0.651   5.312   4.753
10665SOL     OW32893   2.680   2.637   6.832
10665SOL    HW132894   2.609   2.581   6.789
10665SOL    HW232895   2.711   2.706   6.767
10666SOL     OW32896   3.673   3.808   2.115
10666SOL    HW132897   3.598   3.859   2.158
10666SOL    HW232898   3.757   3.822   2.167
10667SOL     OW32899   5.148   2.436   3.660
10667SOL    HW132900   5.127   2.340   3.640
10667SOL    HW232901   5.107   2.462   3.747
10668SOL     OW32902   3.769   2.685   5.427
10668SOL    HW132903   3.676   2.720   5.437
10668SOL    HW232904   3.766   2.589   5.399
10669SOL     OW32905   5.872   1.513   1.371
10669SOL    HW132906   5.875   1.498   1.272
10669SOL    HW232907   5.888   1.610   1.390
10670SOL     OW32908   4.862   3.631   4.316
10670SOL    HW132909   4.848   3.668   4.408
10670SOL    HW232910   4.786   3.659   4.257
10671SOL     OW32911   1.962   2.886   4.511
10671SOL    HW132912   1.943   2.880   4.413
10671SOL    HW232913   2.048   2.934   4.525
10672SOL     OW32914   6.005   3.174   1.488
10672SOL    HW132915   5.945   3.251   1.508
10672SOL    HW232916   5.957   3.107   1.431
10673SOL     OW32917   1.972   1.517   1.133
10673SOL    HW132918   1.900   1.502   1.201
10673SOL    HW232919   2.024   1.432   1.121
10674SOL     OW32920   3.922   3.949   3.416
10674SOL    HW132921   3.990   3.878   3.432
10674SOL    HW232922   3.905   3.999   3.501
10675SOL     OW32923   3.853   6.763   5.457
10675SOL    HW132924   3.902   6.774   5.371
10675SOL    HW232925   3.755   6.776   5.442
10676SOL     OW32926   1.992   6.782   5.218
10676SOL    HW132927   2.081   6.825   5.205
10676SOL    HW232928   1.968   6.784   5.316
10677SOL     OW32929   6.939   1.596   0.679
10677SOL    HW132930   6.970   1.672   0.737
10677SOL    HW232931   6.982   1.511   0.710
10678SOL     OW32932   4.124   5.578   3.523
10678SOL    HW132933   4.066   5.611   3.597
10678SOL    HW232934   4.216   5.560   3.558
10679SOL     OW32935   4.255   3.153   6.821
10679SOL    HW132936   4.251   3.063   6.777
10679SOL    HW232937   4.342   3.162   6.869
10680SOL     OW32938   4.135   1.226   4.383
10680SOL    HW132939   4.213   1.188   4.333
10680SOL    HW232940   4.076   1.275   4.318
10681SOL     OW32941   1.349   2.800   5.108
10681SOL    HW132942   1.258   2.790   5.148
10681SOL    HW232943   1.341   2.811   5.009
10682SOL     OW32944   5.332   3.544   5.802
10682SOL    HW132945   5.376   3.487   5.871
10682SOL    HW232946   5.282   3.619   5.847
10683SOL     OW32947   2.941   0.630   3.252
10683SOL    HW132948   2.947   0.730   3.256
10683SOL    HW232949   2.863   0.599   3.306
10684SOL     OW32950   4.420   4.550   2.074
10684SOL    HW132951   4.444   4.453   2.065
10684SOL    HW232952   4.482   4.605   2.017
10685SOL     OW32953   0.987   6.157   1.188
10685SOL    HW132954   1.058   6.131   1.123
10685SOL    HW232955   0.965   6.080   1.248
10686SOL     OW32956   2.581   1.879   6.484
10686SOL    HW132957   2.529   1.879   6.399
10686SOL    HW232958   2.626   1.967   6.496
10687SOL     OW32959   0.719   4.428   3.521
10687SOL    HW132960   0.797   4.485   3.546
10687SOL    HW232961   0.731   4.393   3.428
10688SOL     OW32962   5.362   2.009   2.422
10688SOL    HW132963   5.295   2.073   2.383
10688SOL    HW232964   5.430   1.985   2.352
10689SOL     OW32965   0.012   0.170   2.657
10689SOL    HW132966   0.054   0.079   2.657
10689SOL    HW232967   6.939   0.163   2.689
10690SOL     OW32968   0.097   0.088   3.951
10690SOL    HW132969   0.043   0.028   4.011
10690SOL    HW232970   0.039   0.164   3.919
10691SOL     OW32971   3.571   0.504   2.746
10691SOL    HW132972   3.592   0.497   2.648
10691SOL    HW232973   3.472   0.495   2.759
10692SOL     OW32974   2.387   0.217   3.950
10692SOL    HW132975   2.439   0.256   4.026
10692SOL    HW232976   2.440   0.228   3.865
10693SOL     OW32977   1.401   5.783   0.583
10693SOL    HW132978   1.445   5.874   0.581
10693SOL    HW232979   1.471   5.713   0.569
10694SOL     OW32980   4.266   6.888   5.220
10694SOL    HW132981   4.200   6.940   5.165
10694SOL    HW232982   4.311   6.951   5.283
10695SOL     OW32983   0.003   3.998   1.753
10695SOL    HW132984   6.937   3.954   1.735
10695SOL    HW232985   7.010   4.094   1.777
10696SOL     OW32986   6.727   4.945   4.559
10696SOL    HW132987   6.685   4.868   4.607
10696SOL    HW232988   6.826   4.942   4.572
10697SOL     OW32989   1.295   4.978   5.551
10697SOL    HW132990   1.363   5.029   5.603
10697SOL    HW232991   1.232   5.042   5.507
10698SOL     OW32992   4.724   3.098   0.053
10698SOL    HW132993   4.811   3.089   0.006
10698SOL    HW232994   4.732   3.062   0.146
10699SOL     OW32995   3.228   3.452   0.284
10699SOL    HW132996   3.276   3.387   0.343
10699SOL    HW232997   3.295   3.511   0.238
10700SOL     OW32998   4.934   0.962   0.822
10700SOL    HW132999   4.838   0.966   0.792
10700SOL    HW233000   4.937   0.957   0.922
10701SOL     OW33001   2.653   0.854   6.235
10701SOL    HW133002   2.684   0.772   6.282
10701SOL    HW233003   2.728   0.920   6.228
10702SOL     OW33004   5.411   2.254   2.125
10702SOL    HW133005   5.386   2.217   2.035
10702SOL    HW233006   5.335   2.239   2.189
10703SOL     OW33007   1.362   2.786   6.377
10703SOL    HW133008   1.359   2.886   6.370
10703SOL    HW233009   1.434   2.759   6.440
10704SOL     OW33010   6.224   6.748   2.045
10704SOL    HW133011   6.133   6.710   2.034
10704SOL    HW233012   6.258   6.780   1.957
10705SOL     OW33013   5.802   4.408   1.310
10705SOL    HW133014   5.825   4.321   1.266
10705SOL    HW233015   5.836   4.408   1.404
10706SOL     OW33016   4.807   0.525   1.888
10706SOL    HW133017   4.804   0.426   1.877
10706SOL    HW233018   4.834   0.548   1.982
10707SOL     OW33019   5.751   0.174   4.098
10707SOL    HW133020   5.783   0.156   4.005
10707SOL    HW233021   5.653   0.155   4.104
10708SOL     OW33022   4.150   1.707   2.253
10708SOL    HW133023   4.117   1.761   2.330
10708SOL    HW233024   4.076   1.650   2.217
10709SOL     OW33025   5.780   5.559   3.599
10709SOL    HW133026   5.876   5.563   3.627
10709SOL    HW233027   5.747   5.651   3.582
10710SOL     OW33028   5.643   1.439   3.068
10710SOL    HW133029   5.671   1.426   3.163
10710SOL    HW233030   5.582   1.364   3.041
10711SOL     OW33031   3.735   6.831   1.831
10711SOL    HW133032   3.763   6.736   1.839
10711SOL    HW233033   3.804   6.882   1.778
10712SOL     OW33034   4.923   6.838   2.819
10712SOL    HW133035   4.859   6.863   2.747
10712SOL    HW233036   4.988   6.912   2.834
10713SOL     OW33037   1.487   4.171   0.821
10713SOL    HW133038   1.405   4.159   0.877
10713SOL    HW233039   1.499   4.269   0.801
10714SOL     OW33040   4.039   3.201   4.244
10714SOL    HW133041   4.020   3.106   4.220
10714SOL    HW233042   4.013   3.261   4.168
10715SOL     OW33043   6.206   0.888   2.246
10715SOL    HW133044   6.253   0.860   2.329
10715SOL    HW233045   6.133   0.822   2.226
10716SOL     OW33046   6.134   2.681   3.576
10716SOL    HW133047   6.072   2.755   3.550
10716SOL    HW233048   6.090   2.593   3.556
10717SOL     OW33049   1.075   2.344   6.816
10717SOL    HW133050   1.067   2.252   6.854
10717SOL    HW233051   1.017   2.352   6.735
10718SOL     OW33052   1.210   4.861   5.781
10718SOL    HW133053   1.228   4.906   5.693
10718SOL    HW233054   1.218   4.762   5.770
10719SOL     OW33055   6.460   5.346   4.564
10719SOL    HW133056   6.384   5.284   4.578
10719SOL    HW233057   6.546   5.298   4.582
10720SOL     OW33058   5.693   5.643   4.119
10720SOL    HW133059   5.624   5.575   4.145
10720SOL    HW233060   5.782   5.614   4.154
10721SOL     OW33061   5.102   3.828   5.066
10721SOL    HW133062   5.066   3.824   5.160
10721SOL    HW233063   5.201   3.841   5.070
10722SOL     OW33064   7.015   3.933   6.056
10722SOL    HW133065   0.019   3.848   6.103
10722SOL    HW233066   6.927   3.965   6.091
10723SOL     OW33067   0.271   0.390   0.082
10723SOL    HW133068   0.295   0.305   0.127
10723SOL    HW233069   0.347   0.420   0.024
10724SOL     OW33070   6.828   6.327   0.302
10724SOL    HW133071   6.891   6.359   0.373
10724SOL    HW233072   6.881   6.290   0.225
10725SOL     OW33073   2.544   5.451   5.322
10725SOL    HW133074   2.579   5.438   5.229
10725SOL    HW233075   2.606   5.512   5.372
10726SOL     OW33076   4.685   0.707   3.628
10726SOL    HW133077   4.603   0.664   3.591
10726SOL    HW233078   4.722   0.651   3.701
10727SOL     OW33079   1.315   5.723   6.128
10727SOL    HW133080   1.362   5.716   6.216
10727SOL    HW233081   1.373   5.772   6.064
10728SOL     OW33082   6.782   5.332   0.745
10728SOL    HW133083   6.708   5.272   0.716
10728SOL    HW233084   6.745   5.411   0.793
10729SOL     OW33085   6.471   2.235   1.308
10729SOL    HW133086   6.505   2.155   1.259
10729SOL    HW233087   6.376   2.252   1.283
10730SOL     OW33088   4.390   0.696   1.850
10730SOL    HW133089   4.303   0.652   1.875
10730SOL    HW233090   4.371   0.783   1.806
10731SOL     OW33091   4.102   1.099   0.860
10731SOL    HW133092   4.184   1.093   0.916
10731SOL    HW233093   4.109   1.178   0.799
10732SOL     OW33094   0.229   5.203   4.988
10732SOL    HW133095   0.256   5.132   5.054
10732SOL    HW233096   0.149   5.251   5.023
10733SOL     OW33097   6.072   2.195   6.695
10733SOL    HW133098   6.001   2.166   6.760
10733SOL    HW233099   6.029   2.240   6.617
10734SOL     OW33100   1.114   1.825   1.650
10734SOL    HW133101   1.176   1.799   1.724
10734SOL    HW233102   1.043   1.755   1.640
10735SOL     OW33103   0.425   3.463   2.120
10735SOL    HW133104   0.354   3.521   2.159
10735SOL    HW233105   0.408   3.451   2.022
10736SOL     OW33106   2.796   6.715   4.071
10736SOL    HW133107   2.712   6.755   4.034
10736SOL    HW233108   2.871   6.732   4.007
10737SOL     OW33109   0.216   2.371   1.805
10737SOL    HW133110   0.178   2.456   1.768
10737SOL    HW233111   0.259   2.319   1.731
10738SOL     OW33112   4.331   0.250   3.193
10738SOL    HW133113   4.302   0.289   3.281
10738SOL    HW233114   4.284   0.163   3.178
10739SOL     OW33115   2.285   2.149   1.633
10739SOL    HW133116   2.349   2.125   1.706
10739SOL    HW233117   2.191   2.132   1.665
10740SOL     OW33118   5.231   4.729   4.641
10740SOL    HW133119   5.227   4.808   4.703
10740SOL    HW233120   5.138   4.693   4.628
10741SOL     OW33121   3.675   0.313   1.999
10741SOL    HW133122   3.691   0.215   1.986
10741SOL    HW233123   3.608   0.345   1.933
10742SOL     OW33124   5.586   5.024   1.287
10742SOL    HW133125   5.648   4.976   1.349
10742SOL    HW233126   5.607   4.998   1.192
10743SOL     OW33127   2.514   2.265   3.512
10743SOL    HW133128   2.508   2.363   3.531
10743SOL    HW233129   2.564   2.220   3.586
10744SOL     OW33130   4.026   2.362   0.921
10744SOL    HW133131   4.086   2.303   0.976
10744SOL    HW233132   3.959   2.405   0.981
10745SOL     OW33133   0.082   6.083   6.012
10745SOL    HW133134   0.114   6.169   5.972
10745SOL    HW233135   0.128   6.068   6.099
10746SOL     OW33136   0.712   3.803   5.268
10746SOL    HW133137   0.690   3.898   5.289
10746SOL    HW233138   0.794   3.800   5.210
10747SOL     OW33139   3.393   0.960   4.462
10747SOL    HW133140   3.318   1.024   4.478
10747SOL    HW233141   3.383   0.881   4.522
10748SOL     OW33142   5.403   1.334   2.487
10748SOL    HW133143   5.377   1.402   2.419
10748SOL    HW233144   5.323   1.279   2.513
10749SOL     OW33145   1.390   6.507   4.693
10749SOL    HW133146   1.414   6.420   4.737
10749SOL    HW233147   1.352   6.570   4.761
10750SOL     OW33148   4.038   0.583   4.922
10750SOL    HW133149   4.025   0.637   5.005
10750SOL    HW233150   4.089   0.638   4.855
10751SOL     OW33151   1.765   5.271   4.238
10751SOL    HW133152   1.790   5.368   4.241
10751SOL    HW233153   1.832   5.218   4.291
10752SOL     OW33154   5.044   4.621   4.982
10752SOL    HW133155   5.002   4.712   4.979
10752SOL    HW233156   5.116   4.621   5.051
10753SOL     OW33157   0.359   2.938   3.887
10753SOL    HW133158   0.318   3.027   3.905
10753SOL    HW233159   0.307   2.867   3.934
10754SOL     OW33160   0.803   0.325   3.067
10754SOL    HW133161   0.829   0.377   3.149
10754SOL    HW233162   0.884   0.306   3.012
10755SOL     OW33163   6.672   6.817   2.059
10755SOL    HW133164   6.667   6.718   2.047
10755SOL    HW233165   6.649   6.862   1.973
10756SOL     OW33166   6.929   6.171   5.201
10756SOL    HW133167   6.845   6.159   5.254
10756SOL    HW233168   6.912   6.233   5.125
10757SOL     OW33169   2.155   2.830   0.636
10757SOL    HW133170   2.149   2.749   0.694
10757SOL    HW233171   2.136   2.804   0.541
10758SOL     OW33172   0.699   6.535   3.554
10758SOL    HW133173   0.732   6.550   3.647
10758SOL    HW233174   0.703   6.437   3.532
10759SOL     OW33175   0.740   2.782   0.445
10759SOL    HW133176   0.667   2.850   0.433
10759SOL    HW233177   0.826   2.829   0.466
10760SOL     OW33178   6.051   1.088   3.397
10760SOL    HW133179   6.141   1.097   3.355
10760SOL    HW233180   6.042   1.153   3.472
10761SOL     OW33181   2.216   5.321   5.977
10761SOL    HW133182   2.117   5.324   5.992
10761SOL    HW233183   2.235   5.274   5.891
10762SOL     OW33184   2.722   0.642   4.674
10762SOL    HW133185   2.786   0.660   4.600
10762SOL    HW233186   2.710   0.543   4.685
10763SOL     OW33187   3.756   0.723   3.495
10763SOL    HW133188   3.765   0.658   3.570
10763SOL    HW233189   3.782   0.678   3.409
10764SOL     OW33190   4.723   1.252   4.053
10764SOL    HW133191   4.751   1.157   4.040
10764SOL    HW233192   4.716   1.271   4.151
10765SOL     OW33193   5.036   3.400   1.411
10765SOL    HW133194   4.943   3.363   1.417
10765SOL    HW233195   5.036   3.483   1.356
10766SOL     OW33196   3.150   3.512   1.053
10766SOL    HW133197   3.184   3.512   1.147
10766SOL    HW233198   3.087   3.436   1.040
10767SOL     OW33199   2.285   0.399   1.339
10767SOL    HW133200   2.276   0.313   1.288
10767SOL    HW233201   2.212   0.405   1.407
10768SOL     OW33202   6.513   4.998   0.905
10768SOL    HW133203   6.528   4.998   1.003
10768SOL    HW233204   6.524   4.905   0.869
10769SOL     OW33205   2.324   3.822   6.134
10769SOL    HW133206   2.268   3.887   6.186
10769SOL    HW233207   2.363   3.868   6.055
10770SOL     OW33208   4.422   5.833   3.406
10770SOL    HW133209   4.407   5.835   3.307
10770SOL    HW233210   4.513   5.798   3.425
10771SOL     OW33211   3.081   0.005   3.775
10771SOL    HW133212   3.152   6.958   3.762
10771SOL    HW233213   3.118   0.082   3.828
10772SOL     OW33214   6.013   5.884   4.357
10772SOL    HW133215   5.953   5.961   4.379
10772SOL    HW233216   5.961   5.798   4.365
10773SOL     OW33217   5.171   4.845   4.105
10773SOL    HW133218   5.102   4.917   4.117
10773SOL    HW233219   5.252   4.883   4.060
10774SOL     OW33220   1.235   0.762   3.719
10774SOL    HW133221   1.179   0.785   3.640
10774SOL    HW233222   1.312   0.705   3.690
10775SOL     OW33223   1.012   4.491   1.966
10775SOL    HW133224   1.025   4.470   2.063
10775SOL    HW233225   1.101   4.511   1.924
10776SOL     OW33226   2.298   0.759   6.445
10776SOL    HW133227   2.258   0.774   6.535
10776SOL    HW233228   2.363   0.683   6.449
10777SOL     OW33229   3.372   5.528   1.437
10777SOL    HW133230   3.341   5.608   1.489
10777SOL    HW233231   3.294   5.471   1.414
10778SOL     OW33232   5.428   6.564   3.963
10778SOL    HW133233   5.369   6.489   3.937
10778SOL    HW233234   5.431   6.572   4.063
10779SOL     OW33235   5.983   2.930   3.475
10779SOL    HW133236   6.030   2.990   3.410
10779SOL    HW233237   5.930   2.986   3.539
10780SOL     OW33238   0.572   1.420   3.265
10780SOL    HW133239   0.657   1.369   3.252
10780SOL    HW233240   0.522   1.425   3.178
10781SOL     OW33241   3.473   0.116   4.311
10781SOL    HW133242   3.462   0.214   4.295
10781SOL    HW233243   3.416   0.088   4.388
10782SOL     OW33244   5.925   6.687   4.450
10782SOL    HW133245   5.873   6.674   4.534
10782SOL    HW233246   5.897   6.773   4.407
10783SOL     OW33247   6.454   2.492   2.956
10783SOL    HW133248   6.550   2.504   2.929
10783SOL    HW233249   6.395   2.547   2.897
10784SOL     OW33250   2.634   1.321   3.712
10784SOL    HW133251   2.592   1.361   3.793
10784SOL    HW233252   2.732   1.339   3.713
10785SOL     OW33253   0.564   3.655   6.962
10785SOL    HW133254   0.614   3.712   0.005
10785SOL    HW233255   0.478   3.700   6.937
10786SOL     OW33256   6.231   5.612   2.828
10786SOL    HW133257   6.272   5.589   2.916
10786SOL    HW233258   6.133   5.630   2.839
10787SOL     OW33259   0.835   1.022   4.827
10787SOL    HW133260   0.814   1.098   4.766
10787SOL    HW233261   0.876   1.057   4.911
10788SOL     OW33262   0.201   3.879   6.627
10788SOL    HW133263   0.108   3.857   6.657
10788SOL    HW233264   0.218   3.838   6.538
10789SOL     OW33265   6.932   2.547   0.126
10789SOL    HW133266   6.960   2.529   0.032
10789SOL    HW233267   6.849   2.496   0.148
10790SOL     OW33268   0.295   7.007   1.955
10790SOL    HW133269   0.308   0.073   2.001
10790SOL    HW233270   0.279   7.021   1.858
10791SOL     OW33271   6.362   6.149   2.450
10791SOL    HW133272   6.450   6.171   2.493
10791SOL    HW233273   6.365   6.056   2.412
10792SOL     OW33274   3.900   3.585   5.018
10792SOL    HW133275   3.812   3.601   4.973
10792SOL    HW233276   3.961   3.662   5.000
10793SOL     OW33277   5.638   3.347   5.109
10793SOL    HW133278   5.722   3.377   5.154
10793SOL    HW233279   5.569   3.325   5.178
10794SOL     OW33280   3.616   3.166   3.841
10794SOL    HW133281   3.650   3.216   3.920
10794SOL    HW233282   3.639   3.216   3.757
10795SOL     OW33283   0.952   4.327   3.047
10795SOL    HW133284   0.990   4.419   3.060
10795SOL    HW233285   0.852   4.334   3.036
10796SOL     OW33286   0.725   6.603   5.166
10796SOL    HW133287   0.720   6.538   5.090
10796SOL    HW233288   0.636   6.607   5.212
10797SOL     OW33289   4.191   3.186   0.600
10797SOL    HW133290   4.230   3.172   0.691
10797SOL    HW233291   4.113   3.125   0.587
10798SOL     OW33292   1.435   1.281   1.624
10798SOL    HW133293   1.356   1.342   1.629
10798SOL    HW233294   1.424   1.217   1.548
10799SOL     OW33295   3.866   1.181   2.215
10799SOL    HW133296   3.805   1.259   2.201
10799SOL    HW233297   3.824   1.099   2.176
10800SOL     OW33298   1.289   6.544   6.853
10800SOL    HW133299   1.312   6.447   6.861
10800SOL    HW233300   1.275   6.567   6.757
10801SOL     OW33301   1.581   0.883   0.540
10801SOL    HW133302   1.524   0.828   0.479
10801SOL    HW233303   1.592   0.974   0.501
10802SOL     OW33304   6.406   6.526   3.128
10802SOL    HW133305   6.369   6.619   3.129
10802SOL    HW233306   6.337   6.462   3.162
10803SOL     OW33307   1.524   5.335   6.562
10803SOL    HW133308   1.498   5.242   6.586
10803SOL    HW233309   1.544   5.340   6.464
10804SOL     OW33310   0.493   3.288   4.008
10804SOL    HW133311   0.478   3.385   4.026
10804SOL    HW233312   0.410   3.247   3.970
10805SOL     OW33313   5.912   0.873   5.345
10805SOL    HW133314   5.862   0.825   5.273
10805SOL    HW233315   5.937   0.809   5.418
10806SOL     OW33316   1.806   4.563   6.854
10806SOL    HW133317   1.855   4.488   6.899
10806SOL    HW233318   1.761   4.620   6.923
10807SOL     OW33319   2.529   6.356   3.737
10807SOL    HW133320   2.514   6.454   3.727
10807SOL    HW233321   2.551   6.336   3.833
10808SOL     OW33322   0.545   2.127   5.927
10808SOL    HW133323   0.464   2.170   5.887
10808SOL    HW233324   0.619   2.195   5.931
10809SOL     OW33325   2.506   5.374   4.621
10809SOL    HW133326   2.507   5.315   4.701
10809SOL    HW233327   2.417   5.420   4.615
10810SOL     OW33328   0.449   0.199   4.354
10810SOL    HW133329   0.437   0.296   4.376
10810SOL    HW233330   0.541   0.170   4.380
10811SOL     OW33331   4.511   5.005   4.905
10811SOL    HW133332   4.600   5.026   4.866
10811SOL    HW233333   4.470   4.928   4.857
10812SOL     OW33334   0.362   2.777   6.781
10812SOL    HW133335   0.300   2.838   6.731
10812SOL    HW233336   0.446   2.826   6.802
10813SOL     OW33337   0.277   3.388   6.232
10813SOL    HW133338   0.256   3.363   6.137
10813SOL    HW233339   0.368   3.430   6.236
10814SOL     OW33340   2.074   0.414   0.354
10814SOL    HW133341   2.006   0.482   0.381
10814SOL    HW233342   2.086   0.418   0.255
10815SOL     OW33343   5.058   0.922   4.436
10815SOL    HW133344   5.050   0.868   4.352
10815SOL    HW233345   5.078   1.017   4.412
10816SOL     OW33346   3.699   2.964   3.400
10816SOL    HW133347   3.651   2.905   3.334
10816SOL    HW233348   3.634   3.028   3.441
10817SOL     OW33349   2.472   0.040   3.056
10817SOL    HW133350   2.517   0.113   3.107
10817SOL    HW233351   2.429   6.998   3.119
10818SOL     OW33352   4.223   4.882   5.976
10818SOL    HW133353   4.290   4.871   6.050
10818SOL    HW233354   4.268   4.866   5.888
10819SOL     OW33355   6.985   5.895   6.278
10819SOL    HW133356   6.957   5.971   6.337
10819SOL    HW233357   0.061   5.901   6.260
10820SOL     OW33358   1.936   4.434   5.611
10820SOL    HW133359   1.997   4.355   5.609
10820SOL    HW233360   1.892   4.444   5.521
10821SOL     OW33361   4.711   4.965   3.177
10821SOL    HW133362   4.742   4.929   3.264
10821SOL    HW233363   4.673   5.056   3.190
10822SOL     OW33364   5.799   2.742   0.918
10822SOL    HW133365   5.797   2.842   0.922
10822SOL    HW233366   5.743   2.711   0.842
10823SOL     OW33367   6.527   6.529   2.880
10823SOL    HW133368   6.477   6.536   2.966
10823SOL    HW233369   6.482   6.461   2.821
10824SOL     OW33370   1.191   1.336   4.152
10824SOL    HW133371   1.133   1.411   4.185
10824SOL    HW233372   1.257   1.372   4.086
10825SOL     OW33373   1.322   1.850   0.792
10825SOL    HW133374   1.377   1.932   0.810
10825SOL    HW233375   1.303   1.803   0.878
10826SOL     OW33376   1.274   2.828   3.056
10826SOL    HW133377   1.372   2.844   3.070
10826SOL    HW233378   1.245   2.873   2.972
10827SOL     OW33379   6.850   3.237   5.092
10827SOL    HW133380   6.867   3.285   5.178
10827SOL    HW233381   6.827   3.141   5.112
10828SOL     OW33382   6.385   4.596   5.986
10828SOL    HW133383   6.417   4.685   6.018
10828SOL    HW233384   6.438   4.569   5.905
10829SOL     OW33385   4.087   3.617   5.857
10829SOL    HW133386   4.116   3.709   5.882
10829SOL    HW233387   4.142   3.584   5.781
10830SOL     OW33388   4.770   0.954   3.549
10830SOL    HW133389   4.712   0.875   3.568
10830SOL    HW233390   4.866   0.929   3.561
10831SOL     OW33391   3.717   0.899   2.616
10831SOL    HW133392   3.641   0.838   2.639
10831SOL    HW233393   3.699   0.942   2.527
10832SOL     OW33394   6.687   3.608   0.094
10832SOL    HW133395   6.754   3.579   0.163
10832SOL    HW233396   6.611   3.654   0.138
10833SOL     OW33397   0.664   0.977   0.756
10833SOL    HW133398   0.657   0.972   0.657
10833SOL    HW233399   0.588   1.030   0.793
10834SOL     OW33400   6.351   6.585   0.614
10834SOL    HW133401   6.326   6.489   0.627
10834SOL    HW233402   6.352   6.631   0.703
10835SOL     OW33403   6.815   2.408   5.701
10835SOL    HW133404   6.858   2.440   5.617
10835SOL    HW233405   6.884   2.369   5.762
10836SOL     OW33406   6.973   1.875   3.688
10836SOL    HW133407   6.935   1.795   3.734
10836SOL    HW233408   0.044   1.891   3.721
10837SOL     OW33409   0.064   4.359   2.830
10837SOL    HW133410   0.153   4.313   2.827
10837SOL    HW233411   7.015   4.295   2.799
10838SOL     OW33412   6.158   5.912   4.125
10838SOL    HW133413   6.210   5.827   4.120
10838SOL    HW233414   6.099   5.910   4.206
10839SOL     OW33415   4.556   3.763   0.465
10839SOL    HW133416   4.583   3.859   0.457
10839SOL    HW233417   4.609   3.708   0.401
10840SOL     OW33418   2.912   0.617   1.020
10840SOL    HW133419   2.903   0.518   1.033
10840SOL    HW233420   2.959   0.635   0.934
10841SOL     OW33421   0.958   5.040   4.552
10841SOL    HW133422   1.012   5.122   4.534
10841SOL    HW233423   0.951   5.026   4.651
10842SOL     OW33424   5.086   4.092   0.691
10842SOL    HW133425   5.136   4.035   0.757
10842SOL    HW233426   5.120   4.073   0.599
10843SOL     OW33427   2.146   2.434   1.460
10843SOL    HW133428   2.167   2.368   1.532
10843SOL    HW233429   2.229   2.481   1.432
10844SOL     OW33430   0.754   5.481   5.248
10844SOL    HW133431   0.659   5.512   5.249
10844SOL    HW233432   0.757   5.381   5.239
10845SOL     OW33433   4.460   6.691   5.155
10845SOL    HW133434   4.382   6.666   5.098
10845SOL    HW233435   4.440   6.774   5.206
10846SOL     OW33436   5.479   0.291   0.663
10846SOL    HW133437   5.440   0.253   0.579
10846SOL    HW233438   5.545   0.226   0.701
10847SOL     OW33439   1.828   1.843   0.104
10847SOL    HW133440   1.887   1.920   0.131
10847SOL    HW233441   1.745   1.844   0.160
10848SOL     OW33442   1.976   4.309   1.507
10848SOL    HW133443   1.924   4.351   1.581
10848SOL    HW233444   1.942   4.343   1.419
10849SOL     OW33445   2.219   5.957   3.972
10849SOL    HW133446   2.307   5.955   4.018
10849SOL    HW233447   2.212   5.879   3.909
10850SOL     OW33448   3.676   6.639   6.964
10850SOL    HW133449   3.602   6.597   6.913
10850SOL    HW233450   3.651   6.732   6.989
10851SOL     OW33451   2.226   5.056   1.499
10851SOL    HW133452   2.240   5.123   1.426
10851SOL    HW233453   2.289   4.979   1.487
10852SOL     OW33454   2.002   1.657   1.363
10852SOL    HW133455   1.993   1.622   1.270
10852SOL    HW233456   2.080   1.614   1.408
10853SOL     OW33457   2.728   1.847   6.201
10853SOL    HW133458   2.684   1.903   6.131
10853SOL    HW233459   2.673   1.765   6.216
10854SOL     OW33460   4.482   6.289   5.387
10854SOL    HW133461   4.521   6.381   5.392
10854SOL    HW233462   4.425   6.272   5.467
10855SOL     OW33463   3.556   0.790   0.599
10855SOL    HW133464   3.546   0.748   0.509
10855SOL    HW233465   3.590   0.722   0.664
10856SOL     OW33466   0.079   1.177   0.514
10856SOL    HW133467   0.139   1.210   0.441
10856SOL    HW233468   7.021   1.132   0.473
10857SOL     OW33469   6.032   1.795   2.742
10857SOL    HW133470   6.070   1.833   2.657
10857SOL    HW233471   6.093   1.817   2.818
10858SOL     OW33472   2.645   5.994   1.224
10858SOL    HW133473   2.577   6.025   1.290
10858SOL    HW233474   2.736   6.000   1.266
10859SOL     OW33475   0.880   5.706   3.662
10859SOL    HW133476   0.937   5.651   3.722
10859SOL    HW233477   0.934   5.736   3.583
10860SOL     OW33478   6.654   2.885   3.016
10860SOL    HW133479   6.676   2.805   2.960
10860SOL    HW233480   6.632   2.856   3.109
10861SOL     OW33481   3.843   3.001   4.233
10861SOL    HW133482   3.781   2.969   4.305
10861SOL    HW233483   3.829   2.946   4.151
10862SOL     OW33484   1.276   0.290   4.953
10862SOL    HW133485   1.335   0.257   5.027
10862SOL    HW233486   1.183   0.256   4.968
10863SOL     OW33487   2.946   5.739   4.602
10863SOL    HW133488   2.923   5.836   4.592
10863SOL    HW233489   2.880   5.684   4.551
10864SOL     OW33490   3.390   6.177   2.721
10864SOL    HW133491   3.330   6.126   2.783
10864SOL    HW233492   3.468   6.213   2.772
10865SOL     OW33493   6.491   2.023   6.049
10865SOL    HW133494   6.567   1.960   6.035
10865SOL    HW233495   6.478   2.038   6.147
10866SOL     OW33496   5.470   4.697   0.526
10866SOL    HW133497   5.496   4.638   0.449
10866SOL    HW233498   5.370   4.699   0.534
10867SOL     OW33499   3.475   3.298   0.395
10867SOL    HW133500   3.496   3.267   0.302
10867SOL    HW233501   3.515   3.234   0.461
10868SOL     OW33502   3.199   1.584   2.913
10868SOL    HW133503   3.256   1.634   2.848
10868SOL    HW233504   3.256   1.528   2.972
10869NA      NA33505   6.436   2.321   5.444
10870NA      NA33506   4.318   4.543   5.314
10871NA      NA33507   2.232   3.693   1.543
10872NA      NA33508   4.824   3.871   5.080
10873NA      NA33509   4.072   2.294   5.220
10874NA      NA33510   3.759   4.716   1.712
10875NA      NA33511   6.755   5.786   5.841
10876NA      NA33512   3.918   3.402   5.160
10877NA      NA33513   4.737   6.810   0.107
10878NA      NA33514   3.517   6.965   5.359
10879NA      NA33515   6.459   4.873   2.153
10880NA      NA33516   2.129   0.615   2.920
10881NA      NA33517   3.230   4.361   0.921
10882NA      NA33518   3.517   3.648   2.967
   7.02177   7.02177   7.02177
