Generated by trjconv : CNT in water t=  38.00000
33518
    1C        C    1   2.836   2.766   4.742
    1C        C    2   2.895   2.720   4.861
    1C        C    3   2.838   2.772   4.978
    1C        C    4   2.845   2.769   4.257
    1C        C    5   2.896   2.719   4.379
    1C        C    6   2.840   2.764   4.500
    1C        C    7   3.007   2.633   4.622
    1C        C    8   2.894   2.719   4.622
    1C        C    9   3.069   2.593   4.743
    1C        C   10   3.000   2.626   4.863
    1C        C   11   3.176   2.488   4.971
    1C        C   12   3.056   2.560   4.973
    1C        C   13   2.850   2.768   3.766
    1C        C   14   2.898   2.719   3.889
    1C        C   15   2.848   2.767   4.012
    1C        C   16   3.015   2.639   4.135
    1C        C   17   2.902   2.724   4.136
    1C        C   18   3.075   2.603   4.258
    1C        C   19   3.014   2.642   4.379
    1C        C   20   3.203   2.549   4.497
    1C        C   21   3.071   2.600   4.501
    1C        C   22   3.273   2.529   4.618
    1C        C   23   3.202   2.544   4.740
    1C        C   24   3.407   2.487   4.861
    1C        C   25   3.265   2.499   4.859
    1C        C   26   3.485   2.469   4.976
    1C        C   27   2.847   2.764   3.279
    1C        C   28   2.904   2.720   3.400
    1C        C   29   2.852   2.767   3.523
    1C        C   30   3.016   2.632   3.647
    1C        C   31   2.904   2.718   3.645
    1C        C   32   3.074   2.593   3.770
    1C        C   33   3.009   2.631   3.889
    1C        C   34   3.203   2.548   4.015
    1C        C   35   3.071   2.600   4.012
    1C        C   36   3.274   2.526   4.134
    1C        C   37   3.207   2.552   4.256
    1C        C   38   3.415   2.506   4.379
    1C        C   39   3.277   2.535   4.378
    1C        C   40   3.484   2.491   4.501
    1C        C   41   3.410   2.495   4.621
    1C        C   42   3.625   2.478   4.741
    1C        C   43   3.483   2.480   4.741
    1C        C   44   3.701   2.481   4.859
    1C        C   45   3.624   2.478   4.976
    1C        C   46   2.835   2.750   2.791
    1C        C   47   2.895   2.710   2.913
    1C        C   48   2.840   2.756   3.035
    1C        C   49   3.013   2.634   3.158
    1C        C   50   2.896   2.712   3.157
    1C        C   51   3.078   2.600   3.279
    1C        C   52   3.018   2.636   3.402
    1C        C   53   3.204   2.538   3.523
    1C        C   54   3.075   2.595   3.524
    1C        C   55   3.273   2.519   3.645
    1C        C   56   3.205   2.538   3.767
    1C        C   57   3.408   2.500   3.891
    1C        C   58   3.270   2.528   3.892
    1C        C   59   3.481   2.493   4.012
    1C        C   60   3.413   2.500   4.135
    1C        C   61   3.627   2.496   4.257
    1C        C   62   3.486   2.496   4.257
    1C        C   63   3.700   2.497   4.378
    1C        C   64   3.626   2.488   4.497
    1C        C   65   3.830   2.541   4.617
    1C        C   66   3.695   2.501   4.620
    1C        C   67   3.902   2.560   4.737
    1C        C   68   3.837   2.522   4.857
    1C        C   69   4.049   2.582   4.976
    1C        C   70   3.919   2.529   4.970
    1C        C   71   2.821   2.729   2.306
    1C        C   72   2.881   2.691   2.429
    1C        C   73   2.831   2.744   2.550
    1C        C   74   3.006   2.621   2.670
    1C        C   75   2.888   2.699   2.670
    1C        C   76   3.069   2.589   2.793
    1C        C   77   3.009   2.627   2.915
    1C        C   78   3.202   2.536   3.032
    1C        C   79   3.073   2.595   3.036
    1C        C   80   3.270   2.521   3.154
    1C        C   81   3.209   2.546   3.279
    1C        C   82   3.411   2.492   3.398
    1C        C   83   3.272   2.515   3.402
    1C        C   84   3.480   2.488   3.521
    1C        C   85   3.412   2.494   3.646
    1C        C   86   3.621   2.499   3.766
    1C        C   87   3.480   2.490   3.769
    1C        C   88   3.692   2.504   3.888
    1C        C   89   3.622   2.498   4.011
    1C        C   90   3.829   2.546   4.131
    1C        C   91   3.693   2.511   4.133
    1C        C   92   3.897   2.571   4.253
    1C        C   93   3.835   2.539   4.375
    1C        C   94   4.026   2.630   4.494
    1C        C   95   3.901   2.564   4.498
    1C        C   96   4.087   2.668   4.616
    1C        C   97   4.028   2.626   4.738
    1C        C   98   4.186   2.762   4.859
    1C        C   99   4.098   2.649   4.859
    1C        C  100   4.210   2.838   4.974
    1C        C  101   2.818   2.720   2.065
    1C        C  102   2.987   2.588   2.186
    1C        C  103   2.873   2.674   2.186
    1C        C  104   3.061   2.573   2.307
    1C        C  105   3.000   2.615   2.427
    1C        C  106   3.198   2.533   2.547
    1C        C  107   3.064   2.580   2.548
    1C        C  108   3.265   2.512   2.669
    1C        C  109   3.196   2.527   2.791
    1C        C  110   3.409   2.490   2.912
    1C        C  111   3.270   2.512   2.910
    1C        C  112   3.481   2.486   3.034
    1C        C  113   3.409   2.493   3.155
    1C        C  114   3.623   2.487   3.276
    1C        C  115   3.481   2.483   3.276
    1C        C  116   3.691   2.497   3.399
    1C        C  117   3.621   2.488   3.521
    1C        C  118   3.826   2.543   3.646
    1C        C  119   3.691   2.504   3.643
    1C        C  120   3.895   2.566   3.767
    1C        C  121   3.828   2.543   3.889
    1C        C  122   4.018   2.644   4.007
    1C        C  123   3.896   2.573   4.009
    1C        C  124   4.077   2.683   4.130
    1C        C  125   4.021   2.639   4.252
    1C        C  126   4.196   2.760   4.374
    1C        C  127   4.085   2.673   4.373
    1C        C  128   4.245   2.812   4.496
    1C        C  129   4.191   2.763   4.617
    1C        C  130   4.325   2.929   4.735
    1C        C  131   4.240   2.815   4.739
    1C        C  132   4.355   3.001   4.853
    1C        C  133   4.278   2.959   4.963
    1C        C  134   3.170   2.459   2.076
    1C        C  135   3.039   2.507   2.079
    1C        C  136   3.257   2.474   2.186
    1C        C  137   3.192   2.517   2.303
    1C        C  138   3.399   2.477   2.425
    1C        C  139   3.259   2.497   2.425
    1C        C  140   3.475   2.481   2.545
    1C        C  141   3.405   2.490   2.667
    1C        C  142   3.618   2.488   2.787
    1C        C  143   3.477   2.490   2.788
    1C        C  144   3.690   2.497   2.908
    1C        C  145   3.622   2.490   3.032
    1C        C  146   3.829   2.531   3.154
    1C        C  147   3.693   2.494   3.154
    1C        C  148   3.891   2.562   3.277
    1C        C  149   3.826   2.538   3.401
    1C        C  150   4.018   2.630   3.519
    1C        C  151   3.892   2.566   3.523
    1C        C  152   4.080   2.666   3.641
    1C        C  153   4.022   2.629   3.764
    1C        C  154   4.194   2.759   3.884
    1C        C  155   4.081   2.674   3.884
    1C        C  156   4.246   2.807   4.006
    1C        C  157   4.193   2.763   4.129
    1C        C  158   4.333   2.920   4.251
    1C        C  159   4.248   2.807   4.252
    1C        C  160   4.368   2.983   4.373
    1C        C  161   4.328   2.927   4.496
    1C        C  162   4.441   3.112   4.612
    1C        C  163   4.369   2.990   4.615
    1C        C  164   4.470   3.180   4.732
    1C        C  165   4.434   3.117   4.853
    1C        C  166   4.522   3.313   4.967
    1C        C  167   4.472   3.184   4.971
    1C        C  168   3.470   2.430   2.068
    1C        C  169   3.396   2.452   2.185
    1C        C  170   3.613   2.461   2.303
    1C        C  171   3.471   2.460   2.305
    1C        C  172   3.688   2.483   2.421
    1C        C  173   3.616   2.483   2.542
    1C        C  174   3.820   2.543   2.666
    1C        C  175   3.687   2.496   2.664
    1C        C  176   3.890   2.560   2.787
    1C        C  177   3.827   2.531   2.911
    1C        C  178   4.021   2.622   3.031
    1C        C  179   3.895   2.558   3.032
    1C        C  180   4.084   2.657   3.153
    1C        C  181   4.020   2.620   3.274
    1C        C  182   4.194   2.743   3.394
    1C        C  183   4.080   2.659   3.396
    1C        C  184   4.243   2.799   3.514
    1C        C  185   4.193   2.750   3.636
    1C        C  186   4.335   2.909   3.760
    1C        C  187   4.242   2.803   3.758
    1C        C  188   4.370   2.976   3.879
    1C        C  189   4.327   2.923   4.003
    1C        C  190   4.439   3.100   4.124
    1C        C  191   4.367   2.979   4.127
    1C        C  192   4.470   3.167   4.245
    1C        C  193   4.440   3.104   4.367
    1C        C  194   4.508   3.308   4.488
    1C        C  195   4.471   3.172   4.488
    1C        C  196   4.521   3.382   4.608
    1C        C  197   4.503   3.318   4.732
    1C        C  198   4.548   3.533   4.849
    1C        C  199   4.530   3.391   4.851
    1C        C  200   4.578   3.617   4.961
    1C        C  201   3.610   2.416   2.067
    1C        C  202   3.821   2.506   2.182
    1C        C  203   3.685   2.460   2.181
    1C        C  204   3.893   2.538   2.300
    1C        C  205   3.824   2.519   2.422
    1C        C  206   4.018   2.612   2.542
    1C        C  207   3.888   2.557   2.543
    1C        C  208   4.077   2.655   2.663
    1C        C  209   4.014   2.627   2.786
    1C        C  210   4.192   2.743   2.903
    1C        C  211   4.081   2.656   2.907
    1C        C  212   4.248   2.788   3.025
    1C        C  213   4.198   2.740   3.149
    1C        C  214   4.326   2.907   3.269
    1C        C  215   4.245   2.791   3.272
    1C        C  216   4.365   2.968   3.390
    1C        C  217   4.330   2.911   3.515
    1C        C  218   4.431   3.097   3.638
    1C        C  219   4.372   2.968   3.637
    1C        C  220   4.459   3.167   3.757
    1C        C  221   4.436   3.100   3.880
    1C        C  222   4.506   3.301   4.002
    1C        C  223   4.467   3.165   4.002
    1C        C  224   4.520   3.372   4.123
    1C        C  225   4.508   3.303   4.246
    1C        C  226   4.514   3.520   4.362
    1C        C  227   4.515   3.379   4.366
    1C        C  228   4.514   3.592   4.484
    1C        C  229   4.524   3.523   4.607
    1C        C  230   4.500   3.738   4.724
    1C        C  231   4.535   3.601   4.724
    1C        C  232   4.491   3.815   4.842
    1C        C  233   4.536   3.751   4.958
    1C        C  234   4.014   2.604   2.057
    1C        C  235   3.889   2.544   2.066
    1C        C  236   4.080   2.640   2.175
    1C        C  237   4.019   2.604   2.297
    1C        C  238   4.193   2.729   2.419
    1C        C  239   4.080   2.642   2.418
    1C        C  240   4.248   2.780   2.539
    1C        C  241   4.190   2.739   2.661
    1C        C  242   4.336   2.897   2.779
    1C        C  243   4.246   2.788   2.781
    1C        C  244   4.373   2.956   2.902
    1C        C  245   4.332   2.901   3.025
    1C        C  246   4.431   3.090   3.144
    1C        C  247   4.366   2.965   3.147
    1C        C  248   4.450   3.158   3.266
    1C        C  249   4.425   3.096   3.391
    1C        C  250   4.490   3.297   3.510
    1C        C  251   4.452   3.161   3.514
    1C        C  252   4.509   3.366   3.632
    1C        C  253   4.501   3.302   3.758
    1C        C  254   4.521   3.513   3.875
    1C        C  255   4.516   3.371   3.880
    1C        C  256   4.518   3.586   3.995
    1C        C  257   4.520   3.514   4.116
    1C        C  258   4.486   3.725   4.240
    1C        C  259   4.510   3.586   4.237
    1C        C  260   4.463   3.795   4.361
    1C        C  261   4.478   3.728   4.484
    1C        C  262   4.421   3.936   4.597
    1C        C  263   4.471   3.805   4.603
    1C        C  264   4.389   4.002   4.718
    1C        C  265   4.425   3.940   4.840
    1C        C  266   4.313   4.127   4.953
    1C        C  267   4.394   4.014   4.955
    1C        C  268   4.259   2.767   2.060
    1C        C  269   4.192   2.727   2.176
    1C        C  270   4.338   2.884   2.295
    1C        C  271   4.245   2.776   2.297
    1C        C  272   4.375   2.950   2.414
    1C        C  273   4.338   2.889   2.536
    1C        C  274   4.446   3.076   2.660
    1C        C  275   4.379   2.951   2.656
    1C        C  276   4.467   3.148   2.779
    1C        C  277   4.433   3.084   2.900
    1C        C  278   4.496   3.290   3.020
    1C        C  279   4.461   3.153   3.021
    1C        C  280   4.504   3.360   3.143
    1C        C  281   4.487   3.294   3.267
    1C        C  282   4.511   3.507   3.386
    1C        C  283   4.503   3.366   3.388
    1C        C  284   4.516   3.578   3.508
    1C        C  285   4.517   3.507   3.630
    1C        C  286   4.486   3.719   3.750
    1C        C  287   4.511   3.580   3.751
    1C        C  288   4.471   3.790   3.871
    1C        C  289   4.494   3.726   3.995
    1C        C  290   4.423   3.926   4.112
    1C        C  291   4.473   3.794   4.117
    1C        C  292   4.396   3.995   4.232
    1C        C  293   4.420   3.930   4.355
    1C        C  294   4.322   4.123   4.473
    1C        C  295   4.390   3.999   4.475
    1C        C  296   4.281   4.182   4.595
    1C        C  297   4.322   4.128   4.719
    1C        C  298   4.194   4.312   4.833
    1C        C  299   4.275   4.194   4.835
    1C        C  300   4.167   4.400   4.943
    1C        C  301   4.352   2.870   2.063
    1C        C  302   4.469   3.061   2.174
    1C        C  303   4.399   2.936   2.177
    1C        C  304   4.479   3.136   2.294
    1C        C  305   4.440   3.075   2.415
    1C        C  306   4.506   3.277   2.532
    1C        C  307   4.473   3.140   2.537
    1C        C  308   4.511   3.352   2.652
    1C        C  309   4.500   3.285   2.776
    1C        C  310   4.519   3.498   2.896
    1C        C  311   4.510   3.357   2.897
    1C        C  312   4.516   3.571   3.018
    1C        C  313   4.513   3.501   3.141
    1C        C  314   4.480   3.713   3.260
    1C        C  315   4.505   3.574   3.261
    1C        C  316   4.467   3.781   3.382
    1C        C  317   4.485   3.716   3.506
    1C        C  318   4.417   3.919   3.621
    1C        C  319   4.465   3.786   3.627
    1C        C  320   4.388   3.982   3.744
    1C        C  321   4.419   3.921   3.867
    1C        C  322   4.318   4.108   3.987
    1C        C  323   4.388   3.985   3.989
    1C        C  324   4.276   4.166   4.108
    1C        C  325   4.325   4.117   4.231
    1C        C  326   4.181   4.279   4.348
    1C        C  327   4.280   4.179   4.350
    1C        C  328   4.130   4.332   4.469
    1C        C  329   4.186   4.286   4.590
    1C        C  330   4.020   4.429   4.708
    1C        C  331   4.134   4.344   4.708
    1C        C  332   3.969   4.490   4.824
    1C        C  333   4.051   4.478   4.937
    1C        C  334   4.544   3.261   2.059
    1C        C  335   4.532   3.121   2.061
    1C        C  336   4.534   3.344   2.171
    1C        C  337   4.514   3.274   2.293
    1C        C  338   4.519   3.491   2.409
    1C        C  339   4.520   3.350   2.412
    1C        C  340   4.522   3.565   2.529
    1C        C  341   4.516   3.493   2.651
    1C        C  342   4.487   3.704   2.769
    1C        C  343   4.508   3.565   2.772
    1C        C  344   4.463   3.772   2.891
    1C        C  345   4.485   3.708   3.015
    1C        C  346   4.420   3.913   3.133
    1C        C  347   4.468   3.780   3.136
    1C        C  348   4.390   3.977   3.255
    1C        C  349   4.420   3.915   3.379
    1C        C  350   4.323   4.108   3.499
    1C        C  351   4.389   3.983   3.498
    1C        C  352   4.280   4.166   3.620
    1C        C  353   4.318   4.105   3.742
    1C        C  354   4.173   4.261   3.864
    1C        C  355   4.273   4.161   3.864
    1C        C  356   4.116   4.309   3.984
    1C        C  357   4.172   4.262   4.105
    1C        C  358   4.010   4.402   4.226
    1C        C  359   4.127   4.322   4.225
    1C        C  360   3.951   4.444   4.347
    1C        C  361   4.015   4.414   4.468
    1C        C  362   3.823   4.514   4.589
    1C        C  363   3.953   4.459   4.587
    1C        C  364   3.757   4.545   4.710
    1C        C  365   3.836   4.536   4.828
    1C        C  366   3.627   4.586   4.947
    1C        C  367   3.765   4.570   4.944
    1C        C  368   4.507   3.558   2.050
    1C        C  369   4.513   3.483   2.168
    1C        C  370   4.496   3.701   2.282
    1C        C  371   4.506   3.560   2.286
    1C        C  372   4.479   3.773   2.403
    1C        C  373   4.497   3.704   2.525
    1C        C  374   4.422   3.904   2.643
    1C        C  375   4.475   3.773   2.646
    1C        C  376   4.392   3.970   2.764
    1C        C  377   4.418   3.906   2.888
    1C        C  378   4.311   4.091   3.008
    1C        C  379   4.391   3.974   3.009
    1C        C  380   4.267   4.146   3.131
    1C        C  381   4.314   4.096   3.254
    1C        C  382   4.174   4.256   3.369
    1C        C  383   4.276   4.158   3.375
    1C        C  384   4.124   4.303   3.493
    1C        C  385   4.175   4.260   3.618
    1C        C  386   4.003   4.383   3.739
    1C        C  387   4.120   4.305   3.740
    1C        C  388   3.941   4.426   3.859
    1C        C  389   3.999   4.389   3.982
    1C        C  390   3.813   4.488   4.105
    1C        C  391   3.942   4.428   4.105
    1C        C  392   3.747   4.510   4.228
    1C        C  393   3.819   4.496   4.348
    1C        C  394   3.613   4.551   4.469
    1C        C  395   3.753   4.531   4.468
    1C        C  396   3.544   4.559   4.592
    1C        C  397   3.617   4.564   4.712
    1C        C  398   3.408   4.544   4.835
    1C        C  399   3.546   4.573   4.834
    1C        C  400   3.339   4.510   4.952
    1C        C  401   4.492   3.697   2.045
    1C        C  402   4.447   3.911   2.158
    1C        C  403   4.479   3.773   2.162
    1C        C  404   4.407   3.972   2.279
    1C        C  405   4.437   3.908   2.401
    1C        C  406   4.319   4.088   2.521
    1C        C  407   4.399   3.971   2.521
    1C        C  408   4.276   4.146   2.643
    1C        C  409   4.319   4.090   2.766
    1C        C  410   4.170   4.246   2.885
    1C        C  411   4.270   4.147   2.885
    1C        C  412   4.114   4.294   3.005
    1C        C  413   4.172   4.251   3.127
    1C        C  414   3.998   4.376   3.249
    1C        C  415   4.117   4.300   3.248
    1C        C  416   3.939   4.406   3.373
    1C        C  417   4.004   4.377   3.495
    1C        C  418   3.808   4.464   3.616
    1C        C  419   3.937   4.406   3.616
    1C        C  420   3.743   4.496   3.737
    1C        C  421   3.813   4.485   3.859
    1C        C  422   3.608   4.532   3.983
    1C        C  423   3.747   4.508   3.982
    1C        C  424   3.536   4.539   4.104
    1C        C  425   3.608   4.536   4.226
    1C        C  426   3.397   4.544   4.351
    1C        C  427   3.538   4.548   4.349
    1C        C  428   3.327   4.545   4.474
    1C        C  429   3.403   4.551   4.593
    1C        C  430   3.194   4.510   4.717
    1C        C  431   3.333   4.536   4.715
    1C        C  432   3.125   4.483   4.838
    1C        C  433   3.202   4.487   4.955
    1C        C  434   4.376   4.119   2.043
    1C        C  435   4.439   3.994   2.046
    1C        C  436   4.296   4.157   2.156
    1C        C  437   4.331   4.093   2.278
    1C        C  438   4.179   4.245   2.395
    1C        C  439   4.279   4.145   2.399
    1C        C  440   4.121   4.288   2.516
    1C        C  441   4.173   4.243   2.639
    1C        C  442   4.002   4.370   2.759
    1C        C  443   4.119   4.291   2.760
    1C        C  444   3.939   4.406   2.880
    1C        C  445   4.000   4.377   3.005
    1C        C  446   3.807   4.467   3.127
    1C        C  447   3.937   4.412   3.127
    1C        C  448   3.742   4.488   3.251
    1C        C  449   3.810   4.465   3.373
    1C        C  450   3.604   4.520   3.492
    1C        C  451   3.743   4.493   3.494
    1C        C  452   3.537   4.533   3.615
    1C        C  453   3.606   4.529   3.739
    1C        C  454   3.395   4.541   3.861
    1C        C  455   3.537   4.543   3.861
    1C        C  456   3.326   4.534   3.983
    1C        C  457   3.395   4.541   4.106
    1C        C  458   3.189   4.497   4.233
    1C        C  459   3.326   4.531   4.229
    1C        C  460   3.123   4.474   4.356
    1C        C  461   3.191   4.508   4.475
    1C        C  462   2.995   4.426   4.600
    1C        C  463   3.122   4.488   4.597
    1C        C  464   2.929   4.398   4.721
    1C        C  465   2.988   4.440   4.843
    1C        C  466   2.796   4.337   4.959
    1C        C  467   2.902   4.428   4.957
    1C        C  468   4.120   4.284   2.033
    1C        C  469   4.182   4.243   2.152
    1C        C  470   4.002   4.364   2.273
    1C        C  471   4.122   4.287   2.273
    1C        C  472   3.942   4.402   2.396
    1C        C  473   4.005   4.369   2.518
    1C        C  474   3.807   4.455   2.639
    1C        C  475   3.940   4.407   2.638
    1C        C  476   3.742   4.486   2.760
    1C        C  477   3.811   4.466   2.882
    1C        C  478   3.603   4.511   3.006
    1C        C  479   3.742   4.487   3.003
    1C        C  480   3.531   4.521   3.127
    1C        C  481   3.603   4.512   3.248
    1C        C  482   3.391   4.529   3.372
    1C        C  483   3.532   4.520   3.370
    1C        C  484   3.322   4.522   3.495
    1C        C  485   3.396   4.527   3.616
    1C        C  486   3.188   4.497   3.741
    1C        C  487   3.326   4.527   3.739
    1C        C  488   3.122   4.476   3.864
    1C        C  489   3.190   4.496   3.987
    1C        C  490   3.001   4.405   4.112
    1C        C  491   3.124   4.475   4.110
    1C        C  492   2.938   4.372   4.234
    1C        C  493   2.996   4.413   4.356
    1C        C  494   2.825   4.293   4.481
    1C        C  495   2.935   4.382   4.480
    1C        C  496   2.769   4.251   4.604
    1C        C  497   2.818   4.309   4.723
    1C        C  498   2.665   4.162   4.843
    1C        C  499   2.750   4.275   4.842
    1C        C  500   2.597   4.115   4.956
    1C        C  501   3.998   4.351   2.034
    1C        C  502   3.809   4.457   2.153
    1C        C  503   3.935   4.393   2.152
    1C        C  504   3.740   4.476   2.274
    1C        C  505   3.811   4.455   2.394
    1C        C  506   3.603   4.503   2.517
    1C        C  507   3.742   4.478   2.515
    1C        C  508   3.531   4.512   2.639
    1C        C  509   3.603   4.510   2.760
    1C        C  510   3.392   4.519   2.881
    1C        C  511   3.534   4.520   2.883
    1C        C  512   3.319   4.520   3.002
    1C        C  513   3.390   4.524   3.124
    1C        C  514   3.185   4.492   3.252
    1C        C  515   3.323   4.525   3.248
    1C        C  516   3.116   4.469   3.373
    1C        C  517   3.184   4.492   3.495
    1C        C  518   2.993   4.410   3.621
    1C        C  519   3.121   4.470   3.620
    1C        C  520   2.939   4.370   3.745
    1C        C  521   2.998   4.408   3.868
    1C        C  522   2.830   4.280   3.990
    1C        C  523   2.943   4.365   3.990
    1C        C  524   2.788   4.226   4.114
    1C        C  525   2.830   4.281   4.237
    1C        C  526   2.692   4.126   4.360
    1C        C  527   2.773   4.241   4.360
    1C        C  528   2.652   4.072   4.485
    1C        C  529   2.685   4.137   4.605
    1C        C  530   2.582   3.954   4.731
    1C        C  531   2.642   4.083   4.728
    1C        C  532   2.543   3.898   4.855
    1C        C  533   2.528   3.993   4.961
    1C        C  534   3.614   4.557   2.038
    1C        C  535   3.742   4.500   2.038
    1C        C  536   3.533   4.537   2.154
    1C        C  537   3.600   4.503   2.275
    1C        C  538   3.389   4.516   2.393
    1C        C  539   3.530   4.513   2.397
    1C        C  540   3.318   4.512   2.516
    1C        C  541   3.390   4.520   2.637
    1C        C  542   3.183   4.478   2.761
    1C        C  543   3.321   4.509   2.759
    1C        C  544   3.115   4.465   2.884
    1C        C  545   3.182   4.488   3.007
    1C        C  546   2.993   4.399   3.132
    1C        C  547   3.117   4.467   3.130
    1C        C  548   2.933   4.362   3.255
    1C        C  549   2.992   4.402   3.377
    1C        C  550   2.827   4.274   3.499
    1C        C  551   2.933   4.367   3.501
    1C        C  552   2.774   4.230   3.623
    1C        C  553   2.829   4.281   3.743
    1C        C  554   2.696   4.118   3.871
    1C        C  555   2.781   4.231   3.867
    1C        C  556   2.656   4.057   3.992
    1C        C  557   2.702   4.114   4.113
    1C        C  558   2.597   3.937   4.245
    1C        C  559   2.661   4.063   4.238
    1C        C  560   2.561   3.877   4.368
    1C        C  561   2.584   3.948   4.487
    1C        C  562   2.524   3.747   4.613
    1C        C  563   2.563   3.883   4.611
    1C        C  564   2.511   3.679   4.736
    1C        C  565   2.520   3.756   4.855
    1C        C  566   2.518   3.542   4.974
    1C        C  567   2.525   3.681   4.973
    1C        C  568   3.321   4.481   2.036
    1C        C  569   3.393   4.514   2.151
    1C        C  570   3.181   4.471   2.275
    1C        C  571   3.318   4.509   2.272
    1C        C  572   3.115   4.450   2.398
    1C        C  573   3.181   4.479   2.519
    1C        C  574   2.982   4.402   2.645
    1C        C  575   3.112   4.457   2.641
    1C        C  576   2.922   4.368   2.768
    1C        C  577   2.987   4.405   2.888
    1C        C  578   2.823   4.272   3.009
    1C        C  579   2.932   4.362   3.011
    1C        C  580   2.775   4.221   3.131
    1C        C  581   2.827   4.269   3.254
    1C        C  582   2.692   4.109   3.380
    1C        C  583   2.778   4.221   3.378
    1C        C  584   2.652   4.054   3.504
    1C        C  585   2.692   4.115   3.625
    1C        C  586   2.596   3.930   3.750
    1C        C  587   2.662   4.055   3.750
    1C        C  588   2.566   3.869   3.874
    1C        C  589   2.593   3.930   3.998
    1C        C  590   2.528   3.735   4.122
    1C        C  591   2.568   3.870   4.124
    1C        C  592   2.518   3.671   4.248
    1C        C  593   2.526   3.740   4.370
    1C        C  594   2.506   3.532   4.493
    1C        C  595   2.511   3.673   4.494
    1C        C  596   2.520   3.462   4.615
    1C        C  597   2.515   3.536   4.735
    1C        C  598   2.524   3.324   4.858
    1C        C  599   2.519   3.465   4.857
    1C        C  600   2.532   3.244   4.973
    1C        C  601   3.191   4.434   2.041
    1C        C  602   2.977   4.389   2.156
    1C        C  603   3.110   4.444   2.155
    1C        C  604   2.920   4.355   2.281
    1C        C  605   2.986   4.392   2.401
    1C        C  606   2.820   4.265   2.526
    1C        C  607   2.922   4.363   2.523
    1C        C  608   2.775   4.211   2.649
    1C        C  609   2.822   4.268   2.769
    1C        C  610   2.681   4.108   2.891
    1C        C  611   2.769   4.219   2.890
    1C        C  612   2.645   4.051   3.015
    1C        C  613   2.689   4.108   3.136
    1C        C  614   2.586   3.924   3.262
    1C        C  615   2.657   4.046   3.259
    1C        C  616   2.560   3.862   3.386
    1C        C  617   2.589   3.928   3.507
    1C        C  618   2.527   3.726   3.632
    1C        C  619   2.562   3.863   3.630
    1C        C  620   2.515   3.660   3.757
    1C        C  621   2.530   3.732   3.877
    1C        C  622   2.510   3.524   4.007
    1C        C  623   2.515   3.665   4.000
    1C        C  624   2.511   3.455   4.131
    1C        C  625   2.505   3.530   4.250
    1C        C  626   2.536   3.320   4.375
    1C        C  627   2.507   3.458   4.372
    1C        C  628   2.554   3.251   4.497
    1C        C  629   2.543   3.323   4.618
    1C        C  630   2.596   3.117   4.739
    1C        C  631   2.553   3.252   4.740
    1C        C  632   2.616   3.047   4.861
    1C        C  633   2.558   3.107   4.977
    1C        C  634   2.777   4.299   2.047
    1C        C  635   2.890   4.383   2.043
    1C        C  636   2.744   4.228   2.163
    1C        C  637   2.803   4.275   2.283
    1C        C  638   2.681   4.103   2.408
    1C        C  639   2.761   4.219   2.406
    1C        C  640   2.646   4.040   2.529
    1C        C  641   2.688   4.099   2.650
    1C        C  642   2.579   3.916   2.773
    1C        C  643   2.646   4.040   2.772
    1C        C  644   2.556   3.853   2.897
    1C        C  645   2.587   3.922   3.016
    1C        C  646   2.525   3.721   3.142
    1C        C  647   2.562   3.857   3.139
    1C        C  648   2.517   3.654   3.266
    1C        C  649   2.527   3.725   3.388
    1C        C  650   2.505   3.515   3.515
    1C        C  651   2.511   3.656   3.511
    1C        C  652   2.513   3.449   3.640
    1C        C  653   2.506   3.520   3.762
    1C        C  654   2.536   3.312   3.884
    1C        C  655   2.510   3.451   3.886
    1C        C  656   2.554   3.246   4.008
    1C        C  657   2.536   3.316   4.129
    1C        C  658   2.605   3.119   4.255
    1C        C  659   2.553   3.251   4.253
    1C        C  660   2.638   3.055   4.377
    1C        C  661   2.602   3.118   4.498
    1C        C  662   2.705   2.931   4.619
    1C        C  663   2.629   3.050   4.619
    1C        C  664   2.744   2.875   4.742
    1C        C  665   2.692   2.926   4.865
    1C        C  666   2.734   2.864   4.983
    1C        C  667   2.677   4.023   2.049
    1C        C  668   2.682   4.101   2.165
    1C        C  669   2.582   3.913   2.286
    1C        C  670   2.640   4.043   2.287
    1C        C  671   2.559   3.844   2.407
    1C        C  672   2.582   3.914   2.528
    1C        C  673   2.520   3.713   2.655
    1C        C  674   2.558   3.849   2.651
    1C        C  675   2.510   3.644   2.778
    1C        C  676   2.521   3.716   2.899
    1C        C  677   2.505   3.507   3.026
    1C        C  678   2.507   3.648   3.022
    1C        C  679   2.505   3.441   3.151
    1C        C  680   2.506   3.513   3.273
    1C        C  681   2.534   3.303   3.396
    1C        C  682   2.504   3.441   3.394
    1C        C  683   2.557   3.241   3.520
    1C        C  684   2.538   3.310   3.642
    1C        C  685   2.606   3.109   3.767
    1C        C  686   2.554   3.241   3.764
    1C        C  687   2.642   3.048   3.890
    1C        C  688   2.606   3.114   4.009
    1C        C  689   2.709   2.934   4.133
    1C        C  690   2.633   3.053   4.134
    1C        C  691   2.756   2.879   4.254
    1C        C  692   2.712   2.935   4.376
    1C        C  693   2.751   2.874   4.498
    1C        C  694   2.623   3.894   2.052
    1C        C  695   2.529   3.700   2.171
    1C        C  696   2.576   3.834   2.169
    1C        C  697   2.504   3.634   2.293
    1C        C  698   2.520   3.709   2.412
    1C        C  699   2.490   3.500   2.539
    1C        C  700   2.499   3.641   2.534
    1C        C  701   2.494   3.430   2.661
    1C        C  702   2.500   3.503   2.781
    1C        C  703   2.521   3.294   2.905
    1C        C  704   2.506   3.434   2.905
    1C        C  705   2.542   3.230   3.029
    1C        C  706   2.525   3.301   3.150
    1C        C  707   2.596   3.102   3.275
    1C        C  708   2.547   3.234   3.273
    1C        C  709   2.628   3.041   3.399
    1C        C  710   2.602   3.107   3.521
    1C        C  711   2.711   2.927   3.643
    1C        C  712   2.632   3.044   3.644
    1C        C  713   2.757   2.875   3.766
    1C        C  714   2.716   2.928   3.890
    1C        C  715   2.754   2.872   4.014
    1C        C  716   2.453   3.490   2.054
    1C        C  717   2.492   3.625   2.059
    1C        C  718   2.462   3.418   2.177
    1C        C  719   2.478   3.494   2.297
    1C        C  720   2.506   3.285   2.419
    1C        C  721   2.486   3.425   2.419
    1C        C  722   2.528   3.218   2.541
    1C        C  723   2.509   3.289   2.662
    1C        C  724   2.587   3.092   2.787
    1C        C  725   2.530   3.221   2.784
    1C        C  726   2.627   3.034   2.910
    1C        C  727   2.597   3.100   3.031
    1C        C  728   2.709   2.922   3.156
    1C        C  729   2.629   3.038   3.154
    1C        C  730   2.757   2.873   3.279
    1C        C  731   2.708   2.924   3.401
    1C        C  732   2.752   2.866   3.523
    1C        C  733   2.489   3.191   2.068
    1C        C  734   2.496   3.279   2.177
    1C        C  735   2.581   3.081   2.301
    1C        C  736   2.524   3.212   2.299
    1C        C  737   2.610   3.017   2.423
    1C        C  738   2.582   3.088   2.542
    1C        C  739   2.692   2.908   2.667
    1C        C  740   2.612   3.025   2.665
    1C        C  741   2.739   2.853   2.788
    1C        C  742   2.703   2.915   2.910
    1C        C  743   2.745   2.861   3.033
    1C        C  744   2.550   3.066   2.067
    1C        C  745   2.682   2.891   2.182
    1C        C  746   2.609   3.012   2.181
    1C        C  747   2.730   2.838   2.304
    1C        C  748   2.683   2.896   2.424
    1C        C  749   2.731   2.845   2.547
    1C        C  750   2.735   2.831   2.067
    1C        C  751   3.666   2.307   1.984
    1C        O  752   3.707   2.209   2.053
    1C        O  753   3.600   2.266   1.868
    1C        C  754   4.629   3.040   1.984
    1C        O  755   4.602   2.998   1.868
    1C        O  756   4.725   2.956   2.041
    1C        C  757   4.439   4.221   1.958
    1C        O  758   4.526   4.308   1.987
    1C        O  759   4.425   4.197   1.820
    1C        C  760   3.594   4.658   1.932
    1C        O  761   3.610   4.780   1.959
    1C        O  762   3.590   4.628   1.795
    1C        C  763   2.889   4.487   1.938
    1C        O  764   2.920   4.462   1.818
    1C        O  765   2.786   4.581   1.940
    1C        C  766   2.339   3.472   1.961
    1C        O  767   2.346   3.430   1.842
    1C        O  768   2.208   3.461   2.007
    1C        C  769   4.700   3.603   5.043
    1C        O  770   4.706   3.564   5.163
    1C        O  771   4.821   3.661   5.003
    1C        C  772   4.279   4.456   5.023
    1C        O  773   4.300   4.410   5.138
    1C        O  774   4.295   4.594   5.028
    1C        C  775   4.130   2.514   5.079
    1C        O  776   4.150   2.390   5.071
    1C        O  777   4.162   2.569   5.204
    1C        C  778   2.888   4.540   5.052
    1C        O  779   2.826   4.645   5.020
    1C        O  780   2.860   4.529   5.189
    1C        C  781   2.472   3.040   5.078
    1C        O  782   2.360   2.986   5.054
    1C        O  783   2.490   3.074   5.212
    1C        C  784   2.403   4.004   5.038
    1C        O  785   2.285   4.014   4.994
    1C        O  786   2.420   4.001   5.177
    1C        C  787   2.958   2.444   1.972
    1C        O  788   2.979   2.447   1.848
    1C        O  789   2.840   2.379   2.008
    1C        C  790   3.164   2.369   5.058
    1C        O  791   3.110   2.260   5.023
    1C        O  792   3.222   2.358   5.185
    1C        H  793   4.253   3.039   5.030
    1C        H  794   4.173   2.808   5.070
    1C        H  795   4.488   3.125   5.059
    1C        H  796   4.587   3.343   5.047
    1C        H  797   4.554   3.803   5.050
    1C        H  798   4.453   4.003   5.043
    1C        H  799   4.244   4.137   5.034
    1C        H  800   4.027   4.532   5.026
    1C        H  801   3.818   4.607   5.030
    1C        H  802   3.587   4.590   5.047
    1C        H  803   3.391   4.465   5.034
    1C        H  804   3.154   4.488   5.051
    1C        H  805   3.887   2.477   5.057
    1C        H  806   3.667   2.529   5.060
    1C        H  807   3.018   2.589   5.069
    1C        H  808   3.439   2.438   5.067
    1C        H  809   2.874   2.741   5.074
    1C        H  810   2.665   2.855   5.064
    1C        H  811   2.527   3.282   5.073
    1C        H  812   2.474   3.497   5.060
    1C        H  813   2.540   3.733   5.065
    1C        H  814   2.591   4.174   5.045
    1C        H  815   2.755   4.309   5.055
    1C        H  816   2.725   2.883   1.974
    1C        H  817   2.852   2.688   1.969
    1C        H  818   3.190   2.378   2.010
    1C        H  819   3.416   2.421   1.976
    1C        H  820   3.851   2.496   1.978
    1C        H  821   4.076   2.593   1.970
    1C        H  822   4.259   2.708   1.971
    1C        H  823   4.382   2.904   1.966
    1C        H  824   4.555   3.304   1.961
    1C        H  825   4.501   3.506   1.957
    1C        H  826   4.495   3.743   1.948
    1C        H  827   3.792   4.493   1.943
    1C        H  828   3.968   4.379   1.936
    1C        H  829   4.181   4.288   1.945
    1C        H  830   4.477   3.964   1.950
    1C        H  831   2.671   3.830   1.981
    1C        H  832   2.761   4.037   1.983
    1C        H  833   2.696   4.330   1.986
    1C        H  834   3.350   4.526   1.943
    1C        H  835   3.172   4.344   1.988
    1C        H  836   2.560   3.023   1.969
    1C        H  837   2.409   3.214   2.002
    1C        H  838   2.484   3.683   1.970
    2V3OU   H29  839   2.803   3.542   0.986
    2V3OU   C27  840   2.780   3.501   1.088
    2V3OU   H27  841   2.719   3.567   1.154
    2V3OU   H28  842   2.724   3.406   1.064
    2V3OU   O11  843   2.902   3.467   1.155
    2V3OU   C15  844   2.917   3.394   1.271
    2V3OU   C13  845   3.048   3.375   1.319
    2V3OU   C14  846   3.070   3.261   1.397
    2V3OU   C16  847   2.965   3.181   1.441
    2V3OU    H6  848   2.988   3.094   1.504
    2V3OU   C12  849   3.209   3.219   1.427
    2V3OU    O2  850   3.236   3.114   1.488
    2V3OU   C10  851   3.319   3.305   1.380
    2V3OU    C8  852   3.452   3.270   1.399
    2V3OU   O10  853   3.485   3.152   1.459
    2V3OU   H26  854   3.400   3.117   1.491
    2V3OU    C6  855   3.561   3.347   1.346
    2V3OU    C5  856   3.532   3.464   1.278
    2V3OU    C4  857   3.698   3.291   1.358
    2V3OU    H4  858   3.717   3.225   1.447
    2V3OU    H5  859   3.708   3.219   1.272
    2V3OU    C2  860   3.812   3.394   1.352
    2V3OU    O6  861   3.803   3.470   1.473
    2V3OU   H21  862   3.757   3.552   1.448
    2V3OU    C3  863   3.777   3.495   1.243
    2V3OU    H2  864   3.860   3.568   1.230
    2V3OU    H3  865   3.774   3.431   1.151
    2V3OU   C25  866   3.945   3.324   1.327
    2V3OU    O7  867   3.996   3.295   1.219
    2V3OU   C26  868   4.029   3.291   1.450
    2V3OU   H22  869   4.068   3.381   1.503
    2V3OU   H23  870   4.115   3.225   1.420
    2V3OU    O8  871   3.961   3.208   1.541
    2V3OU   H24  872   3.917   3.264   1.608
    2V3OU    C1  873   3.642   3.564   1.257
    2V3OU    H1  874   3.621   3.619   1.160
    2V3OU    O3  875   3.658   3.651   1.369
    2V3OU   C19  876   3.617   3.788   1.363
    2V3OU    H9  877   3.522   3.795   1.301
    2V3OU    O4  878   3.711   3.849   1.277
    2V3OU   C20  879   3.843   3.874   1.326
    2V3OU   H10  880   3.885   3.769   1.328
    2V3OU   C24  881   3.607   3.854   1.500
    2V3OU   H16  882   3.539   3.793   1.565
    2V3OU   H17  883   3.561   3.955   1.481
    2V3OU   C23  884   3.746   3.873   1.561
    2V3OU   H15  885   3.786   3.769   1.585
    2V3OU    N1  886   3.734   3.952   1.682
    2V3OU   H19  887   3.806   3.920   1.743
    2V3OU   H20  888   3.644   3.935   1.722
    2V3OU   C21  889   3.848   3.940   1.464
    2V3OU   H11  890   3.948   3.918   1.513
    2V3OU    O5  891   3.832   4.080   1.448
    2V3OU   H18  892   3.781   4.103   1.528
    2V3OU   C22  893   3.909   3.945   1.209
    2V3OU   H12  894   3.860   4.044   1.189
    2V3OU   H13  895   3.892   3.886   1.115
    2V3OU   H14  896   4.019   3.956   1.226
    2V3OU   C11  897   3.153   3.470   1.281
    2V3OU    O1  898   3.133   3.581   1.227
    2V3OU    C9  899   3.291   3.424   1.308
    2V3OU    C7  900   3.395   3.500   1.255
    2V3OU    O9  901   3.385   3.611   1.174
    2V3OU   H25  902   3.289   3.619   1.169
    2V3OU   C17  903   2.809   3.317   1.319
    2V3OU    H7  904   2.707   3.349   1.296
    2V3OU   C18  905   2.834   3.209   1.403
    2V3OU    H8  906   2.751   3.140   1.425
    3SOL     OW  907   0.708   3.830   0.783
    3SOL    HW1  908   0.628   3.886   0.766
    3SOL    HW2  909   0.791   3.886   0.773
    4SOL     OW  910   5.525   1.228   2.333
    4SOL    HW1  911   5.524   1.328   2.325
    4SOL    HW2  912   5.533   1.203   2.429
    5SOL     OW  913   3.592   2.940   1.173
    5SOL    HW1  914   3.502   2.949   1.216
    5SOL    HW2  915   3.581   2.937   1.074
    6SOL     OW  916   2.758   2.471   0.554
    6SOL    HW1  917   2.661   2.463   0.531
    6SOL    HW2  918   2.786   2.567   0.548
    7SOL     OW  919   5.930   0.928   1.572
    7SOL    HW1  920   5.875   0.858   1.526
    7SOL    HW2  921   6.006   0.954   1.512
    8SOL     OW  922   3.098   1.855   3.571
    8SOL    HW1  923   2.999   1.837   3.568
    8SOL    HW2  924   3.138   1.834   3.482
    9SOL     OW  925   0.233   4.114   5.677
    9SOL    HW1  926   0.225   4.090   5.773
    9SOL    HW2  927   0.142   4.124   5.636
   10SOL     OW  928   0.528   4.212   0.630
   10SOL    HW1  929   0.533   4.297   0.683
   10SOL    HW2  930   0.510   4.136   0.691
   11SOL     OW  931   4.106   6.727   6.812
   11SOL    HW1  932   4.184   6.667   6.829
   11SOL    HW2  933   4.021   6.675   6.822
   12SOL     OW  934   5.486   6.278   2.362
   12SOL    HW1  935   5.544   6.309   2.438
   12SOL    HW2  936   5.390   6.295   2.384
   13SOL     OW  937   1.418   0.303   3.399
   13SOL    HW1  938   1.446   0.398   3.384
   13SOL    HW2  939   1.324   0.301   3.435
   14SOL     OW  940   3.060   0.179   2.873
   14SOL    HW1  941   3.097   0.236   2.799
   14SOL    HW2  942   3.083   0.083   2.855
   15SOL     OW  943   2.634   6.510   6.314
   15SOL    HW1  944   2.607   6.606   6.310
   15SOL    HW2  945   2.733   6.504   6.328
   16SOL     OW  946   6.238   1.812   6.817
   16SOL    HW1  947   6.325   1.851   6.786
   16SOL    HW2  948   6.234   1.814   6.917
   17SOL     OW  949   4.540   6.154   3.149
   17SOL    HW1  950   4.491   6.067   3.158
   17SOL    HW2  951   4.593   6.172   3.232
   18SOL     OW  952   1.790   1.523   0.367
   18SOL    HW1  953   1.732   1.490   0.292
   18SOL    HW2  954   1.846   1.448   0.402
   19SOL     OW  955   0.866   6.844   1.346
   19SOL    HW1  956   0.914   6.758   1.328
   19SOL    HW2  957   0.895   6.913   1.280
   20SOL     OW  958   3.425   0.888   4.341
   20SOL    HW1  959   3.442   0.831   4.420
   20SOL    HW2  960   3.475   0.852   4.262
   21SOL     OW  961   2.726   2.810   1.610
   21SOL    HW1  962   2.813   2.771   1.640
   21SOL    HW2  963   2.695   2.761   1.528
   22SOL     OW  964   0.972   1.146   5.228
   22SOL    HW1  965   0.893   1.135   5.168
   22SOL    HW2  966   0.974   1.072   5.294
   23SOL     OW  967   3.111   6.020   4.400
   23SOL    HW1  968   3.196   5.977   4.370
   23SOL    HW2  969   3.102   6.011   4.499
   24SOL     OW  970   4.080   1.572   4.763
   24SOL    HW1  971   4.062   1.601   4.669
   24SOL    HW2  972   4.034   1.485   4.780
   25SOL     OW  973   2.331   5.059   1.090
   25SOL    HW1  974   2.363   4.999   1.164
   25SOL    HW2  975   2.283   5.005   1.022
   26SOL     OW  976   5.806   1.143   2.927
   26SOL    HW1  977   5.866   1.141   2.848
   26SOL    HW2  978   5.715   1.109   2.901
   27SOL     OW  979   6.003   6.932   2.199
   27SOL    HW1  980   6.018   7.014   2.254
   27SOL    HW2  981   6.066   6.933   2.121
   28SOL     OW  982   3.186   0.158   0.654
   28SOL    HW1  983   3.269   0.121   0.696
   28SOL    HW2  984   3.119   0.085   0.642
   29SOL     OW  985   4.084   2.823   1.571
   29SOL    HW1  986   4.129   2.734   1.571
   29SOL    HW2  987   4.009   2.822   1.504
   30SOL     OW  988   4.125   1.352   5.067
   30SOL    HW1  989   4.127   1.440   5.114
   30SOL    HW2  990   4.031   1.318   5.064
   31SOL     OW  991   0.513   1.244   5.077
   31SOL    HW1  992   0.471   1.165   5.034
   31SOL    HW2  993   0.503   1.239   5.176
   32SOL     OW  994   0.037   2.051   1.722
   32SOL    HW1  995   0.105   1.983   1.751
   32SOL    HW2  996   0.001   2.099   1.802
   33SOL     OW  997   1.723   2.128   5.720
   33SOL    HW1  998   1.767   2.214   5.694
   33SOL    HW2  999   1.750   2.104   5.814
   34SOL     OW 1000   0.659   0.395   4.710
   34SOL    HW1 1001   0.563   0.374   4.688
   34SOL    HW2 1002   0.665   0.486   4.752
   35SOL     OW 1003   3.863   2.078   6.260
   35SOL    HW1 1004   3.952   2.121   6.276
   35SOL    HW2 1005   3.825   2.047   6.348
   36SOL     OW 1006   1.128   1.853   5.840
   36SOL    HW1 1007   1.172   1.850   5.750
   36SOL    HW2 1008   1.055   1.921   5.839
   37SOL     OW 1009   2.451   6.267   0.914
   37SOL    HW1 1010   2.511   6.293   0.838
   37SOL    HW2 1011   2.377   6.209   0.879
   38SOL     OW 1012   6.948   6.250   1.606
   38SOL    HW1 1013   6.902   6.195   1.537
   38SOL    HW2 1014   0.026   6.272   1.575
   39SOL     OW 1015   6.889   2.609   5.914
   39SOL    HW1 1016   6.989   2.607   5.915
   39SOL    HW2 1017   6.858   2.703   5.897
   40SOL     OW 1018   6.810   0.947   1.403
   40SOL    HW1 1019   6.842   0.874   1.463
   40SOL    HW2 1020   6.790   1.029   1.456
   41SOL     OW 1021   1.180   1.027   6.135
   41SOL    HW1 1022   1.223   1.055   6.049
   41SOL    HW2 1023   1.169   0.928   6.136
   42SOL     OW 1024   3.906   6.877   0.674
   42SOL    HW1 1025   3.919   6.860   0.576
   42SOL    HW2 1026   3.991   6.856   0.722
   43SOL     OW 1027   4.882   5.806   5.145
   43SOL    HW1 1028   4.962   5.751   5.121
   43SOL    HW2 1029   4.860   5.793   5.242
   44SOL     OW 1030   0.420   3.270   6.797
   44SOL    HW1 1031   0.394   3.367   6.791
   44SOL    HW2 1032   0.339   3.214   6.812
   45SOL     OW 1033   2.846   0.267   1.455
   45SOL    HW1 1034   2.881   0.348   1.501
   45SOL    HW2 1035   2.780   0.220   1.515
   46SOL     OW 1036   1.294   4.989   4.020
   46SOL    HW1 1037   1.366   4.927   4.052
   46SOL    HW2 1038   1.278   5.060   4.087
   47SOL     OW 1039   5.195   4.572   2.903
   47SOL    HW1 1040   5.113   4.527   2.868
   47SOL    HW2 1041   5.221   4.529   2.990
   48SOL     OW 1042   0.663   1.115   5.499
   48SOL    HW1 1043   0.692   1.177   5.426
   48SOL    HW2 1044   0.581   1.065   5.471
   49SOL     OW 1045   5.754   2.938   0.497
   49SOL    HW1 1046   5.681   2.973   0.438
   49SOL    HW2 1047   5.790   3.013   0.553
   50SOL     OW 1048   0.213   3.378   4.768
   50SOL    HW1 1049   0.199   3.348   4.674
   50SOL    HW2 1050   0.171   3.468   4.781
   51SOL     OW 1051   2.636   5.572   2.768
   51SOL    HW1 1052   2.540   5.545   2.776
   51SOL    HW2 1053   2.658   5.591   2.672
   52SOL     OW 1054   0.835   2.232   1.695
   52SOL    HW1 1055   0.771   2.158   1.677
   52SOL    HW2 1056   0.790   2.304   1.747
   53SOL     OW 1057   4.957   6.348   4.051
   53SOL    HW1 1058   4.986   6.398   4.133
   53SOL    HW2 1059   4.960   6.250   4.069
   54SOL     OW 1060   4.860   5.226   5.811
   54SOL    HW1 1061   4.818   5.283   5.882
   54SOL    HW2 1062   4.945   5.187   5.845
   55SOL     OW 1063   3.535   2.261   0.848
   55SOL    HW1 1064   3.489   2.269   0.936
   55SOL    HW2 1065   3.604   2.333   0.840
   56SOL     OW 1066   0.577   6.603   1.453
   56SOL    HW1 1067   0.609   6.580   1.545
   56SOL    HW2 1068   0.568   6.519   1.399
   57SOL     OW 1069   5.523   1.288   1.223
   57SOL    HW1 1070   5.469   1.291   1.139
   57SOL    HW2 1071   5.492   1.359   1.285
   58SOL     OW 1072   0.150   0.150   6.529
   58SOL    HW1 1073   0.239   0.110   6.509
   58SOL    HW2 1074   0.147   0.180   6.625
   59SOL     OW 1075   0.892   0.253   4.818
   59SOL    HW1 1076   0.845   0.306   4.747
   59SOL    HW2 1077   0.987   0.239   4.792
   60SOL     OW 1078   4.944   7.002   4.767
   60SOL    HW1 1079   4.993   6.915   4.771
   60SOL    HW2 1080   4.914   0.013   4.859
   61SOL     OW 1081   4.305   0.270   5.089
   61SOL    HW1 1082   4.358   0.280   5.005
   61SOL    HW2 1083   4.207   0.275   5.067
   62SOL     OW 1084   3.158   1.241   5.090
   62SOL    HW1 1085   3.097   1.169   5.054
   62SOL    HW2 1086   3.141   1.326   5.040
   63SOL     OW 1087   6.872   3.685   3.565
   63SOL    HW1 1088   6.844   3.623   3.491
   63SOL    HW2 1089   6.949   3.644   3.614
   64SOL     OW 1090   0.484   2.374   5.270
   64SOL    HW1 1091   0.549   2.450   5.266
   64SOL    HW2 1092   0.516   2.306   5.337
   65SOL     OW 1093   0.472   3.377   5.675
   65SOL    HW1 1094   0.554   3.325   5.651
   65SOL    HW2 1095   0.467   3.458   5.618
   66SOL     OW 1096   2.750   0.867   0.825
   66SOL    HW1 1097   2.680   0.906   0.886
   66SOL    HW2 1098   2.799   0.795   0.873
   67SOL     OW 1099   4.475   5.512   4.063
   67SOL    HW1 1100   4.450   5.500   4.159
   67SOL    HW2 1101   4.571   5.488   4.049
   68SOL     OW 1102   5.304   2.649   6.703
   68SOL    HW1 1103   5.308   2.741   6.743
   68SOL    HW2 1104   5.378   2.639   6.637
   69SOL     OW 1105   2.297   2.841   5.795
   69SOL    HW1 1106   2.255   2.865   5.707
   69SOL    HW2 1107   2.354   2.760   5.783
   70SOL     OW 1108   6.405   6.174   2.064
   70SOL    HW1 1109   6.335   6.140   2.127
   70SOL    HW2 1110   6.373   6.161   1.970
   71SOL     OW 1111   2.120   3.398   2.769
   71SOL    HW1 1112   2.125   3.482   2.714
   71SOL    HW2 1113   2.108   3.423   2.865
   72SOL     OW 1114   3.293   5.562   3.892
   72SOL    HW1 1115   3.218   5.526   3.947
   72SOL    HW2 1116   3.379   5.553   3.944
   73SOL     OW 1117   3.613   2.353   6.432
   73SOL    HW1 1118   3.619   2.255   6.414
   73SOL    HW2 1119   3.625   2.404   6.347
   74SOL     OW 1120   5.212   6.511   6.270
   74SOL    HW1 1121   5.241   6.445   6.201
   74SOL    HW2 1122   5.197   6.463   6.357
   75SOL     OW 1123   3.454   4.933   5.289
   75SOL    HW1 1124   3.498   5.010   5.243
   75SOL    HW2 1125   3.361   4.923   5.255
   76SOL     OW 1126   2.641   3.011   1.167
   76SOL    HW1 1127   2.723   2.956   1.181
   76SOL    HW2 1128   2.647   3.058   1.079
   77SOL     OW 1129   5.300   4.758   6.365
   77SOL    HW1 1130   5.387   4.719   6.336
   77SOL    HW2 1131   5.243   4.685   6.404
   78SOL     OW 1132   6.584   6.095   6.317
   78SOL    HW1 1133   6.601   6.163   6.246
   78SOL    HW2 1134   6.509   6.126   6.375
   79SOL     OW 1135   3.246   6.640   0.270
   79SOL    HW1 1136   3.259   6.644   0.171
   79SOL    HW2 1137   3.181   6.567   0.292
   80SOL     OW 1138   0.074   1.114   4.014
   80SOL    HW1 1139   0.130   1.191   4.043
   80SOL    HW2 1140   0.078   1.105   3.915
   81SOL     OW 1141   1.595   0.106   4.233
   81SOL    HW1 1142   1.621   0.130   4.140
   81SOL    HW2 1143   1.662   0.042   4.272
   82SOL     OW 1144   6.660   4.588   5.719
   82SOL    HW1 1145   6.717   4.589   5.637
   82SOL    HW2 1146   6.718   4.580   5.800
   83SOL     OW 1147   6.755   0.027   6.371
   83SOL    HW1 1148   6.828   6.975   6.379
   83SOL    HW2 1149   6.689   0.014   6.446
   84SOL     OW 1150   6.223   3.385   1.631
   84SOL    HW1 1151   6.162   3.307   1.622
   84SOL    HW2 1152   6.266   3.405   1.543
   85SOL     OW 1153   0.947   1.429   5.321
   85SOL    HW1 1154   1.047   1.439   5.314
   85SOL    HW2 1155   0.924   1.332   5.325
   86SOL     OW 1156   2.192   1.183   4.848
   86SOL    HW1 1157   2.193   1.108   4.783
   86SOL    HW2 1158   2.097   1.207   4.870
   87SOL     OW 1159   4.618   0.052   1.591
   87SOL    HW1 1160   4.670   0.079   1.672
   87SOL    HW2 1161   4.521   0.067   1.607
   88SOL     OW 1162   5.730   0.686   0.453
   88SOL    HW1 1163   5.704   0.706   0.547
   88SOL    HW2 1164   5.660   0.630   0.410
   89SOL     OW 1165   2.541   1.650   5.844
   89SOL    HW1 1166   2.558   1.689   5.754
   89SOL    HW2 1167   2.528   1.724   5.910
   90SOL     OW 1168   6.679   5.831   3.517
   90SOL    HW1 1169   6.618   5.753   3.506
   90SOL    HW2 1170   6.640   5.911   3.472
   91SOL     OW 1171   4.148   5.033   4.842
   91SOL    HW1 1172   4.189   4.942   4.844
   91SOL    HW2 1173   4.114   5.052   4.750
   92SOL     OW 1174   3.369   6.515   1.463
   92SOL    HW1 1175   3.371   6.611   1.493
   92SOL    HW2 1176   3.274   6.486   1.451
   93SOL     OW 1177   3.458   4.558   5.655
   93SOL    HW1 1178   3.551   4.523   5.648
   93SOL    HW2 1179   3.393   4.482   5.660
   94SOL     OW 1180   2.644   6.623   1.779
   94SOL    HW1 1181   2.653   6.655   1.873
   94SOL    HW2 1182   2.733   6.595   1.744
   95SOL     OW 1183   6.587   0.218   5.167
   95SOL    HW1 1184   6.643   0.300   5.176
   95SOL    HW2 1185   6.615   0.167   5.085
   96SOL     OW 1186   1.658   6.862   5.234
   96SOL    HW1 1187   1.649   6.811   5.149
   96SOL    HW2 1188   1.654   6.799   5.312
   97SOL     OW 1189   6.055   2.918   4.918
   97SOL    HW1 1190   6.061   2.846   4.986
   97SOL    HW2 1191   6.134   2.914   4.857
   98SOL     OW 1192   5.760   1.903   5.969
   98SOL    HW1 1193   5.745   2.001   5.964
   98SOL    HW2 1194   5.682   1.858   6.012
   99SOL     OW 1195   4.229   2.372   0.913
   99SOL    HW1 1196   4.327   2.356   0.909
   99SOL    HW2 1197   4.181   2.284   0.909
  100SOL     OW 1198   6.263   4.815   6.684
  100SOL    HW1 1199   6.228   4.908   6.670
  100SOL    HW2 1200   6.279   4.800   6.782
  101SOL     OW 1201   0.798   6.570   4.320
  101SOL    HW1 1202   0.721   6.568   4.384
  101SOL    HW2 1203   0.877   6.524   4.362
  102SOL     OW 1204   4.516   0.505   3.147
  102SOL    HW1 1205   4.567   0.420   3.161
  102SOL    HW2 1206   4.440   0.508   3.212
  103SOL     OW 1207   3.352   1.916   1.700
  103SOL    HW1 1208   3.292   1.910   1.621
  103SOL    HW2 1209   3.296   1.919   1.784
  104SOL     OW 1210   6.995   5.847   2.184
  104SOL    HW1 1211   6.986   5.866   2.086
  104SOL    HW2 1212   0.061   5.893   2.220
  105SOL     OW 1213   5.282   1.474   5.825
  105SOL    HW1 1214   5.363   1.421   5.797
  105SOL    HW2 1215   5.201   1.415   5.821
  106SOL     OW 1216   3.435   6.492   0.754
  106SOL    HW1 1217   3.526   6.471   0.717
  106SOL    HW2 1218   3.423   6.591   0.757
  107SOL     OW 1219   2.313   3.026   0.967
  107SOL    HW1 1220   2.343   3.114   1.004
  107SOL    HW2 1221   2.373   2.953   1.000
  108SOL     OW 1222   4.806   4.456   5.016
  108SOL    HW1 1223   4.827   4.434   5.111
  108SOL    HW2 1224   4.723   4.407   4.987
  109SOL     OW 1225   6.025   0.603   1.504
  109SOL    HW1 1226   6.117   0.597   1.542
  109SOL    HW2 1227   5.957   0.587   1.576
  110SOL     OW 1228   2.988   6.093   4.816
  110SOL    HW1 1229   3.058   6.125   4.753
  110SOL    HW2 1230   3.029   6.079   4.906
  111SOL     OW 1231   3.327   1.252   3.617
  111SOL    HW1 1232   3.360   1.158   3.620
  111SOL    HW2 1233   3.255   1.265   3.685
  112SOL     OW 1234   6.871   1.101   6.572
  112SOL    HW1 1235   6.840   1.169   6.639
  112SOL    HW2 1236   6.796   1.037   6.554
  113SOL     OW 1237   6.805   6.486   3.778
  113SOL    HW1 1238   6.818   6.494   3.679
  113SOL    HW2 1239   6.709   6.467   3.798
  114SOL     OW 1240   1.302   6.735   0.049
  114SOL    HW1 1241   1.332   6.734   6.969
  114SOL    HW2 1242   1.266   6.644   0.073
  115SOL     OW 1243   5.672   0.920   5.617
  115SOL    HW1 1244   5.751   0.915   5.556
  115SOL    HW2 1245   5.589   0.897   5.565
  116SOL     OW 1246   5.942   4.355   2.428
  116SOL    HW1 1247   5.900   4.271   2.395
  116SOL    HW2 1248   5.873   4.428   2.432
  117SOL     OW 1249   1.449   6.798   6.327
  117SOL    HW1 1250   1.450   6.720   6.265
  117SOL    HW2 1251   1.537   6.845   6.324
  118SOL     OW 1252   2.305   0.505   2.907
  118SOL    HW1 1253   2.324   0.603   2.916
  118SOL    HW2 1254   2.207   0.489   2.923
  119SOL     OW 1255   6.878   2.408   6.371
  119SOL    HW1 1256   6.871   2.384   6.274
  119SOL    HW2 1257   6.873   2.324   6.426
  120SOL     OW 1258   5.570   6.628   1.449
  120SOL    HW1 1259   5.665   6.607   1.425
  120SOL    HW2 1260   5.562   6.638   1.548
  121SOL     OW 1261   2.726   3.142   5.801
  121SOL    HW1 1262   2.712   3.176   5.708
  121SOL    HW2 1263   2.665   3.064   5.816
  122SOL     OW 1264   0.301   3.146   4.550
  122SOL    HW1 1265   0.361   3.226   4.545
  122SOL    HW2 1266   0.336   3.082   4.618
  123SOL     OW 1267   0.637   2.031   1.633
  123SOL    HW1 1268   0.666   2.023   1.538
  123SOL    HW2 1269   0.595   1.945   1.661
  124SOL     OW 1270   5.021   3.508   0.801
  124SOL    HW1 1271   5.105   3.549   0.766
  124SOL    HW2 1272   5.044   3.422   0.847
  125SOL     OW 1273   2.077   3.460   1.630
  125SOL    HW1 1274   2.124   3.372   1.633
  125SOL    HW2 1275   2.063   3.493   1.724
  126SOL     OW 1276   3.807   4.566   0.800
  126SOL    HW1 1277   3.781   4.583   0.895
  126SOL    HW2 1278   3.724   4.552   0.745
  127SOL     OW 1279   1.150   4.998   5.885
  127SOL    HW1 1280   1.186   5.080   5.840
  127SOL    HW2 1281   1.103   4.941   5.818
  128SOL     OW 1282   4.493   2.745   1.243
  128SOL    HW1 1283   4.516   2.841   1.226
  128SOL    HW2 1284   4.521   2.719   1.335
  129SOL     OW 1285   2.471   3.901   6.441
  129SOL    HW1 1286   2.474   3.842   6.360
  129SOL    HW2 1287   2.437   3.991   6.416
  130SOL     OW 1288   1.938   2.653   4.819
  130SOL    HW1 1289   1.946   2.556   4.843
  130SOL    HW2 1290   1.978   2.669   4.729
  131SOL     OW 1291   5.297   1.912   2.429
  131SOL    HW1 1292   5.292   1.970   2.511
  131SOL    HW2 1293   5.383   1.930   2.381
  132SOL     OW 1294   0.355   2.506   2.068
  132SOL    HW1 1295   0.309   2.498   2.156
  132SOL    HW2 1296   0.453   2.492   2.081
  133SOL     OW 1297   0.004   5.484   2.480
  133SOL    HW1 1298   6.992   5.477   2.576
  133SOL    HW2 1299   6.950   5.536   2.430
  134SOL     OW 1300   0.949   3.609   2.313
  134SOL    HW1 1301   0.966   3.619   2.411
  134SOL    HW2 1302   0.919   3.516   2.293
  135SOL     OW 1303   4.089   1.264   3.853
  135SOL    HW1 1304   4.148   1.344   3.865
  135SOL    HW2 1305   4.127   1.206   3.781
  136SOL     OW 1306   4.701   4.918   5.490
  136SOL    HW1 1307   4.754   4.839   5.458
  136SOL    HW2 1308   4.689   4.983   5.415
  137SOL     OW 1309   3.306   0.829   5.597
  137SOL    HW1 1310   3.214   0.837   5.559
  137SOL    HW2 1311   3.302   0.841   5.696
  138SOL     OW 1312   6.028   4.640   5.047
  138SOL    HW1 1313   5.928   4.634   5.045
  138SOL    HW2 1314   6.067   4.556   5.008
  139SOL     OW 1315   2.963   6.092   5.546
  139SOL    HW1 1316   2.912   6.012   5.515
  139SOL    HW2 1317   2.965   6.094   5.646
  140SOL     OW 1318   6.495   4.379   4.486
  140SOL    HW1 1319   6.515   4.413   4.578
  140SOL    HW2 1320   6.405   4.413   4.457
  141SOL     OW 1321   1.231   2.038   2.172
  141SOL    HW1 1322   1.251   2.102   2.246
  141SOL    HW2 1323   1.132   2.023   2.167
  142SOL     OW 1324   1.728   5.415   1.557
  142SOL    HW1 1325   1.660   5.343   1.571
  142SOL    HW2 1326   1.783   5.425   1.639
  143SOL     OW 1327   5.248   4.417   1.978
  143SOL    HW1 1328   5.294   4.338   2.018
  143SOL    HW2 1329   5.149   4.402   1.980
  144SOL     OW 1330   2.583   6.177   1.158
  144SOL    HW1 1331   2.538   6.231   1.087
  144SOL    HW2 1332   2.557   6.081   1.148
  145SOL     OW 1333   6.624   4.888   0.854
  145SOL    HW1 1334   6.665   4.878   0.764
  145SOL    HW2 1335   6.559   4.964   0.854
  146SOL     OW 1336   6.461   5.104   0.785
  146SOL    HW1 1337   6.373   5.060   0.763
  146SOL    HW2 1338   6.489   5.161   0.709
  147SOL     OW 1339   5.514   2.721   0.949
  147SOL    HW1 1340   5.580   2.795   0.960
  147SOL    HW2 1341   5.562   2.634   0.937
  148SOL     OW 1342   1.171   5.240   5.538
  148SOL    HW1 1343   1.112   5.319   5.550
  148SOL    HW2 1344   1.139   5.185   5.461
  149SOL     OW 1345   3.030   1.091   5.961
  149SOL    HW1 1346   3.004   1.183   5.989
  149SOL    HW2 1347   3.047   1.089   5.862
  150SOL     OW 1348   0.318   5.685   5.880
  150SOL    HW1 1349   0.278   5.678   5.789
  150SOL    HW2 1350   0.256   5.735   5.941
  151SOL     OW 1351   3.761   0.827   1.589
  151SOL    HW1 1352   3.821   0.752   1.615
  151SOL    HW2 1353   3.780   0.906   1.647
  152SOL     OW 1354   3.453   1.248   5.025
  152SOL    HW1 1355   3.364   1.213   5.056
  152SOL    HW2 1356   3.453   1.347   5.028
  153SOL     OW 1357   1.478   0.535   3.019
  153SOL    HW1 1358   1.398   0.511   3.073
  153SOL    HW2 1359   1.547   0.462   3.028
  154SOL     OW 1360   6.266   2.015   2.995
  154SOL    HW1 1361   6.182   1.969   2.966
  154SOL    HW2 1362   6.279   2.002   3.094
  155SOL     OW 1363   0.441   1.468   2.724
  155SOL    HW1 1364   0.467   1.395   2.787
  155SOL    HW2 1365   0.341   1.472   2.718
  156SOL     OW 1366   0.561   2.536   1.679
  156SOL    HW1 1367   0.655   2.548   1.646
  156SOL    HW2 1368   0.526   2.449   1.645
  157SOL     OW 1369   6.046   3.050   2.719
  157SOL    HW1 1370   6.143   3.069   2.702
  157SOL    HW2 1371   5.991   3.129   2.691
  158SOL     OW 1372   1.466   2.123   4.208
  158SOL    HW1 1373   1.403   2.118   4.285
  158SOL    HW2 1374   1.460   2.213   4.165
  159SOL     OW 1375   4.954   3.400   2.296
  159SOL    HW1 1376   4.911   3.314   2.270
  159SOL    HW2 1377   5.040   3.410   2.246
  160SOL     OW 1378   5.991   4.497   5.807
  160SOL    HW1 1379   5.968   4.411   5.854
  160SOL    HW2 1380   6.051   4.551   5.865
  161SOL     OW 1381   3.157   4.828   5.503
  161SOL    HW1 1382   3.185   4.872   5.417
  161SOL    HW2 1383   3.192   4.734   5.505
  162SOL     OW 1384   4.705   6.107   2.268
  162SOL    HW1 1385   4.716   6.019   2.223
  162SOL    HW2 1386   4.694   6.094   2.367
  163SOL     OW 1387   5.274   0.649   1.860
  163SOL    HW1 1388   5.178   0.632   1.835
  163SOL    HW2 1389   5.291   0.748   1.861
  164SOL     OW 1390   6.423   3.113   1.445
  164SOL    HW1 1391   6.433   3.209   1.471
  164SOL    HW2 1392   6.472   3.097   1.359
  165SOL     OW 1393   5.982   4.001   6.322
  165SOL    HW1 1394   5.963   4.061   6.245
  165SOL    HW2 1395   5.896   3.967   6.360
  166SOL     OW 1396   1.238   0.448   1.039
  166SOL    HW1 1397   1.283   0.529   1.078
  166SOL    HW2 1398   1.203   0.390   1.113
  167SOL     OW 1399   6.785   3.135   0.599
  167SOL    HW1 1400   6.731   3.140   0.683
  167SOL    HW2 1401   6.766   3.215   0.542
  168SOL     OW 1402   2.679   5.524   1.591
  168SOL    HW1 1403   2.728   5.539   1.677
  168SOL    HW2 1404   2.677   5.426   1.571
  169SOL     OW 1405   1.385   0.065   1.524
  169SOL    HW1 1406   1.313   0.018   1.474
  169SOL    HW2 1407   1.394   0.158   1.490
  170SOL     OW 1408   0.492   1.228   2.853
  170SOL    HW1 1409   0.454   1.136   2.858
  170SOL    HW2 1410   0.582   1.230   2.897
  171SOL     OW 1411   3.506   3.989   0.711
  171SOL    HW1 1412   3.429   3.925   0.710
  171SOL    HW2 1413   3.574   3.961   0.644
  172SOL     OW 1414   6.876   3.315   1.531
  172SOL    HW1 1415   6.796   3.320   1.471
  172SOL    HW2 1416   6.952   3.274   1.481
  173SOL     OW 1417   0.344   6.267   5.546
  173SOL    HW1 1418   0.435   6.276   5.506
  173SOL    HW2 1419   0.352   6.248   5.644
  174SOL     OW 1420   2.487   5.921   3.458
  174SOL    HW1 1421   2.467   5.838   3.511
  174SOL    HW2 1422   2.585   5.940   3.463
  175SOL     OW 1423   0.665   5.483   2.852
  175SOL    HW1 1424   0.739   5.543   2.880
  175SOL    HW2 1425   0.609   5.528   2.783
  176SOL     OW 1426   2.973   5.346   0.566
  176SOL    HW1 1427   2.961   5.298   0.479
  176SOL    HW2 1428   3.058   5.398   0.563
  177SOL     OW 1429   4.766   2.279   3.287
  177SOL    HW1 1430   4.857   2.306   3.253
  177SOL    HW2 1431   4.771   2.187   3.325
  178SOL     OW 1432   5.440   4.509   5.535
  178SOL    HW1 1433   5.527   4.481   5.575
  178SOL    HW2 1434   5.376   4.534   5.607
  179SOL     OW 1435   3.198   0.091   1.085
  179SOL    HW1 1436   3.115   0.036   1.094
  179SOL    HW2 1437   3.179   0.185   1.115
  180SOL     OW 1438   1.271   2.359   6.906
  180SOL    HW1 1439   1.206   2.292   6.870
  180SOL    HW2 1440   1.336   2.383   6.834
  181SOL     OW 1441   2.971   3.249   4.621
  181SOL    HW1 1442   2.985   3.348   4.621
  181SOL    HW2 1443   2.985   3.214   4.713
  182SOL     OW 1444   4.730   2.336   4.904
  182SOL    HW1 1445   4.721   2.371   4.997
  182SOL    HW2 1446   4.808   2.380   4.859
  183SOL     OW 1447   5.723   1.748   2.264
  183SOL    HW1 1448   5.755   1.658   2.234
  183SOL    HW2 1449   5.721   1.810   2.185
  184SOL     OW 1450   0.427   4.439   3.016
  184SOL    HW1 1451   0.397   4.534   3.026
  184SOL    HW2 1452   0.349   4.378   3.030
  185SOL     OW 1453   2.599   3.215   6.464
  185SOL    HW1 1454   2.658   3.201   6.544
  185SOL    HW2 1455   2.566   3.309   6.463
  186SOL     OW 1456   6.179   6.236   3.646
  186SOL    HW1 1457   6.215   6.147   3.620
  186SOL    HW2 1458   6.162   6.291   3.564
  187SOL     OW 1459   5.700   0.456   4.206
  187SOL    HW1 1460   5.771   0.513   4.164
  187SOL    HW2 1461   5.688   0.373   4.153
  188SOL     OW 1462   6.156   2.118   4.490
  188SOL    HW1 1463   6.200   2.196   4.533
  188SOL    HW2 1464   6.084   2.082   4.549
  189SOL     OW 1465   1.575   4.212   2.682
  189SOL    HW1 1466   1.522   4.147   2.628
  189SOL    HW2 1467   1.530   4.302   2.680
  190SOL     OW 1468   2.885   1.370   6.886
  190SOL    HW1 1469   2.903   1.293   6.825
  190SOL    HW2 1470   2.806   1.349   6.944
  191SOL     OW 1471   4.404   6.069   5.882
  191SOL    HW1 1472   4.443   6.125   5.954
  191SOL    HW2 1473   4.313   6.103   5.858
  192SOL     OW 1474   6.760   0.313   0.713
  192SOL    HW1 1475   6.668   0.279   0.696
  192SOL    HW2 1476   6.778   0.392   0.655
  193SOL     OW 1477   5.606   4.377   6.945
  193SOL    HW1 1478   5.672   4.433   6.894
  193SOL    HW2 1479   5.656   4.317   7.008
  194SOL     OW 1480   4.332   6.881   4.588
  194SOL    HW1 1481   4.406   6.924   4.639
  194SOL    HW2 1482   4.298   6.945   4.519
  195SOL     OW 1483   6.574   5.148   3.659
  195SOL    HW1 1484   6.572   5.110   3.566
  195SOL    HW2 1485   6.563   5.075   3.726
  196SOL     OW 1486   1.073   1.161   1.022
  196SOL    HW1 1487   1.155   1.180   0.968
  196SOL    HW2 1488   1.053   1.239   1.082
  197SOL     OW 1489   1.962   0.929   0.672
  197SOL    HW1 1490   2.039   0.892   0.620
  197SOL    HW2 1491   1.996   1.000   0.735
  198SOL     OW 1492   2.636   1.296   4.258
  198SOL    HW1 1493   2.628   1.384   4.304
  198SOL    HW2 1494   2.572   1.292   4.181
  199SOL     OW 1495   1.069   1.769   4.625
  199SOL    HW1 1496   1.096   1.861   4.654
  199SOL    HW2 1497   1.025   1.773   4.535
  200SOL     OW 1498   6.269   2.170   6.934
  200SOL    HW1 1499   6.240   2.135   0.008
  200SOL    HW2 1500   6.249   2.268   6.929
  201SOL     OW 1501   0.393   1.105   6.648
  201SOL    HW1 1502   0.493   1.103   6.659
  201SOL    HW2 1503   0.365   1.032   6.586
  202SOL     OW 1504   4.977   0.277   0.601
  202SOL    HW1 1505   5.035   0.196   0.607
  202SOL    HW2 1506   4.885   0.255   0.635
  203SOL     OW 1507   6.393   2.768   6.220
  203SOL    HW1 1508   6.419   2.707   6.295
  203SOL    HW2 1509   6.416   2.724   6.133
  204SOL     OW 1510   6.161   0.641   4.977
  204SOL    HW1 1511   6.198   0.553   5.007
  204SOL    HW2 1512   6.235   0.696   4.937
  205SOL     OW 1513   1.918   4.015   2.453
  205SOL    HW1 1514   1.831   3.976   2.484
  205SOL    HW2 1515   1.994   3.966   2.495
  206SOL     OW 1516   0.014   3.371   0.662
  206SOL    HW1 1517   0.005   3.271   0.664
  206SOL    HW2 1518   0.096   3.395   0.610
  207SOL     OW 1519   6.225   2.531   4.862
  207SOL    HW1 1520   6.276   2.572   4.937
  207SOL    HW2 1521   6.128   2.552   4.871
  208SOL     OW 1522   0.751   3.404   5.374
  208SOL    HW1 1523   0.682   3.359   5.317
  208SOL    HW2 1524   0.834   3.348   5.375
  209SOL     OW 1525   6.566   4.553   3.142
  209SOL    HW1 1526   6.554   4.454   3.148
  209SOL    HW2 1527   6.659   4.574   3.113
  210SOL     OW 1528   4.593   3.315   0.233
  210SOL    HW1 1529   4.516   3.329   0.295
  210SOL    HW2 1530   4.670   3.371   0.262
  211SOL     OW 1531   1.402   1.320   2.023
  211SOL    HW1 1532   1.353   1.346   2.106
  211SOL    HW2 1533   1.481   1.380   2.010
  212SOL     OW 1534   1.796   3.890   1.799
  212SOL    HW1 1535   1.761   3.891   1.706
  212SOL    HW2 1536   1.721   3.871   1.863
  213SOL     OW 1537   1.235   4.986   0.863
  213SOL    HW1 1538   1.154   4.931   0.845
  213SOL    HW2 1539   1.220   5.079   0.830
  214SOL     OW 1540   5.496   0.222   2.261
  214SOL    HW1 1541   5.593   0.201   2.271
  214SOL    HW2 1542   5.476   0.241   2.165
  215SOL     OW 1543   2.205   5.177   2.836
  215SOL    HW1 1544   2.223   5.169   2.934
  215SOL    HW2 1545   2.171   5.090   2.802
  216SOL     OW 1546   1.582   6.137   3.175
  216SOL    HW1 1547   1.482   6.144   3.181
  216SOL    HW2 1548   1.616   6.203   3.108
  217SOL     OW 1549   0.970   4.817   5.436
  217SOL    HW1 1550   0.882   4.773   5.419
  217SOL    HW2 1551   1.035   4.748   5.470
  218SOL     OW 1552   2.498   1.825   5.214
  218SOL    HW1 1553   2.421   1.866   5.165
  218SOL    HW2 1554   2.582   1.841   5.162
  219SOL     OW 1555   4.381   2.285   1.496
  219SOL    HW1 1556   4.362   2.346   1.419
  219SOL    HW2 1557   4.475   2.299   1.527
  220SOL     OW 1558   3.527   6.520   1.106
  220SOL    HW1 1559   3.593   6.457   1.065
  220SOL    HW2 1560   3.480   6.474   1.181
  221SOL     OW 1561   5.067   4.847   1.914
  221SOL    HW1 1562   4.972   4.867   1.937
  221SOL    HW2 1563   5.073   4.818   1.818
  222SOL     OW 1564   1.830   4.454   6.572
  222SOL    HW1 1565   1.811   4.492   6.663
  222SOL    HW2 1566   1.914   4.399   6.576
  223SOL     OW 1567   6.376   2.964   5.103
  223SOL    HW1 1568   6.364   2.961   5.004
  223SOL    HW2 1569   6.459   3.015   5.125
  224SOL     OW 1570   3.213   2.152   5.616
  224SOL    HW1 1571   3.189   2.166   5.520
  224SOL    HW2 1572   3.153   2.208   5.673
  225SOL     OW 1573   3.960   6.583   6.209
  225SOL    HW1 1574   3.989   6.580   6.305
  225SOL    HW2 1575   4.030   6.540   6.153
  226SOL     OW 1576   1.567   2.801   6.796
  226SOL    HW1 1577   1.649   2.759   6.755
  226SOL    HW2 1578   1.593   2.887   6.840
  227SOL     OW 1579   1.599   3.662   1.048
  227SOL    HW1 1580   1.690   3.627   1.026
  227SOL    HW2 1581   1.569   3.623   1.135
  228SOL     OW 1582   0.692   0.458   1.911
  228SOL    HW1 1583   0.791   0.444   1.916
  228SOL    HW2 1584   0.646   0.378   1.948
  229SOL     OW 1585   3.740   7.015   6.233
  229SOL    HW1 1586   3.758   6.924   6.196
  229SOL    HW2 1587   3.664   0.041   6.182
  230SOL     OW 1588   5.523   5.465   5.609
  230SOL    HW1 1589   5.483   5.428   5.693
  230SOL    HW2 1590   5.622   5.474   5.619
  231SOL     OW 1591   5.479   1.831   6.899
  231SOL    HW1 1592   5.578   1.814   6.896
  231SOL    HW2 1593   5.433   1.753   6.940
  232SOL     OW 1594   0.960   1.566   5.887
  232SOL    HW1 1595   0.986   1.609   5.801
  232SOL    HW2 1596   1.036   1.510   5.920
  233SOL     OW 1597   3.342   1.557   2.932
  233SOL    HW1 1598   3.325   1.486   3.000
  233SOL    HW2 1599   3.363   1.643   2.979
  234SOL     OW 1600   5.079   0.694   0.586
  234SOL    HW1 1601   5.018   0.771   0.606
  234SOL    HW2 1602   5.061   0.620   0.650
  235SOL     OW 1603   4.853   3.042   2.961
  235SOL    HW1 1604   4.794   2.983   2.906
  235SOL    HW2 1605   4.941   3.052   2.916
  236SOL     OW 1606   4.202   4.084   5.954
  236SOL    HW1 1607   4.256   4.168   5.965
  236SOL    HW2 1608   4.114   4.095   6.000
  237SOL     OW 1609   6.139   3.327   2.591
  237SOL    HW1 1610   6.044   3.332   2.560
  237SOL    HW2 1611   6.198   3.303   2.514
  238SOL     OW 1612   5.991   1.785   0.660
  238SOL    HW1 1613   6.060   1.713   0.651
  238SOL    HW2 1614   5.995   1.823   0.753
  239SOL     OW 1615   1.166   3.376   0.297
  239SOL    HW1 1616   1.147   3.346   0.391
  239SOL    HW2 1617   1.190   3.296   0.241
  240SOL     OW 1618   4.940   3.399   3.894
  240SOL    HW1 1619   5.032   3.368   3.870
  240SOL    HW2 1620   4.874   3.362   3.830
  241SOL     OW 1621   2.434   1.973   4.304
  241SOL    HW1 1622   2.515   2.025   4.278
  241SOL    HW2 1623   2.456   1.875   4.305
  242SOL     OW 1624   3.831   3.570   2.691
  242SOL    HW1 1625   3.776   3.573   2.608
  242SOL    HW2 1626   3.792   3.633   2.759
  243SOL     OW 1627   3.831   2.810   6.503
  243SOL    HW1 1628   3.926   2.838   6.518
  243SOL    HW2 1629   3.773   2.891   6.493
  244SOL     OW 1630   4.852   3.206   4.532
  244SOL    HW1 1631   4.799   3.122   4.518
  244SOL    HW2 1632   4.834   3.242   4.624
  245SOL     OW 1633   3.673   0.764   3.269
  245SOL    HW1 1634   3.680   0.863   3.267
  245SOL    HW2 1635   3.688   0.731   3.363
  246SOL     OW 1636   6.575   1.389   2.500
  246SOL    HW1 1637   6.636   1.394   2.421
  246SOL    HW2 1638   6.510   1.465   2.496
  247SOL     OW 1639   1.598   1.530   1.986
  247SOL    HW1 1640   1.685   1.559   1.947
  247SOL    HW2 1641   1.528   1.600   1.968
  248SOL     OW 1642   2.687   3.078   1.710
  248SOL    HW1 1643   2.700   3.086   1.809
  248SOL    HW2 1644   2.702   2.983   1.682
  249SOL     OW 1645   4.728   6.546   4.633
  249SOL    HW1 1646   4.746   6.526   4.729
  249SOL    HW2 1647   4.634   6.579   4.623
  250SOL     OW 1648   4.263   2.429   0.408
  250SOL    HW1 1649   4.245   2.387   0.497
  250SOL    HW2 1650   4.179   2.473   0.375
  251SOL     OW 1651   3.737   4.670   5.393
  251SOL    HW1 1652   3.767   4.588   5.441
  251SOL    HW2 1653   3.637   4.675   5.393
  252SOL     OW 1654   6.574   6.930   5.495
  252SOL    HW1 1655   6.618   6.935   5.405
  252SOL    HW2 1656   6.624   6.988   5.560
  253SOL     OW 1657   4.250   6.400   6.264
  253SOL    HW1 1658   4.225   6.490   6.229
  253SOL    HW2 1659   4.193   6.330   6.221
  254SOL     OW 1660   6.174   2.148   5.673
  254SOL    HW1 1661   6.150   2.054   5.650
  254SOL    HW2 1662   6.091   2.198   5.698
  255SOL     OW 1663   0.982   4.157   6.869
  255SOL    HW1 1664   0.956   4.192   6.959
  255SOL    HW2 1665   0.956   4.224   6.799
  256SOL     OW 1666   5.553   2.197   5.058
  256SOL    HW1 1667   5.464   2.242   5.065
  256SOL    HW2 1668   5.568   2.141   5.140
  257SOL     OW 1669   4.952   6.706   2.310
  257SOL    HW1 1670   4.984   6.786   2.259
  257SOL    HW2 1671   4.861   6.680   2.278
  258SOL     OW 1672   1.844   3.236   6.251
  258SOL    HW1 1673   1.903   3.178   6.196
  258SOL    HW2 1674   1.898   3.308   6.294
  259SOL     OW 1675   3.667   6.849   3.723
  259SOL    HW1 1676   3.704   6.916   3.788
  259SOL    HW2 1677   3.643   6.896   3.637
  260SOL     OW 1678   3.990   5.405   2.924
  260SOL    HW1 1679   4.001   5.307   2.907
  260SOL    HW2 1680   4.076   5.442   2.960
  261SOL     OW 1681   4.485   5.306   0.217
  261SOL    HW1 1682   4.392   5.320   0.182
  261SOL    HW2 1683   4.516   5.213   0.196
  262SOL     OW 1684   0.662   4.374   6.628
  262SOL    HW1 1685   0.574   4.417   6.607
  262SOL    HW2 1686   0.683   4.306   6.558
  263SOL     OW 1687   0.868   6.726   4.103
  263SOL    HW1 1688   0.946   6.777   4.137
  263SOL    HW2 1689   0.823   6.679   4.178
  264SOL     OW 1690   6.261   3.714   6.171
  264SOL    HW1 1691   6.261   3.808   6.206
  264SOL    HW2 1692   6.248   3.716   6.072
  265SOL     OW 1693   6.701   0.246   3.474
  265SOL    HW1 1694   6.683   0.164   3.419
  265SOL    HW2 1695   6.750   0.219   3.557
  266SOL     OW 1696   3.293   0.814   5.915
  266SOL    HW1 1697   3.384   0.802   5.956
  266SOL    HW2 1698   3.230   0.849   5.985
  267SOL     OW 1699   2.034   0.279   3.891
  267SOL    HW1 1700   1.961   0.319   3.947
  267SOL    HW2 1701   2.010   0.186   3.865
  268SOL     OW 1702   3.101   2.610   1.301
  268SOL    HW1 1703   3.187   2.658   1.281
  268SOL    HW2 1704   3.099   2.587   1.399
  269SOL     OW 1705   4.438   2.040   0.268
  269SOL    HW1 1706   4.514   2.086   0.223
  269SOL    HW2 1707   4.455   1.942   0.273
  270SOL     OW 1708   5.706   0.914   6.928
  270SOL    HW1 1709   5.683   0.918   6.831
  270SOL    HW2 1710   5.656   0.839   6.971
  271SOL     OW 1711   0.418   3.599   6.571
  271SOL    HW1 1712   0.347   3.562   6.511
  271SOL    HW2 1713   0.508   3.568   6.539
  272SOL     OW 1714   3.444   5.603   3.348
  272SOL    HW1 1715   3.523   5.638   3.397
  272SOL    HW2 1716   3.374   5.576   3.414
  273SOL     OW 1717   1.862   4.959   6.175
  273SOL    HW1 1718   1.858   4.871   6.128
  273SOL    HW2 1719   1.769   4.988   6.199
  274SOL     OW 1720   5.337   2.539   3.661
  274SOL    HW1 1721   5.267   2.469   3.647
  274SOL    HW2 1722   5.305   2.625   3.620
  275SOL     OW 1723   6.300   6.616   1.218
  275SOL    HW1 1724   6.259   6.664   1.295
  275SOL    HW2 1725   6.286   6.518   1.228
  276SOL     OW 1726   0.623   0.456   5.137
  276SOL    HW1 1727   0.539   0.498   5.172
  276SOL    HW2 1728   0.678   0.525   5.090
  277SOL     OW 1729   2.114   4.492   0.664
  277SOL    HW1 1730   2.016   4.483   0.683
  277SOL    HW2 1731   2.143   4.586   0.683
  278SOL     OW 1732   0.800   3.099   2.695
  278SOL    HW1 1733   0.791   3.004   2.666
  278SOL    HW2 1734   0.734   3.155   2.644
  279SOL     OW 1735   6.553   1.285   3.853
  279SOL    HW1 1736   6.510   1.374   3.870
  279SOL    HW2 1737   6.482   1.217   3.835
  280SOL     OW 1738   1.546   4.761   2.302
  280SOL    HW1 1739   1.596   4.686   2.346
  280SOL    HW2 1740   1.498   4.725   2.221
  281SOL     OW 1741   2.436   4.801   1.262
  281SOL    HW1 1742   2.474   4.764   1.177
  281SOL    HW2 1743   2.508   4.807   1.331
  282SOL     OW 1744   2.873   1.571   6.154
  282SOL    HW1 1745   2.965   1.584   6.191
  282SOL    HW2 1746   2.864   1.477   6.120
  283SOL     OW 1747   3.547   2.504   5.923
  283SOL    HW1 1748   3.483   2.579   5.913
  283SOL    HW2 1749   3.502   2.418   5.899
  284SOL     OW 1750   0.986   3.910   4.228
  284SOL    HW1 1751   0.987   3.813   4.203
  284SOL    HW2 1752   0.945   3.920   4.319
  285SOL     OW 1753   4.779   5.349   4.301
  285SOL    HW1 1754   4.815   5.395   4.383
  285SOL    HW2 1755   4.699   5.295   4.325
  286SOL     OW 1756   2.922   3.414   6.982
  286SOL    HW1 1757   3.008   3.363   6.988
  286SOL    HW2 1758   2.890   3.415   6.887
  287SOL     OW 1759   1.626   2.704   0.303
  287SOL    HW1 1760   1.680   2.637   0.252
  287SOL    HW2 1761   1.547   2.731   0.248
  288SOL     OW 1762   4.765   3.566   0.675
  288SOL    HW1 1763   4.730   3.627   0.746
  288SOL    HW2 1764   4.861   3.546   0.693
  289SOL     OW 1765   3.899   5.635   6.470
  289SOL    HW1 1766   3.893   5.536   6.483
  289SOL    HW2 1767   3.813   5.678   6.496
  290SOL     OW 1768   1.597   1.171   4.642
  290SOL    HW1 1769   1.653   1.178   4.559
  290SOL    HW2 1770   1.505   1.203   4.621
  291SOL     OW 1771   6.161   2.321   2.829
  291SOL    HW1 1772   6.249   2.287   2.862
  291SOL    HW2 1773   6.168   2.344   2.732
  292SOL     OW 1774   2.947   0.254   3.889
  292SOL    HW1 1775   2.989   0.188   3.826
  292SOL    HW2 1776   3.000   0.257   3.974
  293SOL     OW 1777   3.481   4.902   3.455
  293SOL    HW1 1778   3.388   4.879   3.484
  293SOL    HW2 1779   3.503   4.995   3.486
  294SOL     OW 1780   4.485   0.788   0.655
  294SOL    HW1 1781   4.468   0.856   0.584
  294SOL    HW2 1782   4.556   0.725   0.624
  295SOL     OW 1783   6.063   6.785   3.218
  295SOL    HW1 1784   5.998   6.856   3.190
  295SOL    HW2 1785   6.025   6.734   3.295
  296SOL     OW 1786   2.423   2.332   3.314
  296SOL    HW1 1787   2.496   2.385   3.356
  296SOL    HW2 1788   2.409   2.362   3.220
  297SOL     OW 1789   1.643   5.292   2.350
  297SOL    HW1 1790   1.652   5.317   2.447
  297SOL    HW2 1791   1.603   5.201   2.343
  298SOL     OW 1792   6.753   4.619   0.928
  298SOL    HW1 1793   6.790   4.711   0.939
  298SOL    HW2 1794   6.699   4.615   0.844
  299SOL     OW 1795   5.854   2.350   4.472
  299SOL    HW1 1796   5.934   2.397   4.434
  299SOL    HW2 1797   5.778   2.415   4.478
  300SOL     OW 1798   6.764   6.920   1.925
  300SOL    HW1 1799   6.777   6.943   2.022
  300SOL    HW2 1800   6.701   6.843   1.918
  301SOL     OW 1801   4.473   2.676   5.547
  301SOL    HW1 1802   4.455   2.774   5.539
  301SOL    HW2 1803   4.501   2.640   5.458
  302SOL     OW 1804   0.804   5.947   3.921
  302SOL    HW1 1805   0.765   5.933   3.830
  302SOL    HW2 1806   0.903   5.946   3.915
  303SOL     OW 1807   6.236   6.805   2.950
  303SOL    HW1 1808   6.151   6.753   2.941
  303SOL    HW2 1809   6.242   6.845   3.042
  304SOL     OW 1810   3.617   6.997   3.440
  304SOL    HW1 1811   3.567   0.068   3.455
  304SOL    HW2 1812   3.557   6.932   3.395
  305SOL     OW 1813   1.515   4.387   1.147
  305SOL    HW1 1814   1.595   4.354   1.198
  305SOL    HW2 1815   1.431   4.357   1.192
  306SOL     OW 1816   1.950   0.494   3.596
  306SOL    HW1 1817   1.869   0.456   3.641
  306SOL    HW2 1818   2.033   0.457   3.640
  307SOL     OW 1819   3.281   0.157   1.635
  307SOL    HW1 1820   3.310   0.102   1.557
  307SOL    HW2 1821   3.354   0.161   1.702
  308SOL     OW 1822   0.866   4.548   3.803
  308SOL    HW1 1823   0.904   4.634   3.835
  308SOL    HW2 1824   0.940   4.485   3.780
  309SOL     OW 1825   3.181   4.915   5.241
  309SOL    HW1 1826   3.191   4.967   5.156
  309SOL    HW2 1827   3.135   4.828   5.223
  310SOL     OW 1828   1.412   5.510   6.151
  310SOL    HW1 1829   1.346   5.438   6.169
  310SOL    HW2 1830   1.493   5.496   6.208
  311SOL     OW 1831   6.857   0.683   1.553
  311SOL    HW1 1832   6.899   0.592   1.553
  311SOL    HW2 1833   6.920   0.748   1.596
  312SOL     OW 1834   3.740   1.065   5.711
  312SOL    HW1 1835   3.683   1.139   5.745
  312SOL    HW2 1836   3.682   0.997   5.665
  313SOL     OW 1837   0.274   4.460   0.613
  313SOL    HW1 1838   0.263   4.449   0.514
  313SOL    HW2 1839   0.254   4.373   0.659
  314SOL     OW 1840   3.210   6.205   1.608
  314SOL    HW1 1841   3.146   6.165   1.543
  314SOL    HW2 1842   3.162   6.268   1.668
  315SOL     OW 1843   1.149   3.696   2.869
  315SOL    HW1 1844   1.066   3.641   2.881
  315SOL    HW2 1845   1.229   3.637   2.874
  316SOL     OW 1846   2.178   3.238   4.750
  316SOL    HW1 1847   2.128   3.153   4.732
  316SOL    HW2 1848   2.255   3.219   4.811
  317SOL     OW 1849   6.531   1.143   0.034
  317SOL    HW1 1850   6.621   1.146   0.076
  317SOL    HW2 1851   6.535   1.185   6.958
  318SOL     OW 1852   2.744   4.415   1.151
  318SOL    HW1 1853   2.792   4.469   1.220
  318SOL    HW2 1854   2.734   4.321   1.184
  319SOL     OW 1855   1.576   0.124   6.660
  319SOL    HW1 1856   1.631   0.208   6.668
  319SOL    HW2 1857   1.634   0.050   6.625
  320SOL     OW 1858   5.817   3.142   0.696
  320SOL    HW1 1859   5.833   3.241   0.701
  320SOL    HW2 1860   5.775   3.111   0.781
  321SOL     OW 1861   2.067   1.316   2.414
  321SOL    HW1 1862   2.096   1.397   2.363
  321SOL    HW2 1863   2.112   1.235   2.377
  322SOL     OW 1864   3.409   2.437   5.643
  322SOL    HW1 1865   3.424   2.364   5.709
  322SOL    HW2 1866   3.340   2.409   5.577
  323SOL     OW 1867   0.384   4.468   1.888
  323SOL    HW1 1868   0.409   4.563   1.908
  323SOL    HW2 1869   0.388   4.414   1.972
  324SOL     OW 1870   0.487   2.856   4.491
  324SOL    HW1 1871   0.471   2.888   4.397
  324SOL    HW2 1872   0.572   2.804   4.495
  325SOL     OW 1873   2.365   1.954   2.949
  325SOL    HW1 1874   2.276   1.930   2.912
  325SOL    HW2 1875   2.381   2.052   2.937
  326SOL     OW 1876   1.755   4.072   5.173
  326SOL    HW1 1877   1.763   4.171   5.184
  326SOL    HW2 1878   1.662   4.049   5.142
  327SOL     OW 1879   5.941   4.699   6.325
  327SOL    HW1 1880   6.021   4.735   6.372
  327SOL    HW2 1881   5.931   4.601   6.345
  328SOL     OW 1882   3.821   5.810   2.270
  328SOL    HW1 1883   3.861   5.728   2.311
  328SOL    HW2 1884   3.738   5.835   2.318
  329SOL     OW 1885   3.713   4.071   2.866
  329SOL    HW1 1886   3.770   4.053   2.947
  329SOL    HW2 1887   3.763   4.046   2.784
  330SOL     OW 1888   2.593   2.034   2.080
  330SOL    HW1 1889   2.634   2.093   2.011
  330SOL    HW2 1890   2.545   1.959   2.036
  331SOL     OW 1891   5.920   4.427   5.362
  331SOL    HW1 1892   5.885   4.479   5.283
  331SOL    HW2 1893   5.916   4.329   5.342
  332SOL     OW 1894   4.352   1.894   3.251
  332SOL    HW1 1895   4.267   1.916   3.203
  332SOL    HW2 1896   4.419   1.967   3.234
  333SOL     OW 1897   4.641   6.129   0.280
  333SOL    HW1 1898   4.722   6.184   0.299
  333SOL    HW2 1899   4.652   6.080   0.194
  334SOL     OW 1900   4.832   6.509   2.621
  334SOL    HW1 1901   4.922   6.552   2.610
  334SOL    HW2 1902   4.807   6.462   2.537
  335SOL     OW 1903   3.542   6.850   2.887
  335SOL    HW1 1904   3.621   6.886   2.936
  335SOL    HW2 1905   3.512   6.916   2.818
  336SOL     OW 1906   3.359   0.322   4.696
  336SOL    HW1 1907   3.439   0.350   4.644
  336SOL    HW2 1908   3.281   0.378   4.669
  337SOL     OW 1909   0.040   4.475   2.177
  337SOL    HW1 1910   0.010   4.431   2.261
  337SOL    HW2 1911   0.062   4.405   2.109
  338SOL     OW 1912   2.281   1.912   1.585
  338SOL    HW1 1913   2.221   1.963   1.646
  338SOL    HW2 1914   2.296   1.820   1.621
  339SOL     OW 1915   4.397   1.455   3.109
  339SOL    HW1 1916   4.423   1.361   3.084
  339SOL    HW2 1917   4.310   1.454   3.157
  340SOL     OW 1918   4.788   4.158   4.553
  340SOL    HW1 1919   4.729   4.104   4.492
  340SOL    HW2 1920   4.840   4.097   4.612
  341SOL     OW 1921   4.478   4.760   5.466
  341SOL    HW1 1922   4.546   4.833   5.476
  341SOL    HW2 1923   4.493   4.690   5.535
  342SOL     OW 1924   5.721   4.057   0.318
  342SOL    HW1 1925   5.774   3.981   0.281
  342SOL    HW2 1926   5.627   4.027   0.335
  343SOL     OW 1927   2.418   0.785   2.263
  343SOL    HW1 1928   2.345   0.720   2.283
  343SOL    HW2 1929   2.500   0.761   2.316
  344SOL     OW 1930   4.244   6.423   0.452
  344SOL    HW1 1931   4.311   6.371   0.399
  344SOL    HW2 1932   4.233   6.381   0.542
  345SOL     OW 1933   1.682   1.115   5.604
  345SOL    HW1 1934   1.685   1.067   5.692
  345SOL    HW2 1935   1.775   1.142   5.577
  346SOL     OW 1936   3.470   1.125   4.662
  346SOL    HW1 1937   3.457   1.224   4.667
  346SOL    HW2 1938   3.544   1.098   4.724
  347SOL     OW 1939   4.578   6.434   5.809
  347SOL    HW1 1940   4.546   6.389   5.893
  347SOL    HW2 1941   4.530   6.394   5.731
  348SOL     OW 1942   2.499   6.206   2.812
  348SOL    HW1 1943   2.427   6.271   2.790
  348SOL    HW2 1944   2.583   6.256   2.836
  349SOL     OW 1945   2.833   4.933   2.261
  349SOL    HW1 1946   2.927   4.944   2.231
  349SOL    HW2 1947   2.781   5.017   2.245
  350SOL     OW 1948   4.566   3.375   0.682
  350SOL    HW1 1949   4.623   3.293   0.691
  350SOL    HW2 1950   4.624   3.456   0.686
  351SOL     OW 1951   3.289   1.670   0.656
  351SOL    HW1 1952   3.250   1.653   0.565
  351SOL    HW2 1953   3.217   1.702   0.717
  352SOL     OW 1954   3.132   1.998   6.097
  352SOL    HW1 1955   3.188   2.065   6.049
  352SOL    HW2 1956   3.092   1.935   6.031
  353SOL     OW 1957   2.076   0.037   1.366
  353SOL    HW1 1958   2.173   0.059   1.351
  353SOL    HW2 1959   2.058   0.032   1.464
  354SOL     OW 1960   5.041   0.346   2.706
  354SOL    HW1 1961   5.114   0.287   2.672
  354SOL    HW2 1962   5.038   0.430   2.652
  355SOL     OW 1963   1.164   1.170   2.101
  355SOL    HW1 1964   1.084   1.211   2.144
  355SOL    HW2 1965   1.247   1.213   2.138
  356SOL     OW 1966   3.685   0.173   2.959
  356SOL    HW1 1967   3.606   0.225   2.928
  356SOL    HW2 1968   3.722   0.120   2.883
  357SOL     OW 1969   1.364   4.860   5.403
  357SOL    HW1 1970   1.342   4.808   5.486
  357SOL    HW2 1971   1.294   4.844   5.334
  358SOL     OW 1972   5.182   1.149   3.093
  358SOL    HW1 1973   5.195   1.208   3.013
  358SOL    HW2 1974   5.101   1.180   3.144
  359SOL     OW 1975   0.386   1.620   0.535
  359SOL    HW1 1976   0.381   1.622   0.635
  359SOL    HW2 1977   0.300   1.655   0.496
  360SOL     OW 1978   4.967   0.413   0.378
  360SOL    HW1 1979   5.038   0.376   0.317
  360SOL    HW2 1980   4.980   0.376   0.469
  361SOL     OW 1981   3.274   0.805   2.832
  361SOL    HW1 1982   3.177   0.824   2.843
  361SOL    HW2 1983   3.299   0.816   2.735
  362SOL     OW 1984   3.004   4.061   1.202
  362SOL    HW1 1985   2.906   4.073   1.189
  362SOL    HW2 1986   3.022   3.970   1.239
  363SOL     OW 1987   4.345   4.617   3.636
  363SOL    HW1 1988   4.416   4.678   3.672
  363SOL    HW2 1989   4.255   4.655   3.658
  364SOL     OW 1990   2.366   5.710   6.280
  364SOL    HW1 1991   2.395   5.623   6.321
  364SOL    HW2 1992   2.311   5.691   6.198
  365SOL     OW 1993   4.655   0.265   3.195
  365SOL    HW1 1994   4.699   0.208   3.126
  365SOL    HW2 1995   4.566   0.225   3.220
  366SOL     OW 1996   5.091   1.429   0.394
  366SOL    HW1 1997   5.146   1.378   0.459
  366SOL    HW2 1998   5.105   1.527   0.409
  367SOL     OW 1999   4.460   2.084   2.605
  367SOL    HW1 2000   4.440   2.056   2.511
  367SOL    HW2 2001   4.472   2.184   2.608
  368SOL     OW 2002   0.834   5.049   5.221
  368SOL    HW1 2003   0.864   4.971   5.165
  368SOL    HW2 2004   0.910   5.113   5.232
  369SOL     OW 2005   0.728   3.732   1.645
  369SOL    HW1 2006   0.730   3.686   1.734
  369SOL    HW2 2007   0.821   3.744   1.611
  370SOL     OW 2008   3.668   1.717   6.695
  370SOL    HW1 2009   3.743   1.758   6.746
  370SOL    HW2 2010   3.655   1.764   6.608
  371SOL     OW 2011   3.439   3.079   6.407
  371SOL    HW1 2012   3.378   3.030   6.470
  371SOL    HW2 2013   3.427   3.043   6.315
  372SOL     OW 2014   1.993   5.450   0.375
  372SOL    HW1 2015   2.075   5.470   0.428
  372SOL    HW2 2016   2.014   5.381   0.305
  373SOL     OW 2017   6.332   7.002   6.440
  373SOL    HW1 2018   6.423   0.015   6.473
  373SOL    HW2 2019   6.339   6.914   6.393
  374SOL     OW 2020   4.689   0.764   1.301
  374SOL    HW1 2021   4.622   0.746   1.229
  374SOL    HW2 2022   4.649   0.825   1.370
  375SOL     OW 2023   6.894   4.115   0.726
  375SOL    HW1 2024   6.906   4.203   0.680
  375SOL    HW2 2025   6.980   4.088   0.770
  376SOL     OW 2026   2.168   3.841   4.843
  376SOL    HW1 2027   2.083   3.874   4.884
  376SOL    HW2 2028   2.246   3.889   4.883
  377SOL     OW 2029   4.998   1.243   4.652
  377SOL    HW1 2030   4.937   1.202   4.720
  377SOL    HW2 2031   5.086   1.263   4.694
  378SOL     OW 2032   5.701   2.030   4.833
  378SOL    HW1 2033   5.672   2.112   4.882
  378SOL    HW2 2034   5.701   2.047   4.735
  379SOL     OW 2035   6.411   2.599   1.466
  379SOL    HW1 2036   6.502   2.558   1.463
  379SOL    HW2 2037   6.388   2.622   1.561
  380SOL     OW 2038   1.347   2.100   0.248
  380SOL    HW1 2039   1.291   2.176   0.216
  380SOL    HW2 2040   1.363   2.035   0.173
  381SOL     OW 2041   4.735   5.425   0.186
  381SOL    HW1 2042   4.784   5.367   0.121
  381SOL    HW2 2043   4.650   5.380   0.214
  382SOL     OW 2044   2.758   5.159   0.089
  382SOL    HW1 2045   2.707   5.074   0.100
  382SOL    HW2 2046   2.699   5.228   0.048
  383SOL     OW 2047   6.456   1.753   0.501
  383SOL    HW1 2048   6.364   1.751   0.462
  383SOL    HW2 2049   6.450   1.762   0.601
  384SOL     OW 2050   0.986   5.535   5.405
  384SOL    HW1 2051   1.065   5.580   5.365
  384SOL    HW2 2052   0.928   5.499   5.332
  385SOL     OW 2053   4.335   5.370   1.711
  385SOL    HW1 2054   4.383   5.437   1.654
  385SOL    HW2 2055   4.258   5.332   1.660
  386SOL     OW 2056   2.715   6.094   4.174
  386SOL    HW1 2057   2.650   6.021   4.195
  386SOL    HW2 2058   2.677   6.153   4.103
  387SOL     OW 2059   6.910   0.303   5.755
  387SOL    HW1 2060   6.982   0.265   5.697
  387SOL    HW2 2061   6.910   0.256   5.843
  388SOL     OW 2062   0.190   1.673   4.390
  388SOL    HW1 2063   0.175   1.639   4.482
  388SOL    HW2 2064   0.183   1.773   4.389
  389SOL     OW 2065   5.015   3.729   2.041
  389SOL    HW1 2066   4.950   3.698   2.110
  389SOL    HW2 2067   4.969   3.733   1.952
  390SOL     OW 2068   3.842   2.812   6.962
  390SOL    HW1 2069   3.802   2.880   6.900
  390SOL    HW2 2070   3.775   2.784   0.015
  391SOL     OW 2071   4.013   3.798   3.850
  391SOL    HW1 2072   4.052   3.719   3.898
  391SOL    HW2 2073   3.987   3.868   3.916
  392SOL     OW 2074   1.989   3.847   1.508
  392SOL    HW1 2075   1.993   3.934   1.457
  392SOL    HW2 2076   2.064   3.844   1.574
  393SOL     OW 2077   1.094   5.699   1.536
  393SOL    HW1 2078   1.115   5.727   1.630
  393SOL    HW2 2079   1.180   5.679   1.488
  394SOL     OW 2080   6.208   1.135   5.984
  394SOL    HW1 2081   6.170   1.225   6.003
  394SOL    HW2 2082   6.141   1.081   5.933
  395SOL     OW 2083   6.039   4.642   6.654
  395SOL    HW1 2084   6.119   4.701   6.650
  395SOL    HW2 2085   6.054   4.561   6.598
  396SOL     OW 2086   0.559   0.913   1.319
  396SOL    HW1 2087   0.626   0.852   1.361
  396SOL    HW2 2088   0.599   1.003   1.307
  397SOL     OW 2089   4.615   2.161   4.767
  397SOL    HW1 2090   4.647   2.072   4.801
  397SOL    HW2 2091   4.642   2.232   4.832
  398SOL     OW 2092   0.141   1.337   2.929
  398SOL    HW1 2093   0.072   1.266   2.918
  398SOL    HW2 2094   0.136   1.375   3.021
  399SOL     OW 2095   5.657   6.094   3.210
  399SOL    HW1 2096   5.681   6.177   3.161
  399SOL    HW2 2097   5.712   6.087   3.293
  400SOL     OW 2098   6.896   6.273   2.967
  400SOL    HW1 2099   6.879   6.178   2.994
  400SOL    HW2 2100   6.884   6.333   3.047
  401SOL     OW 2101   0.950   5.977   4.967
  401SOL    HW1 2102   0.987   6.027   5.044
  401SOL    HW2 2103   0.995   5.888   4.959
  402SOL     OW 2104   5.673   1.224   3.782
  402SOL    HW1 2105   5.621   1.168   3.847
  402SOL    HW2 2106   5.722   1.296   3.831
  403SOL     OW 2107   2.718   1.847   5.030
  403SOL    HW1 2108   2.792   1.866   5.094
  403SOL    HW2 2109   2.732   1.899   4.945
  404SOL     OW 2110   3.057   5.147   3.694
  404SOL    HW1 2111   3.049   5.233   3.645
  404SOL    HW2 2112   2.966   5.109   3.712
  405SOL     OW 2113   2.905   4.884   3.832
  405SOL    HW1 2114   2.902   4.905   3.930
  405SOL    HW2 2115   2.930   4.788   3.820
  406SOL     OW 2116   0.446   6.867   6.271
  406SOL    HW1 2117   0.505   6.877   6.191
  406SOL    HW2 2118   0.502   6.848   6.352
  407SOL     OW 2119   2.126   3.803   4.285
  407SOL    HW1 2120   2.125   3.902   4.274
  407SOL    HW2 2121   2.205   3.777   4.340
  408SOL     OW 2122   2.696   2.383   2.221
  408SOL    HW1 2123   2.760   2.390   2.144
  408SOL    HW2 2124   2.746   2.359   2.304
  409SOL     OW 2125   0.360   2.927   2.392
  409SOL    HW1 2126   0.450   2.894   2.363
  409SOL    HW2 2127   0.305   2.849   2.424
  410SOL     OW 2128   1.872   3.096   1.955
  410SOL    HW1 2129   1.951   3.157   1.947
  410SOL    HW2 2130   1.902   3.001   1.945
  411SOL     OW 2131   0.093   1.538   1.037
  411SOL    HW1 2132   0.070   1.585   0.952
  411SOL    HW2 2133   0.009   1.502   1.078
  412SOL     OW 2134   1.615   4.674   2.941
  412SOL    HW1 2135   1.557   4.703   3.017
  412SOL    HW2 2136   1.563   4.680   2.855
  413SOL     OW 2137   6.161   5.009   2.162
  413SOL    HW1 2138   6.130   5.025   2.069
  413SOL    HW2 2139   6.082   4.999   2.222
  414SOL     OW 2140   2.514   6.833   3.164
  414SOL    HW1 2141   2.422   6.795   3.173
  414SOL    HW2 2142   2.525   6.907   3.230
  415SOL     OW 2143   5.552   2.810   0.241
  415SOL    HW1 2144   5.473   2.778   0.293
  415SOL    HW2 2145   5.565   2.908   0.255
  416SOL     OW 2146   5.916   3.255   6.690
  416SOL    HW1 2147   5.951   3.162   6.678
  416SOL    HW2 2148   5.861   3.281   6.610
  417SOL     OW 2149   2.280   2.665   5.494
  417SOL    HW1 2150   2.378   2.669   5.473
  417SOL    HW2 2151   2.239   2.586   5.449
  418SOL     OW 2152   3.823   6.102   6.335
  418SOL    HW1 2153   3.750   6.065   6.278
  418SOL    HW2 2154   3.912   6.084   6.292
  419SOL     OW 2155   5.630   0.732   0.124
  419SOL    HW1 2156   5.541   0.691   0.145
  419SOL    HW2 2157   5.699   0.660   0.118
  420SOL     OW 2158   3.513   6.779   1.054
  420SOL    HW1 2159   3.519   6.687   1.092
  420SOL    HW2 2160   3.564   6.783   0.968
  421SOL     OW 2161   4.787   3.986   3.111
  421SOL    HW1 2162   4.695   3.952   3.090
  421SOL    HW2 2163   4.782   4.084   3.129
  422SOL     OW 2164   3.979   2.055   1.833
  422SOL    HW1 2165   4.072   2.031   1.809
  422SOL    HW2 2166   3.975   2.078   1.931
  423SOL     OW 2167   3.244   1.316   6.444
  423SOL    HW1 2168   3.173   1.284   6.381
  423SOL    HW2 2169   3.202   1.370   6.516
  424SOL     OW 2170   1.623   3.799   4.894
  424SOL    HW1 2171   1.711   3.763   4.925
  424SOL    HW2 2172   1.565   3.724   4.862
  425SOL     OW 2173   3.573   1.702   0.455
  425SOL    HW1 2174   3.524   1.634   0.400
  425SOL    HW2 2175   3.570   1.675   0.551
  426SOL     OW 2176   2.139   2.361   3.771
  426SOL    HW1 2177   2.040   2.366   3.781
  426SOL    HW2 2178   2.164   2.382   3.676
  427SOL     OW 2179   4.277   1.601   4.141
  427SOL    HW1 2180   4.236   1.550   4.065
  427SOL    HW2 2181   4.371   1.626   4.117
  428SOL     OW 2182   2.171   1.934   6.372
  428SOL    HW1 2183   2.108   2.008   6.348
  428SOL    HW2 2184   2.170   1.864   6.301
  429SOL     OW 2185   6.849   6.504   3.120
  429SOL    HW1 2186   6.776   6.521   3.053
  429SOL    HW2 2187   6.874   6.591   3.164
  430SOL     OW 2188   2.382   1.437   3.569
  430SOL    HW1 2189   2.327   1.374   3.515
  430SOL    HW2 2190   2.371   1.416   3.666
  431SOL     OW 2191   2.652   1.072   1.701
  431SOL    HW1 2192   2.586   1.130   1.749
  431SOL    HW2 2193   2.670   1.110   1.610
  432SOL     OW 2194   5.000   1.808   1.294
  432SOL    HW1 2195   4.966   1.754   1.217
  432SOL    HW2 2196   5.061   1.880   1.261
  433SOL     OW 2197   2.463   4.734   0.202
  433SOL    HW1 2198   2.434   4.645   0.166
  433SOL    HW2 2199   2.414   4.753   0.287
  434SOL     OW 2200   3.828   5.587   2.463
  434SOL    HW1 2201   3.906   5.564   2.520
  434SOL    HW2 2202   3.763   5.642   2.516
  435SOL     OW 2203   2.944   2.551   6.442
  435SOL    HW1 2204   2.934   2.480   6.371
  435SOL    HW2 2205   2.939   2.509   6.532
  436SOL     OW 2206   5.073   6.632   2.539
  436SOL    HW1 2207   5.121   6.544   2.531
  436SOL    HW2 2208   5.032   6.655   2.451
  437SOL     OW 2209   6.831   0.891   5.616
  437SOL    HW1 2210   6.865   0.819   5.676
  437SOL    HW2 2211   6.787   0.962   5.671
  438SOL     OW 2212   0.744   3.989   2.168
  438SOL    HW1 2213   0.812   3.964   2.099
  438SOL    HW2 2214   0.671   4.042   2.125
  439SOL     OW 2215   0.397   0.687   6.082
  439SOL    HW1 2216   0.472   0.749   6.107
  439SOL    HW2 2217   0.406   0.602   6.133
  440SOL     OW 2218   3.446   1.878   1.087
  440SOL    HW1 2219   3.471   1.784   1.064
  440SOL    HW2 2220   3.485   1.941   1.020
  441SOL     OW 2221   0.706   4.321   2.275
  441SOL    HW1 2222   0.679   4.417   2.266
  441SOL    HW2 2223   0.628   4.267   2.308
  442SOL     OW 2224   3.629   2.917   4.632
  442SOL    HW1 2225   3.589   2.955   4.715
  442SOL    HW2 2226   3.557   2.896   4.566
  443SOL     OW 2227   4.780   2.453   2.984
  443SOL    HW1 2228   4.852   2.523   2.990
  443SOL    HW2 2229   4.816   2.372   2.938
  444SOL     OW 2230   3.751   2.343   1.203
  444SOL    HW1 2231   3.724   2.439   1.214
  444SOL    HW2 2232   3.727   2.293   1.286
  445SOL     OW 2233   2.441   5.452   3.516
  445SOL    HW1 2234   2.523   5.492   3.475
  445SOL    HW2 2235   2.373   5.524   3.534
  446SOL     OW 2236   6.669   6.858   0.655
  446SOL    HW1 2237   6.682   6.835   0.751
  446SOL    HW2 2238   6.735   6.928   0.628
  447SOL     OW 2239   5.896   3.595   6.996
  447SOL    HW1 2240   5.884   3.662   6.923
  447SOL    HW2 2241   5.930   3.509   6.957
  448SOL     OW 2242   3.427   6.436   3.904
  448SOL    HW1 2243   3.513   6.470   3.866
  448SOL    HW2 2244   3.445   6.357   3.962
  449SOL     OW 2245   0.627   4.156   4.730
  449SOL    HW1 2246   0.698   4.214   4.770
  449SOL    HW2 2247   0.583   4.101   4.802
  450SOL     OW 2248   6.674   3.710   3.040
  450SOL    HW1 2249   6.580   3.725   3.011
  450SOL    HW2 2250   6.676   3.692   3.139
  451SOL     OW 2251   2.200   2.099   0.078
  451SOL    HW1 2252   2.138   2.171   0.107
  451SOL    HW2 2253   2.212   2.103   6.994
  452SOL     OW 2254   3.856   5.342   1.555
  452SOL    HW1 2255   3.788   5.386   1.496
  452SOL    HW2 2256   3.842   5.371   1.649
  453SOL     OW 2257   4.579   0.566   0.135
  453SOL    HW1 2258   4.598   0.541   0.040
  453SOL    HW2 2259   4.486   0.601   0.142
  454SOL     OW 2260   6.804   3.010   3.853
  454SOL    HW1 2261   6.769   3.093   3.898
  454SOL    HW2 2262   6.864   3.036   3.778
  455SOL     OW 2263   5.496   5.205   0.232
  455SOL    HW1 2264   5.438   5.283   0.212
  455SOL    HW2 2265   5.551   5.223   0.313
  456SOL     OW 2266   1.978   0.560   3.000
  456SOL    HW1 2267   1.916   0.486   3.028
  456SOL    HW2 2268   2.022   0.598   3.081
  457SOL     OW 2269   3.072   5.751   0.289
  457SOL    HW1 2270   3.154   5.712   0.331
  457SOL    HW2 2271   3.059   5.713   0.198
  458SOL     OW 2272   3.074   1.291   3.743
  458SOL    HW1 2273   3.028   1.319   3.827
  458SOL    HW2 2274   3.070   1.366   3.676
  459SOL     OW 2275   2.741   0.954   3.384
  459SOL    HW1 2276   2.785   0.872   3.423
  459SOL    HW2 2277   2.789   0.981   3.301
  460SOL     OW 2278   0.930   1.713   6.798
  460SOL    HW1 2279   0.945   1.790   6.859
  460SOL    HW2 2280   0.903   1.746   6.708
  461SOL     OW 2281   1.421   6.845   5.412
  461SOL    HW1 2282   1.518   6.853   5.390
  461SOL    HW2 2283   1.410   6.825   5.510
  462SOL     OW 2284   3.631   4.019   5.110
  462SOL    HW1 2285   3.618   4.031   5.012
  462SOL    HW2 2286   3.545   3.991   5.153
  463SOL     OW 2287   5.192   6.439   2.854
  463SOL    HW1 2288   5.192   6.476   2.947
  463SOL    HW2 2289   5.251   6.359   2.851
  464SOL     OW 2290   4.446   6.187   4.817
  464SOL    HW1 2291   4.423   6.277   4.780
  464SOL    HW2 2292   4.500   6.197   4.900
  465SOL     OW 2293   0.328   5.012   0.467
  465SOL    HW1 2294   0.293   5.096   0.507
  465SOL    HW2 2295   0.285   4.933   0.512
  466SOL     OW 2296   3.653   4.937   4.304
  466SOL    HW1 2297   3.735   4.944   4.246
  466SOL    HW2 2298   3.631   4.840   4.318
  467SOL     OW 2299   6.565   6.724   1.898
  467SOL    HW1 2300   6.469   6.698   1.913
  467SOL    HW2 2301   6.568   6.804   1.838
  468SOL     OW 2302   2.646   6.139   6.447
  468SOL    HW1 2303   2.713   6.149   6.374
  468SOL    HW2 2304   2.584   6.218   6.446
  469SOL     OW 2305   3.431   4.650   5.325
  469SOL    HW1 2306   3.433   4.750   5.319
  469SOL    HW2 2307   3.348   4.616   5.280
  470SOL     OW 2308   2.010   5.104   2.064
  470SOL    HW1 2309   1.988   5.060   1.977
  470SOL    HW2 2310   1.973   5.050   2.139
  471SOL     OW 2311   1.464   1.788   4.315
  471SOL    HW1 2312   1.415   1.866   4.353
  471SOL    HW2 2313   1.411   1.750   4.239
  472SOL     OW 2314   5.453   4.233   5.931
  472SOL    HW1 2315   5.358   4.239   5.900
  472SOL    HW2 2316   5.461   4.163   6.001
  473SOL     OW 2317   5.387   3.072   1.829
  473SOL    HW1 2318   5.352   3.164   1.810
  473SOL    HW2 2319   5.319   3.004   1.800
  474SOL     OW 2320   5.025   5.536   3.206
  474SOL    HW1 2321   5.021   5.588   3.291
  474SOL    HW2 2322   4.963   5.576   3.139
  475SOL     OW 2323   4.490   1.294   0.400
  475SOL    HW1 2324   4.569   1.232   0.393
  475SOL    HW2 2325   4.509   1.377   0.348
  476SOL     OW 2326   1.210   2.870   0.374
  476SOL    HW1 2327   1.115   2.874   0.344
  476SOL    HW2 2328   1.270   2.871   0.293
  477SOL     OW 2329   6.516   5.516   3.146
  477SOL    HW1 2330   6.440   5.567   3.185
  477SOL    HW2 2331   6.537   5.437   3.205
  478SOL     OW 2332   6.223   5.188   2.609
  478SOL    HW1 2333   6.270   5.239   2.537
  478SOL    HW2 2334   6.246   5.091   2.603
  479SOL     OW 2335   3.344   3.786   2.766
  479SOL    HW1 2336   3.412   3.740   2.709
  479SOL    HW2 2337   3.382   3.799   2.858
  480SOL     OW 2338   0.530   0.958   1.683
  480SOL    HW1 2339   0.582   0.897   1.744
  480SOL    HW2 2340   0.460   0.905   1.636
  481SOL     OW 2341   6.149   6.013   0.734
  481SOL    HW1 2342   6.082   5.980   0.801
  481SOL    HW2 2343   6.238   6.021   0.778
  482SOL     OW 2344   3.827   4.867   2.485
  482SOL    HW1 2345   3.730   4.866   2.462
  482SOL    HW2 2346   3.854   4.960   2.511
  483SOL     OW 2347   6.312   0.692   4.462
  483SOL    HW1 2348   6.353   0.784   4.468
  483SOL    HW2 2349   6.274   0.678   4.371
  484SOL     OW 2350   2.326   4.624   3.311
  484SOL    HW1 2351   2.292   4.714   3.340
  484SOL    HW2 2352   2.426   4.626   3.310
  485SOL     OW 2353   4.740   2.719   0.929
  485SOL    HW1 2354   4.698   2.802   0.892
  485SOL    HW2 2355   4.803   2.680   0.862
  486SOL     OW 2356   6.147   6.048   5.225
  486SOL    HW1 2357   6.106   6.040   5.316
  486SOL    HW2 2358   6.082   6.094   5.164
  487SOL     OW 2359   0.050   0.502   6.679
  487SOL    HW1 2360   6.989   0.497   6.615
  487SOL    HW2 2361   0.046   0.424   6.742
  488SOL     OW 2362   1.846   5.818   3.324
  488SOL    HW1 2363   1.819   5.910   3.354
  488SOL    HW2 2364   1.862   5.761   3.404
  489SOL     OW 2365   2.682   4.597   5.368
  489SOL    HW1 2366   2.704   4.682   5.415
  489SOL    HW2 2367   2.758   4.571   5.309
  490SOL     OW 2368   1.350   3.206   5.382
  490SOL    HW1 2369   1.305   3.295   5.373
  490SOL    HW2 2370   1.307   3.141   5.319
  491SOL     OW 2371   5.905   3.601   0.959
  491SOL    HW1 2372   5.889   3.517   1.010
  491SOL    HW2 2373   5.967   3.660   1.010
  492SOL     OW 2374   1.593   2.408   5.645
  492SOL    HW1 2375   1.598   2.352   5.562
  492SOL    HW2 2376   1.593   2.505   5.619
  493SOL     OW 2377   1.448   5.760   3.851
  493SOL    HW1 2378   1.485   5.711   3.930
  493SOL    HW2 2379   1.495   5.848   3.841
  494SOL     OW 2380   2.927   0.749   3.474
  494SOL    HW1 2381   2.866   0.746   3.553
  494SOL    HW2 2382   2.989   0.671   3.477
  495SOL     OW 2383   3.951   4.794   0.093
  495SOL    HW1 2384   3.894   4.876   0.103
  495SOL    HW2 2385   3.983   4.764   0.182
  496SOL     OW 2386   4.914   1.180   3.187
  496SOL    HW1 2387   4.819   1.179   3.155
  496SOL    HW2 2388   4.925   1.112   3.260
  497SOL     OW 2389   4.874   2.946   1.168
  497SOL    HW1 2390   4.904   2.858   1.131
  497SOL    HW2 2391   4.774   2.953   1.161
  498SOL     OW 2392   0.699   0.224   1.327
  498SOL    HW1 2393   0.618   0.165   1.318
  498SOL    HW2 2394   0.756   0.215   1.245
  499SOL     OW 2395   2.888   6.809   6.793
  499SOL    HW1 2396   2.944   6.804   6.711
  499SOL    HW2 2397   2.796   6.774   6.772
  500SOL     OW 2398   6.025   1.956   6.641
  500SOL    HW1 2399   6.013   1.909   6.728
  500SOL    HW2 2400   6.116   1.936   6.605
  501SOL     OW 2401   1.552   2.288   4.604
  501SOL    HW1 2402   1.587   2.195   4.608
  501SOL    HW2 2403   1.544   2.326   4.696
  502SOL     OW 2404   2.207   2.899   6.888
  502SOL    HW1 2405   2.142   2.823   6.896
  502SOL    HW2 2406   2.301   2.863   6.896
  503SOL     OW 2407   4.147   4.788   1.378
  503SOL    HW1 2408   4.080   4.732   1.427
  503SOL    HW2 2409   4.152   4.759   1.283
  504SOL     OW 2410   6.500   0.237   0.086
  504SOL    HW1 2411   6.440   0.289   0.147
  504SOL    HW2 2412   6.464   0.145   0.075
  505SOL     OW 2413   6.401   3.655   5.523
  505SOL    HW1 2414   6.490   3.661   5.477
  505SOL    HW2 2415   6.328   3.679   5.459
  506SOL     OW 2416   2.491   5.656   1.934
  506SOL    HW1 2417   2.412   5.601   1.962
  506SOL    HW2 2418   2.574   5.618   1.976
  507SOL     OW 2419   3.037   6.785   3.206
  507SOL    HW1 2420   3.130   6.809   3.234
  507SOL    HW2 2421   2.983   6.869   3.198
  508SOL     OW 2422   0.433   5.128   3.351
  508SOL    HW1 2423   0.358   5.089   3.405
  508SOL    HW2 2424   0.520   5.108   3.396
  509SOL     OW 2425   4.476   0.247   6.132
  509SOL    HW1 2426   4.445   0.196   6.213
  509SOL    HW2 2427   4.399   0.257   6.069
  510SOL     OW 2428   6.629   4.457   0.093
  510SOL    HW1 2429   6.653   4.359   0.091
  510SOL    HW2 2430   6.700   4.507   0.143
  511SOL     OW 2431   0.846   1.649   0.487
  511SOL    HW1 2432   0.812   1.558   0.511
  511SOL    HW2 2433   0.769   1.708   0.465
  512SOL     OW 2434   1.175   1.850   4.296
  512SOL    HW1 2435   1.200   1.939   4.258
  512SOL    HW2 2436   1.083   1.854   4.334
  513SOL     OW 2437   5.622   5.950   2.803
  513SOL    HW1 2438   5.546   5.894   2.835
  513SOL    HW2 2439   5.610   5.968   2.705
  514SOL     OW 2440   4.635   1.623   4.447
  514SOL    HW1 2441   4.678   1.643   4.535
  514SOL    HW2 2442   4.568   1.550   4.459
  515SOL     OW 2443   3.333   1.001   6.903
  515SOL    HW1 2444   3.370   0.998   6.996
  515SOL    HW2 2445   3.353   0.914   6.858
  516SOL     OW 2446   0.520   5.812   2.232
  516SOL    HW1 2447   0.574   5.794   2.314
  516SOL    HW2 2448   0.490   5.907   2.232
  517SOL     OW 2449   3.387   4.874   1.171
  517SOL    HW1 2450   3.375   4.904   1.266
  517SOL    HW2 2451   3.371   4.775   1.166
  518SOL     OW 2452   2.401   6.690   3.674
  518SOL    HW1 2453   2.432   6.668   3.581
  518SOL    HW2 2454   2.341   6.770   3.671
  519SOL     OW 2455   6.582   0.371   2.650
  519SOL    HW1 2456   6.667   0.377   2.597
  519SOL    HW2 2457   6.505   0.356   2.589
  520SOL     OW 2458   2.928   5.563   0.775
  520SOL    HW1 2459   2.952   5.467   0.761
  520SOL    HW2 2460   2.834   5.570   0.809
  521SOL     OW 2461   6.790   6.303   5.198
  521SOL    HW1 2462   6.833   6.278   5.111
  521SOL    HW2 2463   6.853   6.283   5.273
  522SOL     OW 2464   3.931   4.865   6.604
  522SOL    HW1 2465   3.961   4.797   6.671
  522SOL    HW2 2466   3.867   4.928   6.647
  523SOL     OW 2467   2.096   6.710   5.823
  523SOL    HW1 2468   2.003   6.678   5.840
  523SOL    HW2 2469   2.103   6.746   5.731
  524SOL     OW 2470   6.815   0.933   0.769
  524SOL    HW1 2471   6.845   0.979   0.853
  524SOL    HW2 2472   6.895   0.893   0.723
  525SOL     OW 2473   0.978   3.648   3.737
  525SOL    HW1 2474   0.926   3.586   3.795
  525SOL    HW2 2475   1.022   3.596   3.664
  526SOL     OW 2476   3.926   6.577   4.442
  526SOL    HW1 2477   4.017   6.590   4.481
  526SOL    HW2 2478   3.863   6.544   4.513
  527SOL     OW 2479   0.066   0.815   0.728
  527SOL    HW1 2480   0.102   0.812   0.635
  527SOL    HW2 2481   0.137   0.783   0.791
  528SOL     OW 2482   6.730   1.229   4.448
  528SOL    HW1 2483   6.673   1.278   4.514
  528SOL    HW2 2484   6.802   1.180   4.496
  529SOL     OW 2485   1.194   1.324   5.856
  529SOL    HW1 2486   1.143   1.353   5.774
  529SOL    HW2 2487   1.176   1.227   5.874
  530SOL     OW 2488   3.276   4.538   1.630
  530SOL    HW1 2489   3.318   4.466   1.576
  530SOL    HW2 2490   3.333   4.620   1.626
  531SOL     OW 2491   0.406   1.221   6.218
  531SOL    HW1 2492   0.466   1.175   6.283
  531SOL    HW2 2493   0.434   1.198   6.124
  532SOL     OW 2494   3.576   1.113   0.002
  532SOL    HW1 2495   3.561   1.051   6.940
  532SOL    HW2 2496   3.593   1.059   0.085
  533SOL     OW 2497   4.128   6.916   4.863
  533SOL    HW1 2498   4.161   6.838   4.917
  533SOL    HW2 2499   4.206   6.968   4.829
  534SOL     OW 2500   1.937   4.099   1.387
  534SOL    HW1 2501   1.980   4.188   1.404
  534SOL    HW2 2502   1.844   4.101   1.423
  535SOL     OW 2503   4.376   4.638   4.194
  535SOL    HW1 2504   4.424   4.554   4.222
  535SOL    HW2 2505   4.370   4.700   4.272
  536SOL     OW 2506   6.310   6.334   0.945
  536SOL    HW1 2507   6.298   6.370   0.853
  536SOL    HW2 2508   6.221   6.334   0.992
  537SOL     OW 2509   3.414   1.443   2.695
  537SOL    HW1 2510   3.394   1.490   2.782
  537SOL    HW2 2511   3.369   1.491   2.620
  538SOL     OW 2512   3.973   4.916   5.443
  538SOL    HW1 2513   4.072   4.905   5.455
  538SOL    HW2 2514   3.929   4.827   5.454
  539SOL     OW 2515   2.449   0.713   6.820
  539SOL    HW1 2516   2.451   0.614   6.807
  539SOL    HW2 2517   2.355   0.746   6.814
  540SOL     OW 2518   2.362   1.521   5.245
  540SOL    HW1 2519   2.454   1.540   5.209
  540SOL    HW2 2520   2.330   1.434   5.208
  541SOL     OW 2521   4.988   6.229   2.996
  541SOL    HW1 2522   5.033   6.189   3.075
  541SOL    HW2 2523   4.992   6.329   3.002
  542SOL     OW 2524   3.807   6.068   5.931
  542SOL    HW1 2525   3.763   6.157   5.938
  542SOL    HW2 2526   3.842   6.055   5.838
  543SOL     OW 2527   6.574   2.368   4.864
  543SOL    HW1 2528   6.529   2.279   4.856
  543SOL    HW2 2529   6.541   2.415   4.946
  544SOL     OW 2530   0.716   3.029   1.176
  544SOL    HW1 2531   0.778   3.060   1.248
  544SOL    HW2 2532   0.732   3.082   1.093
  545SOL     OW 2533   0.009   5.132   0.387
  545SOL    HW1 2534   0.006   5.068   0.311
  545SOL    HW2 2535   6.979   5.217   0.361
  546SOL     OW 2536   6.919   5.472   2.732
  546SOL    HW1 2537   6.831   5.472   2.779
  546SOL    HW2 2538   6.958   5.380   2.736
  547SOL     OW 2539   4.015   6.587   6.507
  547SOL    HW1 2540   4.081   6.656   6.537
  547SOL    HW2 2541   4.002   6.520   6.580
  548SOL     OW 2542   4.115   2.530   0.220
  548SOL    HW1 2543   4.029   2.488   0.249
  548SOL    HW2 2544   4.099   2.626   0.196
  549SOL     OW 2545   5.562   2.442   3.779
  549SOL    HW1 2546   5.562   2.431   3.878
  549SOL    HW2 2547   5.469   2.463   3.748
  550SOL     OW 2548   0.287   5.618   3.747
  550SOL    HW1 2549   0.231   5.541   3.779
  550SOL    HW2 2550   0.251   5.703   3.784
  551SOL     OW 2551   5.423   0.890   0.396
  551SOL    HW1 2552   5.497   0.831   0.425
  551SOL    HW2 2553   5.401   0.955   0.468
  552SOL     OW 2554   0.378   0.310   4.723
  552SOL    HW1 2555   0.314   0.268   4.658
  552SOL    HW2 2556   0.333   0.386   4.770
  553SOL     OW 2557   3.780   2.522   5.502
  553SOL    HW1 2558   3.840   2.592   5.543
  553SOL    HW2 2559   3.836   2.449   5.464
  554SOL     OW 2560   0.155   5.367   0.224
  554SOL    HW1 2561   0.157   5.441   0.156
  554SOL    HW2 2562   0.109   5.399   0.307
  555SOL     OW 2563   2.888   4.062   5.843
  555SOL    HW1 2564   2.925   4.154   5.855
  555SOL    HW2 2565   2.865   4.023   5.932
  556SOL     OW 2566   5.860   6.287   2.131
  556SOL    HW1 2567   5.814   6.374   2.142
  556SOL    HW2 2568   5.959   6.300   2.137
  557SOL     OW 2569   5.933   3.812   6.844
  557SOL    HW1 2570   5.907   3.892   6.898
  557SOL    HW2 2571   6.013   3.834   6.788
  558SOL     OW 2572   3.534   3.847   2.138
  558SOL    HW1 2573   3.577   3.809   2.221
  558SOL    HW2 2574   3.456   3.903   2.164
  559SOL     OW 2575   6.009   1.118   6.524
  559SOL    HW1 2576   6.024   1.109   6.623
  559SOL    HW2 2577   6.094   1.096   6.476
  560SOL     OW 2578   0.535   2.277   3.679
  560SOL    HW1 2579   0.575   2.302   3.591
  560SOL    HW2 2580   0.445   2.236   3.664
  561SOL     OW 2581   0.346   3.877   6.722
  561SOL    HW1 2582   0.332   3.910   6.816
  561SOL    HW2 2583   0.403   3.943   6.672
  562SOL     OW 2584   4.119   6.356   3.700
  562SOL    HW1 2585   4.178   6.393   3.771
  562SOL    HW2 2586   4.168   6.356   3.613
  563SOL     OW 2587   0.666   0.746   4.412
  563SOL    HW1 2588   0.683   0.834   4.369
  563SOL    HW2 2589   0.576   0.712   4.384
  564SOL     OW 2590   5.665   1.539   5.422
  564SOL    HW1 2591   5.715   1.560   5.338
  564SOL    HW2 2592   5.609   1.458   5.408
  565SOL     OW 2593   2.886   3.541   4.007
  565SOL    HW1 2594   2.903   3.616   4.070
  565SOL    HW2 2595   2.859   3.460   4.058
  566SOL     OW 2596   1.785   2.735   3.778
  566SOL    HW1 2597   1.787   2.807   3.848
  566SOL    HW2 2598   1.878   2.708   3.754
  567SOL     OW 2599   1.508   2.956   5.453
  567SOL    HW1 2600   1.424   2.903   5.445
  567SOL    HW2 2601   1.485   3.051   5.477
  568SOL     OW 2602   1.372   0.217   6.995
  568SOL    HW1 2603   1.469   0.213   0.003
  568SOL    HW2 2604   1.319   0.174   0.053
  569SOL     OW 2605   5.003   3.647   5.327
  569SOL    HW1 2606   4.906   3.672   5.322
  569SOL    HW2 2607   5.024   3.609   5.417
  570SOL     OW 2608   3.404   0.878   6.181
  570SOL    HW1 2609   3.434   0.906   6.272
  570SOL    HW2 2610   3.317   0.923   6.160
  571SOL     OW 2611   2.465   4.362   1.691
  571SOL    HW1 2612   2.555   4.368   1.646
  571SOL    HW2 2613   2.468   4.410   1.778
  572SOL     OW 2614   3.199   1.446   4.444
  572SOL    HW1 2615   3.191   1.473   4.348
  572SOL    HW2 2616   3.143   1.365   4.460
  573SOL     OW 2617   0.448   0.533   5.553
  573SOL    HW1 2618   0.527   0.588   5.524
  573SOL    HW2 2619   0.393   0.586   5.618
  574SOL     OW 2620   2.583   1.222   6.081
  574SOL    HW1 2621   2.587   1.125   6.058
  574SOL    HW2 2622   2.494   1.259   6.056
  575SOL     OW 2623   3.829   3.462   0.301
  575SOL    HW1 2624   3.869   3.395   0.364
  575SOL    HW2 2625   3.836   3.428   0.207
  576SOL     OW 2626   0.443   1.062   2.489
  576SOL    HW1 2627   0.475   0.981   2.538
  576SOL    HW2 2628   0.486   1.144   2.528
  577SOL     OW 2629   0.397   6.944   2.202
  577SOL    HW1 2630   0.441   6.956   2.113
  577SOL    HW2 2631   0.309   6.898   2.190
  578SOL     OW 2632   3.989   0.076   0.382
  578SOL    HW1 2633   3.989   6.992   0.377
  578SOL    HW2 2634   4.074   0.112   0.344
  579SOL     OW 2635   1.010   3.806   1.578
  579SOL    HW1 2636   1.079   3.738   1.606
  579SOL    HW2 2637   1.029   3.893   1.623
  580SOL     OW 2638   4.712   4.958   4.526
  580SOL    HW1 2639   4.752   4.871   4.498
  580SOL    HW2 2640   4.684   5.010   4.445
  581SOL     OW 2641   1.736   2.372   3.955
  581SOL    HW1 2642   1.764   2.340   4.046
  581SOL    HW2 2643   1.641   2.401   3.958
  582SOL     OW 2644   5.657   4.421   4.652
  582SOL    HW1 2645   5.571   4.468   4.671
  582SOL    HW2 2646   5.700   4.459   4.571
  583SOL     OW 2647   2.892   6.358   5.498
  583SOL    HW1 2648   2.910   6.268   5.461
  583SOL    HW2 2649   2.975   6.413   5.496
  584SOL     OW 2650   4.313   1.162   5.072
  584SOL    HW1 2651   4.240   1.230   5.064
  584SOL    HW2 2652   4.355   1.169   5.163
  585SOL     OW 2653   3.639   6.493   1.398
  585SOL    HW1 2654   3.543   6.513   1.414
  585SOL    HW2 2655   3.692   6.578   1.405
  586SOL     OW 2656   3.674   6.745   0.822
  586SOL    HW1 2657   3.755   6.793   0.789
  586SOL    HW2 2658   3.604   6.746   0.751
  587SOL     OW 2659   5.059   1.820   2.320
  587SOL    HW1 2660   5.118   1.766   2.260
  587SOL    HW2 2661   5.116   1.870   2.386
  588SOL     OW 2662   2.154   4.043   2.877
  588SOL    HW1 2663   2.079   3.982   2.851
  588SOL    HW2 2664   2.198   4.079   2.795
  589SOL     OW 2665   3.675   5.296   6.722
  589SOL    HW1 2666   3.646   5.202   6.709
  589SOL    HW2 2667   3.605   5.358   6.688
  590SOL     OW 2668   3.013   1.897   6.359
  590SOL    HW1 2669   2.962   1.974   6.398
  590SOL    HW2 2670   3.035   1.917   6.263
  591SOL     OW 2671   2.683   0.135   3.822
  591SOL    HW1 2672   2.776   0.164   3.802
  591SOL    HW2 2673   2.684   0.064   3.893
  592SOL     OW 2674   4.961   2.563   4.836
  592SOL    HW1 2675   4.974   2.485   4.776
  592SOL    HW2 2676   5.051   2.600   4.862
  593SOL     OW 2677   1.859   0.637   6.808
  593SOL    HW1 2678   1.902   0.634   6.898
  593SOL    HW2 2679   1.929   0.646   6.737
  594SOL     OW 2680   3.775   1.087   4.775
  594SOL    HW1 2681   3.815   1.086   4.866
  594SOL    HW2 2682   3.797   1.174   4.730
  595SOL     OW 2683   6.057   4.103   2.283
  595SOL    HW1 2684   6.131   4.044   2.317
  595SOL    HW2 2685   6.096   4.175   2.225
  596SOL     OW 2686   5.882   5.275   4.341
  596SOL    HW1 2687   5.880   5.270   4.441
  596SOL    HW2 2688   5.831   5.356   4.311
  597SOL     OW 2689   3.349   1.644   6.485
  597SOL    HW1 2690   3.320   1.731   6.447
  597SOL    HW2 2691   3.320   1.637   6.580
  598SOL     OW 2692   3.040   3.917   3.165
  598SOL    HW1 2693   2.978   3.901   3.088
  598SOL    HW2 2694   3.007   3.867   3.245
  599SOL     OW 2695   2.059   4.534   1.248
  599SOL    HW1 2696   2.105   4.459   1.296
  599SOL    HW2 2697   2.109   4.620   1.264
  600SOL     OW 2698   0.118   3.240   5.332
  600SOL    HW1 2699   0.175   3.226   5.412
  600SOL    HW2 2700   0.027   3.270   5.360
  601SOL     OW 2701   6.990   6.877   5.790
  601SOL    HW1 2702   6.958   6.844   5.879
  601SOL    HW2 2703   0.065   6.838   5.771
  602SOL     OW 2704   1.210   0.731   3.589
  602SOL    HW1 2705   1.292   0.780   3.557
  602SOL    HW2 2706   1.183   0.665   3.519
  603SOL     OW 2707   1.603   1.347   3.977
  603SOL    HW1 2708   1.584   1.444   3.963
  603SOL    HW2 2709   1.577   1.321   4.070
  604SOL     OW 2710   5.094   2.701   1.332
  604SOL    HW1 2711   5.053   2.734   1.417
  604SOL    HW2 2712   5.031   2.717   1.257
  605SOL     OW 2713   5.688   6.226   1.336
  605SOL    HW1 2714   5.655   6.289   1.266
  605SOL    HW2 2715   5.672   6.132   1.307
  606SOL     OW 2716   3.098   6.528   5.131
  606SOL    HW1 2717   3.144   6.593   5.191
  606SOL    HW2 2718   3.068   6.448   5.183
  607SOL     OW 2719   1.284   3.287   6.158
  607SOL    HW1 2720   1.262   3.207   6.214
  607SOL    HW2 2721   1.383   3.303   6.160
  608SOL     OW 2722   3.195   1.705   0.120
  608SOL    HW1 2723   3.230   1.745   0.204
  608SOL    HW2 2724   3.179   1.777   0.052
  609SOL     OW 2725   3.599   3.283   2.360
  609SOL    HW1 2726   3.623   3.219   2.287
  609SOL    HW2 2727   3.642   3.254   2.446
  610SOL     OW 2728   4.916   2.976   1.873
  610SOL    HW1 2729   4.837   2.973   1.934
  610SOL    HW2 2730   4.910   2.900   1.808
  611SOL     OW 2731   3.704   1.759   2.115
  611SOL    HW1 2732   3.609   1.730   2.107
  611SOL    HW2 2733   3.717   1.845   2.065
  612SOL     OW 2734   4.349   4.966   4.235
  612SOL    HW1 2735   4.374   5.027   4.159
  612SOL    HW2 2736   4.258   4.928   4.218
  613SOL     OW 2737   4.112   5.162   6.507
  613SOL    HW1 2738   4.148   5.255   6.518
  613SOL    HW2 2739   4.145   5.105   6.582
  614SOL     OW 2740   3.256   6.377   6.315
  614SOL    HW1 2741   3.176   6.324   6.343
  614SOL    HW2 2742   3.298   6.418   6.396
  615SOL     OW 2743   6.603   4.747   3.466
  615SOL    HW1 2744   6.620   4.681   3.393
  615SOL    HW2 2745   6.675   4.742   3.534
  616SOL     OW 2746   6.196   2.489   3.849
  616SOL    HW1 2747   6.108   2.478   3.893
  616SOL    HW2 2748   6.241   2.400   3.839
  617SOL     OW 2749   2.408   0.334   6.301
  617SOL    HW1 2750   2.454   0.327   6.213
  617SOL    HW2 2751   2.381   0.429   6.317
  618SOL     OW 2752   2.562   0.820   3.643
  618SOL    HW1 2753   2.469   0.830   3.609
  618SOL    HW2 2754   2.564   0.842   3.741
  619SOL     OW 2755   0.946   2.529   6.852
  619SOL    HW1 2756   0.996   2.555   6.934
  619SOL    HW2 2757   0.868   2.472   6.877
  620SOL     OW 2758   4.397   3.369   0.448
  620SOL    HW1 2759   4.364   3.463   0.445
  620SOL    HW2 2760   4.447   3.354   0.533
  621SOL     OW 2761   0.232   5.631   1.397
  621SOL    HW1 2762   0.156   5.596   1.452
  621SOL    HW2 2763   0.220   5.728   1.379
  622SOL     OW 2764   0.211   1.179   0.215
  622SOL    HW1 2765   0.124   1.219   0.243
  622SOL    HW2 2766   0.284   1.247   0.226
  623SOL     OW 2767   6.794   5.115   5.298
  623SOL    HW1 2768   6.880   5.145   5.256
  623SOL    HW2 2769   6.769   5.178   5.371
  624SOL     OW 2770   0.633   1.673   1.411
  624SOL    HW1 2771   0.617   1.632   1.321
  624SOL    HW2 2772   0.710   1.737   1.405
  625SOL     OW 2773   1.411   1.160   2.704
  625SOL    HW1 2774   1.449   1.078   2.661
  625SOL    HW2 2775   1.469   1.238   2.683
  626SOL     OW 2776   3.171   5.837   4.701
  626SOL    HW1 2777   3.116   5.753   4.699
  626SOL    HW2 2778   3.111   5.916   4.712
  627SOL     OW 2779   4.674   6.240   6.741
  627SOL    HW1 2780   4.761   6.274   6.777
  627SOL    HW2 2781   4.615   6.212   6.816
  628SOL     OW 2782   5.520   4.168   3.111
  628SOL    HW1 2783   5.424   4.166   3.142
  628SOL    HW2 2784   5.564   4.081   3.134
  629SOL     OW 2785   2.078   0.041   1.096
  629SOL    HW1 2786   2.083   6.968   1.047
  629SOL    HW2 2787   2.066   0.024   1.194
  630SOL     OW 2788   2.436   1.375   2.257
  630SOL    HW1 2789   2.465   1.298   2.200
  630SOL    HW2 2790   2.343   1.403   2.230
  631SOL     OW 2791   2.701   1.213   4.622
  631SOL    HW1 2792   2.734   1.152   4.550
  631SOL    HW2 2793   2.615   1.255   4.593
  632SOL     OW 2794   2.887   0.660   0.982
  632SOL    HW1 2795   2.813   0.632   1.044
  632SOL    HW2 2796   2.962   0.594   0.987
  633SOL     OW 2797   2.105   0.356   4.978
  633SOL    HW1 2798   2.077   0.411   5.057
  633SOL    HW2 2799   2.023   0.327   4.928
  634SOL     OW 2800   2.925   5.847   1.950
  634SOL    HW1 2801   2.910   5.943   1.973
  634SOL    HW2 2802   2.908   5.833   1.853
  635SOL     OW 2803   3.445   0.007   2.713
  635SOL    HW1 2804   3.399   6.975   2.638
  635SOL    HW2 2805   3.408   0.100   2.722
  636SOL     OW 2806   4.627   5.005   6.266
  636SOL    HW1 2807   4.726   5.005   6.254
  636SOL    HW2 2808   4.600   4.925   6.319
  637SOL     OW 2809   5.647   5.324   6.330
  637SOL    HW1 2810   5.711   5.247   6.337
  637SOL    HW2 2811   5.579   5.305   6.260
  638SOL     OW 2812   5.322   1.686   3.263
  638SOL    HW1 2813   5.322   1.775   3.308
  638SOL    HW2 2814   5.244   1.681   3.201
  639SOL     OW 2815   4.233   3.771   1.811
  639SOL    HW1 2816   4.175   3.814   1.880
  639SOL    HW2 2817   4.196   3.682   1.787
  640SOL     OW 2818   2.828   2.871   5.431
  640SOL    HW1 2819   2.903   2.808   5.412
  640SOL    HW2 2820   2.815   2.879   5.530
  641SOL     OW 2821   6.925   6.268   4.533
  641SOL    HW1 2822   6.965   6.292   4.445
  641SOL    HW2 2823   6.844   6.325   4.549
  642SOL     OW 2824   1.069   4.298   5.936
  642SOL    HW1 2825   1.161   4.334   5.953
  642SOL    HW2 2826   1.054   4.217   5.993
  643SOL     OW 2827   5.926   6.218   5.141
  643SOL    HW1 2828   5.835   6.177   5.139
  643SOL    HW2 2829   5.933   6.289   5.072
  644SOL     OW 2830   2.941   6.177   1.447
  644SOL    HW1 2831   2.935   6.113   1.524
  644SOL    HW2 2832   2.967   6.127   1.364
  645SOL     OW 2833   0.512   2.924   3.050
  645SOL    HW1 2834   0.561   3.007   3.079
  645SOL    HW2 2835   0.443   2.949   2.982
  646SOL     OW 2836   1.409   3.010   4.540
  646SOL    HW1 2837   1.441   3.000   4.446
  646SOL    HW2 2838   1.442   2.933   4.594
  647SOL     OW 2839   5.591   3.643   0.146
  647SOL    HW1 2840   5.575   3.741   0.146
  647SOL    HW2 2841   5.575   3.606   0.237
  648SOL     OW 2842   4.269   2.312   4.279
  648SOL    HW1 2843   4.236   2.299   4.372
  648SOL    HW2 2844   4.214   2.257   4.216
  649SOL     OW 2845   4.598   4.535   1.423
  649SOL    HW1 2846   4.663   4.606   1.450
  649SOL    HW2 2847   4.619   4.451   1.473
  650SOL     OW 2848   5.015   5.019   0.644
  650SOL    HW1 2849   4.963   4.992   0.725
  650SOL    HW2 2850   5.094   4.958   0.633
  651SOL     OW 2851   1.806   5.687   6.515
  651SOL    HW1 2852   1.773   5.667   6.607
  651SOL    HW2 2853   1.903   5.666   6.509
  652SOL     OW 2854   4.805   2.273   1.908
  652SOL    HW1 2855   4.842   2.348   1.963
  652SOL    HW2 2856   4.827   2.186   1.953
  653SOL     OW 2857   3.072   4.880   2.473
  653SOL    HW1 2858   2.996   4.817   2.484
  653SOL    HW2 2859   3.109   4.872   2.380
  654SOL     OW 2860   6.760   5.082   6.455
  654SOL    HW1 2861   6.854   5.047   6.459
  654SOL    HW2 2862   6.762   5.182   6.464
  655SOL     OW 2863   1.319   1.849   0.104
  655SOL    HW1 2864   1.400   1.818   0.055
  655SOL    HW2 2865   1.246   1.780   0.094
  656SOL     OW 2866   1.696   6.349   1.402
  656SOL    HW1 2867   1.708   6.434   1.351
  656SOL    HW2 2868   1.728   6.362   1.496
  657SOL     OW 2869   4.237   0.758   6.824
  657SOL    HW1 2870   4.195   0.680   6.871
  657SOL    HW2 2871   4.195   0.770   6.735
  658SOL     OW 2872   3.805   5.598   6.820
  658SOL    HW1 2873   3.747   5.680   6.821
  658SOL    HW2 2874   3.766   5.531   6.757
  659SOL     OW 2875   3.962   0.600   6.010
  659SOL    HW1 2876   4.058   0.604   6.037
  659SOL    HW2 2877   3.915   0.683   6.040
  660SOL     OW 2878   3.517   6.432   3.068
  660SOL    HW1 2879   3.592   6.497   3.061
  660SOL    HW2 2880   3.553   6.339   3.060
  661SOL     OW 2881   5.636   5.024   2.632
  661SOL    HW1 2882   5.597   5.031   2.541
  661SOL    HW2 2883   5.735   5.013   2.625
  662SOL     OW 2884   4.128   1.617   6.848
  662SOL    HW1 2885   4.148   1.707   6.809
  662SOL    HW2 2886   4.074   1.564   6.782
  663SOL     OW 2887   1.214   4.256   4.728
  663SOL    HW1 2888   1.186   4.350   4.709
  663SOL    HW2 2889   1.282   4.228   4.660
  664SOL     OW 2890   5.850   0.224   6.571
  664SOL    HW1 2891   5.942   0.263   6.564
  664SOL    HW2 2892   5.845   0.142   6.514
  665SOL     OW 2893   0.965   4.131   1.415
  665SOL    HW1 2894   0.995   4.114   1.509
  665SOL    HW2 2895   0.884   4.076   1.395
  666SOL     OW 2896   4.249   1.104   1.981
  666SOL    HW1 2897   4.165   1.082   2.030
  666SOL    HW2 2898   4.227   1.162   1.902
  667SOL     OW 2899   0.576   0.621   1.607
  667SOL    HW1 2900   0.582   0.657   1.701
  667SOL    HW2 2901   0.631   0.538   1.600
  668SOL     OW 2902   5.805   2.923   6.993
  668SOL    HW1 2903   5.714   2.889   6.971
  668SOL    HW2 2904   5.798   3.012   0.022
  669SOL     OW 2905   5.143   1.672   3.038
  669SOL    HW1 2906   5.131   1.767   3.008
  669SOL    HW2 2907   5.188   1.620   2.966
  670SOL     OW 2908   3.812   2.047   2.428
  670SOL    HW1 2909   3.722   2.046   2.385
  670SOL    HW2 2910   3.848   1.953   2.433
  671SOL     OW 2911   1.499   5.713   1.674
  671SOL    HW1 2912   1.597   5.702   1.657
  671SOL    HW2 2913   1.464   5.632   1.722
  672SOL     OW 2914   0.636   0.056   1.645
  672SOL    HW1 2915   0.568   0.013   1.704
  672SOL    HW2 2916   0.638   0.010   1.557
  673SOL     OW 2917   6.301   6.716   6.325
  673SOL    HW1 2918   6.264   6.730   6.417
  673SOL    HW2 2919   6.227   6.692   6.262
  674SOL     OW 2920   5.487   0.428   4.368
  674SOL    HW1 2921   5.576   0.453   4.329
  674SOL    HW2 2922   5.444   0.359   4.309
  675SOL     OW 2923   0.387   4.281   2.084
  675SOL    HW1 2924   0.402   4.271   2.182
  675SOL    HW2 2925   0.467   4.246   2.035
  676SOL     OW 2926   2.364   6.133   6.716
  676SOL    HW1 2927   2.417   6.150   6.799
  676SOL    HW2 2928   2.381   6.206   6.650
  677SOL     OW 2929   5.654   1.064   1.348
  677SOL    HW1 2930   5.592   1.106   1.282
  677SOL    HW2 2931   5.697   1.135   1.404
  678SOL     OW 2932   0.782   5.197   4.116
  678SOL    HW1 2933   0.734   5.277   4.152
  678SOL    HW2 2934   0.855   5.170   4.179
  679SOL     OW 2935   4.665   1.715   5.771
  679SOL    HW1 2936   4.659   1.790   5.705
  679SOL    HW2 2937   4.585   1.717   5.831
  680SOL     OW 2938   5.909   6.521   3.880
  680SOL    HW1 2939   5.852   6.575   3.819
  680SOL    HW2 2940   5.932   6.574   3.961
  681SOL     OW 2941   4.225   4.834   2.556
  681SOL    HW1 2942   4.262   4.755   2.606
  681SOL    HW2 2943   4.196   4.904   2.621
  682SOL     OW 2944   6.861   1.487   2.967
  682SOL    HW1 2945   6.797   1.434   3.023
  682SOL    HW2 2946   6.834   1.481   2.871
  683SOL     OW 2947   3.258   4.337   0.786
  683SOL    HW1 2948   3.212   4.404   0.728
  683SOL    HW2 2949   3.237   4.355   0.882
  684SOL     OW 2950   6.423   1.562   6.111
  684SOL    HW1 2951   6.448   1.650   6.069
  684SOL    HW2 2952   6.496   1.496   6.096
  685SOL     OW 2953   3.267   6.609   3.630
  685SOL    HW1 2954   3.366   6.616   3.623
  685SOL    HW2 2955   3.239   6.615   3.725
  686SOL     OW 2956   3.744   0.182   5.580
  686SOL    HW1 2957   3.756   0.142   5.671
  686SOL    HW2 2958   3.660   0.146   5.539
  687SOL     OW 2959   0.287   0.875   4.534
  687SOL    HW1 2960   0.301   0.810   4.460
  687SOL    HW2 2961   0.307   0.968   4.502
  688SOL     OW 2962   5.538   2.862   6.936
  688SOL    HW1 2963   5.565   2.782   6.883
  688SOL    HW2 2964   5.499   2.833   0.008
  689SOL     OW 2965   2.559   5.578   0.213
  689SOL    HW1 2966   2.474   5.630   0.225
  689SOL    HW2 2967   2.636   5.632   0.250
  690SOL     OW 2968   6.006   3.464   3.800
  690SOL    HW1 2969   5.917   3.453   3.844
  690SOL    HW2 2970   6.076   3.481   3.869
  691SOL     OW 2971   5.942   1.327   2.252
  691SOL    HW1 2972   5.922   1.261   2.325
  691SOL    HW2 2973   6.041   1.327   2.234
  692SOL     OW 2974   1.132   0.335   3.484
  692SOL    HW1 2975   1.050   0.301   3.529
  692SOL    HW2 2976   1.131   0.435   3.482
  693SOL     OW 2977   5.559   4.511   2.878
  693SOL    HW1 2978   5.515   4.436   2.828
  693SOL    HW2 2979   5.513   4.597   2.857
  694SOL     OW 2980   4.134   5.253   4.080
  694SOL    HW1 2981   4.100   5.346   4.064
  694SOL    HW2 2982   4.092   5.191   4.013
  695SOL     OW 2983   4.631   6.545   3.545
  695SOL    HW1 2984   4.718   6.591   3.564
  695SOL    HW2 2985   4.561   6.613   3.523
  696SOL     OW 2986   5.920   4.049   1.984
  696SOL    HW1 2987   5.890   4.028   2.077
  696SOL    HW2 2988   5.995   4.115   1.987
  697SOL     OW 2989   0.342   6.392   2.553
  697SOL    HW1 2990   0.402   6.468   2.577
  697SOL    HW2 2991   0.398   6.314   2.522
  698SOL     OW 2992   5.571   6.434   6.116
  698SOL    HW1 2993   5.662   6.394   6.104
  698SOL    HW2 2994   5.502   6.363   6.101
  699SOL     OW 2995   3.838   3.610   0.928
  699SOL    HW1 2996   3.908   3.631   0.996
  699SOL    HW2 2997   3.874   3.544   0.862
  700SOL     OW 2998   3.484   0.087   5.529
  700SOL    HW1 2999   3.476   0.007   5.589
  700SOL    HW2 3000   3.392   0.121   5.507
  701SOL     OW 3001   4.663   4.746   2.142
  701SOL    HW1 3002   4.759   4.726   2.160
  701SOL    HW2 3003   4.605   4.680   2.191
  702SOL     OW 3004   4.266   0.201   4.630
  702SOL    HW1 3005   4.238   0.259   4.553
  702SOL    HW2 3006   4.332   0.250   4.687
  703SOL     OW 3007   3.551   3.117   0.388
  703SOL    HW1 3008   3.482   3.070   0.444
  703SOL    HW2 3009   3.591   3.052   0.323
  704SOL     OW 3010   4.089   1.349   6.728
  704SOL    HW1 3011   4.085   1.262   6.678
  704SOL    HW2 3012   4.082   1.425   6.664
  705SOL     OW 3013   0.172   6.064   5.706
  705SOL    HW1 3014   0.097   6.107   5.655
  705SOL    HW2 3015   0.246   6.041   5.643
  706SOL     OW 3016   3.999   0.239   5.016
  706SOL    HW1 3017   4.008   0.209   4.921
  706SOL    HW2 3018   3.939   0.177   5.065
  707SOL     OW 3019   3.066   5.170   4.620
  707SOL    HW1 3020   2.993   5.125   4.672
  707SOL    HW2 3021   3.029   5.205   4.534
  708SOL     OW 3022   3.410   5.882   3.549
  708SOL    HW1 3023   3.350   5.862   3.471
  708SOL    HW2 3024   3.485   5.941   3.519
  709SOL     OW 3025   2.255   0.134   2.067
  709SOL    HW1 3026   2.219   0.225   2.091
  709SOL    HW2 3027   2.286   0.088   2.150
  710SOL     OW 3028   5.020   3.852   2.887
  710SOL    HW1 3029   4.949   3.920   2.877
  710SOL    HW2 3030   5.003   3.798   2.970
  711SOL     OW 3031   0.165   1.214   1.182
  711SOL    HW1 3032   0.163   1.270   1.264
  711SOL    HW2 3033   0.230   1.252   1.116
  712SOL     OW 3034   5.463   3.910   7.010
  712SOL    HW1 3035   5.400   3.876   6.941
  712SOL    HW2 3036   5.546   3.943   6.966
  713SOL     OW 3037   4.088   3.272   6.295
  713SOL    HW1 3038   4.137   3.294   6.379
  713SOL    HW2 3039   4.007   3.329   6.287
  714SOL     OW 3040   4.419   6.607   2.907
  714SOL    HW1 3041   4.440   6.607   3.004
  714SOL    HW2 3042   4.504   6.605   2.854
  715SOL     OW 3043   6.331   4.641   5.306
  715SOL    HW1 3044   6.235   4.642   5.332
  715SOL    HW2 3045   6.387   4.614   5.384
  716SOL     OW 3046   3.287   1.712   3.762
  716SOL    HW1 3047   3.235   1.762   3.693
  716SOL    HW2 3048   3.345   1.644   3.717
  717SOL     OW 3049   4.981   5.285   3.594
  717SOL    HW1 3050   5.044   5.291   3.517
  717SOL    HW2 3051   4.907   5.222   3.572
  718SOL     OW 3052   6.186   2.265   5.384
  718SOL    HW1 3053   6.098   2.218   5.392
  718SOL    HW2 3054   6.222   2.284   5.476
  719SOL     OW 3055   4.662   5.793   2.826
  719SOL    HW1 3056   4.566   5.819   2.817
  719SOL    HW2 3057   4.709   5.860   2.883
  720SOL     OW 3058   2.818   1.340   1.763
  720SOL    HW1 3059   2.780   1.428   1.792
  720SOL    HW2 3060   2.786   1.319   1.671
  721SOL     OW 3061   7.009   3.044   2.059
  721SOL    HW1 3062   0.086   3.049   2.097
  721SOL    HW2 3063   7.013   3.030   1.960
  722SOL     OW 3064   5.670   6.327   1.586
  722SOL    HW1 3065   5.684   6.272   1.504
  722SOL    HW2 3066   5.587   6.383   1.575
  723SOL     OW 3067   2.101   0.699   4.282
  723SOL    HW1 3068   2.103   0.735   4.376
  723SOL    HW2 3069   2.060   0.767   4.221
  724SOL     OW 3070   1.360   2.118   4.485
  724SOL    HW1 3071   1.430   2.182   4.516
  724SOL    HW2 3072   1.271   2.164   4.486
  725SOL     OW 3073   1.833   4.430   2.896
  725SOL    HW1 3074   1.774   4.508   2.917
  725SOL    HW2 3075   1.874   4.443   2.805
  726SOL     OW 3076   2.231   3.611   0.794
  726SOL    HW1 3077   2.299   3.629   0.723
  726SOL    HW2 3078   2.209   3.696   0.842
  727SOL     OW 3079   3.841   5.109   4.514
  727SOL    HW1 3080   3.810   5.023   4.555
  727SOL    HW2 3081   3.805   5.115   4.421
  728SOL     OW 3082   6.010   3.055   3.858
  728SOL    HW1 3083   6.029   2.967   3.814
  728SOL    HW2 3084   6.090   3.084   3.910
  729SOL     OW 3085   0.941   4.949   0.138
  729SOL    HW1 3086   0.994   4.893   0.202
  729SOL    HW2 3087   0.847   4.957   0.171
  730SOL     OW 3088   4.147   1.478   3.230
  730SOL    HW1 3089   4.122   1.440   3.318
  730SOL    HW2 3090   4.068   1.478   3.169
  731SOL     OW 3091   4.760   5.003   4.964
  731SOL    HW1 3092   4.847   4.976   5.004
  731SOL    HW2 3093   4.777   5.045   4.874
  732SOL     OW 3094   4.398   0.685   4.194
  732SOL    HW1 3095   4.401   0.630   4.278
  732SOL    HW2 3096   4.302   0.703   4.170
  733SOL     OW 3097   0.003   4.994   4.225
  733SOL    HW1 3098   0.051   4.907   4.214
  733SOL    HW2 3099   0.005   5.045   4.139
  734SOL     OW 3100   6.089   6.137   3.115
  734SOL    HW1 3101   6.054   6.094   3.031
  734SOL    HW2 3102   6.014   6.184   3.162
  735SOL     OW 3103   4.177   0.552   2.583
  735SOL    HW1 3104   4.269   0.535   2.546
  735SOL    HW2 3105   4.109   0.541   2.510
  736SOL     OW 3106   1.683   2.038   3.728
  736SOL    HW1 3107   1.727   2.121   3.764
  736SOL    HW2 3108   1.595   2.024   3.773
  737SOL     OW 3109   3.144   0.924   6.134
  737SOL    HW1 3110   3.081   0.975   6.076
  737SOL    HW2 3111   3.132   0.952   6.229
  738SOL     OW 3112   1.621   5.237   0.223
  738SOL    HW1 3113   1.590   5.291   0.301
  738SOL    HW2 3114   1.657   5.149   0.255
  739SOL     OW 3115   1.431   0.349   3.673
  739SOL    HW1 3116   1.437   0.369   3.576
  739SOL    HW2 3117   1.403   0.254   3.686
  740SOL     OW 3118   5.180   2.920   3.082
  740SOL    HW1 3119   5.137   2.958   3.000
  740SOL    HW2 3120   5.255   2.859   3.056
  741SOL     OW 3121   3.003   1.267   3.154
  741SOL    HW1 3122   2.932   1.312   3.209
  741SOL    HW2 3123   2.962   1.234   3.069
  742SOL     OW 3124   1.961   0.269   2.589
  742SOL    HW1 3125   1.941   0.235   2.497
  742SOL    HW2 3126   1.883   0.324   2.621
  743SOL     OW 3127   0.220   6.489   3.018
  743SOL    HW1 3128   0.276   6.441   2.951
  743SOL    HW2 3129   0.134   6.519   2.975
  744SOL     OW 3130   4.984   1.735   1.000
  744SOL    HW1 3131   4.983   1.808   0.932
  744SOL    HW2 3132   4.909   1.671   0.982
  745SOL     OW 3133   2.093   6.635   5.345
  745SOL    HW1 3134   2.088   6.706   5.274
  745SOL    HW2 3135   2.004   6.591   5.354
  746SOL     OW 3136   6.504   5.601   5.023
  746SOL    HW1 3137   6.410   5.591   5.055
  746SOL    HW2 3138   6.510   5.573   4.927
  747SOL     OW 3139   4.163   5.039   2.717
  747SOL    HW1 3140   4.233   5.071   2.780
  747SOL    HW2 3141   4.153   5.105   2.642
  748SOL     OW 3142   5.949   4.325   1.261
  748SOL    HW1 3143   5.980   4.319   1.166
  748SOL    HW2 3144   5.997   4.399   1.308
  749SOL     OW 3145   4.634   4.289   4.813
  749SOL    HW1 3146   4.617   4.194   4.840
  749SOL    HW2 3147   4.714   4.294   4.754
  750SOL     OW 3148   2.398   2.057   3.391
  750SOL    HW1 3149   2.442   2.003   3.463
  750SOL    HW2 3150   2.414   2.154   3.407
  751SOL     OW 3151   4.218   0.659   0.660
  751SOL    HW1 3152   4.233   0.602   0.741
  751SOL    HW2 3153   4.258   0.614   0.580
  752SOL     OW 3154   3.370   2.934   4.453
  752SOL    HW1 3155   3.295   2.999   4.443
  752SOL    HW2 3156   3.341   2.844   4.419
  753SOL     OW 3157   3.705   4.096   3.499
  753SOL    HW1 3158   3.717   4.137   3.408
  753SOL    HW2 3159   3.765   4.017   3.509
  754SOL     OW 3160   5.015   0.214   6.912
  754SOL    HW1 3161   4.958   0.284   6.870
  754SOL    HW2 3162   5.059   0.251   6.994
  755SOL     OW 3163   4.841   4.737   5.074
  755SOL    HW1 3164   4.938   4.756   5.056
  755SOL    HW2 3165   4.819   4.644   5.045
  756SOL     OW 3166   3.759   5.578   5.800
  756SOL    HW1 3167   3.773   5.668   5.759
  756SOL    HW2 3168   3.833   5.558   5.864
  757SOL     OW 3169   1.487   6.976   1.756
  757SOL    HW1 3170   1.499   0.034   1.823
  757SOL    HW2 3171   1.462   0.000   1.667
  758SOL     OW 3172   4.050   1.365   4.503
  758SOL    HW1 3173   4.031   1.322   4.415
  758SOL    HW2 3174   4.100   1.451   4.487
  759SOL     OW 3175   6.917   3.403   3.934
  759SOL    HW1 3176   6.984   3.331   3.915
  759SOL    HW2 3177   6.840   3.394   3.870
  760SOL     OW 3178   6.817   5.448   3.939
  760SOL    HW1 3179   6.781   5.520   3.998
  760SOL    HW2 3180   6.868   5.489   3.864
  761SOL     OW 3181   4.435   4.905   6.045
  761SOL    HW1 3182   4.395   4.852   5.971
  761SOL    HW2 3183   4.366   4.966   6.084
  762SOL     OW 3184   3.872   5.534   3.540
  762SOL    HW1 3185   3.897   5.524   3.636
  762SOL    HW2 3186   3.939   5.486   3.483
  763SOL     OW 3187   5.462   0.926   0.744
  763SOL    HW1 3188   5.481   0.958   0.837
  763SOL    HW2 3189   5.376   0.966   0.713
  764SOL     OW 3190   4.996   6.581   5.131
  764SOL    HW1 3191   5.005   6.493   5.085
  764SOL    HW2 3192   5.002   6.568   5.230
  765SOL     OW 3193   5.726   5.917   0.468
  765SOL    HW1 3194   5.791   5.972   0.416
  765SOL    HW2 3195   5.639   5.914   0.420
  766SOL     OW 3196   2.486   2.212   4.139
  766SOL    HW1 3197   2.547   2.286   4.111
  766SOL    HW2 3198   2.455   2.228   4.232
  767SOL     OW 3199   6.790   6.144   3.650
  767SOL    HW1 3200   6.842   6.229   3.645
  767SOL    HW2 3201   6.848   6.067   3.623
  768SOL     OW 3202   2.388   5.723   2.246
  768SOL    HW1 3203   2.395   5.627   2.220
  768SOL    HW2 3204   2.479   5.762   2.256
  769SOL     OW 3205   3.739   1.452   5.458
  769SOL    HW1 3206   3.807   1.380   5.446
  769SOL    HW2 3207   3.744   1.516   5.381
  770SOL     OW 3208   0.765   4.814   5.666
  770SOL    HW1 3209   0.736   4.733   5.615
  770SOL    HW2 3210   0.774   4.892   5.604
  771SOL     OW 3211   1.613   4.805   2.651
  771SOL    HW1 3212   1.709   4.825   2.669
  771SOL    HW2 3213   1.559   4.888   2.662
  772SOL     OW 3214   5.639   5.200   0.470
  772SOL    HW1 3215   5.716   5.238   0.521
  772SOL    HW2 3216   5.576   5.155   0.533
  773SOL     OW 3217   1.762   4.706   4.228
  773SOL    HW1 3218   1.700   4.631   4.207
  773SOL    HW2 3219   1.797   4.745   4.143
  774SOL     OW 3220   2.022   1.930   3.690
  774SOL    HW1 3221   2.050   1.885   3.606
  774SOL    HW2 3222   1.984   2.020   3.668
  775SOL     OW 3223   1.199   4.336   2.608
  775SOL    HW1 3224   1.103   4.353   2.631
  775SOL    HW2 3225   1.254   4.340   2.692
  776SOL     OW 3226   3.472   5.581   6.332
  776SOL    HW1 3227   3.374   5.590   6.317
  776SOL    HW2 3228   3.521   5.628   6.258
  777SOL     OW 3229   1.950   3.361   6.637
  777SOL    HW1 3230   1.962   3.352   6.736
  777SOL    HW2 3231   1.855   3.384   6.617
  778SOL     OW 3232   3.670   5.821   6.815
  778SOL    HW1 3233   3.703   5.855   6.727
  778SOL    HW2 3234   3.624   5.895   6.864
  779SOL     OW 3235   5.596   1.915   3.304
  779SOL    HW1 3236   5.636   1.998   3.343
  779SOL    HW2 3237   5.614   1.837   3.364
  780SOL     OW 3238   6.536   1.470   4.244
  780SOL    HW1 3239   6.516   1.513   4.332
  780SOL    HW2 3240   6.476   1.508   4.174
  781SOL     OW 3241   0.686   4.817   6.482
  781SOL    HW1 3242   0.638   4.905   6.479
  781SOL    HW2 3243   0.780   4.831   6.513
  782SOL     OW 3244   2.230   4.237   5.450
  782SOL    HW1 3245   2.198   4.258   5.542
  782SOL    HW2 3246   2.160   4.261   5.384
  783SOL     OW 3247   6.697   4.683   6.316
  783SOL    HW1 3248   6.694   4.667   6.218
  783SOL    HW2 3249   6.630   4.754   6.341
  784SOL     OW 3250   2.143   5.634   6.871
  784SOL    HW1 3251   2.207   5.560   6.854
  784SOL    HW2 3252   2.089   5.651   6.788
  785SOL     OW 3253   0.646   0.387   4.095
  785SOL    HW1 3254   0.697   0.423   4.174
  785SOL    HW2 3255   0.569   0.333   4.127
  786SOL     OW 3256   5.802   0.667   4.729
  786SOL    HW1 3257   5.874   0.717   4.682
  786SOL    HW2 3258   5.723   0.727   4.742
  787SOL     OW 3259   1.697   6.579   1.225
  787SOL    HW1 3260   1.778   6.637   1.218
  787SOL    HW2 3261   1.615   6.634   1.212
  788SOL     OW 3262   2.139   2.884   2.385
  788SOL    HW1 3263   2.149   2.926   2.295
  788SOL    HW2 3264   2.172   2.790   2.382
  789SOL     OW 3265   3.990   5.227   2.377
  789SOL    HW1 3266   3.900   5.239   2.419
  789SOL    HW2 3267   3.980   5.194   2.284
  790SOL     OW 3268   0.061   3.648   2.041
  790SOL    HW1 3269   0.042   3.656   2.139
  790SOL    HW2 3270   0.065   3.551   2.015
  791SOL     OW 3271   3.020   1.041   3.648
  791SOL    HW1 3272   2.979   0.989   3.722
  791SOL    HW2 3273   3.056   1.128   3.683
  792SOL     OW 3274   2.472   0.242   0.988
  792SOL    HW1 3275   2.376   0.235   0.961
  792SOL    HW2 3276   2.520   0.301   0.923
  793SOL     OW 3277   1.722   5.245   4.968
  793SOL    HW1 3278   1.784   5.244   5.047
  793SOL    HW2 3279   1.762   5.192   4.893
  794SOL     OW 3280   3.648   3.779   2.360
  794SOL    HW1 3281   3.604   3.720   2.428
  794SOL    HW2 3282   3.715   3.838   2.405
  795SOL     OW 3283   4.720   0.303   5.415
  795SOL    HW1 3284   4.631   0.318   5.456
  795SOL    HW2 3285   4.730   0.207   5.389
  796SOL     OW 3286   1.042   2.432   6.626
  796SOL    HW1 3287   1.033   2.487   6.709
  796SOL    HW2 3288   0.953   2.423   6.582
  797SOL     OW 3289   3.652   6.920   1.270
  797SOL    HW1 3290   3.659   0.004   1.273
  797SOL    HW2 3291   3.623   6.891   1.179
  798SOL     OW 3292   4.928   4.215   1.244
  798SOL    HW1 3293   4.892   4.152   1.314
  798SOL    HW2 3294   4.866   4.215   1.165
  799SOL     OW 3295   3.363   2.666   5.820
  799SOL    HW1 3296   3.277   2.686   5.867
  799SOL    HW2 3297   3.345   2.603   5.744
  800SOL     OW 3298   5.402   3.023   2.606
  800SOL    HW1 3299   5.475   2.983   2.550
  800SOL    HW2 3300   5.408   3.123   2.601
  801SOL     OW 3301   1.869   5.837   6.830
  801SOL    HW1 3302   1.907   5.821   6.921
  801SOL    HW2 3303   1.837   5.932   6.823
  802SOL     OW 3304   4.243   2.664   6.553
  802SOL    HW1 3305   4.203   2.609   6.627
  802SOL    HW2 3306   4.278   2.604   6.482
  803SOL     OW 3307   2.467   2.623   3.378
  803SOL    HW1 3308   2.538   2.580   3.434
  803SOL    HW2 3309   2.421   2.552   3.324
  804SOL     OW 3310   5.167   0.329   2.992
  804SOL    HW1 3311   5.243   0.350   2.930
  804SOL    HW2 3312   5.088   0.386   2.969
  805SOL     OW 3313   3.501   1.336   3.946
  805SOL    HW1 3314   3.498   1.383   4.034
  805SOL    HW2 3315   3.492   1.402   3.872
  806SOL     OW 3316   3.732   6.294   6.033
  806SOL    HW1 3317   3.816   6.282   6.086
  806SOL    HW2 3318   3.653   6.275   6.091
  807SOL     OW 3319   1.394   5.928   6.755
  807SOL    HW1 3320   1.332   5.852   6.738
  807SOL    HW2 3321   1.452   5.943   6.674
  808SOL     OW 3322   5.346   2.409   5.855
  808SOL    HW1 3323   5.312   2.316   5.871
  808SOL    HW2 3324   5.269   2.473   5.851
  809SOL     OW 3325   3.443   6.736   6.204
  809SOL    HW1 3326   3.497   6.671   6.150
  809SOL    HW2 3327   3.346   6.718   6.191
  810SOL     OW 3328   3.811   3.722   0.210
  810SOL    HW1 3329   3.803   3.703   0.112
  810SOL    HW2 3330   3.834   3.637   0.258
  811SOL     OW 3331   5.371   5.950   4.400
  811SOL    HW1 3332   5.447   5.994   4.448
  811SOL    HW2 3333   5.402   5.917   4.311
  812SOL     OW 3334   1.200   3.376   1.248
  812SOL    HW1 3335   1.252   3.368   1.163
  812SOL    HW2 3336   1.255   3.421   1.317
  813SOL     OW 3337   3.112   1.803   5.086
  813SOL    HW1 3338   3.053   1.877   5.054
  813SOL    HW2 3339   3.180   1.840   5.149
  814SOL     OW 3340   0.377   5.028   1.625
  814SOL    HW1 3341   0.425   5.114   1.605
  814SOL    HW2 3342   0.305   5.045   1.693
  815SOL     OW 3343   4.593   1.310   3.892
  815SOL    HW1 3344   4.567   1.242   3.824
  815SOL    HW2 3345   4.519   1.321   3.958
  816SOL     OW 3346   5.163   3.696   6.368
  816SOL    HW1 3347   5.100   3.750   6.312
  816SOL    HW2 3348   5.111   3.628   6.421
  817SOL     OW 3349   6.891   5.148   6.190
  817SOL    HW1 3350   6.815   5.117   6.248
  817SOL    HW2 3351   6.942   5.220   6.238
  818SOL     OW 3352   6.860   1.399   5.319
  818SOL    HW1 3353   6.854   1.408   5.419
  818SOL    HW2 3354   6.807   1.320   5.289
  819SOL     OW 3355   5.604   3.449   1.591
  819SOL    HW1 3356   5.625   3.377   1.525
  819SOL    HW2 3357   5.678   3.516   1.592
  820SOL     OW 3358   2.533   2.035   5.426
  820SOL    HW1 3359   2.472   2.048   5.505
  820SOL    HW2 3360   2.517   1.945   5.386
  821SOL     OW 3361   4.762   3.596   6.380
  821SOL    HW1 3362   4.764   3.650   6.296
  821SOL    HW2 3363   4.721   3.507   6.361
  822SOL     OW 3364   6.868   4.734   3.239
  822SOL    HW1 3365   6.928   4.667   3.283
  822SOL    HW2 3366   6.846   4.704   3.146
  823SOL     OW 3367   2.316   2.652   4.530
  823SOL    HW1 3368   2.323   2.640   4.629
  823SOL    HW2 3369   2.246   2.720   4.510
  824SOL     OW 3370   5.231   0.582   6.325
  824SOL    HW1 3371   5.225   0.618   6.418
  824SOL    HW2 3372   5.321   0.601   6.287
  825SOL     OW 3373   5.999   5.395   0.815
  825SOL    HW1 3374   5.978   5.318   0.876
  825SOL    HW2 3375   5.927   5.464   0.823
  826SOL     OW 3376   3.902   2.046   0.344
  826SOL    HW1 3377   3.992   2.087   0.328
  826SOL    HW2 3378   3.832   2.101   0.298
  827SOL     OW 3379   3.786   3.589   4.981
  827SOL    HW1 3380   3.761   3.510   4.924
  827SOL    HW2 3381   3.712   3.607   5.046
  828SOL     OW 3382   0.948   6.279   6.096
  828SOL    HW1 3383   0.897   6.329   6.026
  828SOL    HW2 3384   1.023   6.229   6.053
  829SOL     OW 3385   3.829   3.334   1.726
  829SOL    HW1 3386   3.842   3.345   1.824
  829SOL    HW2 3387   3.731   3.332   1.705
  830SOL     OW 3388   6.758   4.138   5.590
  830SOL    HW1 3389   6.845   4.177   5.562
  830SOL    HW2 3390   6.756   4.129   5.690
  831SOL     OW 3391   5.744   1.352   3.110
  831SOL    HW1 3392   5.751   1.325   3.014
  831SOL    HW2 3393   5.656   1.397   3.125
  832SOL     OW 3394   3.049   2.203   4.779
  832SOL    HW1 3395   3.056   2.218   4.877
  832SOL    HW2 3396   2.957   2.229   4.748
  833SOL     OW 3397   4.279   2.992   0.070
  833SOL    HW1 3398   4.355   3.057   0.075
  833SOL    HW2 3399   4.199   3.037   0.031
  834SOL     OW 3400   6.087   3.103   0.626
  834SOL    HW1 3401   5.988   3.102   0.637
  834SOL    HW2 3402   6.110   3.132   0.533
  835SOL     OW 3403   6.794   6.606   5.308
  835SOL    HW1 3404   6.887   6.605   5.271
  835SOL    HW2 3405   6.783   6.534   5.376
  836SOL     OW 3406   5.668   0.540   3.927
  836SOL    HW1 3407   5.605   0.514   3.855
  836SOL    HW2 3408   5.762   0.538   3.892
  837SOL     OW 3409   1.521   0.545   6.639
  837SOL    HW1 3410   1.480   0.608   6.705
  837SOL    HW2 3411   1.578   0.478   6.688
  838SOL     OW 3412   1.552   5.460   3.281
  838SOL    HW1 3413   1.582   5.409   3.200
  838SOL    HW2 3414   1.617   5.446   3.356
  839SOL     OW 3415   1.250   2.326   0.161
  839SOL    HW1 3416   1.173   2.377   0.200
  839SOL    HW2 3417   1.272   2.361   0.071
  840SOL     OW 3418   4.513   5.257   0.529
  840SOL    HW1 3419   4.434   5.307   0.562
  840SOL    HW2 3420   4.559   5.310   0.458
  841SOL     OW 3421   2.862   5.260   6.393
  841SOL    HW1 3422   2.793   5.209   6.445
  841SOL    HW2 3423   2.819   5.304   6.314
  842SOL     OW 3424   4.594   6.646   0.514
  842SOL    HW1 3425   4.651   6.568   0.491
  842SOL    HW2 3426   4.628   6.689   0.598
  843SOL     OW 3427   1.450   0.661   2.004
  843SOL    HW1 3428   1.462   0.723   1.927
  843SOL    HW2 3429   1.380   0.696   2.066
  844SOL     OW 3430   6.602   6.969   1.643
  844SOL    HW1 3431   6.577   0.007   1.562
  844SOL    HW2 3432   6.672   6.902   1.618
  845SOL     OW 3433   4.065   1.692   1.989
  845SOL    HW1 3434   3.971   1.697   1.953
  845SOL    HW2 3435   4.081   1.602   2.028
  846SOL     OW 3436   1.683   1.482   1.301
  846SOL    HW1 3437   1.611   1.473   1.370
  846SOL    HW2 3438   1.740   1.400   1.302
  847SOL     OW 3439   2.316   3.267   1.059
  847SOL    HW1 3440   2.328   3.278   1.157
  847SOL    HW2 3441   2.263   3.344   1.023
  848SOL     OW 3442   6.560   6.128   0.586
  848SOL    HW1 3443   6.598   6.220   0.592
  848SOL    HW2 3444   6.502   6.121   0.504
  849SOL     OW 3445   5.352   3.042   6.470
  849SOL    HW1 3446   5.370   3.111   6.400
  849SOL    HW2 3447   5.436   3.026   6.523
  850SOL     OW 3448   1.796   1.206   4.438
  850SOL    HW1 3449   1.731   1.171   4.370
  850SOL    HW2 3450   1.825   1.298   4.411
  851SOL     OW 3451   5.095   2.547   6.032
  851SOL    HW1 3452   5.095   2.615   5.959
  851SOL    HW2 3453   5.068   2.458   5.996
  852SOL     OW 3454   6.572   5.270   1.975
  852SOL    HW1 3455   6.640   5.266   2.048
  852SOL    HW2 3456   6.542   5.365   1.962
  853SOL     OW 3457   3.297   3.020   0.573
  853SOL    HW1 3458   3.234   3.048   0.501
  853SOL    HW2 3459   3.364   2.956   0.535
  854SOL     OW 3460   0.260   6.881   5.808
  854SOL    HW1 3461   0.242   6.979   5.804
  854SOL    HW2 3462   0.272   6.845   5.715
  855SOL     OW 3463   4.666   2.113   0.171
  855SOL    HW1 3464   4.712   2.198   0.144
  855SOL    HW2 3465   4.719   2.070   0.244
  856SOL     OW 3466   2.010   5.626   1.442
  856SOL    HW1 3467   2.101   5.620   1.401
  856SOL    HW2 3468   2.018   5.662   1.535
  857SOL     OW 3469   6.896   5.850   5.281
  857SOL    HW1 3470   6.973   5.788   5.287
  857SOL    HW2 3471   6.824   5.809   5.225
  858SOL     OW 3472   3.462   3.963   0.103
  858SOL    HW1 3473   3.485   3.894   0.172
  858SOL    HW2 3474   3.445   3.918   0.015
  859SOL     OW 3475   4.622   5.481   5.409
  859SOL    HW1 3476   4.647   5.453   5.317
  859SOL    HW2 3477   4.567   5.410   5.453
  860SOL     OW 3478   4.265   2.842   5.980
  860SOL    HW1 3479   4.309   2.770   5.926
  860SOL    HW2 3480   4.306   2.930   5.958
  861SOL     OW 3481   1.028   5.683   2.670
  861SOL    HW1 3482   1.022   5.770   2.619
  861SOL    HW2 3483   1.088   5.696   2.749
  862SOL     OW 3484   1.055   4.395   4.102
  862SOL    HW1 3485   1.035   4.298   4.093
  862SOL    HW2 3486   0.995   4.435   4.171
  863SOL     OW 3487   5.530   1.107   1.639
  863SOL    HW1 3488   5.515   1.029   1.700
  863SOL    HW2 3489   5.518   1.078   1.544
  864SOL     OW 3490   5.767   5.533   2.698
  864SOL    HW1 3491   5.694   5.525   2.631
  864SOL    HW2 3492   5.732   5.512   2.789
  865SOL     OW 3493   1.174   5.067   4.692
  865SOL    HW1 3494   1.228   5.034   4.615
  865SOL    HW2 3495   1.086   5.102   4.658
  866SOL     OW 3496   3.739   6.944   1.548
  866SOL    HW1 3497   3.729   0.026   1.527
  866SOL    HW2 3498   3.693   6.889   1.478
  867SOL     OW 3499   6.115   3.452   5.367
  867SOL    HW1 3500   6.044   3.384   5.381
  867SOL    HW2 3501   6.092   3.509   5.288
  868SOL     OW 3502   0.855   1.865   2.342
  868SOL    HW1 3503   0.889   1.936   2.281
  868SOL    HW2 3504   0.758   1.880   2.360
  869SOL     OW 3505   6.813   3.149   2.610
  869SOL    HW1 3506   6.758   3.227   2.639
  869SOL    HW2 3507   6.759   3.090   2.551
  870SOL     OW 3508   3.752   4.901   2.146
  870SOL    HW1 3509   3.703   4.885   2.232
  870SOL    HW2 3510   3.706   4.851   2.072
  871SOL     OW 3511   4.681   1.776   3.640
  871SOL    HW1 3512   4.588   1.801   3.611
  871SOL    HW2 3513   4.727   1.857   3.676
  872SOL     OW 3514   1.440   2.045   4.900
  872SOL    HW1 3515   1.440   1.998   4.811
  872SOL    HW2 3516   1.424   2.143   4.885
  873SOL     OW 3517   3.989   6.955   6.480
  873SOL    HW1 3518   3.981   0.015   6.415
  873SOL    HW2 3519   4.004   6.869   6.431
  874SOL     OW 3520   6.160   3.908   1.836
  874SOL    HW1 3521   6.140   4.006   1.838
  874SOL    HW2 3522   6.242   3.892   1.780
  875SOL     OW 3523   5.325   5.843   2.263
  875SOL    HW1 3524   5.296   5.891   2.180
  875SOL    HW2 3525   5.398   5.894   2.307
  876SOL     OW 3526   6.234   0.974   6.425
  876SOL    HW1 3527   6.278   0.959   6.336
  876SOL    HW2 3528   6.264   0.903   6.489
  877SOL     OW 3529   1.394   3.214   6.809
  877SOL    HW1 3530   1.328   3.231   6.736
  877SOL    HW2 3531   1.399   3.293   6.869
  878SOL     OW 3532   3.787   6.552   4.031
  878SOL    HW1 3533   3.757   6.600   4.114
  878SOL    HW2 3534   3.867   6.496   4.051
  879SOL     OW 3535   5.819   6.986   6.368
  879SOL    HW1 3536   5.732   6.936   6.368
  879SOL    HW2 3537   5.840   7.015   6.274
  880SOL     OW 3538   3.249   3.369   2.984
  880SOL    HW1 3539   3.334   3.388   3.034
  880SOL    HW2 3540   3.187   3.447   2.994
  881SOL     OW 3541   4.165   1.923   0.249
  881SOL    HW1 3542   4.234   1.975   0.199
  881SOL    HW2 3543   4.184   1.825   0.239
  882SOL     OW 3544   2.142   3.059   3.270
  882SOL    HW1 3545   2.169   2.970   3.307
  882SOL    HW2 3546   2.051   3.083   3.305
  883SOL     OW 3547   2.359   6.478   3.049
  883SOL    HW1 3548   2.456   6.499   3.055
  883SOL    HW2 3549   2.306   6.562   3.053
  884SOL     OW 3550   2.772   3.348   6.261
  884SOL    HW1 3551   2.800   3.299   6.179
  884SOL    HW2 3552   2.731   3.284   6.326
  885SOL     OW 3553   4.177   2.994   6.301
  885SOL    HW1 3554   4.277   2.988   6.294
  885SOL    HW2 3555   4.145   3.076   6.255
  886SOL     OW 3556   3.715   1.131   6.725
  886SOL    HW1 3557   3.735   1.180   6.811
  886SOL    HW2 3558   3.680   1.196   6.658
  887SOL     OW 3559   4.619   1.266   5.327
  887SOL    HW1 3560   4.634   1.361   5.354
  887SOL    HW2 3561   4.525   1.239   5.348
  888SOL     OW 3562   0.081   6.622   1.500
  888SOL    HW1 3563   0.102   6.526   1.483
  888SOL    HW2 3564   0.010   6.653   1.437
  889SOL     OW 3565   0.287   3.779   0.646
  889SOL    HW1 3566   0.195   3.752   0.618
  889SOL    HW2 3567   0.340   3.802   0.564
  890SOL     OW 3568   2.305   6.109   4.370
  890SOL    HW1 3569   2.326   6.175   4.298
  890SOL    HW2 3570   2.209   6.118   4.397
  891SOL     OW 3571   5.067   4.917   2.631
  891SOL    HW1 3572   5.125   4.937   2.709
  891SOL    HW2 3573   5.001   4.845   2.656
  892SOL     OW 3574   2.604   4.511   0.625
  892SOL    HW1 3575   2.676   4.518   0.556
  892SOL    HW2 3576   2.537   4.443   0.597
  893SOL     OW 3577   1.388   5.193   2.947
  893SOL    HW1 3578   1.381   5.293   2.949
  893SOL    HW2 3579   1.333   5.155   3.021
  894SOL     OW 3580   0.843   4.376   0.757
  894SOL    HW1 3581   0.828   4.437   0.834
  894SOL    HW2 3582   0.882   4.427   0.680
  895SOL     OW 3583   6.986   4.953   3.809
  895SOL    HW1 3584   6.991   5.036   3.864
  895SOL    HW2 3585   0.063   4.921   3.786
  896SOL     OW 3586   0.449   0.876   6.449
  896SOL    HW1 3587   0.421   0.780   6.460
  896SOL    HW2 3588   0.473   0.893   6.354
  897SOL     OW 3589   5.218   1.300   0.620
  897SOL    HW1 3590   5.304   1.339   0.650
  897SOL    HW2 3591   5.148   1.313   0.690
  898SOL     OW 3592   3.547   0.569   2.641
  898SOL    HW1 3593   3.467   0.566   2.701
  898SOL    HW2 3594   3.608   0.493   2.662
  899SOL     OW 3595   6.651   5.830   0.152
  899SOL    HW1 3596   6.684   5.803   0.062
  899SOL    HW2 3597   6.583   5.764   0.184
  900SOL     OW 3598   4.889   5.277   0.565
  900SOL    HW1 3599   4.898   5.184   0.602
  900SOL    HW2 3600   4.932   5.281   0.475
  901SOL     OW 3601   0.859   0.522   3.404
  901SOL    HW1 3602   0.867   0.435   3.355
  901SOL    HW2 3603   0.766   0.557   3.396
  902SOL     OW 3604   6.806   3.081   1.691
  902SOL    HW1 3605   6.801   3.162   1.631
  902SOL    HW2 3606   6.724   3.026   1.678
  903SOL     OW 3607   0.179   1.338   1.416
  903SOL    HW1 3608   0.144   1.300   1.501
  903SOL    HW2 3609   0.277   1.316   1.408
  904SOL     OW 3610   2.562   1.217   3.052
  904SOL    HW1 3611   2.510   1.157   3.113
  904SOL    HW2 3612   2.500   1.279   3.004
  905SOL     OW 3613   6.178   2.114   6.260
  905SOL    HW1 3614   6.215   2.197   6.301
  905SOL    HW2 3615   6.197   2.036   6.319
  906SOL     OW 3616   5.151   2.637   0.636
  906SOL    HW1 3617   5.235   2.689   0.649
  906SOL    HW2 3618   5.113   2.657   0.545
  907SOL     OW 3619   5.263   4.364   6.266
  907SOL    HW1 3620   5.362   4.357   6.264
  907SOL    HW2 3621   5.227   4.304   6.337
  908SOL     OW 3622   0.802   4.320   3.556
  908SOL    HW1 3623   0.865   4.301   3.631
  908SOL    HW2 3624   0.848   4.374   3.486
  909SOL     OW 3625   5.392   5.879   5.934
  909SOL    HW1 3626   5.482   5.834   5.937
  909SOL    HW2 3627   5.321   5.809   5.928
  910SOL     OW 3628   3.197   4.534   0.628
  910SOL    HW1 3629   3.248   4.513   0.545
  910SOL    HW2 3630   3.237   4.616   0.671
  911SOL     OW 3631   1.169   4.318   5.279
  911SOL    HW1 3632   1.128   4.255   5.345
  911SOL    HW2 3633   1.263   4.338   5.307
  912SOL     OW 3634   4.834   1.624   4.648
  912SOL    HW1 3635   4.873   1.532   4.641
  912SOL    HW2 3636   4.830   1.651   4.744
  913SOL     OW 3637   4.824   6.835   3.028
  913SOL    HW1 3638   4.804   6.777   3.108
  913SOL    HW2 3639   4.867   6.780   2.957
  914SOL     OW 3640   3.323   6.472   6.058
  914SOL    HW1 3641   3.314   6.429   6.148
  914SOL    HW2 3642   3.418   6.500   6.044
  915SOL     OW 3643   5.293   5.765   1.395
  915SOL    HW1 3644   5.251   5.679   1.364
  915SOL    HW2 3645   5.291   5.768   1.495
  916SOL     OW 3646   0.986   3.027   2.875
  916SOL    HW1 3647   0.903   3.055   2.828
  916SOL    HW2 3648   1.047   3.106   2.887
  917SOL     OW 3649   0.604   6.808   6.795
  917SOL    HW1 3650   0.583   6.741   6.723
  917SOL    HW2 3651   0.694   6.789   6.833
  918SOL     OW 3652   3.517   6.516   0.037
  918SOL    HW1 3653   3.590   6.536   0.102
  918SOL    HW2 3654   3.456   6.595   0.029
  919SOL     OW 3655   4.729   0.852   5.922
  919SOL    HW1 3656   4.743   0.883   5.828
  919SOL    HW2 3657   4.794   0.779   5.942
  920SOL     OW 3658   2.888   4.907   1.619
  920SOL    HW1 3659   2.959   4.932   1.685
  920SOL    HW2 3660   2.829   4.836   1.658
  921SOL     OW 3661   4.610   5.621   4.820
  921SOL    HW1 3662   4.542   5.649   4.888
  921SOL    HW2 3663   4.693   5.592   4.867
  922SOL     OW 3664   3.315   3.681   3.452
  922SOL    HW1 3665   3.295   3.585   3.434
  922SOL    HW2 3666   3.301   3.701   3.549
  923SOL     OW 3667   2.297   3.413   5.541
  923SOL    HW1 3668   2.261   3.507   5.543
  923SOL    HW2 3669   2.336   3.394   5.451
  924SOL     OW 3670   0.309   3.266   0.995
  924SOL    HW1 3671   0.377   3.278   1.068
  924SOL    HW2 3672   0.309   3.346   0.936
  925SOL     OW 3673   0.764   1.523   6.919
  925SOL    HW1 3674   0.745   1.550   7.013
  925SOL    HW2 3675   0.815   1.595   6.872
  926SOL     OW 3676   1.812   1.984   1.663
  926SOL    HW1 3677   1.783   1.899   1.706
  926SOL    HW2 3678   1.774   1.990   1.571
  927SOL     OW 3679   6.718   3.408   4.351
  927SOL    HW1 3680   6.756   3.320   4.324
  927SOL    HW2 3681   6.626   3.418   4.314
  928SOL     OW 3682   3.036   5.186   5.646
  928SOL    HW1 3683   2.973   5.161   5.720
  928SOL    HW2 3684   2.987   5.187   5.559
  929SOL     OW 3685   0.574   1.821   4.429
  929SOL    HW1 3686   0.605   1.915   4.440
  929SOL    HW2 3687   0.484   1.820   4.386
  930SOL     OW 3688   5.764   5.501   4.500
  930SOL    HW1 3689   5.771   5.533   4.406
  930SOL    HW2 3690   5.675   5.526   4.538
  931SOL     OW 3691   5.999   0.739   3.615
  931SOL    HW1 3692   5.915   0.792   3.600
  931SOL    HW2 3693   6.031   0.703   3.527
  932SOL     OW 3694   3.538   0.495   3.679
  932SOL    HW1 3695   3.528   0.544   3.592
  932SOL    HW2 3696   3.461   0.516   3.739
  933SOL     OW 3697   0.924   5.455   1.609
  933SOL    HW1 3698   0.880   5.538   1.644
  933SOL    HW2 3699   0.961   5.473   1.518
  934SOL     OW 3700   1.830   2.985   0.110
  934SOL    HW1 3701   1.760   3.015   0.175
  934SOL    HW2 3702   1.905   2.942   0.160
  935SOL     OW 3703   5.671   2.761   5.710
  935SOL    HW1 3704   5.727   2.721   5.782
  935SOL    HW2 3705   5.617   2.837   5.747
  936SOL     OW 3706   2.100   0.659   6.017
  936SOL    HW1 3707   2.084   0.560   6.022
  936SOL    HW2 3708   2.048   0.705   6.089
  937SOL     OW 3709   3.223   2.526   6.141
  937SOL    HW1 3710   3.269   2.595   6.197
  937SOL    HW2 3711   3.210   2.561   6.049
  938SOL     OW 3712   5.211   6.287   4.875
  938SOL    HW1 3713   5.223   6.214   4.942
  938SOL    HW2 3714   5.163   6.252   4.795
  939SOL     OW 3715   1.403   0.212   5.373
  939SOL    HW1 3716   1.494   0.187   5.341
  939SOL    HW2 3717   1.389   0.174   5.465
  940SOL     OW 3718   1.874   5.791   0.584
  940SOL    HW1 3719   1.830   5.733   0.653
  940SOL    HW2 3720   1.957   5.831   0.622
  941SOL     OW 3721   3.847   6.610   1.007
  941SOL    HW1 3722   3.786   6.637   0.932
  941SOL    HW2 3723   3.871   6.691   1.060
  942SOL     OW 3724   6.755   5.118   0.317
  942SOL    HW1 3725   6.691   5.049   0.352
  942SOL    HW2 3726   6.824   5.073   0.260
  943SOL     OW 3727   3.451   5.818   1.253
  943SOL    HW1 3728   3.353   5.832   1.240
  943SOL    HW2 3729   3.470   5.801   1.349
  944SOL     OW 3730   6.916   6.066   3.129
  944SOL    HW1 3731   6.893   6.100   3.221
  944SOL    HW2 3732   6.872   5.978   3.115
  945SOL     OW 3733   0.631   5.817   6.554
  945SOL    HW1 3734   0.691   5.763   6.496
  945SOL    HW2 3735   0.677   5.902   6.581
  946SOL     OW 3736   5.700   2.064   4.012
  946SOL    HW1 3737   5.709   2.125   4.090
  946SOL    HW2 3738   5.635   1.991   4.035
  947SOL     OW 3739   3.951   3.810   2.855
  947SOL    HW1 3740   3.985   3.806   2.762
  947SOL    HW2 3741   3.980   3.728   2.905
  948SOL     OW 3742   3.608   1.109   3.857
  948SOL    HW1 3743   3.573   1.197   3.887
  948SOL    HW2 3744   3.708   1.107   3.868
  949SOL     OW 3745   3.096   0.179   5.847
  949SOL    HW1 3746   3.137   0.268   5.864
  949SOL    HW2 3747   3.018   0.165   5.908
  950SOL     OW 3748   6.966   6.969   1.725
  950SOL    HW1 3749   6.964   0.023   1.653
  950SOL    HW2 3750   6.881   6.974   1.778
  951SOL     OW 3751   1.166   0.164   3.277
  951SOL    HW1 3752   1.138   0.212   3.360
  951SOL    HW2 3753   1.239   0.215   3.232
  952SOL     OW 3754   3.585   1.814   3.222
  952SOL    HW1 3755   3.621   1.809   3.316
  952SOL    HW2 3756   3.654   1.780   3.158
  953SOL     OW 3757   0.966   5.418   5.991
  953SOL    HW1 3758   0.887   5.476   5.972
  953SOL    HW2 3759   1.050   5.466   5.966
  954SOL     OW 3760   4.523   6.441   2.593
  954SOL    HW1 3761   4.532   6.351   2.635
  954SOL    HW2 3762   4.601   6.498   2.618
  955SOL     OW 3763   2.301   4.805   0.908
  955SOL    HW1 3764   2.390   4.786   0.948
  955SOL    HW2 3765   2.309   4.808   0.808
  956SOL     OW 3766   4.011   0.304   0.909
  956SOL    HW1 3767   3.975   0.250   0.985
  956SOL    HW2 3768   3.996   0.255   0.823
  957SOL     OW 3769   5.923   6.652   3.427
  957SOL    HW1 3770   5.858   6.698   3.367
  957SOL    HW2 3771   5.881   6.639   3.517
  958SOL     OW 3772   5.475   6.381   2.026
  958SOL    HW1 3773   5.503   6.293   2.064
  958SOL    HW2 3774   5.385   6.406   2.062
  959SOL     OW 3775   5.134   0.219   3.263
  959SOL    HW1 3776   5.076   0.138   3.273
  959SOL    HW2 3777   5.128   0.252   3.168
  960SOL     OW 3778   1.945   6.165   6.212
  960SOL    HW1 3779   1.987   6.168   6.121
  960SOL    HW2 3780   2.017   6.174   6.281
  961SOL     OW 3781   4.312   1.415   3.504
  961SOL    HW1 3782   4.373   1.451   3.433
  961SOL    HW2 3783   4.360   1.414   3.592
  962SOL     OW 3784   0.253   0.116   4.244
  962SOL    HW1 3785   0.180   0.184   4.255
  962SOL    HW2 3786   0.222   0.044   4.183
  963SOL     OW 3787   5.718   3.008   1.653
  963SOL    HW1 3788   5.753   3.019   1.560
  963SOL    HW2 3789   5.785   2.958   1.708
  964SOL     OW 3790   3.524   6.634   5.076
  964SOL    HW1 3791   3.513   6.695   5.155
  964SOL    HW2 3792   3.466   6.666   5.001
  965SOL     OW 3793   4.943   2.268   3.997
  965SOL    HW1 3794   5.010   2.327   4.043
  965SOL    HW2 3795   4.936   2.181   4.047
  966SOL     OW 3796   5.167   1.217   3.782
  966SOL    HW1 3797   5.224   1.230   3.701
  966SOL    HW2 3798   5.107   1.296   3.794
  967SOL     OW 3799   4.099   5.094   6.023
  967SOL    HW1 3800   4.042   5.139   5.955
  967SOL    HW2 3801   4.102   5.149   6.106
  968SOL     OW 3802   3.495   0.509   1.069
  968SOL    HW1 3803   3.537   0.470   0.988
  968SOL    HW2 3804   3.457   0.599   1.047
  969SOL     OW 3805   2.640   3.709   6.521
  969SOL    HW1 3806   2.589   3.794   6.511
  969SOL    HW2 3807   2.713   3.705   6.453
  970SOL     OW 3808   4.661   6.734   5.148
  970SOL    HW1 3809   4.705   6.739   5.238
  970SOL    HW2 3810   4.563   6.721   5.161
  971SOL     OW 3811   5.236   3.379   3.566
  971SOL    HW1 3812   5.222   3.381   3.467
  971SOL    HW2 3813   5.224   3.471   3.603
  972SOL     OW 3814   0.699   2.016   0.751
  972SOL    HW1 3815   0.634   2.078   0.797
  972SOL    HW2 3816   0.758   2.069   0.690
  973SOL     OW 3817   0.053   2.837   4.713
  973SOL    HW1 3818   7.010   2.770   4.666
  973SOL    HW2 3819   0.037   2.832   4.811
  974SOL     OW 3820   0.481   3.482   2.024
  974SOL    HW1 3821   0.444   3.402   2.072
  974SOL    HW2 3822   0.456   3.477   1.928
  975SOL     OW 3823   2.780   0.317   2.230
  975SOL    HW1 3824   2.684   0.322   2.204
  975SOL    HW2 3825   2.828   0.398   2.197
  976SOL     OW 3826   0.305   2.864   3.835
  976SOL    HW1 3827   0.333   2.938   3.775
  976SOL    HW2 3828   0.379   2.843   3.899
  977SOL     OW 3829   6.224   1.306   2.279
  977SOL    HW1 3830   6.284   1.381   2.253
  977SOL    HW2 3831   6.280   1.227   2.305
  978SOL     OW 3832   4.731   3.128   0.684
  978SOL    HW1 3833   4.792   3.154   0.610
  978SOL    HW2 3834   4.778   3.138   0.772
  979SOL     OW 3835   0.556   5.092   6.455
  979SOL    HW1 3836   0.572   5.127   6.363
  979SOL    HW2 3837   0.458   5.092   6.475
  980SOL     OW 3838   4.443   1.444   4.530
  980SOL    HW1 3839   4.419   1.526   4.582
  980SOL    HW2 3840   4.371   1.425   4.463
  981SOL     OW 3841   0.910   5.916   5.435
  981SOL    HW1 3842   0.892   5.962   5.348
  981SOL    HW2 3843   0.828   5.868   5.465
  982SOL     OW 3844   0.271   0.708   6.771
  982SOL    HW1 3845   0.356   0.657   6.755
  982SOL    HW2 3846   0.208   0.651   6.824
  983SOL     OW 3847   0.345   3.590   3.075
  983SOL    HW1 3848   0.328   3.640   2.990
  983SOL    HW2 3849   0.443   3.584   3.092
  984SOL     OW 3850   0.522   3.358   3.664
  984SOL    HW1 3851   0.488   3.450   3.644
  984SOL    HW2 3852   0.494   3.331   3.756
  985SOL     OW 3853   5.721   5.756   4.847
  985SOL    HW1 3854   5.677   5.715   4.767
  985SOL    HW2 3855   5.706   5.698   4.927
  986SOL     OW 3856   3.824   5.749   1.475
  986SOL    HW1 3857   3.851   5.830   1.527
  986SOL    HW2 3858   3.727   5.729   1.492
  987SOL     OW 3859   4.797   4.622   4.717
  987SOL    HW1 3860   4.804   4.557   4.642
  987SOL    HW2 3861   4.865   4.599   4.787
  988SOL     OW 3862   2.945   4.796   1.950
  988SOL    HW1 3863   3.038   4.769   1.975
  988SOL    HW2 3864   2.884   4.717   1.959
  989SOL     OW 3865   0.333   2.833   0.852
  989SOL    HW1 3866   0.332   2.771   0.773
  989SOL    HW2 3867   0.428   2.852   0.877
  990SOL     OW 3868   3.660   0.305   5.079
  990SOL    HW1 3869   3.665   0.386   5.137
  990SOL    HW2 3870   3.731   0.241   5.105
  991SOL     OW 3871   1.072   5.926   3.974
  991SOL    HW1 3872   1.123   6.011   3.985
  991SOL    HW2 3873   1.107   5.876   3.894
  992SOL     OW 3874   6.413   2.664   0.086
  992SOL    HW1 3875   6.384   2.759   0.077
  992SOL    HW2 3876   6.403   2.635   0.181
  993SOL     OW 3877   2.117   4.826   6.787
  993SOL    HW1 3878   2.056   4.750   6.808
  993SOL    HW2 3879   2.175   4.844   6.867
  994SOL     OW 3880   2.680   0.146   1.644
  994SOL    HW1 3881   2.670   0.086   1.723
  994SOL    HW2 3882   2.604   0.212   1.642
  995SOL     OW 3883   5.816   3.922   5.320
  995SOL    HW1 3884   5.910   3.956   5.328
  995SOL    HW2 3885   5.770   3.967   5.244
  996SOL     OW 3886   4.198   6.435   5.000
  996SOL    HW1 3887   4.236   6.425   5.092
  996SOL    HW2 3888   4.098   6.433   5.004
  997SOL     OW 3889   1.643   6.409   3.361
  997SOL    HW1 3890   1.679   6.417   3.454
  997SOL    HW2 3891   1.549   6.376   3.364
  998SOL     OW 3892   4.641   7.006   0.180
  998SOL    HW1 3893   4.723   0.023   0.228
  998SOL    HW2 3894   4.585   6.952   0.243
  999SOL     OW 3895   5.400   2.940   2.144
  999SOL    HW1 3896   5.377   2.897   2.232
  999SOL    HW2 3897   5.498   2.932   2.128
 1000SOL     OW 3898   5.384   1.921   2.084
 1000SOL    HW1 3899   5.342   2.001   2.125
 1000SOL    HW2 3900   5.340   1.901   1.996
 1001SOL     OW 3901   2.940   6.621   2.814
 1001SOL    HW1 3902   3.022   6.647   2.762
 1001SOL    HW2 3903   2.882   6.701   2.827
 1002SOL     OW 3904   3.888   2.364   0.296
 1002SOL    HW1 3905   3.806   2.318   0.262
 1002SOL    HW2 3906   3.879   2.380   0.394
 1003SOL     OW 3907   0.800   0.790   3.159
 1003SOL    HW1 3908   0.756   0.742   3.235
 1003SOL    HW2 3909   0.899   0.784   3.168
 1004SOL     OW 3910   5.053   1.623   4.236
 1004SOL    HW1 3911   4.980   1.554   4.236
 1004SOL    HW2 3912   5.021   1.705   4.284
 1005SOL     OW 3913   0.621   5.394   1.814
 1005SOL    HW1 3914   0.697   5.333   1.791
 1005SOL    HW2 3915   0.606   5.393   1.913
 1006SOL     OW 3916   2.030   4.323   1.693
 1006SOL    HW1 3917   2.069   4.258   1.758
 1006SOL    HW2 3918   1.935   4.298   1.673
 1007SOL     OW 3919   5.081   1.115   6.322
 1007SOL    HW1 3920   5.068   1.205   6.280
 1007SOL    HW2 3921   5.017   1.050   6.283
 1008SOL     OW 3922   0.310   4.818   4.781
 1008SOL    HW1 3923   0.286   4.760   4.704
 1008SOL    HW2 3924   0.380   4.773   4.836
 1009SOL     OW 3925   6.593   5.766   6.641
 1009SOL    HW1 3926   6.522   5.710   6.599
 1009SOL    HW2 3927   6.626   5.833   6.575
 1010SOL     OW 3928   2.878   3.566   0.451
 1010SOL    HW1 3929   2.941   3.548   0.526
 1010SOL    HW2 3930   2.818   3.643   0.474
 1011SOL     OW 3931   6.614   4.916   2.252
 1011SOL    HW1 3932   6.603   4.959   2.162
 1011SOL    HW2 3933   6.683   4.966   2.304
 1012SOL     OW 3934   5.529   6.072   2.556
 1012SOL    HW1 3935   5.541   6.029   2.467
 1012SOL    HW2 3936   5.592   6.150   2.564
 1013SOL     OW 3937   0.796   0.577   5.886
 1013SOL    HW1 3938   0.800   0.582   5.986
 1013SOL    HW2 3939   0.795   0.670   5.849
 1014SOL     OW 3940   1.064   4.756   4.438
 1014SOL    HW1 3941   1.042   4.659   4.440
 1014SOL    HW2 3942   1.145   4.770   4.381
 1015SOL     OW 3943   2.084   6.391   7.003
 1015SOL    HW1 3944   2.094   6.448   6.922
 1015SOL    HW2 3945   2.172   6.384   0.035
 1016SOL     OW 3946   6.969   4.335   0.922
 1016SOL    HW1 3947   6.897   4.272   0.951
 1016SOL    HW2 3948   6.944   4.376   0.834
 1017SOL     OW 3949   2.134   0.975   2.629
 1017SOL    HW1 3950   2.176   1.023   2.706
 1017SOL    HW2 3951   2.064   0.912   2.662
 1018SOL     OW 3952   6.179   6.256   4.586
 1018SOL    HW1 3953   6.275   6.283   4.572
 1018SOL    HW2 3954   6.174   6.190   4.661
 1019SOL     OW 3955   5.987   4.021   1.277
 1019SOL    HW1 3956   5.987   3.990   1.372
 1019SOL    HW2 3957   6.003   4.119   1.274
 1020SOL     OW 3958   5.261   1.515   1.560
 1020SOL    HW1 3959   5.167   1.522   1.527
 1020SOL    HW2 3960   5.298   1.607   1.573
 1021SOL     OW 3961   1.215   6.924   0.816
 1021SOL    HW1 3962   1.194   6.864   0.893
 1021SOL    HW2 3963   1.266   7.003   0.848
 1022SOL     OW 3964   2.275   4.984   6.416
 1022SOL    HW1 3965   2.186   4.986   6.371
 1022SOL    HW2 3966   2.338   4.926   6.364
 1023SOL     OW 3967   0.643   1.764   2.138
 1023SOL    HW1 3968   0.728   1.776   2.086
 1023SOL    HW2 3969   0.637   1.834   2.208
 1024SOL     OW 3970   1.856   2.042   4.476
 1024SOL    HW1 3971   1.924   2.105   4.513
 1024SOL    HW2 3972   1.902   1.970   4.424
 1025SOL     OW 3973   4.721   4.207   1.075
 1025SOL    HW1 3974   4.632   4.217   1.120
 1025SOL    HW2 3975   4.719   4.127   1.016
 1026SOL     OW 3976   3.189   3.007   2.241
 1026SOL    HW1 3977   3.106   3.059   2.217
 1026SOL    HW2 3978   3.246   2.997   2.160
 1027SOL     OW 3979   6.783   6.563   6.988
 1027SOL    HW1 3980   6.844   6.550   0.051
 1027SOL    HW2 3981   6.800   6.652   6.947
 1028SOL     OW 3982   1.121   4.549   2.832
 1028SOL    HW1 3983   1.185   4.485   2.873
 1028SOL    HW2 3984   1.172   4.620   2.782
 1029SOL     OW 3985   1.096   0.873   4.911
 1029SOL    HW1 3986   1.001   0.901   4.923
 1029SOL    HW2 3987   1.154   0.923   4.976
 1030SOL     OW 3988   3.970   3.344   0.839
 1030SOL    HW1 3989   4.004   3.386   0.755
 1030SOL    HW2 3990   4.044   3.291   0.882
 1031SOL     OW 3991   4.307   3.114   0.427
 1031SOL    HW1 3992   4.347   3.205   0.432
 1031SOL    HW2 3993   4.357   3.059   0.359
 1032SOL     OW 3994   1.509   1.202   1.001
 1032SOL    HW1 3995   1.507   1.290   0.955
 1032SOL    HW2 3996   1.602   1.166   1.000
 1033SOL     OW 3997   6.534   0.155   2.235
 1033SOL    HW1 3998   6.608   0.099   2.197
 1033SOL    HW2 3999   6.573   0.233   2.284
 1034SOL     OW 4000   2.620   0.876   5.262
 1034SOL    HW1 4001   2.591   0.932   5.339
 1034SOL    HW2 4002   2.654   0.934   5.189
 1035SOL     OW 4003   1.873   0.361   0.372
 1035SOL    HW1 4004   1.940   0.433   0.356
 1035SOL    HW2 4005   1.858   0.351   0.471
 1036SOL     OW 4006   4.597   1.390   1.948
 1036SOL    HW1 4007   4.550   1.396   2.036
 1036SOL    HW2 4008   4.656   1.470   1.937
 1037SOL     OW 4009   1.662   3.898   3.039
 1037SOL    HW1 4010   1.733   3.913   2.971
 1037SOL    HW2 4011   1.586   3.961   3.023
 1038SOL     OW 4012   1.863   6.190   0.218
 1038SOL    HW1 4013   1.765   6.167   0.222
 1038SOL    HW2 4014   1.894   6.189   0.123
 1039SOL     OW 4015   3.076   3.881   2.819
 1039SOL    HW1 4016   3.038   3.937   2.893
 1039SOL    HW2 4017   3.172   3.903   2.806
 1040SOL     OW 4018   3.801   1.530   2.891
 1040SOL    HW1 4019   3.893   1.562   2.868
 1040SOL    HW2 4020   3.774   1.568   2.980
 1041SOL     OW 4021   6.640   6.452   6.399
 1041SOL    HW1 4022   6.705   6.516   6.359
 1041SOL    HW2 4023   6.562   6.502   6.437
 1042SOL     OW 4024   5.480   3.724   3.788
 1042SOL    HW1 4025   5.481   3.732   3.888
 1042SOL    HW2 4026   5.567   3.686   3.757
 1043SOL     OW 4027   2.734   1.863   4.096
 1043SOL    HW1 4028   2.749   1.925   4.173
 1043SOL    HW2 4029   2.639   1.871   4.066
 1044SOL     OW 4030   5.584   4.552   2.218
 1044SOL    HW1 4031   5.579   4.493   2.298
 1044SOL    HW2 4032   5.631   4.637   2.242
 1045SOL     OW 4033   2.312   0.286   2.757
 1045SOL    HW1 4034   2.394   0.235   2.731
 1045SOL    HW2 4035   2.338   0.364   2.813
 1046SOL     OW 4036   2.779   2.451   1.209
 1046SOL    HW1 4037   2.856   2.408   1.256
 1046SOL    HW2 4038   2.813   2.513   1.139
 1047SOL     OW 4039   3.812   0.686   3.496
 1047SOL    HW1 4040   3.821   0.724   3.588
 1047SOL    HW2 4041   3.884   0.724   3.437
 1048SOL     OW 4042   0.851   0.189   1.763
 1048SOL    HW1 4043   0.906   0.122   1.813
 1048SOL    HW2 4044   0.771   0.143   1.723
 1049SOL     OW 4045   3.676   6.742   0.321
 1049SOL    HW1 4046   3.705   6.698   0.236
 1049SOL    HW2 4047   3.644   6.835   0.301
 1050SOL     OW 4048   2.318   1.398   4.750
 1050SOL    HW1 4049   2.391   1.390   4.682
 1050SOL    HW2 4050   2.290   1.306   4.780
 1051SOL     OW 4051   1.857   1.957   5.549
 1051SOL    HW1 4052   1.804   1.917   5.474
 1051SOL    HW2 4053   1.803   2.028   5.594
 1052SOL     OW 4054   4.044   2.134   6.819
 1052SOL    HW1 4055   3.975   2.137   6.891
 1052SOL    HW2 4056   4.095   2.048   6.825
 1053SOL     OW 4057   4.868   2.645   4.297
 1053SOL    HW1 4058   4.935   2.676   4.365
 1053SOL    HW2 4059   4.854   2.717   4.230
 1054SOL     OW 4060   4.628   5.628   6.622
 1054SOL    HW1 4061   4.663   5.684   6.546
 1054SOL    HW2 4062   4.641   5.531   6.600
 1055SOL     OW 4063   5.230   5.614   6.681
 1055SOL    HW1 4064   5.247   5.679   6.607
 1055SOL    HW2 4065   5.317   5.574   6.710
 1056SOL     OW 4066   3.751   3.978   0.263
 1056SOL    HW1 4067   3.724   4.012   0.173
 1056SOL    HW2 4068   3.791   3.887   0.254
 1057SOL     OW 4069   3.205   3.451   6.391
 1057SOL    HW1 4070   3.120   3.497   6.366
 1057SOL    HW2 4071   3.265   3.444   6.311
 1058SOL     OW 4072   2.974   2.130   2.095
 1058SOL    HW1 4073   2.931   2.214   2.061
 1058SOL    HW2 4074   3.073   2.141   2.098
 1059SOL     OW 4075   2.381   5.967   2.482
 1059SOL    HW1 4076   2.438   6.011   2.412
 1059SOL    HW2 4077   2.298   5.931   2.439
 1060SOL     OW 4078   5.884   0.432   5.308
 1060SOL    HW1 4079   5.898   0.396   5.401
 1060SOL    HW2 4080   5.884   0.532   5.311
 1061SOL     OW 4081   6.895   3.928   6.519
 1061SOL    HW1 4082   6.991   3.951   6.535
 1061SOL    HW2 4083   6.873   3.842   6.565
 1062SOL     OW 4084   2.967   5.126   5.365
 1062SOL    HW1 4085   2.870   5.111   5.348
 1062SOL    HW2 4086   3.020   5.052   5.324
 1063SOL     OW 4087   3.034   6.456   3.851
 1063SOL    HW1 4088   2.977   6.442   3.769
 1063SOL    HW2 4089   3.099   6.381   3.859
 1064SOL     OW 4090   0.960   3.537   0.396
 1064SOL    HW1 4091   1.042   3.498   0.355
 1064SOL    HW2 4092   0.980   3.566   0.490
 1065SOL     OW 4093   6.238   0.996   4.984
 1065SOL    HW1 4094   6.165   0.985   5.051
 1065SOL    HW2 4095   6.326   0.993   5.031
 1066SOL     OW 4096   4.810   6.142   1.009
 1066SOL    HW1 4097   4.742   6.070   0.999
 1066SOL    HW2 4098   4.858   6.155   0.922
 1067SOL     OW 4099   3.056   1.210   0.168
 1067SOL    HW1 4100   3.055   1.162   0.080
 1067SOL    HW2 4101   3.050   1.308   0.153
 1068SOL     OW 4102   6.078   2.764   1.955
 1068SOL    HW1 4103   6.131   2.767   2.039
 1068SOL    HW2 4104   6.054   2.670   1.932
 1069SOL     OW 4105   0.004   2.772   2.545
 1069SOL    HW1 4106   6.951   2.707   2.509
 1069SOL    HW2 4107   6.990   2.804   2.635
 1070SOL     OW 4108   0.960   0.331   2.323
 1070SOL    HW1 4109   0.998   0.349   2.414
 1070SOL    HW2 4110   0.978   0.409   2.264
 1071SOL     OW 4111   0.661   2.820   6.184
 1071SOL    HW1 4112   0.669   2.723   6.163
 1071SOL    HW2 4113   0.702   2.839   6.273
 1072SOL     OW 4114   2.183   1.431   2.174
 1072SOL    HW1 4115   2.174   1.530   2.162
 1072SOL    HW2 4116   2.154   1.384   2.090
 1073SOL     OW 4117   5.583   2.308   3.026
 1073SOL    HW1 4118   5.642   2.341   2.953
 1073SOL    HW2 4119   5.612   2.216   3.053
 1074SOL     OW 4120   3.267   5.242   1.500
 1074SOL    HW1 4121   3.282   5.312   1.429
 1074SOL    HW2 4122   3.339   5.250   1.569
 1075SOL     OW 4123   6.181   3.964   4.985
 1075SOL    HW1 4124   6.244   3.889   5.010
 1075SOL    HW2 4125   6.220   4.014   4.908
 1076SOL     OW 4126   2.133   4.161   5.162
 1076SOL    HW1 4127   2.205   4.109   5.115
 1076SOL    HW2 4128   2.111   4.117   5.249
 1077SOL     OW 4129   0.071   6.201   0.594
 1077SOL    HW1 4130   0.056   6.232   0.500
 1077SOL    HW2 4131   0.035   6.108   0.605
 1078SOL     OW 4132   5.981   5.989   4.366
 1078SOL    HW1 4133   6.026   6.007   4.453
 1078SOL    HW2 4134   5.902   5.929   4.380
 1079SOL     OW 4135   1.011   6.610   1.254
 1079SOL    HW1 4136   0.935   6.548   1.235
 1079SOL    HW2 4137   1.095   6.556   1.268
 1080SOL     OW 4138   4.539   5.757   0.443
 1080SOL    HW1 4139   4.602   5.690   0.404
 1080SOL    HW2 4140   4.584   5.807   0.517
 1081SOL     OW 4141   6.796   6.271   3.270
 1081SOL    HW1 4142   6.829   6.360   3.238
 1081SOL    HW2 4143   6.697   6.265   3.256
 1082SOL     OW 4144   4.539   6.914   6.953
 1082SOL    HW1 4145   4.439   6.919   6.958
 1082SOL    HW2 4146   4.578   6.976   0.007
 1083SOL     OW 4147   5.840   3.970   2.233
 1083SOL    HW1 4148   5.930   4.005   2.260
 1083SOL    HW2 4149   5.775   3.982   2.308
 1084SOL     OW 4150   5.201   0.793   5.275
 1084SOL    HW1 4151   5.121   0.852   5.264
 1084SOL    HW2 4152   5.226   0.753   5.187
 1085SOL     OW 4153   1.500   3.018   5.182
 1085SOL    HW1 4154   1.561   3.097   5.179
 1085SOL    HW2 4155   1.515   2.966   5.265
 1086SOL     OW 4156   5.929   4.895   1.843
 1086SOL    HW1 4157   5.934   4.965   1.914
 1086SOL    HW2 4158   5.837   4.857   1.839
 1087SOL     OW 4159   3.835   0.398   5.874
 1087SOL    HW1 4160   3.789   0.344   5.945
 1087SOL    HW2 4161   3.893   0.467   5.917
 1088SOL     OW 4162   6.690   5.369   4.402
 1088SOL    HW1 4163   6.701   5.321   4.489
 1088SOL    HW2 4164   6.773   5.359   4.348
 1089SOL     OW 4165   5.720   5.315   4.054
 1089SOL    HW1 4166   5.789   5.378   4.090
 1089SOL    HW2 4167   5.763   5.228   4.031
 1090SOL     OW 4168   5.718   2.677   5.135
 1090SOL    HW1 4169   5.788   2.739   5.170
 1090SOL    HW2 4170   5.686   2.618   5.210
 1091SOL     OW 4171   2.060   3.501   3.069
 1091SOL    HW1 4172   1.991   3.549   3.015
 1091SOL    HW2 4173   2.106   3.566   3.130
 1092SOL     OW 4174   0.929   6.317   0.701
 1092SOL    HW1 4175   0.876   6.288   0.781
 1092SOL    HW2 4176   0.990   6.391   0.728
 1093SOL     OW 4177   1.463   0.557   3.372
 1093SOL    HW1 4178   1.550   0.550   3.323
 1093SOL    HW2 4179   1.446   0.652   3.397
 1094SOL     OW 4180   0.278   6.865   2.705
 1094SOL    HW1 4181   0.272   6.937   2.636
 1094SOL    HW2 4182   0.334   6.789   2.669
 1095SOL     OW 4183   6.188   3.990   0.542
 1095SOL    HW1 4184   6.257   4.041   0.491
 1095SOL    HW2 4185   6.229   3.907   0.580
 1096SOL     OW 4186   2.032   6.159   2.077
 1096SOL    HW1 4187   1.956   6.095   2.070
 1096SOL    HW2 4188   2.095   6.144   2.001
 1097SOL     OW 4189   3.053   6.379   4.426
 1097SOL    HW1 4190   3.009   6.307   4.372
 1097SOL    HW2 4191   3.112   6.434   4.366
 1098SOL     OW 4192   6.870   3.607   0.154
 1098SOL    HW1 4193   6.770   3.606   0.146
 1098SOL    HW2 4194   6.896   3.632   0.247
 1099SOL     OW 4195   5.453   0.685   6.207
 1099SOL    HW1 4196   5.442   0.777   6.246
 1099SOL    HW2 4197   5.452   0.691   6.107
 1100SOL     OW 4198   4.654   1.648   4.912
 1100SOL    HW1 4199   4.687   1.571   4.967
 1100SOL    HW2 4200   4.595   1.614   4.839
 1101SOL     OW 4201   5.094   2.380   6.419
 1101SOL    HW1 4202   5.073   2.406   6.513
 1101SOL    HW2 4203   5.114   2.461   6.365
 1102SOL     OW 4204   3.051   0.783   3.766
 1102SOL    HW1 4205   2.952   0.769   3.768
 1102SOL    HW2 4206   3.094   0.710   3.713
 1103SOL     OW 4207   3.526   6.183   1.145
 1103SOL    HW1 4208   3.496   6.152   1.235
 1103SOL    HW2 4209   3.453   6.167   1.078
 1104SOL     OW 4210   6.867   2.069   4.074
 1104SOL    HW1 4211   6.780   2.105   4.039
 1104SOL    HW2 4212   6.896   2.124   4.152
 1105SOL     OW 4213   4.844   0.740   6.422
 1105SOL    HW1 4214   4.828   0.829   6.379
 1105SOL    HW2 4215   4.925   0.697   6.382
 1106SOL     OW 4216   6.164   1.632   1.271
 1106SOL    HW1 4217   6.126   1.540   1.263
 1106SOL    HW2 4218   6.098   1.692   1.316
 1107SOL     OW 4219   1.079   1.585   0.303
 1107SOL    HW1 4220   1.073   1.613   0.208
 1107SOL    HW2 4221   0.993   1.606   0.349
 1108SOL     OW 4222   2.393   1.697   3.518
 1108SOL    HW1 4223   2.334   1.718   3.440
 1108SOL    HW2 4224   2.380   1.602   3.545
 1109SOL     OW 4225   5.071   1.663   5.188
 1109SOL    HW1 4226   5.120   1.598   5.246
 1109SOL    HW2 4227   5.111   1.663   5.096
 1110SOL     OW 4228   1.465   0.891   2.583
 1110SOL    HW1 4229   1.562   0.913   2.578
 1110SOL    HW2 4230   1.451   0.814   2.645
 1111SOL     OW 4231   5.763   3.298   6.473
 1111SOL    HW1 4232   5.668   3.322   6.454
 1111SOL    HW2 4233   5.811   3.281   6.387
 1112SOL     OW 4234   5.929   0.612   2.790
 1112SOL    HW1 4235   5.844   0.652   2.756
 1112SOL    HW2 4236   5.991   0.685   2.819
 1113SOL     OW 4237   6.500   2.723   3.133
 1113SOL    HW1 4238   6.572   2.789   3.112
 1113SOL    HW2 4239   6.421   2.740   3.074
 1114SOL     OW 4240   3.561   3.279   4.641
 1114SOL    HW1 4241   3.544   3.213   4.714
 1114SOL    HW2 4242   3.481   3.337   4.630
 1115SOL     OW 4243   1.699   4.806   5.792
 1115SOL    HW1 4244   1.783   4.860   5.800
 1115SOL    HW2 4245   1.624   4.867   5.766
 1116SOL     OW 4246   4.235   0.176   0.247
 1116SOL    HW1 4247   4.244   0.255   0.308
 1116SOL    HW2 4248   4.233   0.207   0.152
 1117SOL     OW 4249   1.858   2.476   2.029
 1117SOL    HW1 4250   1.946   2.443   1.993
 1117SOL    HW2 4251   1.869   2.570   2.062
 1118SOL     OW 4252   4.855   6.645   0.299
 1118SOL    HW1 4253   4.825   6.575   0.364
 1118SOL    HW2 4254   4.934   6.610   0.248
 1119SOL     OW 4255   3.404   5.153   3.774
 1119SOL    HW1 4256   3.306   5.135   3.775
 1119SOL    HW2 4257   3.435   5.163   3.679
 1120SOL     OW 4258   6.556   3.814   1.273
 1120SOL    HW1 4259   6.586   3.735   1.219
 1120SOL    HW2 4260   6.603   3.896   1.242
 1121SOL     OW 4261   6.150   4.397   5.601
 1121SOL    HW1 4262   6.108   4.397   5.691
 1121SOL    HW2 4263   6.080   4.381   5.531
 1122SOL     OW 4264   6.132   1.506   1.909
 1122SOL    HW1 4265   6.162   1.412   1.901
 1122SOL    HW2 4266   6.036   1.513   1.878
 1123SOL     OW 4267   3.794   2.022   4.893
 1123SOL    HW1 4268   3.774   2.015   4.795
 1123SOL    HW2 4269   3.722   2.076   4.938
 1124SOL     OW 4270   2.143   3.017   3.750
 1124SOL    HW1 4271   2.178   2.943   3.692
 1124SOL    HW2 4272   2.219   3.077   3.777
 1125SOL     OW 4273   1.208   3.277   3.801
 1125SOL    HW1 4274   1.152   3.283   3.718
 1125SOL    HW2 4275   1.222   3.369   3.838
 1126SOL     OW 4276   4.100   4.873   4.203
 1126SOL    HW1 4277   4.087   4.792   4.145
 1126SOL    HW2 4278   4.096   4.846   4.299
 1127SOL     OW 4279   6.178   6.802   1.025
 1127SOL    HW1 4280   6.229   6.764   1.102
 1127SOL    HW2 4281   6.207   6.757   0.940
 1128SOL     OW 4282   4.435   1.638   4.760
 1128SOL    HW1 4283   4.377   1.714   4.731
 1128SOL    HW2 4284   4.388   1.585   4.831
 1129SOL     OW 4285   1.272   0.739   0.232
 1129SOL    HW1 4286   1.300   0.767   0.324
 1129SOL    HW2 4287   1.183   0.778   0.211
 1130SOL     OW 4288   2.028   5.383   1.981
 1130SOL    HW1 4289   2.024   5.409   1.884
 1130SOL    HW2 4290   2.014   5.285   1.990
 1131SOL     OW 4291   1.649   5.447   3.882
 1131SOL    HW1 4292   1.669   5.522   3.944
 1131SOL    HW2 4293   1.591   5.479   3.807
 1132SOL     OW 4294   1.279   1.668   2.658
 1132SOL    HW1 4295   1.292   1.766   2.641
 1132SOL    HW2 4296   1.205   1.655   2.724
 1133SOL     OW 4297   1.057   6.516   6.800
 1133SOL    HW1 4298   1.084   6.538   6.894
 1133SOL    HW2 4299   1.134   6.473   6.752
 1134SOL     OW 4300   4.700   5.819   0.655
 1134SOL    HW1 4301   4.776   5.871   0.617
 1134SOL    HW2 4302   4.724   5.722   0.658
 1135SOL     OW 4303   1.446   0.064   3.226
 1135SOL    HW1 4304   1.446   0.163   3.242
 1135SOL    HW2 4305   1.533   0.037   3.186
 1136SOL     OW 4306   1.832   4.896   2.150
 1136SOL    HW1 4307   1.796   4.875   2.241
 1136SOL    HW2 4308   1.762   4.878   2.082
 1137SOL     OW 4309   1.054   5.490   4.210
 1137SOL    HW1 4310   0.965   5.447   4.223
 1137SOL    HW2 4311   1.076   5.491   4.113
 1138SOL     OW 4312   1.627   3.670   5.321
 1138SOL    HW1 4313   1.720   3.706   5.324
 1138SOL    HW2 4314   1.616   3.611   5.241
 1139SOL     OW 4315   2.293   5.480   5.000
 1139SOL    HW1 4316   2.311   5.563   5.052
 1139SOL    HW2 4317   2.198   5.480   4.968
 1140SOL     OW 4318   2.066   2.329   1.852
 1140SOL    HW1 4319   2.098   2.238   1.826
 1140SOL    HW2 4320   2.142   2.393   1.847
 1141SOL     OW 4321   6.203   5.012   5.293
 1141SOL    HW1 4322   6.245   4.966   5.215
 1141SOL    HW2 4323   6.235   4.969   5.378
 1142SOL     OW 4324   1.297   5.620   2.680
 1142SOL    HW1 4325   1.290   5.532   2.633
 1142SOL    HW2 4326   1.291   5.694   2.613
 1143SOL     OW 4327   6.860   4.186   2.135
 1143SOL    HW1 4328   6.856   4.100   2.186
 1143SOL    HW2 4329   6.934   4.182   2.068
 1144SOL     OW 4330   4.790   4.216   0.573
 1144SOL    HW1 4331   4.727   4.150   0.533
 1144SOL    HW2 4332   4.836   4.175   0.652
 1145SOL     OW 4333   6.178   0.168   0.277
 1145SOL    HW1 4334   6.134   0.152   0.365
 1145SOL    HW2 4335   6.270   0.129   0.277
 1146SOL     OW 4336   1.305   1.172   1.199
 1146SOL    HW1 4337   1.369   1.185   1.122
 1146SOL    HW2 4338   1.357   1.154   1.282
 1147SOL     OW 4339   2.011   6.344   1.077
 1147SOL    HW1 4340   1.921   6.316   1.109
 1147SOL    HW2 4341   2.033   6.295   0.992
 1148SOL     OW 4342   3.869   6.154   2.195
 1148SOL    HW1 4343   3.776   6.126   2.221
 1148SOL    HW2 4344   3.925   6.073   2.181
 1149SOL     OW 4345   4.884   2.702   1.777
 1149SOL    HW1 4346   4.936   2.617   1.787
 1149SOL    HW2 4347   4.816   2.709   1.849
 1150SOL     OW 4348   1.177   3.049   0.930
 1150SOL    HW1 4349   1.136   2.958   0.917
 1150SOL    HW2 4350   1.117   3.105   0.986
 1151SOL     OW 4351   5.349   5.301   4.466
 1151SOL    HW1 4352   5.400   5.226   4.425
 1151SOL    HW2 4353   5.362   5.384   4.411
 1152SOL     OW 4354   3.603   6.557   6.054
 1152SOL    HW1 4355   3.663   6.636   6.041
 1152SOL    HW2 4356   3.643   6.477   6.009
 1153SOL     OW 4357   5.937   6.835   1.140
 1153SOL    HW1 4358   5.909   6.742   1.162
 1153SOL    HW2 4359   6.024   6.833   1.090
 1154SOL     OW 4360   1.859   3.056   0.853
 1154SOL    HW1 4361   1.855   3.084   0.758
 1154SOL    HW2 4362   1.774   3.009   0.878
 1155SOL     OW 4363   3.657   5.695   3.502
 1155SOL    HW1 4364   3.742   5.644   3.488
 1155SOL    HW2 4365   3.611   5.662   3.584
 1156SOL     OW 4366   2.547   1.136   2.138
 1156SOL    HW1 4367   2.554   1.058   2.201
 1156SOL    HW2 4368   2.638   1.157   2.102
 1157SOL     OW 4369   2.536   1.834   0.874
 1157SOL    HW1 4370   2.455   1.809   0.927
 1157SOL    HW2 4371   2.545   1.772   0.796
 1158SOL     OW 4372   5.551   4.689   3.498
 1158SOL    HW1 4373   5.620   4.757   3.472
 1158SOL    HW2 4374   5.580   4.642   3.581
 1159SOL     OW 4375   5.874   4.431   0.551
 1159SOL    HW1 4376   5.911   4.340   0.569
 1159SOL    HW2 4377   5.774   4.429   0.561
 1160SOL     OW 4378   4.460   2.301   0.311
 1160SOL    HW1 4379   4.375   2.353   0.326
 1160SOL    HW2 4380   4.438   2.205   0.297
 1161SOL     OW 4381   6.397   5.229   1.026
 1161SOL    HW1 4382   6.299   5.214   1.035
 1161SOL    HW2 4383   6.432   5.175   0.950
 1162SOL     OW 4384   2.797   2.235   4.642
 1162SOL    HW1 4385   2.861   2.218   4.566
 1162SOL    HW2 4386   2.732   2.306   4.614
 1163SOL     OW 4387   5.470   2.081   1.754
 1163SOL    HW1 4388   5.478   2.121   1.663
 1163SOL    HW2 4389   5.500   2.146   1.822
 1164SOL     OW 4390   4.412   2.204   5.520
 1164SOL    HW1 4391   4.384   2.299   5.532
 1164SOL    HW2 4392   4.463   2.195   5.434
 1165SOL     OW 4393   4.741   6.839   3.469
 1165SOL    HW1 4394   4.777   6.871   3.556
 1165SOL    HW2 4395   4.649   6.875   3.455
 1166SOL     OW 4396   3.291   4.440   6.514
 1166SOL    HW1 4397   3.335   4.529   6.508
 1166SOL    HW2 4398   3.193   4.450   6.497
 1167SOL     OW 4399   4.759   4.259   3.141
 1167SOL    HW1 4400   4.668   4.299   3.152
 1167SOL    HW2 4401   4.826   4.313   3.192
 1168SOL     OW 4402   0.744   0.375   1.541
 1168SOL    HW1 4403   0.776   0.313   1.612
 1168SOL    HW2 4404   0.716   0.322   1.461
 1169SOL     OW 4405   4.651   1.909   5.556
 1169SOL    HW1 4406   4.587   1.870   5.490
 1169SOL    HW2 4407   4.740   1.921   5.512
 1170SOL     OW 4408   5.017   5.336   2.741
 1170SOL    HW1 4409   5.031   5.399   2.665
 1170SOL    HW2 4410   4.922   5.341   2.772
 1171SOL     OW 4411   0.215   6.107   0.984
 1171SOL    HW1 4412   0.250   6.107   1.077
 1171SOL    HW2 4413   0.119   6.134   0.983
 1172SOL     OW 4414   6.180   3.212   6.317
 1172SOL    HW1 4415   6.215   3.118   6.325
 1172SOL    HW2 4416   6.252   3.277   6.342
 1173SOL     OW 4417   3.516   2.699   0.767
 1173SOL    HW1 4418   3.552   2.766   0.831
 1173SOL    HW2 4419   3.444   2.740   0.711
 1174SOL     OW 4420   2.618   4.957   0.177
 1174SOL    HW1 4421   2.626   5.005   0.264
 1174SOL    HW2 4422   2.542   4.891   0.182
 1175SOL     OW 4423   2.899   3.245   4.078
 1175SOL    HW1 4424   2.803   3.225   4.097
 1175SOL    HW2 4425   2.911   3.260   3.980
 1176SOL     OW 4426   5.560   3.018   6.655
 1176SOL    HW1 4427   5.584   3.083   6.727
 1176SOL    HW2 4428   5.499   2.948   6.693
 1177SOL     OW 4429   1.123   1.752   4.887
 1177SOL    HW1 4430   1.128   1.659   4.924
 1177SOL    HW2 4431   1.097   1.748   4.790
 1178SOL     OW 4432   4.545   6.471   0.161
 1178SOL    HW1 4433   4.567   6.494   0.066
 1178SOL    HW2 4434   4.583   6.541   0.222
 1179SOL     OW 4435   0.261   6.031   0.372
 1179SOL    HW1 4436   0.257   5.985   0.461
 1179SOL    HW2 4437   0.174   6.075   0.353
 1180SOL     OW 4438   3.641   6.236   0.563
 1180SOL    HW1 4439   3.696   6.153   0.560
 1180SOL    HW2 4440   3.546   6.214   0.542
 1181SOL     OW 4441   0.029   6.395   6.436
 1181SOL    HW1 4442   6.998   6.472   6.393
 1181SOL    HW2 4443   0.022   6.403   6.536
 1182SOL     OW 4444   4.928   4.096   2.744
 1182SOL    HW1 4445   4.853   4.163   2.737
 1182SOL    HW2 4446   5.009   4.132   2.698
 1183SOL     OW 4447   1.695   4.108   6.750
 1183SOL    HW1 4448   1.599   4.118   6.777
 1183SOL    HW2 4449   1.719   4.011   6.750
 1184SOL     OW 4450   6.935   0.581   5.547
 1184SOL    HW1 4451   7.005   0.625   5.491
 1184SOL    HW2 4452   6.902   0.498   5.501
 1185SOL     OW 4453   6.218   1.188   6.884
 1185SOL    HW1 4454   6.313   1.204   6.858
 1185SOL    HW2 4455   6.176   1.275   6.912
 1186SOL     OW 4456   5.374   6.945   4.911
 1186SOL    HW1 4457   5.444   7.008   4.877
 1186SOL    HW2 4458   5.345   6.974   5.002
 1187SOL     OW 4459   6.347   1.699   5.765
 1187SOL    HW1 4460   6.323   1.603   5.781
 1187SOL    HW2 4461   6.342   1.719   5.667
 1188SOL     OW 4462   3.209   1.669   6.739
 1188SOL    HW1 4463   3.161   1.734   6.798
 1188SOL    HW2 4464   3.142   1.618   6.685
 1189SOL     OW 4465   5.524   3.345   3.736
 1189SOL    HW1 4466   5.552   3.428   3.785
 1189SOL    HW2 4467   5.511   3.366   3.640
 1190SOL     OW 4468   3.081   0.111   3.698
 1190SOL    HW1 4469   3.044   0.120   3.605
 1190SOL    HW2 4470   3.073   0.016   3.728
 1191SOL     OW 4471   3.973   6.321   3.011
 1191SOL    HW1 4472   3.992   6.268   3.094
 1191SOL    HW2 4473   3.926   6.264   2.944
 1192SOL     OW 4474   5.999   5.831   3.197
 1192SOL    HW1 4475   5.902   5.834   3.174
 1192SOL    HW2 4476   6.040   5.922   3.185
 1193SOL     OW 4477   6.976   5.700   4.716
 1193SOL    HW1 4478   6.907   5.706   4.787
 1193SOL    HW2 4479   6.983   5.788   4.668
 1194SOL     OW 4480   3.855   0.134   1.064
 1194SOL    HW1 4481   3.910   0.143   1.147
 1194SOL    HW2 4482   3.761   0.162   1.083
 1195SOL     OW 4483   4.990   2.443   3.274
 1195SOL    HW1 4484   5.083   2.440   3.311
 1195SOL    HW2 4485   4.952   2.535   3.285
 1196SOL     OW 4486   0.115   6.771   5.061
 1196SOL    HW1 4487   0.017   6.790   5.050
 1196SOL    HW2 4488   0.162   6.854   5.088
 1197SOL     OW 4489   1.905   6.153   0.474
 1197SOL    HW1 4490   2.002   6.158   0.501
 1197SOL    HW2 4491   1.897   6.167   0.376
 1198SOL     OW 4492   1.674   2.537   6.938
 1198SOL    HW1 4493   1.683   2.614   6.876
 1198SOL    HW2 4494   1.754   2.532   6.998
 1199SOL     OW 4495   6.358   3.753   2.027
 1199SOL    HW1 4496   6.296   3.686   2.068
 1199SOL    HW2 4497   6.388   3.721   1.937
 1200SOL     OW 4498   3.434   4.147   2.847
 1200SOL    HW1 4499   3.531   4.128   2.829
 1200SOL    HW2 4500   3.387   4.165   2.761
 1201SOL     OW 4501   1.442   1.901   4.658
 1201SOL    HW1 4502   1.440   1.802   4.640
 1201SOL    HW2 4503   1.398   1.950   4.583
 1202SOL     OW 4504   1.128   5.377   5.131
 1202SOL    HW1 4505   1.185   5.383   5.049
 1202SOL    HW2 4506   1.121   5.467   5.174
 1203SOL     OW 4507   3.626   6.071   5.528
 1203SOL    HW1 4508   3.572   6.101   5.449
 1203SOL    HW2 4509   3.577   5.997   5.574
 1204SOL     OW 4510   1.932   6.853   3.137
 1204SOL    HW1 4511   1.852   6.816   3.091
 1204SOL    HW2 4512   1.956   6.942   3.098
 1205SOL     OW 4513   5.764   3.656   1.966
 1205SOL    HW1 4514   5.807   3.670   2.055
 1205SOL    HW2 4515   5.668   3.631   1.979
 1206SOL     OW 4516   3.426   3.539   4.582
 1206SOL    HW1 4517   3.430   3.551   4.681
 1206SOL    HW2 4518   3.406   3.626   4.539
 1207SOL     OW 4519   1.332   6.035   2.541
 1207SOL    HW1 4520   1.393   5.957   2.529
 1207SOL    HW2 4521   1.245   6.004   2.582
 1208SOL     OW 4522   3.163   3.771   6.202
 1208SOL    HW1 4523   3.145   3.859   6.160
 1208SOL    HW2 4524   3.173   3.701   6.130
 1209SOL     OW 4525   3.778   6.399   5.259
 1209SOL    HW1 4526   3.774   6.494   5.292
 1209SOL    HW2 4527   3.695   6.378   5.208
 1210SOL     OW 4528   3.640   1.335   2.825
 1210SOL    HW1 4529   3.578   1.358   2.750
 1210SOL    HW2 4530   3.707   1.408   2.836
 1211SOL     OW 4531   0.763   2.604   0.571
 1211SOL    HW1 4532   0.722   2.672   0.510
 1211SOL    HW2 4533   0.807   2.533   0.517
 1212SOL     OW 4534   1.294   0.287   0.358
 1212SOL    HW1 4535   1.358   0.224   0.314
 1212SOL    HW2 4536   1.244   0.339   0.288
 1213SOL     OW 4537   5.405   3.195   1.353
 1213SOL    HW1 4538   5.316   3.239   1.362
 1213SOL    HW2 4539   5.395   3.109   1.303
 1214SOL     OW 4540   0.044   2.776   2.190
 1214SOL    HW1 4541   7.002   2.837   2.135
 1214SOL    HW2 4542   7.002   2.701   2.224
 1215SOL     OW 4543   1.792   5.989   2.687
 1215SOL    HW1 4544   1.784   5.890   2.680
 1215SOL    HW2 4545   1.849   6.013   2.766
 1216SOL     OW 4546   3.807   6.976   1.823
 1216SOL    HW1 4547   3.799   0.057   1.848
 1216SOL    HW2 4548   3.785   6.964   1.726
 1217SOL     OW 4549   2.799   4.571   6.874
 1217SOL    HW1 4550   2.856   4.551   6.953
 1217SOL    HW2 4551   2.730   4.499   6.862
 1218SOL     OW 4552   2.567   5.006   3.241
 1218SOL    HW1 4553   2.473   4.982   3.267
 1218SOL    HW2 4554   2.614   5.046   3.320
 1219SOL     OW 4555   3.668   5.951   1.959
 1219SOL    HW1 4556   3.596   6.017   1.939
 1219SOL    HW2 4557   3.686   5.950   2.057
 1220SOL     OW 4558   0.932   4.685   2.238
 1220SOL    HW1 4559   0.853   4.624   2.249
 1220SOL    HW2 4560   0.961   4.685   2.143
 1221SOL     OW 4561   4.753   4.413   6.276
 1221SOL    HW1 4562   4.683   4.363   6.226
 1221SOL    HW2 4563   4.816   4.456   6.212
 1222SOL     OW 4564   6.808   0.777   6.279
 1222SOL    HW1 4565   6.848   0.724   6.204
 1222SOL    HW2 4566   6.821   0.875   6.261
 1223SOL     OW 4567   3.685   6.320   0.980
 1223SOL    HW1 4568   3.782   6.309   1.001
 1223SOL    HW2 4569   3.629   6.275   1.050
 1224SOL     OW 4570   3.166   0.922   1.858
 1224SOL    HW1 4571   3.246   0.889   1.809
 1224SOL    HW2 4572   3.186   0.927   1.956
 1225SOL     OW 4573   2.737   3.548   5.868
 1225SOL    HW1 4574   2.663   3.577   5.807
 1225SOL    HW2 4575   2.819   3.601   5.848
 1226SOL     OW 4576   2.041   5.238   0.214
 1226SOL    HW1 4577   2.078   5.146   0.213
 1226SOL    HW2 4578   2.002   5.259   0.124
 1227SOL     OW 4579   0.682   3.672   5.985
 1227SOL    HW1 4580   0.774   3.700   6.014
 1227SOL    HW2 4581   0.686   3.580   5.947
 1228SOL     OW 4582   3.954   1.872   0.061
 1228SOL    HW1 4583   3.875   1.933   0.055
 1228SOL    HW2 4584   4.017   1.906   0.130
 1229SOL     OW 4585   2.773   4.411   6.383
 1229SOL    HW1 4586   2.681   4.430   6.416
 1229SOL    HW2 4587   2.768   4.370   6.292
 1230SOL     OW 4588   4.759   0.523   3.748
 1230SOL    HW1 4589   4.844   0.569   3.777
 1230SOL    HW2 4590   4.696   0.519   3.825
 1231SOL     OW 4591   1.264   3.555   4.370
 1231SOL    HW1 4592   1.175   3.599   4.382
 1231SOL    HW2 4593   1.310   3.549   4.458
 1232SOL     OW 4594   2.105   2.832   3.009
 1232SOL    HW1 4595   2.142   2.822   2.916
 1232SOL    HW2 4596   2.114   2.927   3.039
 1233SOL     OW 4597   1.030   2.663   4.205
 1233SOL    HW1 4598   0.931   2.672   4.213
 1233SOL    HW2 4599   1.074   2.735   4.258
 1234SOL     OW 4600   6.585   4.470   4.033
 1234SOL    HW1 4601   6.569   4.528   4.113
 1234SOL    HW2 4602   6.639   4.390   4.060
 1235SOL     OW 4603   6.774   5.776   3.784
 1235SOL    HW1 4604   6.748   5.850   3.847
 1235SOL    HW2 4605   6.726   5.789   3.697
 1236SOL     OW 4606   5.780   0.744   6.301
 1236SOL    HW1 4607   5.699   0.686   6.310
 1236SOL    HW2 4608   5.771   0.802   6.219
 1237SOL     OW 4609   1.845   4.709   6.040
 1237SOL    HW1 4610   1.828   4.718   5.942
 1237SOL    HW2 4611   1.813   4.619   6.071
 1238SOL     OW 4612   1.558   1.452   0.878
 1238SOL    HW1 4613   1.657   1.449   0.862
 1238SOL    HW2 4614   1.516   1.516   0.813
 1239SOL     OW 4615   0.986   0.391   5.766
 1239SOL    HW1 4616   0.921   0.466   5.778
 1239SOL    HW2 4617   0.937   0.308   5.738
 1240SOL     OW 4618   4.428   5.611   1.463
 1240SOL    HW1 4619   4.520   5.583   1.437
 1240SOL    HW2 4620   4.362   5.574   1.398
 1241SOL     OW 4621   0.199   1.947   4.335
 1241SOL    HW1 4622   0.159   2.031   4.298
 1241SOL    HW2 4623   0.249   1.969   4.419
 1242SOL     OW 4624   2.226   2.395   6.399
 1242SOL    HW1 4625   2.164   2.380   6.322
 1242SOL    HW2 4626   2.312   2.435   6.366
 1243SOL     OW 4627   2.319   5.002   4.957
 1243SOL    HW1 4628   2.249   5.024   5.025
 1243SOL    HW2 4629   2.397   4.960   5.002
 1244SOL     OW 4630   0.135   1.895   2.568
 1244SOL    HW1 4631   0.123   1.892   2.667
 1244SOL    HW2 4632   0.171   1.984   2.541
 1245SOL     OW 4633   2.670   3.307   5.553
 1245SOL    HW1 4634   2.710   3.398   5.563
 1245SOL    HW2 4635   2.718   3.258   5.480
 1246SOL     OW 4636   1.206   6.842   1.357
 1246SOL    HW1 4637   1.150   6.907   1.306
 1246SOL    HW2 4638   1.187   6.749   1.325
 1247SOL     OW 4639   1.129   6.762   6.420
 1247SOL    HW1 4640   1.090   6.698   6.354
 1247SOL    HW2 4641   1.228   6.770   6.405
 1248SOL     OW 4642   2.293   6.500   3.837
 1248SOL    HW1 4643   2.272   6.416   3.786
 1248SOL    HW2 4644   2.342   6.564   3.777
 1249SOL     OW 4645   5.773   2.875   2.807
 1249SOL    HW1 4646   5.835   2.953   2.801
 1249SOL    HW2 4647   5.801   2.815   2.881
 1250SOL     OW 4648   0.134   3.932   4.073
 1250SOL    HW1 4649   0.045   3.892   4.095
 1250SOL    HW2 4650   0.134   3.960   3.977
 1251SOL     OW 4651   3.447   0.621   6.165
 1251SOL    HW1 4652   3.368   0.567   6.196
 1251SOL    HW2 4653   3.432   0.717   6.187
 1252SOL     OW 4654   2.964   3.788   0.099
 1252SOL    HW1 4655   3.001   3.710   0.149
 1252SOL    HW2 4656   3.012   3.871   0.127
 1253SOL     OW 4657   4.528   0.688   2.692
 1253SOL    HW1 4658   4.523   0.779   2.732
 1253SOL    HW2 4659   4.497   0.620   2.759
 1254SOL     OW 4660   5.482   1.464   3.189
 1254SOL    HW1 4661   5.464   1.481   3.092
 1254SOL    HW2 4662   5.432   1.530   3.245
 1255SOL     OW 4663   6.039   0.303   1.023
 1255SOL    HW1 4664   6.116   0.352   0.981
 1255SOL    HW2 4665   6.074   0.225   1.075
 1256SOL     OW 4666   5.078   2.452   3.850
 1256SOL    HW1 4667   5.104   2.437   3.754
 1256SOL    HW2 4668   5.030   2.371   3.884
 1257SOL     OW 4669   6.147   0.902   4.180
 1257SOL    HW1 4670   6.047   0.892   4.189
 1257SOL    HW2 4671   6.167   0.984   4.127
 1258SOL     OW 4672   0.107   5.363   3.415
 1258SOL    HW1 4673   0.030   5.316   3.371
 1258SOL    HW2 4674   0.155   5.299   3.474
 1259SOL     OW 4675   5.080   2.221   4.870
 1259SOL    HW1 4676   5.046   2.129   4.892
 1259SOL    HW2 4677   5.039   2.252   4.784
 1260SOL     OW 4678   0.318   1.492   4.971
 1260SOL    HW1 4679   0.347   1.559   5.039
 1260SOL    HW2 4680   0.377   1.411   4.976
 1261SOL     OW 4681   6.511   3.861   0.851
 1261SOL    HW1 4682   6.562   3.783   0.888
 1261SOL    HW2 4683   6.481   3.919   0.927
 1262SOL     OW 4684   5.232   6.424   2.157
 1262SOL    HW1 4685   5.202   6.363   2.230
 1262SOL    HW2 4686   5.229   6.519   2.190
 1263SOL     OW 4687   0.124   2.443   3.567
 1263SOL    HW1 4688   0.152   2.469   3.475
 1263SOL    HW2 4689   0.123   2.525   3.626
 1264SOL     OW 4690   0.945   2.578   5.246
 1264SOL    HW1 4691   0.984   2.593   5.155
 1264SOL    HW2 4692   0.991   2.502   5.290
 1265SOL     OW 4693   5.574   0.343   5.497
 1265SOL    HW1 4694   5.668   0.326   5.527
 1265SOL    HW2 4695   5.523   0.257   5.494
 1266SOL     OW 4696   2.909   1.658   5.226
 1266SOL    HW1 4697   2.953   1.582   5.273
 1266SOL    HW2 4698   2.954   1.744   5.251
 1267SOL     OW 4699   3.320   6.929   2.498
 1267SOL    HW1 4700   3.318   6.840   2.454
 1267SOL    HW2 4701   3.260   6.992   2.448
 1268SOL     OW 4702   3.935   2.303   5.359
 1268SOL    HW1 4703   3.908   2.302   5.262
 1268SOL    HW2 4704   3.915   2.215   5.400
 1269SOL     OW 4705   5.385   1.693   3.749
 1269SOL    HW1 4706   5.469   1.747   3.742
 1269SOL    HW2 4707   5.408   1.597   3.761
 1270SOL     OW 4708   6.218   5.136   3.454
 1270SOL    HW1 4709   6.257   5.100   3.369
 1270SOL    HW2 4710   6.254   5.228   3.470
 1271SOL     OW 4711   1.688   1.132   1.808
 1271SOL    HW1 4712   1.667   1.213   1.754
 1271SOL    HW2 4713   1.618   1.119   1.878
 1272SOL     OW 4714   5.980   2.674   0.806
 1272SOL    HW1 4715   6.063   2.618   0.800
 1272SOL    HW2 4716   5.918   2.634   0.874
 1273SOL     OW 4717   2.005   4.416   5.607
 1273SOL    HW1 4718   2.052   4.500   5.582
 1273SOL    HW2 4719   1.968   4.373   5.524
 1274SOL     OW 4720   0.031   4.270   4.043
 1274SOL    HW1 4721   0.093   4.264   3.964
 1274SOL    HW2 4722   6.952   4.254   4.013
 1275SOL     OW 4723   2.005   1.574   3.051
 1275SOL    HW1 4724   1.955   1.656   3.023
 1275SOL    HW2 4725   1.941   1.509   3.092
 1276SOL     OW 4726   5.377   4.137   3.842
 1276SOL    HW1 4727   5.468   4.136   3.884
 1276SOL    HW2 4728   5.375   4.071   3.766
 1277SOL     OW 4729   1.211   5.716   6.672
 1277SOL    HW1 4730   1.141   5.780   6.640
 1277SOL    HW2 4731   1.168   5.639   6.719
 1278SOL     OW 4732   0.368   6.062   2.495
 1278SOL    HW1 4733   0.274   6.045   2.525
 1278SOL    HW2 4734   0.430   6.007   2.549
 1279SOL     OW 4735   2.920   3.320   0.774
 1279SOL    HW1 4736   2.977   3.241   0.750
 1279SOL    HW2 4737   2.961   3.403   0.736
 1280SOL     OW 4738   2.656   2.403   4.075
 1280SOL    HW1 4739   2.691   2.398   3.981
 1280SOL    HW2 4740   2.725   2.367   4.138
 1281SOL     OW 4741   5.348   6.146   5.172
 1281SOL    HW1 4742   5.439   6.104   5.170
 1281SOL    HW2 4743   5.289   6.101   5.105
 1282SOL     OW 4744   0.270   3.052   1.481
 1282SOL    HW1 4745   0.330   3.036   1.559
 1282SOL    HW2 4746   0.298   2.994   1.404
 1283SOL     OW 4747   0.242   1.316   4.353
 1283SOL    HW1 4748   0.297   1.233   4.360
 1283SOL    HW2 4749   0.208   1.326   4.259
 1284SOL     OW 4750   3.624   1.883   1.702
 1284SOL    HW1 4751   3.673   1.964   1.671
 1284SOL    HW2 4752   3.526   1.896   1.686
 1285SOL     OW 4753   4.199   1.585   4.402
 1285SOL    HW1 4754   4.178   1.673   4.443
 1285SOL    HW2 4755   4.227   1.598   4.307
 1286SOL     OW 4756   4.682   1.141   1.977
 1286SOL    HW1 4757   4.637   1.230   1.975
 1286SOL    HW2 4758   4.777   1.152   2.006
 1287SOL     OW 4759   4.889   4.942   6.186
 1287SOL    HW1 4760   4.949   5.021   6.172
 1287SOL    HW2 4761   4.846   4.917   6.100
 1288SOL     OW 4762   4.447   4.328   6.392
 1288SOL    HW1 4763   4.432   4.352   6.488
 1288SOL    HW2 4764   4.424   4.407   6.334
 1289SOL     OW 4765   0.375   6.958   0.664
 1289SOL    HW1 4766   0.317   6.952   0.582
 1289SOL    HW2 4767   0.452   0.004   0.646
 1290SOL     OW 4768   1.425   6.361   5.516
 1290SOL    HW1 4769   1.473   6.372   5.603
 1290SOL    HW2 4770   1.476   6.408   5.444
 1291SOL     OW 4771   5.486   5.545   3.582
 1291SOL    HW1 4772   5.510   5.530   3.678
 1291SOL    HW2 4773   5.504   5.640   3.557
 1292SOL     OW 4774   0.447   6.678   2.568
 1292SOL    HW1 4775   0.528   6.689   2.510
 1292SOL    HW2 4776   0.473   6.631   2.652
 1293SOL     OW 4777   4.933   0.616   1.422
 1293SOL    HW1 4778   4.968   0.625   1.329
 1293SOL    HW2 4779   4.833   0.619   1.420
 1294SOL     OW 4780   2.167   4.495   5.257
 1294SOL    HW1 4781   2.203   4.463   5.170
 1294SOL    HW2 4782   2.188   4.593   5.268
 1295SOL     OW 4783   6.826   4.635   0.243
 1295SOL    HW1 4784   6.853   4.664   0.335
 1295SOL    HW2 4785   6.878   4.554   0.217
 1296SOL     OW 4786   4.727   0.475   5.815
 1296SOL    HW1 4787   4.686   0.530   5.742
 1296SOL    HW2 4788   4.802   0.525   5.856
 1297SOL     OW 4789   6.388   6.558   6.726
 1297SOL    HW1 4790   6.326   6.628   6.760
 1297SOL    HW2 4791   6.422   6.503   6.803
 1298SOL     OW 4792   5.368   0.176   3.422
 1298SOL    HW1 4793   5.272   0.171   3.394
 1298SOL    HW2 4794   5.411   0.254   3.377
 1299SOL     OW 4795   1.079   3.744   4.569
 1299SOL    HW1 4796   0.986   3.781   4.561
 1299SOL    HW2 4797   1.145   3.819   4.573
 1300SOL     OW 4798   1.392   5.724   0.235
 1300SOL    HW1 4799   1.353   5.807   0.195
 1300SOL    HW2 4800   1.325   5.682   0.296
 1301SOL     OW 4801   6.363   1.021   0.184
 1301SOL    HW1 4802   6.385   1.056   0.275
 1301SOL    HW2 4803   6.420   1.068   0.116
 1302SOL     OW 4804   6.716   6.861   5.233
 1302SOL    HW1 4805   6.771   6.865   5.150
 1302SOL    HW2 4806   6.732   6.775   5.281
 1303SOL     OW 4807   3.169   6.619   1.723
 1303SOL    HW1 4808   3.102   6.651   1.656
 1303SOL    HW2 4809   3.259   6.656   1.701
 1304SOL     OW 4810   0.454   0.509   0.498
 1304SOL    HW1 4811   0.400   0.467   0.571
 1304SOL    HW2 4812   0.470   0.605   0.519
 1305SOL     OW 4813   4.258   4.213   6.227
 1305SOL    HW1 4814   4.303   4.255   6.306
 1305SOL    HW2 4815   4.166   4.251   6.216
 1306SOL     OW 4816   2.880   6.778   4.091
 1306SOL    HW1 4817   2.902   6.681   4.096
 1306SOL    HW2 4818   2.960   6.832   4.119
 1307SOL     OW 4819   2.185   3.018   4.363
 1307SOL    HW1 4820   2.148   3.108   4.343
 1307SOL    HW2 4821   2.243   3.022   4.444
 1308SOL     OW 4822   6.788   3.416   5.972
 1308SOL    HW1 4823   6.882   3.451   5.975
 1308SOL    HW2 4824   6.742   3.453   5.891
 1309SOL     OW 4825   5.592   3.856   6.638
 1309SOL    HW1 4826   5.499   3.848   6.674
 1309SOL    HW2 4827   5.620   3.952   6.637
 1310SOL     OW 4828   2.132   3.682   3.303
 1310SOL    HW1 4829   2.101   3.612   3.367
 1310SOL    HW2 4830   2.226   3.708   3.324
 1311SOL     OW 4831   5.292   5.161   0.465
 1311SOL    HW1 4832   5.330   5.112   0.544
 1311SOL    HW2 4833   5.230   5.101   0.415
 1312SOL     OW 4834   2.451   1.218   6.529
 1312SOL    HW1 4835   2.452   1.290   6.597
 1312SOL    HW2 4836   2.482   1.254   6.441
 1313SOL     OW 4837   5.729   4.986   1.579
 1313SOL    HW1 4838   5.798   4.921   1.611
 1313SOL    HW2 4839   5.694   5.037   1.657
 1314SOL     OW 4840   2.176   1.122   3.651
 1314SOL    HW1 4841   2.108   1.100   3.721
 1314SOL    HW2 4842   2.268   1.116   3.690
 1315SOL     OW 4843   6.345   0.548   3.283
 1315SOL    HW1 4844   6.385   0.515   3.368
 1315SOL    HW2 4845   6.398   0.625   3.249
 1316SOL     OW 4846   5.145   6.982   6.082
 1316SOL    HW1 4847   5.231   0.018   6.081
 1316SOL    HW2 4848   5.069   0.031   6.096
 1317SOL     OW 4849   3.764   2.963   4.931
 1317SOL    HW1 4850   3.806   2.982   5.020
 1317SOL    HW2 4851   3.824   2.904   4.878
 1318SOL     OW 4852   1.738   1.977   6.213
 1318SOL    HW1 4853   1.661   2.039   6.204
 1318SOL    HW2 4854   1.705   1.884   6.226
 1319SOL     OW 4855   6.845   0.926   0.362
 1319SOL    HW1 4856   6.850   1.020   0.394
 1319SOL    HW2 4857   6.932   0.880   0.382
 1320SOL     OW 4858   2.824   3.178   6.056
 1320SOL    HW1 4859   2.795   3.173   5.960
 1320SOL    HW2 4860   2.793   3.097   6.104
 1321SOL     OW 4861   6.964   2.473   0.971
 1321SOL    HW1 4862   0.011   2.396   0.960
 1321SOL    HW2 4863   6.953   2.520   0.883
 1322SOL     OW 4864   3.119   2.584   0.130
 1322SOL    HW1 4865   3.140   2.564   0.034
 1322SOL    HW2 4866   3.034   2.637   0.135
 1323SOL     OW 4867   3.993   0.129   1.421
 1323SOL    HW1 4868   4.042   0.188   1.357
 1323SOL    HW2 4869   3.928   0.184   1.474
 1324SOL     OW 4870   2.180   3.951   5.862
 1324SOL    HW1 4871   2.273   3.918   5.849
 1324SOL    HW2 4872   2.124   3.924   5.784
 1325SOL     OW 4873   3.753   6.288   4.848
 1325SOL    HW1 4874   3.691   6.210   4.843
 1325SOL    HW2 4875   3.774   6.321   4.756
 1326SOL     OW 4876   4.870   1.174   4.926
 1326SOL    HW1 4877   4.793   1.238   4.933
 1326SOL    HW2 4878   4.945   1.206   4.983
 1327SOL     OW 4879   4.959   6.006   2.519
 1327SOL    HW1 4880   4.870   5.960   2.515
 1327SOL    HW2 4881   4.965   6.060   2.603
 1328SOL     OW 4882   2.447   1.765   6.117
 1328SOL    HW1 4883   2.369   1.702   6.115
 1328SOL    HW2 4884   2.414   1.858   6.131
 1329SOL     OW 4885   1.452   3.116   3.856
 1329SOL    HW1 4886   1.418   3.023   3.872
 1329SOL    HW2 4887   1.379   3.171   3.814
 1330SOL     OW 4888   6.172   3.200   3.153
 1330SOL    HW1 4889   6.183   3.267   3.080
 1330SOL    HW2 4890   6.098   3.229   3.213
 1331SOL     OW 4891   4.522   2.451   3.558
 1331SOL    HW1 4892   4.555   2.448   3.652
 1331SOL    HW2 4893   4.583   2.508   3.503
 1332SOL     OW 4894   2.267   5.560   0.171
 1332SOL    HW1 4895   2.267   5.507   0.086
 1332SOL    HW2 4896   2.184   5.614   0.176
 1333SOL     OW 4897   3.487   3.507   2.749
 1333SOL    HW1 4898   3.500   3.408   2.755
 1333SOL    HW2 4899   3.469   3.544   2.840
 1334SOL     OW 4900   6.786   4.027   1.491
 1334SOL    HW1 4901   6.835   4.101   1.536
 1334SOL    HW2 4902   6.757   4.057   1.400
 1335SOL     OW 4903   6.999   3.358   3.090
 1335SOL    HW1 4904   6.978   3.428   3.021
 1335SOL    HW2 4905   0.044   3.397   3.160
 1336SOL     OW 4906   2.145   6.818   5.542
 1336SOL    HW1 4907   2.239   6.839   5.517
 1336SOL    HW2 4908   2.114   6.737   5.493
 1337SOL     OW 4909   0.524   0.025   1.980
 1337SOL    HW1 4910   0.533   6.983   1.898
 1337SOL    HW2 4911   0.502   0.119   1.954
 1338SOL     OW 4912   6.908   3.863   4.729
 1338SOL    HW1 4913   6.832   3.895   4.673
 1338SOL    HW2 4914   6.994   3.872   4.678
 1339SOL     OW 4915   5.482   1.300   6.594
 1339SOL    HW1 4916   5.429   1.382   6.571
 1339SOL    HW2 4917   5.550   1.283   6.523
 1340SOL     OW 4918   3.091   2.841   1.542
 1340SOL    HW1 4919   3.179   2.810   1.506
 1340SOL    HW2 4920   3.099   2.936   1.573
 1341SOL     OW 4921   5.438   5.485   6.180
 1341SOL    HW1 4922   5.475   5.434   6.103
 1341SOL    HW2 4923   5.513   5.532   6.228
 1342SOL     OW 4924   1.725   5.788   1.182
 1342SOL    HW1 4925   1.761   5.704   1.222
 1342SOL    HW2 4926   1.745   5.865   1.243
 1343SOL     OW 4927   4.930   6.146   2.730
 1343SOL    HW1 4928   4.851   6.192   2.689
 1343SOL    HW2 4929   4.950   6.188   2.819
 1344SOL     OW 4930   0.998   0.774   4.481
 1344SOL    HW1 4931   1.062   0.699   4.498
 1344SOL    HW2 4932   0.915   0.738   4.437
 1345SOL     OW 4933   1.866   6.787   6.236
 1345SOL    HW1 4934   1.812   6.862   6.274
 1345SOL    HW2 4935   1.821   6.753   6.153
 1346SOL     OW 4936   2.931   5.301   4.400
 1346SOL    HW1 4937   2.832   5.297   4.384
 1346SOL    HW2 4938   2.977   5.334   4.318
 1347SOL     OW 4939   1.844   0.544   6.201
 1347SOL    HW1 4940   1.848   0.637   6.165
 1347SOL    HW2 4941   1.751   0.508   6.192
 1348SOL     OW 4942   1.318   6.628   5.270
 1348SOL    HW1 4943   1.362   6.609   5.183
 1348SOL    HW2 4944   1.346   6.719   5.303
 1349SOL     OW 4945   5.123   3.940   4.184
 1349SOL    HW1 4946   5.112   3.944   4.084
 1349SOL    HW2 4947   5.170   4.022   4.215
 1350SOL     OW 4948   4.563   4.803   6.557
 1350SOL    HW1 4949   4.597   4.842   6.642
 1350SOL    HW2 4950   4.629   4.737   6.522
 1351SOL     OW 4951   0.273   1.849   6.142
 1351SOL    HW1 4952   0.369   1.825   6.131
 1351SOL    HW2 4953   0.266   1.932   6.198
 1352SOL     OW 4954   0.235   0.914   2.431
 1352SOL    HW1 4955   0.176   0.942   2.355
 1352SOL    HW2 4956   0.301   0.986   2.450
 1353SOL     OW 4957   6.289   1.359   6.579
 1353SOL    HW1 4958   6.225   1.414   6.633
 1353SOL    HW2 4959   6.258   1.354   6.484
 1354SOL     OW 4960   5.030   5.110   3.216
 1354SOL    HW1 4961   5.069   5.105   3.124
 1354SOL    HW2 4962   5.073   5.185   3.267
 1355SOL     OW 4963   4.478   3.517   5.321
 1355SOL    HW1 4964   4.403   3.480   5.265
 1355SOL    HW2 4965   4.560   3.525   5.264
 1356SOL     OW 4966   2.707   3.119   6.742
 1356SOL    HW1 4967   2.743   3.136   6.834
 1356SOL    HW2 4968   2.608   3.103   6.748
 1357SOL     OW 4969   1.277   2.508   5.544
 1357SOL    HW1 4970   1.197   2.458   5.510
 1357SOL    HW2 4971   1.310   2.466   5.628
 1358SOL     OW 4972   2.837   0.096   6.581
 1358SOL    HW1 4973   2.936   0.106   6.585
 1358SOL    HW2 4974   2.807   0.087   6.486
 1359SOL     OW 4975   6.236   4.542   0.228
 1359SOL    HW1 4976   6.160   4.572   0.285
 1359SOL    HW2 4977   6.314   4.518   0.285
 1360SOL     OW 4978   2.464   2.168   0.197
 1360SOL    HW1 4979   2.381   2.122   0.164
 1360SOL    HW2 4980   2.457   2.266   0.179
 1361SOL     OW 4981   6.527   5.069   5.175
 1361SOL    HW1 4982   6.619   5.061   5.213
 1361SOL    HW2 4983   6.479   5.144   5.218
 1362SOL     OW 4984   3.187   4.085   4.250
 1362SOL    HW1 4985   3.159   4.067   4.156
 1362SOL    HW2 4986   3.284   4.109   4.252
 1363SOL     OW 4987   0.610   6.643   3.082
 1363SOL    HW1 4988   0.683   6.619   3.146
 1363SOL    HW2 4989   0.646   6.702   3.010
 1364SOL     OW 4990   4.158   4.245   0.185
 1364SOL    HW1 4991   4.067   4.280   0.207
 1364SOL    HW2 4992   4.162   4.223   0.088
 1365SOL     OW 4993   6.091   2.546   6.469
 1365SOL    HW1 4994   5.992   2.561   6.464
 1365SOL    HW2 4995   6.137   2.633   6.484
 1366SOL     OW 4996   2.033   0.054   5.539
 1366SOL    HW1 4997   2.101   0.100   5.482
 1366SOL    HW2 4998   2.048   6.971   5.536
 1367SOL     OW 4999   2.873   1.595   2.568
 1367SOL    HW1 5000   2.906   1.648   2.646
 1367SOL    HW2 5001   2.773   1.592   2.569
 1368SOL     OW 5002   0.116   0.405   3.062
 1368SOL    HW1 5003   0.102   0.498   3.096
 1368SOL    HW2 5004   0.052   0.343   3.108
 1369SOL     OW 5005   0.314   0.510   2.087
 1369SOL    HW1 5006   0.244   0.577   2.110
 1369SOL    HW2 5007   0.271   0.428   2.052
 1370SOL     OW 5008   1.977   0.845   2.429
 1370SOL    HW1 5009   1.929   0.789   2.496
 1370SOL    HW2 5010   2.055   0.891   2.472
 1371SOL     OW 5011   3.129   0.712   6.716
 1371SOL    HW1 5012   3.158   0.639   6.655
 1371SOL    HW2 5013   3.055   0.764   6.673
 1372SOL     OW 5014   2.628   1.913   1.763
 1372SOL    HW1 5015   2.711   1.896   1.710
 1372SOL    HW2 5016   2.634   2.001   1.809
 1373SOL     OW 5017   1.627   6.124   0.170
 1373SOL    HW1 5018   1.555   6.182   0.209
 1373SOL    HW2 5019   1.618   6.122   0.070
 1374SOL     OW 5020   4.987   3.969   5.874
 1374SOL    HW1 5021   5.020   3.875   5.864
 1374SOL    HW2 5022   5.055   4.032   5.837
 1375SOL     OW 5023   0.621   3.978   4.518
 1375SOL    HW1 5024   0.601   4.025   4.604
 1375SOL    HW2 5025   0.567   4.019   4.445
 1376SOL     OW 5026   5.303   0.852   2.200
 1376SOL    HW1 5027   5.401   0.865   2.183
 1376SOL    HW2 5028   5.279   0.757   2.183
 1377SOL     OW 5029   0.753   4.444   4.888
 1377SOL    HW1 5030   0.700   4.460   4.971
 1377SOL    HW2 5031   0.734   4.516   4.822
 1378SOL     OW 5032   2.153   2.370   0.278
 1378SOL    HW1 5033   2.066   2.321   0.266
 1378SOL    HW2 5034   2.134   2.459   0.320
 1379SOL     OW 5035   4.043   5.973   1.404
 1379SOL    HW1 5036   3.976   5.941   1.338
 1379SOL    HW2 5037   4.131   5.988   1.358
 1380SOL     OW 5038   5.996   4.808   2.759
 1380SOL    HW1 5039   5.946   4.892   2.780
 1380SOL    HW2 5040   5.958   4.733   2.812
 1381SOL     OW 5041   4.707   0.074   2.534
 1381SOL    HW1 5042   4.657   0.159   2.548
 1381SOL    HW2 5043   4.761   0.052   2.616
 1382SOL     OW 5044   0.389   3.896   0.347
 1382SOL    HW1 5045   0.482   3.874   0.375
 1382SOL    HW2 5046   0.354   3.824   0.286
 1383SOL     OW 5047   2.807   0.097   0.835
 1383SOL    HW1 5048   2.841   0.078   0.743
 1383SOL    HW2 5049   2.828   0.192   0.859
 1384SOL     OW 5050   1.538   1.907   2.106
 1384SOL    HW1 5051   1.579   1.859   2.184
 1384SOL    HW2 5052   1.502   1.840   2.041
 1385SOL     OW 5053   5.014   3.511   4.385
 1385SOL    HW1 5054   5.021   3.463   4.472
 1385SOL    HW2 5055   5.087   3.578   4.377
 1386SOL     OW 5056   2.616   2.438   3.526
 1386SOL    HW1 5057   2.645   2.431   3.621
 1386SOL    HW2 5058   2.654   2.363   3.473
 1387SOL     OW 5059   3.388   0.636   3.882
 1387SOL    HW1 5060   3.384   0.735   3.871
 1387SOL    HW2 5061   3.429   0.613   3.970
 1388SOL     OW 5062   5.036   1.801   3.815
 1388SOL    HW1 5063   5.124   1.777   3.857
 1388SOL    HW2 5064   4.962   1.766   3.872
 1389SOL     OW 5065   0.194   0.312   3.643
 1389SOL    HW1 5066   0.278   0.321   3.590
 1389SOL    HW2 5067   0.160   0.218   3.636
 1390SOL     OW 5068   5.148   2.194   2.684
 1390SOL    HW1 5069   5.079   2.182   2.613
 1390SOL    HW2 5070   5.106   2.181   2.774
 1391SOL     OW 5071   5.666   1.084   5.234
 1391SOL    HW1 5072   5.703   1.011   5.177
 1391SOL    HW2 5073   5.739   1.146   5.262
 1392SOL     OW 5074   3.469   6.797   5.274
 1392SOL    HW1 5075   3.388   6.842   5.311
 1392SOL    HW2 5076   3.523   6.758   5.348
 1393SOL     OW 5077   5.394   0.594   0.188
 1393SOL    HW1 5078   5.361   0.561   0.100
 1393SOL    HW2 5079   5.318   0.631   0.241
 1394SOL     OW 5080   4.192   0.817   4.372
 1394SOL    HW1 5081   4.220   0.742   4.432
 1394SOL    HW2 5082   4.262   0.889   4.376
 1395SOL     OW 5083   0.541   5.127   2.595
 1395SOL    HW1 5084   0.595   5.044   2.611
 1395SOL    HW2 5085   0.588   5.185   2.528
 1396SOL     OW 5086   1.366   1.457   3.650
 1396SOL    HW1 5087   1.298   1.413   3.708
 1396SOL    HW2 5088   1.329   1.543   3.615
 1397SOL     OW 5089   2.369   4.797   5.423
 1397SOL    HW1 5090   2.442   4.742   5.463
 1397SOL    HW2 5091   2.350   4.766   5.330
 1398SOL     OW 5092   3.113   0.068   6.609
 1398SOL    HW1 5093   3.079   6.991   6.589
 1398SOL    HW2 5094   3.182   0.064   6.680
 1399SOL     OW 5095   3.856   0.170   0.150
 1399SOL    HW1 5096   3.885   0.132   0.062
 1399SOL    HW2 5097   3.908   0.127   0.223
 1400SOL     OW 5098   0.620   1.253   5.756
 1400SOL    HW1 5099   0.601   1.228   5.661
 1400SOL    HW2 5100   0.691   1.194   5.793
 1401SOL     OW 5101   5.024   0.318   1.969
 1401SOL    HW1 5102   4.947   0.282   2.022
 1401SOL    HW2 5103   5.070   0.243   1.921
 1402SOL     OW 5104   5.372   4.537   1.713
 1402SOL    HW1 5105   5.311   4.479   1.768
 1402SOL    HW2 5106   5.317   4.602   1.661
 1403SOL     OW 5107   3.138   3.273   0.034
 1403SOL    HW1 5108   3.199   3.313   0.102
 1403SOL    HW2 5109   3.101   3.187   0.069
 1404SOL     OW 5110   3.912   6.150   0.343
 1404SOL    HW1 5111   4.008   6.124   0.334
 1404SOL    HW2 5112   3.860   6.111   0.266
 1405SOL     OW 5113   0.982   3.669   6.920
 1405SOL    HW1 5114   1.024   3.596   6.973
 1405SOL    HW2 5115   0.999   3.757   6.964
 1406SOL     OW 5116   2.161   2.589   6.586
 1406SOL    HW1 5117   2.072   2.573   6.629
 1406SOL    HW2 5118   2.167   2.536   6.502
 1407SOL     OW 5119   0.020   2.401   1.734
 1407SOL    HW1 5120   6.994   2.428   1.822
 1407SOL    HW2 5121   0.113   2.367   1.750
 1408SOL     OW 5122   5.920   6.423   0.331
 1408SOL    HW1 5123   5.927   6.422   0.231
 1408SOL    HW2 5124   5.859   6.349   0.360
 1409SOL     OW 5125   5.980   2.324   5.794
 1409SOL    HW1 5126   5.993   2.313   5.893
 1409SOL    HW2 5127   5.889   2.291   5.768
 1410SOL     OW 5128   3.077   0.557   0.382
 1410SOL    HW1 5129   3.044   0.470   0.420
 1410SOL    HW2 5130   3.177   0.560   0.389
 1411SOL     OW 5131   4.001   6.147   6.896
 1411SOL    HW1 5132   4.016   6.221   6.830
 1411SOL    HW2 5133   4.032   6.177   6.987
 1412SOL     OW 5134   2.307   1.609   0.350
 1412SOL    HW1 5135   2.333   1.683   0.412
 1412SOL    HW2 5136   2.246   1.545   0.397
 1413SOL     OW 5137   2.263   1.599   4.956
 1413SOL    HW1 5138   2.257   1.529   4.884
 1413SOL    HW2 5139   2.359   1.613   4.980
 1414SOL     OW 5140   0.389   4.741   1.912
 1414SOL    HW1 5141   0.324   4.773   1.843
 1414SOL    HW2 5142   0.380   4.795   1.995
 1415SOL     OW 5143   3.918   1.862   5.428
 1415SOL    HW1 5144   3.952   1.857   5.335
 1415SOL    HW2 5145   3.860   1.943   5.439
 1416SOL     OW 5146   4.775   0.550   4.963
 1416SOL    HW1 5147   4.841   0.622   4.984
 1416SOL    HW2 5148   4.804   0.502   4.880
 1417SOL     OW 5149   3.834   3.708   4.134
 1417SOL    HW1 5150   3.926   3.671   4.139
 1417SOL    HW2 5151   3.795   3.717   4.226
 1418SOL     OW 5152   3.292   3.706   5.561
 1418SOL    HW1 5153   3.382   3.736   5.530
 1418SOL    HW2 5154   3.261   3.766   5.635
 1419SOL     OW 5155   0.092   5.146   2.226
 1419SOL    HW1 5156   0.031   5.185   2.296
 1419SOL    HW2 5157   0.186   5.170   2.248
 1420SOL     OW 5158   3.159   6.350   3.503
 1420SOL    HW1 5159   3.232   6.315   3.562
 1420SOL    HW2 5160   3.150   6.449   3.515
 1421SOL     OW 5161   1.784   5.456   0.577
 1421SOL    HW1 5162   1.756   5.362   0.597
 1421SOL    HW2 5163   1.846   5.456   0.498
 1422SOL     OW 5164   1.518   3.614   6.760
 1422SOL    HW1 5165   1.431   3.642   6.718
 1422SOL    HW2 5166   1.589   3.679   6.737
 1423SOL     OW 5167   4.727   0.927   4.938
 1423SOL    HW1 5168   4.762   1.020   4.947
 1423SOL    HW2 5169   4.627   0.930   4.932
 1424SOL     OW 5170   6.257   2.715   1.264
 1424SOL    HW1 5171   6.339   2.699   1.319
 1424SOL    HW2 5172   6.255   2.811   1.234
 1425SOL     OW 5173   6.108   6.403   2.948
 1425SOL    HW1 5174   6.127   6.339   3.022
 1425SOL    HW2 5175   6.086   6.493   2.986
 1426SOL     OW 5176   3.653   1.367   0.606
 1426SOL    HW1 5177   3.750   1.389   0.603
 1426SOL    HW2 5178   3.622   1.342   0.514
 1427SOL     OW 5179   1.013   0.837   3.738
 1427SOL    HW1 5180   1.083   0.780   3.695
 1427SOL    HW2 5181   1.055   0.894   3.808
 1428SOL     OW 5182   1.819   3.958   3.931
 1428SOL    HW1 5183   1.806   4.051   3.896
 1428SOL    HW2 5184   1.915   3.932   3.922
 1429SOL     OW 5185   6.482   0.421   1.532
 1429SOL    HW1 5186   6.485   0.395   1.629
 1429SOL    HW2 5187   6.552   0.490   1.514
 1430SOL     OW 5188   2.106   3.996   4.610
 1430SOL    HW1 5189   2.013   3.965   4.592
 1430SOL    HW2 5190   2.151   3.931   4.672
 1431SOL     OW 5191   3.471   2.295   0.592
 1431SOL    HW1 5192   3.497   2.268   0.685
 1431SOL    HW2 5193   3.383   2.255   0.569
 1432SOL     OW 5194   3.893   0.350   3.054
 1432SOL    HW1 5195   3.819   0.294   3.018
 1432SOL    HW2 5196   3.859   0.443   3.071
 1433SOL     OW 5197   2.994   2.140   4.451
 1433SOL    HW1 5198   3.070   2.133   4.516
 1433SOL    HW2 5199   3.025   2.189   4.369
 1434SOL     OW 5200   5.382   3.738   0.462
 1434SOL    HW1 5201   5.433   3.658   0.431
 1434SOL    HW2 5202   5.406   3.817   0.404
 1435SOL     OW 5203   0.188   5.869   3.880
 1435SOL    HW1 5204   0.147   5.842   3.967
 1435SOL    HW2 5205   0.132   5.941   3.838
 1436SOL     OW 5206   5.391   1.171   0.328
 1436SOL    HW1 5207   5.445   1.092   0.299
 1436SOL    HW2 5208   5.442   1.223   0.397
 1437SOL     OW 5209   4.364   1.400   0.877
 1437SOL    HW1 5210   4.268   1.408   0.849
 1437SOL    HW2 5211   4.400   1.490   0.900
 1438SOL     OW 5212   2.244   6.929   2.913
 1438SOL    HW1 5213   2.168   6.949   2.975
 1438SOL    HW2 5214   2.330   6.947   2.960
 1439SOL     OW 5215   0.510   5.451   4.894
 1439SOL    HW1 5216   0.492   5.361   4.855
 1439SOL    HW2 5217   0.461   5.461   4.980
 1440SOL     OW 5218   3.337   3.381   2.311
 1440SOL    HW1 5219   3.295   3.350   2.396
 1440SOL    HW2 5220   3.429   3.343   2.304
 1441SOL     OW 5221   0.484   1.851   5.879
 1441SOL    HW1 5222   0.428   1.768   5.882
 1441SOL    HW2 5223   0.425   1.931   5.871
 1442SOL     OW 5224   5.351   5.650   0.252
 1442SOL    HW1 5225   5.380   5.675   0.160
 1442SOL    HW2 5226   5.355   5.551   0.262
 1443SOL     OW 5227   1.212   3.429   4.131
 1443SOL    HW1 5228   1.237   3.491   4.058
 1443SOL    HW2 5229   1.241   3.467   4.219
 1444SOL     OW 5230   5.235   6.754   4.297
 1444SOL    HW1 5231   5.266   6.684   4.361
 1444SOL    HW2 5232   5.293   6.752   4.216
 1445SOL     OW 5233   6.844   1.998   0.528
 1445SOL    HW1 5234   6.819   1.931   0.598
 1445SOL    HW2 5235   6.889   2.076   0.571
 1446SOL     OW 5236   3.040   5.661   2.316
 1446SOL    HW1 5237   2.998   5.643   2.405
 1446SOL    HW2 5238   2.969   5.663   2.246
 1447SOL     OW 5239   6.683   0.734   4.478
 1447SOL    HW1 5240   6.614   0.802   4.452
 1447SOL    HW2 5241   6.672   0.710   4.575
 1448SOL     OW 5242   5.330   0.656   0.749
 1448SOL    HW1 5243   5.265   0.709   0.803
 1448SOL    HW2 5244   5.393   0.717   0.702
 1449SOL     OW 5245   4.792   5.643   0.319
 1449SOL    HW1 5246   4.773   5.557   0.271
 1449SOL    HW2 5247   4.767   5.720   0.260
 1450SOL     OW 5248   5.422   1.422   3.731
 1450SOL    HW1 5249   5.381   1.392   3.645
 1450SOL    HW2 5250   5.520   1.402   3.730
 1451SOL     OW 5251   0.936   6.997   1.884
 1451SOL    HW1 5252   0.907   6.930   1.816
 1451SOL    HW2 5253   1.032   6.981   1.908
 1452SOL     OW 5254   2.445   0.327   6.021
 1452SOL    HW1 5255   2.472   0.419   5.990
 1452SOL    HW2 5256   2.350   0.310   5.996
 1453SOL     OW 5257   5.762   4.563   4.267
 1453SOL    HW1 5258   5.668   4.596   4.265
 1453SOL    HW2 5259   5.807   4.584   4.180
 1454SOL     OW 5260   5.654   3.625   0.815
 1454SOL    HW1 5261   5.607   3.702   0.857
 1454SOL    HW2 5262   5.743   3.612   0.859
 1455SOL     OW 5263   1.880   2.097   2.053
 1455SOL    HW1 5264   1.831   2.161   1.994
 1455SOL    HW2 5265   1.831   2.086   2.139
 1456SOL     OW 5266   5.431   5.260   5.198
 1456SOL    HW1 5267   5.524   5.238   5.228
 1456SOL    HW2 5268   5.365   5.214   5.257
 1457SOL     OW 5269   1.920   0.912   4.414
 1457SOL    HW1 5270   1.889   0.899   4.320
 1457SOL    HW2 5271   1.946   1.008   4.427
 1458SOL     OW 5272   0.109   5.214   6.976
 1458SOL    HW1 5273   0.161   5.145   6.926
 1458SOL    HW2 5274   0.092   5.182   0.054
 1459SOL     OW 5275   2.652   6.963   1.838
 1459SOL    HW1 5276   2.614   6.889   1.894
 1459SOL    HW2 5277   2.752   6.962   1.846
 1460SOL     OW 5278   0.332   0.150   6.911
 1460SOL    HW1 5279   0.272   0.071   6.900
 1460SOL    HW2 5280   0.292   0.230   6.867
 1461SOL     OW 5281   4.977   4.457   2.740
 1461SOL    HW1 5282   5.036   4.381   2.715
 1461SOL    HW2 5283   4.916   4.428   2.814
 1462SOL     OW 5284   5.604   0.419   5.095
 1462SOL    HW1 5285   5.703   0.412   5.096
 1462SOL    HW2 5286   5.569   0.386   5.007
 1463SOL     OW 5287   1.056   2.355   5.390
 1463SOL    HW1 5288   1.136   2.300   5.368
 1463SOL    HW2 5289   1.025   2.334   5.483
 1464SOL     OW 5290   0.929   0.934   1.022
 1464SOL    HW1 5291   0.847   0.973   0.981
 1464SOL    HW2 5292   0.998   1.005   1.036
 1465SOL     OW 5293   1.802   0.933   3.490
 1465SOL    HW1 5294   1.774   1.014   3.543
 1465SOL    HW2 5295   1.805   0.957   3.393
 1466SOL     OW 5296   5.735   5.619   4.015
 1466SOL    HW1 5297   5.707   5.553   3.946
 1466SOL    HW2 5298   5.689   5.706   3.998
 1467SOL     OW 5299   0.063   4.121   4.270
 1467SOL    HW1 5300   0.094   4.034   4.232
 1467SOL    HW2 5301   0.017   4.174   4.199
 1468SOL     OW 5302   4.772   0.358   2.905
 1468SOL    HW1 5303   4.750   0.366   3.002
 1468SOL    HW2 5304   4.792   0.262   2.884
 1469SOL     OW 5305   0.446   1.014   1.996
 1469SOL    HW1 5306   0.395   0.927   1.998
 1469SOL    HW2 5307   0.501   1.021   2.079
 1470SOL     OW 5308   0.222   0.071   2.556
 1470SOL    HW1 5309   0.310   0.093   2.514
 1470SOL    HW2 5310   0.173   0.155   2.576
 1471SOL     OW 5311   6.337   0.935   1.058
 1471SOL    HW1 5312   6.432   0.964   1.071
 1471SOL    HW2 5313   6.275   1.009   1.084
 1472SOL     OW 5314   4.903   5.359   5.249
 1472SOL    HW1 5315   4.936   5.265   5.241
 1472SOL    HW2 5316   4.816   5.369   5.200
 1473SOL     OW 5317   6.930   3.544   4.169
 1473SOL    HW1 5318   6.968   3.484   4.240
 1473SOL    HW2 5319   6.928   3.494   4.082
 1474SOL     OW 5320   4.372   5.915   2.856
 1474SOL    HW1 5321   4.364   6.009   2.825
 1474SOL    HW2 5322   4.374   5.913   2.956
 1475SOL     OW 5323   6.101   6.612   2.600
 1475SOL    HW1 5324   6.129   6.607   2.504
 1475SOL    HW2 5325   6.163   6.557   2.655
 1476SOL     OW 5326   0.784   2.518   1.543
 1476SOL    HW1 5327   0.868   2.473   1.575
 1476SOL    HW2 5328   0.791   2.534   1.444
 1477SOL     OW 5329   2.793   6.632   4.775
 1477SOL    HW1 5330   2.816   6.583   4.859
 1477SOL    HW2 5331   2.700   6.608   4.746
 1478SOL     OW 5332   0.202   3.452   1.324
 1478SOL    HW1 5333   0.159   3.376   1.374
 1478SOL    HW2 5334   0.201   3.534   1.381
 1479SOL     OW 5335   1.661   5.498   0.114
 1479SOL    HW1 5336   1.627   5.409   0.145
 1479SOL    HW2 5337   1.728   5.483   0.041
 1480SOL     OW 5338   3.231   1.120   0.357
 1480SOL    HW1 5339   3.287   1.068   0.293
 1480SOL    HW2 5340   3.159   1.168   0.308
 1481SOL     OW 5341   6.656   3.314   0.107
 1481SOL    HW1 5342   6.680   3.396   0.054
 1481SOL    HW2 5343   6.620   3.244   0.046
 1482SOL     OW 5344   5.876   0.478   6.144
 1482SOL    HW1 5345   5.781   0.479   6.176
 1482SOL    HW2 5346   5.926   0.552   6.188
 1483SOL     OW 5347   6.829   2.400   6.999
 1483SOL    HW1 5348   6.786   2.359   0.065
 1483SOL    HW2 5349   6.827   2.335   6.923
 1484SOL     OW 5350   6.223   6.903   3.397
 1484SOL    HW1 5351   6.162   6.965   3.447
 1484SOL    HW2 5352   6.172   6.853   3.327
 1485SOL     OW 5353   5.472   3.246   4.317
 1485SOL    HW1 5354   5.443   3.321   4.376
 1485SOL    HW2 5355   5.423   3.252   4.230
 1486SOL     OW 5356   4.962   2.723   1.085
 1486SOL    HW1 5357   5.031   2.652   1.071
 1486SOL    HW2 5358   4.872   2.686   1.061
 1487SOL     OW 5359   0.541   0.062   5.442
 1487SOL    HW1 5360   0.548   0.111   5.355
 1487SOL    HW2 5361   0.513   0.126   5.514
 1488SOL     OW 5362   5.030   2.350   4.653
 1488SOL    HW1 5363   5.119   2.315   4.627
 1488SOL    HW2 5364   4.969   2.350   4.574
 1489SOL     OW 5365   3.237   5.087   4.977
 1489SOL    HW1 5366   3.241   5.185   4.997
 1489SOL    HW2 5367   3.151   5.065   4.930
 1490SOL     OW 5368   2.501   2.904   0.645
 1490SOL    HW1 5369   2.526   2.855   0.728
 1490SOL    HW2 5370   2.525   3.001   0.654
 1491SOL     OW 5371   0.363   2.079   4.557
 1491SOL    HW1 5372   0.462   2.091   4.546
 1491SOL    HW2 5373   0.327   2.154   4.613
 1492SOL     OW 5374   0.512   2.235   1.782
 1492SOL    HW1 5375   0.524   2.178   1.701
 1492SOL    HW2 5376   0.485   2.178   1.859
 1493SOL     OW 5377   6.316   2.959   4.812
 1493SOL    HW1 5378   6.409   2.992   4.829
 1493SOL    HW2 5379   6.290   2.980   4.718
 1494SOL     OW 5380   5.437   1.554   4.110
 1494SOL    HW1 5381   5.488   1.553   4.196
 1494SOL    HW2 5382   5.419   1.460   4.081
 1495SOL     OW 5383   1.069   4.055   2.195
 1495SOL    HW1 5384   1.104   3.989   2.129
 1495SOL    HW2 5385   1.145   4.092   2.248
 1496SOL     OW 5386   1.344   0.380   2.196
 1496SOL    HW1 5387   1.408   0.419   2.130
 1496SOL    HW2 5388   1.254   0.369   2.152
 1497SOL     OW 5389   5.970   5.286   6.093
 1497SOL    HW1 5390   6.020   5.225   6.031
 1497SOL    HW2 5391   5.894   5.328   6.043
 1498SOL     OW 5392   3.037   5.437   0.217
 1498SOL    HW1 5393   2.981   5.370   0.266
 1498SOL    HW2 5394   3.124   5.394   0.191
 1499SOL     OW 5395   0.540   4.257   4.458
 1499SOL    HW1 5396   0.612   4.233   4.393
 1499SOL    HW2 5397   0.564   4.222   4.549
 1500SOL     OW 5398   3.567   6.841   5.673
 1500SOL    HW1 5399   3.490   6.783   5.701
 1500SOL    HW2 5400   3.653   6.794   5.693
 1501SOL     OW 5401   3.840   0.130   0.753
 1501SOL    HW1 5402   3.869   0.043   0.713
 1501SOL    HW2 5403   3.853   0.127   0.852
 1502SOL     OW 5404   0.541   0.465   6.182
 1502SOL    HW1 5405   0.569   0.395   6.248
 1502SOL    HW2 5406   0.622   0.516   6.152
 1503SOL     OW 5407   3.391   3.986   5.266
 1503SOL    HW1 5408   3.419   3.967   5.360
 1503SOL    HW2 5409   3.322   3.920   5.237
 1504SOL     OW 5410   2.791   6.728   3.491
 1504SOL    HW1 5411   2.788   6.826   3.510
 1504SOL    HW2 5412   2.699   6.694   3.473
 1505SOL     OW 5413   5.408   6.634   3.143
 1505SOL    HW1 5414   5.483   6.671   3.088
 1505SOL    HW2 5415   5.421   6.660   3.239
 1506SOL     OW 5416   0.525   6.098   3.657
 1506SOL    HW1 5417   0.500   6.194   3.672
 1506SOL    HW2 5418   0.527   6.080   3.559
 1507SOL     OW 5419   2.097   1.441   0.051
 1507SOL    HW1 5420   2.037   1.521   0.041
 1507SOL    HW2 5421   2.150   1.449   0.135
 1508SOL     OW 5422   5.040   6.217   1.205
 1508SOL    HW1 5423   4.965   6.177   1.152
 1508SOL    HW2 5424   5.002   6.259   1.289
 1509SOL     OW 5425   5.657   1.649   6.484
 1509SOL    HW1 5426   5.748   1.690   6.483
 1509SOL    HW2 5427   5.642   1.602   6.571
 1510SOL     OW 5428   6.409   1.599   2.514
 1510SOL    HW1 5429   6.457   1.648   2.587
 1510SOL    HW2 5430   6.316   1.578   2.543
 1511SOL     OW 5431   0.341   2.744   0.126
 1511SOL    HW1 5432   0.286   2.804   0.068
 1511SOL    HW2 5433   0.294   2.656   0.136
 1512SOL     OW 5434   6.281   0.949   2.045
 1512SOL    HW1 5435   6.240   0.867   2.085
 1512SOL    HW2 5436   6.317   1.008   2.117
 1513SOL     OW 5437   2.362   0.787   2.947
 1513SOL    HW1 5438   2.374   0.844   3.029
 1513SOL    HW2 5439   2.400   0.834   2.868
 1514SOL     OW 5440   4.538   1.292   5.653
 1514SOL    HW1 5441   4.567   1.226   5.584
 1514SOL    HW2 5442   4.473   1.357   5.612
 1515SOL     OW 5443   5.783   5.358   5.823
 1515SOL    HW1 5444   5.856   5.397   5.767
 1515SOL    HW2 5445   5.765   5.264   5.793
 1516SOL     OW 5446   6.375   1.625   1.781
 1516SOL    HW1 5447   6.332   1.539   1.806
 1516SOL    HW2 5448   6.458   1.607   1.728
 1517SOL     OW 5449   3.329   5.206   2.346
 1517SOL    HW1 5450   3.410   5.216   2.287
 1517SOL    HW2 5451   3.275   5.290   2.342
 1518SOL     OW 5452   0.411   4.973   1.088
 1518SOL    HW1 5453   0.360   4.961   1.003
 1518SOL    HW2 5454   0.350   5.011   1.158
 1519SOL     OW 5455   0.480   4.002   1.122
 1519SOL    HW1 5456   0.475   3.987   1.221
 1519SOL    HW2 5457   0.556   4.063   1.102
 1520SOL     OW 5458   1.019   3.699   2.574
 1520SOL    HW1 5459   0.982   3.782   2.533
 1520SOL    HW2 5460   1.048   3.717   2.668
 1521SOL     OW 5461   2.578   5.251   5.478
 1521SOL    HW1 5462   2.663   5.294   5.507
 1521SOL    HW2 5463   2.595   5.192   5.400
 1522SOL     OW 5464   1.504   2.098   6.113
 1522SOL    HW1 5465   1.485   2.193   6.139
 1522SOL    HW2 5466   1.498   2.090   6.014
 1523SOL     OW 5467   5.744   0.790   1.392
 1523SOL    HW1 5468   5.797   0.746   1.320
 1523SOL    HW2 5469   5.722   0.884   1.364
 1524SOL     OW 5470   0.697   1.542   0.946
 1524SOL    HW1 5471   0.792   1.573   0.943
 1524SOL    HW2 5472   0.692   1.446   0.921
 1525SOL     OW 5473   5.204   1.462   5.301
 1525SOL    HW1 5474   5.164   1.371   5.317
 1525SOL    HW2 5475   5.295   1.452   5.262
 1526SOL     OW 5476   5.952   2.109   0.166
 1526SOL    HW1 5477   5.877   2.094   0.231
 1526SOL    HW2 5478   5.936   2.194   0.116
 1527SOL     OW 5479   2.784   1.000   5.623
 1527SOL    HW1 5480   2.825   0.992   5.714
 1527SOL    HW2 5481   2.820   0.929   5.563
 1528SOL     OW 5482   4.970   5.608   3.476
 1528SOL    HW1 5483   4.947   5.539   3.545
 1528SOL    HW2 5484   5.067   5.631   3.482
 1529SOL     OW 5485   2.066   6.886   5.189
 1529SOL    HW1 5486   2.138   6.953   5.174
 1529SOL    HW2 5487   1.987   6.909   5.132
 1530SOL     OW 5488   3.111   6.417   1.419
 1530SOL    HW1 5489   3.044   6.478   1.376
 1530SOL    HW2 5490   3.077   6.323   1.418
 1531SOL     OW 5491   5.882   1.426   6.439
 1531SOL    HW1 5492   5.796   1.418   6.389
 1531SOL    HW2 5493   5.909   1.337   6.475
 1532SOL     OW 5494   2.865   2.004   5.261
 1532SOL    HW1 5495   2.811   1.964   5.335
 1532SOL    HW2 5496   2.886   2.099   5.283
 1533SOL     OW 5497   4.522   3.002   0.295
 1533SOL    HW1 5498   4.578   3.080   0.266
 1533SOL    HW2 5499   4.558   2.964   0.380
 1534SOL     OW 5500   0.285   6.964   0.361
 1534SOL    HW1 5501   0.274   0.049   0.359
 1534SOL    HW2 5502   0.330   6.934   0.277
 1535SOL     OW 5503   5.097   4.752   4.502
 1535SOL    HW1 5504   5.100   4.657   4.472
 1535SOL    HW2 5505   5.185   4.796   4.483
 1536SOL     OW 5506   3.471   6.033   3.248
 1536SOL    HW1 5507   3.520   6.048   3.163
 1536SOL    HW2 5508   3.441   6.121   3.286
 1537SOL     OW 5509   2.498   5.950   4.239
 1537SOL    HW1 5510   2.427   5.998   4.290
 1537SOL    HW2 5511   2.538   5.878   4.296
 1538SOL     OW 5512   3.398   6.481   0.446
 1538SOL    HW1 5513   3.453   6.503   0.528
 1538SOL    HW2 5514   3.383   6.565   0.393
 1539SOL     OW 5515   2.361   6.524   2.111
 1539SOL    HW1 5516   2.378   6.554   2.017
 1539SOL    HW2 5517   2.353   6.604   2.170
 1540SOL     OW 5518   5.872   0.396   4.758
 1540SOL    HW1 5519   5.822   0.481   4.776
 1540SOL    HW2 5520   5.920   0.367   4.841
 1541SOL     OW 5521   5.536   1.951   2.319
 1541SOL    HW1 5522   5.606   1.885   2.348
 1541SOL    HW2 5523   5.511   1.932   2.224
 1542SOL     OW 5524   6.723   5.617   1.396
 1542SOL    HW1 5525   6.759   5.663   1.477
 1542SOL    HW2 5526   6.666   5.681   1.344
 1543SOL     OW 5527   3.209   3.426   3.413
 1543SOL    HW1 5528   3.196   3.347   3.354
 1543SOL    HW2 5529   3.235   3.395   3.505
 1544SOL     OW 5530   3.563   3.298   1.683
 1544SOL    HW1 5531   3.571   3.239   1.603
 1544SOL    HW2 5532   3.506   3.377   1.661
 1545SOL     OW 5533   0.656   6.626   5.346
 1545SOL    HW1 5534   0.670   6.586   5.437
 1545SOL    HW2 5535   0.732   6.688   5.326
 1546SOL     OW 5536   7.003   6.265   6.840
 1546SOL    HW1 5537   6.904   6.273   6.828
 1546SOL    HW2 5538   0.033   6.343   6.798
 1547SOL     OW 5539   3.138   6.020   0.157
 1547SOL    HW1 5540   3.211   6.017   0.090
 1547SOL    HW2 5541   3.159   5.958   0.233
 1548SOL     OW 5542   6.514   3.986   3.388
 1548SOL    HW1 5543   6.454   4.010   3.311
 1548SOL    HW2 5544   6.576   3.913   3.360
 1549SOL     OW 5545   6.613   2.225   0.899
 1549SOL    HW1 5546   6.602   2.235   0.998
 1549SOL    HW2 5547   6.658   2.137   0.880
 1550SOL     OW 5548   2.372   5.228   2.400
 1550SOL    HW1 5549   2.449   5.167   2.384
 1550SOL    HW2 5550   2.291   5.174   2.424
 1551SOL     OW 5551   0.741   2.932   1.536
 1551SOL    HW1 5552   0.748   2.889   1.446
 1551SOL    HW2 5553   0.787   2.875   1.603
 1552SOL     OW 5554   1.678   6.769   2.053
 1552SOL    HW1 5555   1.748   6.829   2.091
 1552SOL    HW2 5556   1.587   6.804   2.077
 1553SOL     OW 5557   6.032   1.543   5.597
 1553SOL    HW1 5558   5.949   1.492   5.618
 1553SOL    HW2 5559   6.047   1.615   5.665
 1554SOL     OW 5560   2.744   2.942   0.867
 1554SOL    HW1 5561   2.800   2.947   0.785
 1554SOL    HW2 5562   2.666   2.881   0.852
 1555SOL     OW 5563   4.304   1.297   1.193
 1555SOL    HW1 5564   4.367   1.299   1.114
 1555SOL    HW2 5565   4.353   1.328   1.275
 1556SOL     OW 5566   3.344   2.558   0.510
 1556SOL    HW1 5567   3.373   2.471   0.549
 1556SOL    HW2 5568   3.272   2.542   0.443
 1557SOL     OW 5569   1.751   2.793   1.072
 1557SOL    HW1 5570   1.765   2.782   0.974
 1557SOL    HW2 5571   1.682   2.864   1.089
 1558SOL     OW 5572   4.983   2.762   0.047
 1558SOL    HW1 5573   4.922   2.709   0.106
 1558SOL    HW2 5574   4.932   2.791   6.980
 1559SOL     OW 5575   2.682   6.168   3.550
 1559SOL    HW1 5576   2.770   6.136   3.583
 1559SOL    HW2 5577   2.691   6.261   3.513
 1560SOL     OW 5578   4.309   2.971   1.437
 1560SOL    HW1 5579   4.253   2.944   1.515
 1560SOL    HW2 5580   4.289   2.912   1.359
 1561SOL     OW 5581   6.200   6.201   0.175
 1561SOL    HW1 5582   6.274   6.199   0.108
 1561SOL    HW2 5583   6.140   6.279   0.156
 1562SOL     OW 5584   3.109   6.927   2.801
 1562SOL    HW1 5585   3.091   6.980   2.718
 1562SOL    HW2 5586   3.133   6.834   2.777
 1563SOL     OW 5587   2.094   3.891   3.988
 1563SOL    HW1 5588   2.188   3.921   4.006
 1563SOL    HW2 5589   2.085   3.795   4.013
 1564SOL     OW 5590   1.123   1.805   2.861
 1564SOL    HW1 5591   1.129   1.819   2.960
 1564SOL    HW2 5592   1.036   1.761   2.839
 1565SOL     OW 5593   5.173   1.832   5.500
 1565SOL    HW1 5594   5.088   1.818   5.447
 1565SOL    HW2 5595   5.227   1.748   5.498
 1566SOL     OW 5596   0.845   3.469   3.884
 1566SOL    HW1 5597   0.831   3.380   3.841
 1566SOL    HW2 5598   0.757   3.518   3.890
 1567SOL     OW 5599   5.241   0.567   4.745
 1567SOL    HW1 5600   5.321   0.541   4.691
 1567SOL    HW2 5601   5.168   0.598   4.684
 1568SOL     OW 5602   2.383   4.335   0.653
 1568SOL    HW1 5603   2.303   4.370   0.703
 1568SOL    HW2 5604   2.406   4.244   0.687
 1569SOL     OW 5605   2.230   0.946   2.156
 1569SOL    HW1 5606   2.315   0.895   2.171
 1569SOL    HW2 5607   2.204   0.993   2.240
 1570SOL     OW 5608   3.043   6.213   6.420
 1570SOL    HW1 5609   3.003   6.181   6.334
 1570SOL    HW2 5610   2.970   6.229   6.487
 1571SOL     OW 5611   0.129   1.373   4.591
 1571SOL    HW1 5612   0.149   1.350   4.496
 1571SOL    HW2 5613   0.115   1.472   4.599
 1572SOL     OW 5614   1.862   6.480   3.539
 1572SOL    HW1 5615   1.901   6.541   3.470
 1572SOL    HW2 5616   1.893   6.387   3.522
 1573SOL     OW 5617   5.473   6.248   0.471
 1573SOL    HW1 5618   5.452   6.162   0.517
 1573SOL    HW2 5619   5.570   6.251   0.446
 1574SOL     OW 5620   0.182   3.901   3.208
 1574SOL    HW1 5621   0.218   3.910   3.115
 1574SOL    HW2 5622   0.139   3.811   3.218
 1575SOL     OW 5623   0.033   2.459   0.515
 1575SOL    HW1 5624   0.048   2.362   0.534
 1575SOL    HW2 5625   0.114   2.498   0.471
 1576SOL     OW 5626   2.078   6.194   2.341
 1576SOL    HW1 5627   2.064   6.180   2.243
 1576SOL    HW2 5628   2.131   6.277   2.356
 1577SOL     OW 5629   4.004   5.748   4.117
 1577SOL    HW1 5630   3.917   5.794   4.127
 1577SOL    HW2 5631   4.047   5.737   4.207
 1578SOL     OW 5632   5.142   1.943   1.554
 1578SOL    HW1 5633   5.200   1.994   1.491
 1578SOL    HW2 5634   5.047   1.972   1.543
 1579SOL     OW 5635   1.360   3.030   2.256
 1579SOL    HW1 5636   1.315   3.080   2.182
 1579SOL    HW2 5637   1.452   3.067   2.270
 1580SOL     OW 5638   3.526   4.191   3.858
 1580SOL    HW1 5639   3.499   4.160   3.767
 1580SOL    HW2 5640   3.617   4.154   3.880
 1581SOL     OW 5641   4.828   4.720   5.333
 1581SOL    HW1 5642   4.922   4.735   5.365
 1581SOL    HW2 5643   4.825   4.731   5.234
 1582SOL     OW 5644   3.982   6.188   4.617
 1582SOL    HW1 5645   3.898   6.239   4.601
 1582SOL    HW2 5646   4.023   6.219   4.703
 1583SOL     OW 5647   0.907   5.286   4.973
 1583SOL    HW1 5648   0.988   5.310   5.027
 1583SOL    HW2 5649   0.896   5.187   4.971
 1584SOL     OW 5650   6.947   3.778   6.963
 1584SOL    HW1 5651   6.852   3.808   6.948
 1584SOL    HW2 5652   6.951   3.721   0.030
 1585SOL     OW 5653   5.043   6.431   4.292
 1585SOL    HW1 5654   4.982   6.389   4.359
 1585SOL    HW2 5655   5.021   6.528   4.283
 1586SOL     OW 5656   2.251   5.913   3.774
 1586SOL    HW1 5657   2.337   5.959   3.753
 1586SOL    HW2 5658   2.253   5.880   3.868
 1587SOL     OW 5659   3.712   6.411   0.302
 1587SOL    HW1 5660   3.630   6.401   0.359
 1587SOL    HW2 5661   3.781   6.345   0.331
 1588SOL     OW 5662   6.254   2.229   3.881
 1588SOL    HW1 5663   6.164   2.220   3.922
 1588SOL    HW2 5664   6.318   2.168   3.928
 1589SOL     OW 5665   0.023   1.541   4.166
 1589SOL    HW1 5666   0.060   1.567   4.255
 1589SOL    HW2 5667   6.948   1.501   4.178
 1590SOL     OW 5668   5.307   0.756   3.962
 1590SOL    HW1 5669   5.406   0.755   3.970
 1590SOL    HW2 5670   5.277   0.845   3.927
 1591SOL     OW 5671   0.280   5.709   0.448
 1591SOL    HW1 5672   0.256   5.666   0.535
 1591SOL    HW2 5673   0.362   5.666   0.411
 1592SOL     OW 5674   6.746   3.827   4.980
 1592SOL    HW1 5675   6.806   3.874   4.915
 1592SOL    HW2 5676   6.691   3.759   4.932
 1593SOL     OW 5677   3.494   5.780   1.543
 1593SOL    HW1 5678   3.528   5.873   1.555
 1593SOL    HW2 5679   3.412   5.767   1.600
 1594SOL     OW 5680   5.144   1.304   2.873
 1594SOL    HW1 5681   5.107   1.397   2.862
 1594SOL    HW2 5682   5.164   1.265   2.783
 1595SOL     OW 5683   0.159   3.670   6.733
 1595SOL    HW1 5684   0.140   3.711   6.823
 1595SOL    HW2 5685   0.245   3.708   6.697
 1596SOL     OW 5686   5.050   4.508   4.367
 1596SOL    HW1 5687   5.050   4.500   4.268
 1596SOL    HW2 5688   5.124   4.452   4.405
 1597SOL     OW 5689   4.178   6.528   1.169
 1597SOL    HW1 5690   4.213   6.440   1.138
 1597SOL    HW2 5691   4.127   6.515   1.254
 1598SOL     OW 5692   1.037   4.791   5.750
 1598SOL    HW1 5693   0.968   4.799   5.678
 1598SOL    HW2 5694   1.029   4.701   5.794
 1599SOL     OW 5695   4.884   5.512   3.718
 1599SOL    HW1 5696   4.927   5.434   3.673
 1599SOL    HW2 5697   4.952   5.561   3.771
 1600SOL     OW 5698   4.384   0.705   1.458
 1600SOL    HW1 5699   4.320   0.658   1.398
 1600SOL    HW2 5700   4.363   0.684   1.553
 1601SOL     OW 5701   6.533   0.577   4.689
 1601SOL    HW1 5702   6.488   0.519   4.758
 1601SOL    HW2 5703   6.471   0.651   4.663
 1602SOL     OW 5704   4.215   5.531   3.012
 1602SOL    HW1 5705   4.225   5.564   3.106
 1602SOL    HW2 5706   4.300   5.485   2.984
 1603SOL     OW 5707   3.252   4.803   1.915
 1603SOL    HW1 5708   3.308   4.760   1.985
 1603SOL    HW2 5709   3.278   4.769   1.825
 1604SOL     OW 5710   4.220   5.247   2.552
 1604SOL    HW1 5711   4.167   5.239   2.468
 1604SOL    HW2 5712   4.306   5.197   2.543
 1605SOL     OW 5713   4.845   4.686   0.527
 1605SOL    HW1 5714   4.853   4.770   0.474
 1605SOL    HW2 5715   4.877   4.703   0.620
 1606SOL     OW 5716   3.866   5.936   5.233
 1606SOL    HW1 5717   3.889   6.008   5.299
 1606SOL    HW2 5718   3.929   5.940   5.156
 1607SOL     OW 5719   4.949   3.590   4.107
 1607SOL    HW1 5720   4.936   3.507   4.054
 1607SOL    HW2 5721   4.951   3.567   4.205
 1608SOL     OW 5722   6.158   3.126   3.644
 1608SOL    HW1 5723   6.088   3.136   3.715
 1608SOL    HW2 5724   6.139   3.043   3.591
 1609SOL     OW 5725   2.201   0.248   0.905
 1609SOL    HW1 5726   2.136   0.267   0.830
 1609SOL    HW2 5727   2.158   0.185   0.970
 1610SOL     OW 5728   5.644   6.246   0.838
 1610SOL    HW1 5729   5.656   6.313   0.765
 1610SOL    HW2 5730   5.653   6.154   0.800
 1611SOL     OW 5731   0.507   4.119   6.728
 1611SOL    HW1 5732   0.602   4.094   6.707
 1611SOL    HW2 5733   0.504   4.164   6.817
 1612SOL     OW 5734   5.119   1.086   1.536
 1612SOL    HW1 5735   5.190   1.073   1.467
 1612SOL    HW2 5736   5.092   0.996   1.572
 1613SOL     OW 5737   0.072   6.063   2.564
 1613SOL    HW1 5738   0.036   6.030   2.651
 1613SOL    HW2 5739   0.069   5.990   2.496
 1614SOL     OW 5740   6.221   1.961   5.283
 1614SOL    HW1 5741   6.167   2.033   5.328
 1614SOL    HW2 5742   6.200   1.960   5.185
 1615SOL     OW 5743   6.969   3.124   5.141
 1615SOL    HW1 5744   6.979   3.180   5.058
 1615SOL    HW2 5745   0.037   3.132   5.196
 1616SOL     OW 5746   0.729   1.480   3.224
 1616SOL    HW1 5747   0.807   1.457   3.283
 1616SOL    HW2 5748   0.666   1.402   3.220
 1617SOL     OW 5749   6.698   5.621   4.113
 1617SOL    HW1 5750   6.679   5.707   4.066
 1617SOL    HW2 5751   6.734   5.640   4.204
 1618SOL     OW 5752   3.187   5.431   3.042
 1618SOL    HW1 5753   3.111   5.368   3.029
 1618SOL    HW2 5754   3.153   5.519   3.074
 1619SOL     OW 5755   0.692   3.567   6.461
 1619SOL    HW1 5756   0.687   3.490   6.524
 1619SOL    HW2 5757   0.787   3.592   6.445
 1620SOL     OW 5758   2.869   6.889   4.705
 1620SOL    HW1 5759   2.838   6.906   4.611
 1620SOL    HW2 5760   2.837   6.799   4.734
 1621SOL     OW 5761   5.357   4.698   0.892
 1621SOL    HW1 5762   5.282   4.745   0.940
 1621SOL    HW2 5763   5.400   4.632   0.953
 1622SOL     OW 5764   6.614   3.278   3.267
 1622SOL    HW1 5765   6.642   3.200   3.211
 1622SOL    HW2 5766   6.544   3.330   3.218
 1623SOL     OW 5767   0.791   2.577   3.901
 1623SOL    HW1 5768   0.701   2.578   3.857
 1623SOL    HW2 5769   0.805   2.490   3.948
 1624SOL     OW 5770   4.361   3.014   0.853
 1624SOL    HW1 5771   4.342   3.079   0.780
 1624SOL    HW2 5772   4.293   2.941   0.850
 1625SOL     OW 5773   0.829   6.110   0.540
 1625SOL    HW1 5774   0.875   6.181   0.592
 1625SOL    HW2 5775   0.794   6.148   0.455
 1626SOL     OW 5776   2.382   1.814   2.431
 1626SOL    HW1 5777   2.454   1.799   2.364
 1626SOL    HW2 5778   2.307   1.749   2.416
 1627SOL     OW 5779   4.471   1.559   6.195
 1627SOL    HW1 5780   4.437   1.596   6.282
 1627SOL    HW2 5781   4.557   1.603   6.171
 1628SOL     OW 5782   5.372   5.952   1.228
 1628SOL    HW1 5783   5.290   5.972   1.174
 1628SOL    HW2 5784   5.354   5.873   1.287
 1629SOL     OW 5785   1.667   6.864   3.390
 1629SOL    HW1 5786   1.689   6.830   3.482
 1629SOL    HW2 5787   1.568   6.874   3.382
 1630SOL     OW 5788   0.531   4.588   6.438
 1630SOL    HW1 5789   0.448   4.607   6.491
 1630SOL    HW2 5790   0.599   4.659   6.455
 1631SOL     OW 5791   4.913   3.893   0.135
 1631SOL    HW1 5792   4.863   3.812   0.167
 1631SOL    HW2 5793   4.851   3.972   0.137
 1632SOL     OW 5794   6.119   6.316   2.105
 1632SOL    HW1 5795   6.187   6.275   2.045
 1632SOL    HW2 5796   6.163   6.350   2.188
 1633SOL     OW 5797   6.415   3.957   4.553
 1633SOL    HW1 5798   6.375   3.866   4.566
 1633SOL    HW2 5799   6.389   3.992   4.463
 1634SOL     OW 5800   1.527   3.828   6.497
 1634SOL    HW1 5801   1.467   3.826   6.577
 1634SOL    HW2 5802   1.471   3.831   6.414
 1635SOL     OW 5803   2.773   0.469   3.859
 1635SOL    HW1 5804   2.785   0.501   3.952
 1635SOL    HW2 5805   2.823   0.384   3.846
 1636SOL     OW 5806   0.507   6.104   1.434
 1636SOL    HW1 5807   0.517   6.185   1.492
 1636SOL    HW2 5808   0.421   6.058   1.456
 1637SOL     OW 5809   1.149   1.609   2.038
 1637SOL    HW1 5810   1.108   1.579   1.952
 1637SOL    HW2 5811   1.122   1.546   2.112
 1638SOL     OW 5812   5.482   2.370   3.265
 1638SOL    HW1 5813   5.490   2.341   3.169
 1638SOL    HW2 5814   5.566   2.347   3.313
 1639SOL     OW 5815   4.647   2.317   1.243
 1639SOL    HW1 5816   4.566   2.269   1.277
 1639SOL    HW2 5817   4.618   2.391   1.182
 1640SOL     OW 5818   6.489   0.824   0.005
 1640SOL    HW1 5819   6.450   0.836   0.096
 1640SOL    HW2 5820   6.522   0.912   6.986
 1641SOL     OW 5821   5.553   1.060   2.880
 1641SOL    HW1 5822   5.575   0.997   2.955
 1641SOL    HW2 5823   5.475   1.024   2.829
 1642SOL     OW 5824   6.977   3.440   5.551
 1642SOL    HW1 5825   6.970   3.381   5.631
 1642SOL    HW2 5826   6.902   3.419   5.488
 1643SOL     OW 5827   2.286   5.146   3.777
 1643SOL    HW1 5828   2.349   5.082   3.732
 1643SOL    HW2 5829   2.218   5.095   3.830
 1644SOL     OW 5830   5.967   1.796   1.645
 1644SOL    HW1 5831   5.879   1.824   1.605
 1644SOL    HW2 5832   5.961   1.802   1.744
 1645SOL     OW 5833   2.418   0.866   4.830
 1645SOL    HW1 5834   2.413   0.891   4.927
 1645SOL    HW2 5835   2.333   0.890   4.785
 1646SOL     OW 5836   0.327   5.358   1.914
 1646SOL    HW1 5837   0.413   5.375   1.867
 1646SOL    HW2 5838   0.296   5.441   1.960
 1647SOL     OW 5839   6.160   3.193   4.629
 1647SOL    HW1 5840   6.147   3.285   4.592
 1647SOL    HW2 5841   6.256   3.166   4.617
 1648SOL     OW 5842   5.372   6.456   1.778
 1648SOL    HW1 5843   5.413   6.398   1.848
 1648SOL    HW2 5844   5.276   6.432   1.766
 1649SOL     OW 5845   3.636   0.818   2.611
 1649SOL    HW1 5846   3.649   0.863   2.700
 1649SOL    HW2 5847   3.610   0.723   2.626
 1650SOL     OW 5848   2.481   2.436   5.020
 1650SOL    HW1 5849   2.501   2.430   4.922
 1650SOL    HW2 5850   2.486   2.532   5.049
 1651SOL     OW 5851   1.238   1.973   3.843
 1651SOL    HW1 5852   1.139   1.988   3.850
 1651SOL    HW2 5853   1.255   1.876   3.824
 1652SOL     OW 5854   6.573   4.084   1.704
 1652SOL    HW1 5855   6.549   4.170   1.750
 1652SOL    HW2 5856   6.671   4.083   1.684
 1653SOL     OW 5857   6.600   4.556   1.982
 1653SOL    HW1 5858   6.695   4.582   1.965
 1653SOL    HW2 5859   6.598   4.465   2.024
 1654SOL     OW 5860   0.361   3.986   1.846
 1654SOL    HW1 5861   0.329   3.987   1.941
 1654SOL    HW2 5862   0.282   3.979   1.785
 1655SOL     OW 5863   0.161   0.831   6.153
 1655SOL    HW1 5864   0.246   0.784   6.126
 1655SOL    HW2 5865   0.118   0.871   6.072
 1656SOL     OW 5866   2.176   3.931   2.487
 1656SOL    HW1 5867   2.256   3.896   2.439
 1656SOL    HW2 5868   2.188   4.029   2.504
 1657SOL     OW 5869   0.552   0.897   6.153
 1657SOL    HW1 5870   0.644   0.888   6.192
 1657SOL    HW2 5871   0.550   0.977   6.092
 1658SOL     OW 5872   5.148   6.586   5.862
 1658SOL    HW1 5873   5.157   6.660   5.796
 1658SOL    HW2 5874   5.168   6.499   5.818
 1659SOL     OW 5875   3.619   0.407   6.162
 1659SOL    HW1 5876   3.558   0.348   6.215
 1659SOL    HW2 5877   3.571   0.491   6.138
 1660SOL     OW 5878   2.639   0.873   1.932
 1660SOL    HW1 5879   2.629   0.807   2.006
 1660SOL    HW2 5880   2.731   0.913   1.935
 1661SOL     OW 5881   4.804   4.679   3.489
 1661SOL    HW1 5882   4.848   4.592   3.511
 1661SOL    HW2 5883   4.824   4.746   3.560
 1662SOL     OW 5884   0.181   1.968   3.534
 1662SOL    HW1 5885   0.106   1.942   3.595
 1662SOL    HW2 5886   0.170   1.921   3.446
 1663SOL     OW 5887   5.538   3.860   0.908
 1663SOL    HW1 5888   5.456   3.901   0.868
 1663SOL    HW2 5889   5.591   3.931   0.955
 1664SOL     OW 5890   1.197   1.671   6.083
 1664SOL    HW1 5891   1.250   1.720   6.153
 1664SOL    HW2 5892   1.204   1.720   5.996
 1665SOL     OW 5893   2.296   3.748   6.648
 1665SOL    HW1 5894   2.269   3.660   6.610
 1665SOL    HW2 5895   2.346   3.801   6.580
 1666SOL     OW 5896   5.604   6.198   5.747
 1666SOL    HW1 5897   5.593   6.121   5.684
 1666SOL    HW2 5898   5.654   6.168   5.828
 1667SOL     OW 5899   6.884   5.184   0.951
 1667SOL    HW1 5900   6.835   5.242   1.016
 1667SOL    HW2 5901   6.970   5.153   0.992
 1668SOL     OW 5902   6.171   3.382   1.907
 1668SOL    HW1 5903   6.183   3.380   1.808
 1668SOL    HW2 5904   6.079   3.351   1.930
 1669SOL     OW 5905   6.372   2.870   5.385
 1669SOL    HW1 5906   6.273   2.881   5.394
 1669SOL    HW2 5907   6.399   2.894   5.291
 1670SOL     OW 5908   2.926   4.315   5.335
 1670SOL    HW1 5909   2.892   4.397   5.288
 1670SOL    HW2 5910   3.003   4.277   5.283
 1671SOL     OW 5911   5.529   2.030   0.794
 1671SOL    HW1 5912   5.553   2.126   0.781
 1671SOL    HW2 5913   5.457   2.004   0.729
 1672SOL     OW 5914   0.339   2.288   1.363
 1672SOL    HW1 5915   0.432   2.298   1.397
 1672SOL    HW2 5916   0.317   2.191   1.355
 1673SOL     OW 5917   1.688   0.625   4.972
 1673SOL    HW1 5918   1.592   0.654   4.968
 1673SOL    HW2 5919   1.713   0.607   5.067
 1674SOL     OW 5920   5.159   2.352   3.608
 1674SOL    HW1 5921   5.195   2.369   3.516
 1674SOL    HW2 5922   5.073   2.301   3.601
 1675SOL     OW 5923   5.602   0.708   2.111
 1675SOL    HW1 5924   5.632   0.753   2.195
 1675SOL    HW2 5925   5.630   0.763   2.032
 1676SOL     OW 5926   1.105   2.409   3.821
 1676SOL    HW1 5927   1.084   2.400   3.724
 1676SOL    HW2 5928   1.184   2.468   3.833
 1677SOL     OW 5929   3.345   3.959   2.517
 1677SOL    HW1 5930   3.373   3.897   2.591
 1677SOL    HW2 5931   3.247   3.975   2.523
 1678SOL     OW 5932   6.969   6.531   6.678
 1678SOL    HW1 5933   6.871   6.535   6.658
 1678SOL    HW2 5934   6.994   6.605   6.740
 1679SOL     OW 5935   6.207   1.635   0.628
 1679SOL    HW1 5936   6.201   1.559   0.563
 1679SOL    HW2 5937   6.239   1.600   0.716
 1680SOL     OW 5938   5.969   2.578   2.855
 1680SOL    HW1 5939   6.006   2.666   2.825
 1680SOL    HW2 5940   6.036   2.506   2.836
 1681SOL     OW 5941   3.460   6.235   4.859
 1681SOL    HW1 5942   3.398   6.302   4.899
 1681SOL    HW2 5943   3.453   6.238   4.760
 1682SOL     OW 5944   4.107   1.069   4.869
 1682SOL    HW1 5945   4.175   1.102   4.935
 1682SOL    HW2 5946   4.025   1.040   4.917
 1683SOL     OW 5947   1.255   2.501   2.952
 1683SOL    HW1 5948   1.330   2.488   2.887
 1683SOL    HW2 5949   1.288   2.490   3.045
 1684SOL     OW 5950   2.548   5.164   1.280
 1684SOL    HW1 5951   2.557   5.192   1.184
 1684SOL    HW2 5952   2.633   5.122   1.311
 1685SOL     OW 5953   0.120   1.555   5.532
 1685SOL    HW1 5954   0.074   1.643   5.520
 1685SOL    HW2 5955   0.209   1.558   5.486
 1686SOL     OW 5956   3.461   5.172   1.719
 1686SOL    HW1 5957   3.510   5.258   1.711
 1686SOL    HW2 5958   3.526   5.096   1.718
 1687SOL     OW 5959   4.619   4.053   0.460
 1687SOL    HW1 5960   4.628   3.955   0.445
 1687SOL    HW2 5961   4.524   4.075   0.484
 1688SOL     OW 5962   3.001   0.517   3.180
 1688SOL    HW1 5963   3.080   0.492   3.235
 1688SOL    HW2 5964   3.025   0.593   3.119
 1689SOL     OW 5965   3.844   0.256   1.821
 1689SOL    HW1 5966   3.830   0.308   1.905
 1689SOL    HW2 5967   3.815   0.312   1.742
 1690SOL     OW 5968   6.917   5.266   4.289
 1690SOL    HW1 5969   6.941   5.170   4.282
 1690SOL    HW2 5970   6.939   5.313   4.203
 1691SOL     OW 5971   4.125   2.732   5.412
 1691SOL    HW1 5972   4.101   2.820   5.371
 1691SOL    HW2 5973   4.145   2.666   5.341
 1692SOL     OW 5974   6.075   5.397   2.728
 1692SOL    HW1 5975   6.169   5.369   2.711
 1692SOL    HW2 5976   6.016   5.361   2.655
 1693SOL     OW 5977   5.489   6.828   5.318
 1693SOL    HW1 5978   5.566   6.868   5.269
 1693SOL    HW2 5979   5.522   6.781   5.400
 1694SOL     OW 5980   4.865   1.183   6.561
 1694SOL    HW1 5981   4.829   1.095   6.594
 1694SOL    HW2 5982   4.903   1.171   6.469
 1695SOL     OW 5983   4.606   0.277   4.680
 1695SOL    HW1 5984   4.602   0.177   4.681
 1695SOL    HW2 5985   4.699   0.307   4.701
 1696SOL     OW 5986   5.198   6.948   0.856
 1696SOL    HW1 5987   5.213   6.850   0.844
 1696SOL    HW2 5988   5.279   6.989   0.899
 1697SOL     OW 5989   4.398   3.093   1.719
 1697SOL    HW1 5990   4.479   3.122   1.770
 1697SOL    HW2 5991   4.405   3.126   1.624
 1698SOL     OW 5992   4.164   1.310   1.768
 1698SOL    HW1 5993   4.256   1.346   1.753
 1698SOL    HW2 5994   4.124   1.353   1.848
 1699SOL     OW 5995   1.874   0.864   1.271
 1699SOL    HW1 5996   1.897   0.959   1.250
 1699SOL    HW2 5997   1.937   0.803   1.224
 1700SOL     OW 5998   5.418   3.334   2.563
 1700SOL    HW1 5999   5.342   3.385   2.523
 1700SOL    HW2 6000   5.490   3.321   2.494
 1701SOL     OW 6001   0.953   5.645   5.661
 1701SOL    HW1 6002   0.910   5.735   5.667
 1701SOL    HW2 6003   0.961   5.618   5.565
 1702SOL     OW 6004   1.960   2.477   6.737
 1702SOL    HW1 6005   1.943   2.473   6.835
 1702SOL    HW2 6006   1.942   2.387   6.696
 1703SOL     OW 6007   1.497   2.115   2.290
 1703SOL    HW1 6008   1.479   2.050   2.217
 1703SOL    HW2 6009   1.591   2.104   2.322
 1704SOL     OW 6010   3.015   3.038   6.692
 1704SOL    HW1 6011   2.966   2.990   6.620
 1704SOL    HW2 6012   2.996   2.995   6.780
 1705SOL     OW 6013   5.250   3.261   0.424
 1705SOL    HW1 6014   5.183   3.186   0.421
 1705SOL    HW2 6015   5.254   3.304   0.334
 1706SOL     OW 6016   5.466   0.655   5.939
 1706SOL    HW1 6017   5.425   0.567   5.916
 1706SOL    HW2 6018   5.566   0.649   5.932
 1707SOL     OW 6019   3.772   1.498   2.102
 1707SOL    HW1 6020   3.761   1.465   2.009
 1707SOL    HW2 6021   3.729   1.588   2.111
 1708SOL     OW 6022   2.523   4.507   1.928
 1708SOL    HW1 6023   2.622   4.513   1.940
 1708SOL    HW2 6024   2.488   4.597   1.899
 1709SOL     OW 6025   5.414   4.125   1.386
 1709SOL    HW1 6026   5.325   4.080   1.380
 1709SOL    HW2 6027   5.410   4.214   1.341
 1710SOL     OW 6028   4.767   2.825   2.460
 1710SOL    HW1 6029   4.794   2.812   2.364
 1710SOL    HW2 6030   4.671   2.798   2.472
 1711SOL     OW 6031   4.169   5.788   0.036
 1711SOL    HW1 6032   4.138   5.778   6.957
 1711SOL    HW2 6033   4.230   5.712   0.060
 1712SOL     OW 6034   0.321   1.895   2.271
 1712SOL    HW1 6035   0.230   1.935   2.270
 1712SOL    HW2 6036   0.322   1.815   2.331
 1713SOL     OW 6037   2.926   1.451   2.176
 1713SOL    HW1 6038   2.879   1.366   2.151
 1713SOL    HW2 6039   2.987   1.478   2.102
 1714SOL     OW 6040   2.786   4.191   1.320
 1714SOL    HW1 6041   2.860   4.188   1.387
 1714SOL    HW2 6042   2.711   4.133   1.351
 1715SOL     OW 6043   1.469   6.191   1.153
 1715SOL    HW1 6044   1.451   6.236   1.241
 1715SOL    HW2 6045   1.568   6.184   1.138
 1716SOL     OW 6046   5.014   1.511   2.707
 1716SOL    HW1 6047   4.992   1.416   2.683
 1716SOL    HW2 6048   4.930   1.565   2.709
 1717SOL     OW 6049   3.583   6.102   3.770
 1717SOL    HW1 6050   3.646   6.025   3.776
 1717SOL    HW2 6051   3.592   6.145   3.680
 1718SOL     OW 6052   1.698   3.293   1.840
 1718SOL    HW1 6053   1.754   3.218   1.875
 1718SOL    HW2 6054   1.748   3.342   1.769
 1719SOL     OW 6055   1.163   5.038   3.565
 1719SOL    HW1 6056   1.209   4.949   3.562
 1719SOL    HW2 6057   1.210   5.097   3.631
 1720SOL     OW 6058   1.134   2.788   5.235
 1720SOL    HW1 6059   1.039   2.769   5.259
 1720SOL    HW2 6060   1.139   2.875   5.185
 1721SOL     OW 6061   2.419   2.693   0.346
 1721SOL    HW1 6062   2.402   2.744   0.431
 1721SOL    HW2 6063   2.518   2.678   0.336
 1722SOL     OW 6064   3.134   2.163   3.697
 1722SOL    HW1 6065   3.092   2.075   3.721
 1722SOL    HW2 6066   3.121   2.181   3.599
 1723SOL     OW 6067   6.433   4.642   1.260
 1723SOL    HW1 6068   6.437   4.695   1.345
 1723SOL    HW2 6069   6.351   4.586   1.259
 1724SOL     OW 6070   5.922   3.381   0.727
 1724SOL    HW1 6071   5.914   3.473   0.689
 1724SOL    HW2 6072   6.018   3.351   0.722
 1725SOL     OW 6073   1.973   6.561   6.334
 1725SOL    HW1 6074   1.962   6.647   6.284
 1725SOL    HW2 6075   1.904   6.496   6.306
 1726SOL     OW 6076   5.045   4.929   3.699
 1726SOL    HW1 6077   5.060   5.016   3.747
 1726SOL    HW2 6078   5.096   4.929   3.613
 1727SOL     OW 6079   3.015   3.140   3.416
 1727SOL    HW1 6080   2.915   3.141   3.416
 1727SOL    HW2 6081   3.048   3.177   3.329
 1728SOL     OW 6082   5.365   2.093   4.297
 1728SOL    HW1 6083   5.334   2.168   4.356
 1728SOL    HW2 6084   5.307   2.089   4.216
 1729SOL     OW 6085   1.543   3.353   2.802
 1729SOL    HW1 6086   1.630   3.395   2.827
 1729SOL    HW2 6087   1.542   3.258   2.833
 1730SOL     OW 6088   2.599   0.772   4.615
 1730SOL    HW1 6089   2.532   0.816   4.674
 1730SOL    HW2 6090   2.558   0.693   4.570
 1731SOL     OW 6091   5.312   4.429   3.783
 1731SOL    HW1 6092   5.370   4.347   3.787
 1731SOL    HW2 6093   5.216   4.402   3.777
 1732SOL     OW 6094   4.235   3.473   5.173
 1732SOL    HW1 6095   4.267   3.490   5.080
 1732SOL    HW2 6096   4.136   3.462   5.173
 1733SOL     OW 6097   1.574   2.074   6.955
 1733SOL    HW1 6098   1.628   1.995   6.983
 1733SOL    HW2 6099   1.488   2.044   6.914
 1734SOL     OW 6100   0.616   4.048   1.699
 1734SOL    HW1 6101   0.517   4.044   1.697
 1734SOL    HW2 6102   0.646   4.144   1.699
 1735SOL     OW 6103   3.527   5.512   5.940
 1735SOL    HW1 6104   3.618   5.507   5.900
 1735SOL    HW2 6105   3.487   5.420   5.942
 1736SOL     OW 6106   4.835   2.137   5.832
 1736SOL    HW1 6107   4.916   2.081   5.847
 1736SOL    HW2 6108   4.812   2.137   5.735
 1737SOL     OW 6109   2.832   1.326   6.559
 1737SOL    HW1 6110   2.793   1.262   6.625
 1737SOL    HW2 6111   2.761   1.352   6.493
 1738SOL     OW 6112   0.787   3.891   1.913
 1738SOL    HW1 6113   0.762   3.936   1.827
 1738SOL    HW2 6114   0.708   3.842   1.950
 1739SOL     OW 6115   4.450   4.898   2.352
 1739SOL    HW1 6116   4.533   4.883   2.406
 1739SOL    HW2 6117   4.376   4.927   2.413
 1740SOL     OW 6118   0.043   2.156   4.561
 1740SOL    HW1 6119   0.124   2.212   4.581
 1740SOL    HW2 6120   0.029   2.090   4.636
 1741SOL     OW 6121   1.399   3.217   4.723
 1741SOL    HW1 6122   1.356   3.203   4.812
 1741SOL    HW2 6123   1.386   3.135   4.667
 1742SOL     OW 6124   6.003   0.168   6.913
 1742SOL    HW1 6125   5.925   0.187   6.853
 1742SOL    HW2 6126   6.055   0.252   6.927
 1743SOL     OW 6127   1.009   2.265   1.469
 1743SOL    HW1 6128   1.101   2.279   1.505
 1743SOL    HW2 6129   0.956   2.211   1.534
 1744SOL     OW 6130   3.166   2.142   5.345
 1744SOL    HW1 6131   3.188   2.053   5.307
 1744SOL    HW2 6132   3.175   2.212   5.275
 1745SOL     OW 6133   6.334   6.410   0.693
 1745SOL    HW1 6134   6.424   6.454   0.690
 1745SOL    HW2 6135   6.325   6.347   0.615
 1746SOL     OW 6136   2.363   5.350   2.670
 1746SOL    HW1 6137   2.332   5.274   2.727
 1746SOL    HW2 6138   2.394   5.315   2.581
 1747SOL     OW 6139   2.821   0.084   2.367
 1747SOL    HW1 6140   2.816   0.181   2.344
 1747SOL    HW2 6141   2.836   0.031   2.284
 1748SOL     OW 6142   6.902   1.625   3.615
 1748SOL    HW1 6143   6.928   1.538   3.656
 1748SOL    HW2 6144   6.802   1.627   3.603
 1749SOL     OW 6145   6.330   5.126   2.906
 1749SOL    HW1 6146   6.256   5.192   2.923
 1749SOL    HW2 6147   6.291   5.036   2.886
 1750SOL     OW 6148   3.488   1.257   0.793
 1750SOL    HW1 6149   3.553   1.303   0.733
 1750SOL    HW2 6150   3.403   1.309   0.798
 1751SOL     OW 6151   6.430   4.317   4.896
 1751SOL    HW1 6152   6.412   4.374   4.976
 1751SOL    HW2 6153   6.451   4.375   4.817
 1752SOL     OW 6154   6.099   0.828   2.422
 1752SOL    HW1 6155   6.087   0.733   2.393
 1752SOL    HW2 6156   6.010   0.871   2.434
 1753SOL     OW 6157   6.279   1.421   1.514
 1753SOL    HW1 6158   6.345   1.431   1.441
 1753SOL    HW2 6159   6.204   1.486   1.502
 1754SOL     OW 6160   2.756   5.185   3.499
 1754SOL    HW1 6161   2.841   5.221   3.461
 1754SOL    HW2 6162   2.741   5.226   3.589
 1755SOL     OW 6163   6.308   6.414   5.371
 1755SOL    HW1 6164   6.250   6.332   5.369
 1755SOL    HW2 6165   6.388   6.398   5.313
 1756SOL     OW 6166   4.624   6.271   1.633
 1756SOL    HW1 6167   4.692   6.293   1.564
 1756SOL    HW2 6168   4.584   6.356   1.668
 1757SOL     OW 6169   2.840   5.287   4.949
 1757SOL    HW1 6170   2.833   5.298   4.850
 1757SOL    HW2 6171   2.840   5.377   4.993
 1758SOL     OW 6172   0.518   6.232   4.104
 1758SOL    HW1 6173   0.544   6.136   4.115
 1758SOL    HW2 6174   0.497   6.250   4.007
 1759SOL     OW 6175   1.780   5.290   6.314
 1759SOL    HW1 6176   1.837   5.327   6.241
 1759SOL    HW2 6177   1.707   5.234   6.275
 1760SOL     OW 6178   6.120   1.688   3.749
 1760SOL    HW1 6179   6.037   1.704   3.802
 1760SOL    HW2 6180   6.194   1.746   3.784
 1761SOL     OW 6181   5.730   2.219   3.688
 1761SOL    HW1 6182   5.661   2.286   3.716
 1761SOL    HW2 6183   5.796   2.207   3.762
 1762SOL     OW 6184   0.561   1.513   5.709
 1762SOL    HW1 6185   0.594   1.425   5.742
 1762SOL    HW2 6186   0.482   1.542   5.763
 1763SOL     OW 6187   1.504   4.822   4.117
 1763SOL    HW1 6188   1.507   4.722   4.115
 1763SOL    HW2 6189   1.570   4.855   4.185
 1764SOL     OW 6190   1.019   5.732   3.195
 1764SOL    HW1 6191   0.976   5.648   3.230
 1764SOL    HW2 6192   1.057   5.715   3.104
 1765SOL     OW 6193   5.536   3.875   1.718
 1765SOL    HW1 6194   5.606   3.810   1.687
 1765SOL    HW2 6195   5.540   3.957   1.660
 1766SOL     OW 6196   4.019   5.076   3.930
 1766SOL    HW1 6197   4.055   4.986   3.955
 1766SOL    HW2 6198   4.021   5.086   3.830
 1767SOL     OW 6199   1.301   4.355   1.271
 1767SOL    HW1 6200   1.239   4.285   1.307
 1767SOL    HW2 6201   1.251   4.416   1.209
 1768SOL     OW 6202   3.647   4.917   2.793
 1768SOL    HW1 6203   3.581   4.878   2.730
 1768SOL    HW2 6204   3.646   4.865   2.879
 1769SOL     OW 6205   5.450   0.342   1.019
 1769SOL    HW1 6206   5.394   0.378   1.094
 1769SOL    HW2 6207   5.544   0.332   1.049
 1770SOL     OW 6208   2.301   4.741   0.447
 1770SOL    HW1 6209   2.208   4.767   0.475
 1770SOL    HW2 6210   2.366   4.771   0.516
 1771SOL     OW 6211   0.801   2.987   5.956
 1771SOL    HW1 6212   0.820   2.925   6.032
 1771SOL    HW2 6213   0.710   3.026   5.966
 1772SOL     OW 6214   2.515   4.538   2.551
 1772SOL    HW1 6215   2.484   4.445   2.532
 1772SOL    HW2 6216   2.543   4.582   2.465
 1773SOL     OW 6217   2.419   6.809   5.123
 1773SOL    HW1 6218   2.516   6.785   5.119
 1773SOL    HW2 6219   2.389   6.845   5.035
 1774SOL     OW 6220   5.502   5.737   1.941
 1774SOL    HW1 6221   5.473   5.831   1.959
 1774SOL    HW2 6222   5.600   5.737   1.919
 1775SOL     OW 6223   1.344   6.652   0.958
 1775SOL    HW1 6224   1.357   6.628   0.862
 1775SOL    HW2 6225   1.250   6.681   0.973
 1776SOL     OW 6226   4.676   2.950   6.124
 1776SOL    HW1 6227   4.637   2.858   6.127
 1776SOL    HW2 6228   4.741   2.961   6.199
 1777SOL     OW 6229   4.766   5.700   6.838
 1777SOL    HW1 6230   4.717   5.657   6.762
 1777SOL    HW2 6231   4.702   5.721   6.912
 1778SOL     OW 6232   7.011   0.239   2.648
 1778SOL    HW1 6233   0.001   0.288   2.735
 1778SOL    HW2 6234   6.984   0.144   2.665
 1779SOL     OW 6235   7.000   0.200   4.793
 1779SOL    HW1 6236   0.032   0.159   4.871
 1779SOL    HW2 6237   6.966   0.127   4.733
 1780SOL     OW 6238   3.117   6.868   4.512
 1780SOL    HW1 6239   3.041   6.930   4.490
 1780SOL    HW2 6240   3.201   6.922   4.522
 1781SOL     OW 6241   5.053   1.691   6.107
 1781SOL    HW1 6242   5.146   1.677   6.071
 1781SOL    HW2 6243   5.013   1.602   6.130
 1782SOL     OW 6244   4.996   0.552   2.506
 1782SOL    HW1 6245   4.961   0.568   2.414
 1782SOL    HW2 6246   4.937   0.598   2.572
 1783SOL     OW 6247   1.752   3.280   0.268
 1783SOL    HW1 6248   1.667   3.317   0.305
 1783SOL    HW2 6249   1.788   3.211   0.331
 1784SOL     OW 6250   2.130   6.131   1.289
 1784SOL    HW1 6251   2.195   6.055   1.284
 1784SOL    HW2 6252   2.136   6.186   1.206
 1785SOL     OW 6253   1.929   5.517   4.526
 1785SOL    HW1 6254   1.965   5.439   4.475
 1785SOL    HW2 6255   1.843   5.546   4.484
 1786SOL     OW 6256   0.363   5.801   1.796
 1786SOL    HW1 6257   0.447   5.765   1.756
 1786SOL    HW2 6258   0.385   5.879   1.855
 1787SOL     OW 6259   2.194   2.765   6.110
 1787SOL    HW1 6260   2.181   2.844   6.051
 1787SOL    HW2 6261   2.132   2.691   6.083
 1788SOL     OW 6262   3.517   4.294   0.715
 1788SOL    HW1 6263   3.519   4.206   0.667
 1788SOL    HW2 6264   3.422   4.314   0.742
 1789SOL     OW 6265   5.998   2.123   2.252
 1789SOL    HW1 6266   6.029   2.188   2.184
 1789SOL    HW2 6267   6.052   2.039   2.246
 1790SOL     OW 6268   2.418   1.879   4.882
 1790SOL    HW1 6269   2.320   1.867   4.868
 1790SOL    HW2 6270   2.460   1.789   4.897
 1791SOL     OW 6271   6.413   0.459   3.779
 1791SOL    HW1 6272   6.455   0.523   3.715
 1791SOL    HW2 6273   6.461   0.371   3.774
 1792SOL     OW 6274   6.711   2.553   6.080
 1792SOL    HW1 6275   6.769   2.552   5.999
 1792SOL    HW2 6276   6.629   2.607   6.062
 1793SOL     OW 6277   0.370   1.254   4.729
 1793SOL    HW1 6278   0.453   1.284   4.681
 1793SOL    HW2 6279   0.294   1.314   4.704
 1794SOL     OW 6280   6.691   1.715   6.674
 1794SOL    HW1 6281   6.778   1.719   6.625
 1794SOL    HW2 6282   6.708   1.729   6.772
 1795SOL     OW 6283   5.301   4.476   0.609
 1795SOL    HW1 6284   5.291   4.565   0.564
 1795SOL    HW2 6285   5.301   4.404   0.539
 1796SOL     OW 6286   6.244   6.794   6.842
 1796SOL    HW1 6287   6.318   6.860   6.855
 1796SOL    HW2 6288   6.156   6.842   6.840
 1797SOL     OW 6289   2.946   6.277   5.085
 1797SOL    HW1 6290   2.851   6.248   5.093
 1797SOL    HW2 6291   2.953   6.351   5.017
 1798SOL     OW 6292   2.251   3.688   6.129
 1798SOL    HW1 6293   2.334   3.709   6.182
 1798SOL    HW2 6294   2.172   3.726   6.177
 1799SOL     OW 6295   3.429   1.655   2.063
 1799SOL    HW1 6296   3.436   1.597   2.145
 1799SOL    HW2 6297   3.373   1.608   1.995
 1800SOL     OW 6298   6.036   2.510   5.618
 1800SOL    HW1 6299   5.958   2.537   5.562
 1800SOL    HW2 6300   6.005   2.448   5.690
 1801SOL     OW 6301   0.334   1.650   2.419
 1801SOL    HW1 6302   0.421   1.602   2.411
 1801SOL    HW2 6303   0.311   1.662   2.515
 1802SOL     OW 6304   6.786   4.586   4.450
 1802SOL    HW1 6305   6.721   4.659   4.427
 1802SOL    HW2 6306   6.835   4.558   4.367
 1803SOL     OW 6307   6.937   6.372   4.021
 1803SOL    HW1 6308   6.898   6.420   3.943
 1803SOL    HW2 6309   0.013   6.340   3.997
 1804SOL     OW 6310   0.763   2.868   6.427
 1804SOL    HW1 6311   0.781   2.965   6.442
 1804SOL    HW2 6312   0.771   2.818   6.514
 1805SOL     OW 6313   6.432   4.893   6.067
 1805SOL    HW1 6314   6.369   4.818   6.085
 1805SOL    HW2 6315   6.523   4.856   6.048
 1806SOL     OW 6316   0.564   1.747   1.666
 1806SOL    HW1 6317   0.558   1.736   1.566
 1806SOL    HW2 6318   0.533   1.663   1.710
 1807SOL     OW 6319   6.649   2.232   1.826
 1807SOL    HW1 6320   6.714   2.225   1.751
 1807SOL    HW2 6321   6.650   2.325   1.863
 1808SOL     OW 6322   6.483   0.761   6.390
 1808SOL    HW1 6323   6.529   0.682   6.348
 1808SOL    HW2 6324   6.550   0.835   6.402
 1809SOL     OW 6325   5.070   0.506   5.139
 1809SOL    HW1 6326   4.990   0.564   5.126
 1809SOL    HW2 6327   5.042   0.410   5.137
 1810SOL     OW 6328   1.096   1.501   4.651
 1810SOL    HW1 6329   1.120   1.593   4.621
 1810SOL    HW2 6330   1.172   1.461   4.702
 1811SOL     OW 6331   3.333   5.760   1.756
 1811SOL    HW1 6332   3.353   5.857   1.773
 1811SOL    HW2 6333   3.369   5.705   1.831
 1812SOL     OW 6334   4.479   0.753   6.394
 1812SOL    HW1 6335   4.491   0.731   6.491
 1812SOL    HW2 6336   4.493   0.851   6.380
 1813SOL     OW 6337   5.574   3.310   2.119
 1813SOL    HW1 6338   5.569   3.405   2.087
 1813SOL    HW2 6339   5.624   3.255   2.052
 1814SOL     OW 6340   6.463   5.650   0.797
 1814SOL    HW1 6341   6.540   5.678   0.740
 1814SOL    HW2 6342   6.492   5.576   0.858
 1815SOL     OW 6343   6.087   5.318   1.222
 1815SOL    HW1 6344   6.043   5.381   1.158
 1815SOL    HW2 6345   6.036   5.318   1.308
 1816SOL     OW 6346   3.491   5.118   4.503
 1816SOL    HW1 6347   3.472   5.210   4.469
 1816SOL    HW2 6348   3.566   5.078   4.450
 1817SOL     OW 6349   6.729   2.982   3.533
 1817SOL    HW1 6350   6.733   2.891   3.492
 1817SOL    HW2 6351   6.821   3.009   3.564
 1818SOL     OW 6352   2.240   1.404   0.922
 1818SOL    HW1 6353   2.301   1.325   0.918
 1818SOL    HW2 6354   2.176   1.393   0.998
 1819SOL     OW 6355   1.044   3.553   0.994
 1819SOL    HW1 6356   0.967   3.616   1.006
 1819SOL    HW2 6357   1.084   3.531   1.083
 1820SOL     OW 6358   4.068   6.862   5.161
 1820SOL    HW1 6359   4.156   6.815   5.160
 1820SOL    HW2 6360   4.015   6.836   5.080
 1821SOL     OW 6361   4.123   1.175   2.748
 1821SOL    HW1 6362   4.104   1.189   2.845
 1821SOL    HW2 6363   4.221   1.173   2.733
 1822SOL     OW 6364   1.833   3.895   4.520
 1822SOL    HW1 6365   1.762   3.957   4.486
 1822SOL    HW2 6366   1.880   3.852   4.443
 1823SOL     OW 6367   3.727   0.070   3.844
 1823SOL    HW1 6368   3.650   0.132   3.859
 1823SOL    HW2 6369   3.796   0.085   3.915
 1824SOL     OW 6370   4.677   2.696   1.958
 1824SOL    HW1 6371   4.700   2.791   1.979
 1824SOL    HW2 6372   4.591   2.672   2.003
 1825SOL     OW 6373   1.202   3.692   0.222
 1825SOL    HW1 6374   1.193   3.594   0.239
 1825SOL    HW2 6375   1.261   3.707   0.143
 1826SOL     OW 6376   3.577   3.394   0.375
 1826SOL    HW1 6377   3.571   3.294   0.377
 1826SOL    HW2 6378   3.654   3.422   0.318
 1827SOL     OW 6379   5.233   4.874   0.638
 1827SOL    HW1 6380   5.249   4.819   0.719
 1827SOL    HW2 6381   5.261   4.823   0.556
 1828SOL     OW 6382   2.640   5.113   5.002
 1828SOL    HW1 6383   2.718   5.174   4.987
 1828SOL    HW2 6384   2.560   5.150   4.954
 1829SOL     OW 6385   1.997   6.461   2.151
 1829SOL    HW1 6386   2.000   6.436   2.248
 1829SOL    HW2 6387   2.030   6.384   2.096
 1830SOL     OW 6388   4.411   1.661   6.674
 1830SOL    HW1 6389   4.331   1.625   6.722
 1830SOL    HW2 6390   4.475   1.700   6.740
 1831SOL     OW 6391   3.487   4.826   0.144
 1831SOL    HW1 6392   3.392   4.808   0.119
 1831SOL    HW2 6393   3.513   4.767   0.221
 1832SOL     OW 6394   1.744   3.032   5.936
 1832SOL    HW1 6395   1.787   3.020   6.025
 1832SOL    HW2 6396   1.745   3.129   5.911
 1833SOL     OW 6397   6.018   1.239   0.655
 1833SOL    HW1 6398   5.969   1.294   0.587
 1833SOL    HW2 6399   6.014   1.143   0.628
 1834SOL     OW 6400   2.190   4.026   6.302
 1834SOL    HW1 6401   2.147   3.935   6.300
 1834SOL    HW2 6402   2.173   4.073   6.215
 1835SOL     OW 6403   6.754   6.875   0.184
 1835SOL    HW1 6404   6.699   6.840   0.259
 1835SOL    HW2 6405   6.772   6.972   0.198
 1836SOL     OW 6406   6.068   1.514   3.966
 1836SOL    HW1 6407   6.016   1.577   4.023
 1836SOL    HW2 6408   6.123   1.565   3.900
 1837SOL     OW 6409   1.088   1.980   0.327
 1837SOL    HW1 6410   1.093   2.027   0.415
 1837SOL    HW2 6411   1.180   1.964   0.292
 1838SOL     OW 6412   5.199   0.656   1.078
 1838SOL    HW1 6413   5.127   0.701   1.132
 1838SOL    HW2 6414   5.171   0.562   1.057
 1839SOL     OW 6415   6.771   1.587   6.283
 1839SOL    HW1 6416   6.711   1.630   6.215
 1839SOL    HW2 6417   6.724   1.509   6.324
 1840SOL     OW 6418   3.155   0.538   5.274
 1840SOL    HW1 6419   3.136   0.523   5.178
 1840SOL    HW2 6420   3.103   0.617   5.307
 1841SOL     OW 6421   2.363   0.115   1.795
 1841SOL    HW1 6422   2.303   0.143   1.870
 1841SOL    HW2 6423   2.398   0.196   1.748
 1842SOL     OW 6424   0.030   4.854   1.509
 1842SOL    HW1 6425   0.063   4.902   1.591
 1842SOL    HW2 6426   0.098   4.786   1.481
 1843SOL     OW 6427   3.122   1.090   6.637
 1843SOL    HW1 6428   3.175   1.169   6.606
 1843SOL    HW2 6429   3.108   1.096   6.736
 1844SOL     OW 6430   4.764   3.498   0.343
 1844SOL    HW1 6431   4.772   3.565   0.269
 1844SOL    HW2 6432   4.729   3.542   0.425
 1845SOL     OW 6433   0.929   2.703   4.653
 1845SOL    HW1 6434   0.948   2.676   4.747
 1845SOL    HW2 6435   1.014   2.733   4.609
 1846SOL     OW 6436   3.579   1.721   2.406
 1846SOL    HW1 6437   3.612   1.707   2.499
 1846SOL    HW2 6438   3.641   1.782   2.357
 1847SOL     OW 6439   3.246   6.074   6.727
 1847SOL    HW1 6440   3.277   6.146   6.789
 1847SOL    HW2 6441   3.276   6.095   6.634
 1848SOL     OW 6442   3.185   6.242   4.666
 1848SOL    HW1 6443   3.278   6.237   4.630
 1848SOL    HW2 6444   3.124   6.279   4.596
 1849SOL     OW 6445   4.821   2.809   2.759
 1849SOL    HW1 6446   4.817   2.797   2.660
 1849SOL    HW2 6447   4.730   2.793   2.798
 1850SOL     OW 6448   4.494   1.657   0.913
 1850SOL    HW1 6449   4.485   1.672   0.815
 1850SOL    HW2 6450   4.452   1.733   0.963
 1851SOL     OW 6451   0.862   4.881   4.249
 1851SOL    HW1 6452   0.926   4.958   4.241
 1851SOL    HW2 6453   0.865   4.845   4.342
 1852SOL     OW 6454   0.761   0.263   3.363
 1852SOL    HW1 6455   0.681   0.300   3.315
 1852SOL    HW2 6456   0.733   0.186   3.419
 1853SOL     OW 6457   0.844   1.871   5.507
 1853SOL    HW1 6458   0.920   1.936   5.515
 1853SOL    HW2 6459   0.771   1.898   5.570
 1854SOL     OW 6460   0.500   0.157   4.167
 1854SOL    HW1 6461   0.414   0.137   4.214
 1854SOL    HW2 6462   0.559   0.077   4.171
 1855SOL     OW 6463   6.640   1.322   5.034
 1855SOL    HW1 6464   6.680   1.395   5.089
 1855SOL    HW2 6465   6.540   1.328   5.038
 1856SOL     OW 6466   5.123   4.196   6.428
 1856SOL    HW1 6467   5.042   4.156   6.384
 1856SOL    HW2 6468   5.165   4.128   6.488
 1857SOL     OW 6469   4.774   0.901   6.640
 1857SOL    HW1 6470   4.708   0.876   6.711
 1857SOL    HW2 6471   4.796   0.821   6.585
 1858SOL     OW 6472   5.509   2.033   4.529
 1858SOL    HW1 6473   5.438   1.987   4.582
 1858SOL    HW2 6474   5.470   2.068   4.444
 1859SOL     OW 6475   6.597   6.217   2.433
 1859SOL    HW1 6476   6.570   6.290   2.370
 1859SOL    HW2 6477   6.604   6.131   2.383
 1860SOL     OW 6478   2.241   0.968   6.995
 1860SOL    HW1 6479   2.334   0.957   0.016
 1860SOL    HW2 6480   2.219   0.890   6.937
 1861SOL     OW 6481   6.746   6.431   5.504
 1861SOL    HW1 6482   6.827   6.381   5.534
 1861SOL    HW2 6483   6.665   6.374   5.518
 1862SOL     OW 6484   4.003   5.612   5.926
 1862SOL    HW1 6485   4.059   5.548   5.873
 1862SOL    HW2 6486   4.043   5.704   5.920
 1863SOL     OW 6487   6.800   1.174   1.524
 1863SOL    HW1 6488   6.783   1.223   1.439
 1863SOL    HW2 6489   6.750   1.218   1.599
 1864SOL     OW 6490   1.973   6.109   2.851
 1864SOL    HW1 6491   2.018   6.069   2.772
 1864SOL    HW2 6492   2.035   6.174   2.895
 1865SOL     OW 6493   6.653   2.383   5.679
 1865SOL    HW1 6494   6.663   2.306   5.616
 1865SOL    HW2 6495   6.568   2.373   5.731
 1866SOL     OW 6496   0.299   4.068   5.059
 1866SOL    HW1 6497   0.311   4.148   5.118
 1866SOL    HW2 6498   0.218   4.017   5.088
 1867SOL     OW 6499   1.040   1.085   1.482
 1867SOL    HW1 6500   1.103   1.025   1.434
 1867SOL    HW2 6501   0.958   1.035   1.509
 1868SOL     OW 6502   5.515   3.679   5.860
 1868SOL    HW1 6503   5.566   3.746   5.807
 1868SOL    HW2 6504   5.536   3.689   5.957
 1869SOL     OW 6505   5.039   0.518   5.749
 1869SOL    HW1 6506   5.023   0.581   5.673
 1869SOL    HW2 6507   5.005   0.427   5.724
 1870SOL     OW 6508   5.921   0.849   5.535
 1870SOL    HW1 6509   6.019   0.861   5.550
 1870SOL    HW2 6510   5.905   0.809   5.445
 1871SOL     OW 6511   2.561   5.017   6.843
 1871SOL    HW1 6512   2.608   4.932   6.821
 1871SOL    HW2 6513   2.626   5.082   6.882
 1872SOL     OW 6514   2.650   3.391   0.791
 1872SOL    HW1 6515   2.580   3.355   0.729
 1872SOL    HW2 6516   2.740   3.359   0.761
 1873SOL     OW 6517   5.988   1.776   2.440
 1873SOL    HW1 6518   5.895   1.796   2.410
 1873SOL    HW2 6519   5.991   1.769   2.539
 1874SOL     OW 6520   2.356   5.394   6.556
 1874SOL    HW1 6521   2.362   5.306   6.604
 1874SOL    HW2 6522   2.388   5.467   6.616
 1875SOL     OW 6523   1.298   6.483   2.403
 1875SOL    HW1 6524   1.290   6.580   2.382
 1875SOL    HW2 6525   1.391   6.452   2.383
 1876SOL     OW 6526   1.050   4.642   6.710
 1876SOL    HW1 6527   1.012   4.728   6.743
 1876SOL    HW2 6528   1.128   4.661   6.650
 1877SOL     OW 6529   0.881   1.052   2.643
 1877SOL    HW1 6530   0.955   1.067   2.708
 1877SOL    HW2 6531   0.797   1.028   2.692
 1878SOL     OW 6532   6.099   4.089   4.056
 1878SOL    HW1 6533   6.187   4.136   4.048
 1878SOL    HW2 6534   6.061   4.104   4.148
 1879SOL     OW 6535   4.083   6.440   5.338
 1879SOL    HW1 6536   4.176   6.469   5.318
 1879SOL    HW2 6537   4.022   6.520   5.338
 1880SOL     OW 6538   1.837   3.160   4.539
 1880SOL    HW1 6539   1.865   3.081   4.593
 1880SOL    HW2 6540   1.913   3.225   4.533
 1881SOL     OW 6541   1.825   1.561   3.562
 1881SOL    HW1 6542   1.920   1.571   3.593
 1881SOL    HW2 6543   1.813   1.609   3.475
 1882SOL     OW 6544   3.920   6.149   0.772
 1882SOL    HW1 6545   3.901   6.086   0.697
 1882SOL    HW2 6546   3.876   6.236   0.754
 1883SOL     OW 6547   2.057   3.161   2.431
 1883SOL    HW1 6548   2.118   3.081   2.426
 1883SOL    HW2 6549   2.094   3.234   2.373
 1884SOL     OW 6550   5.113   0.801   6.878
 1884SOL    HW1 6551   5.062   0.729   6.925
 1884SOL    HW2 6552   5.114   0.883   6.935
 1885SOL     OW 6553   0.254   1.327   0.942
 1885SOL    HW1 6554   0.185   1.282   0.886
 1885SOL    HW2 6555   0.224   1.420   0.963
 1886SOL     OW 6556   3.307   3.017   5.036
 1886SOL    HW1 6557   3.254   2.961   4.973
 1886SOL    HW2 6558   3.256   3.026   5.122
 1887SOL     OW 6559   1.065   6.135   5.150
 1887SOL    HW1 6560   1.099   6.084   5.229
 1887SOL    HW2 6561   1.102   6.228   5.151
 1888SOL     OW 6562   2.179   1.591   6.171
 1888SOL    HW1 6563   2.214   1.597   6.264
 1888SOL    HW2 6564   2.093   1.642   6.165
 1889SOL     OW 6565   3.543   3.533   7.011
 1889SOL    HW1 6566   3.547   3.578   0.085
 1889SOL    HW2 6567   3.449   3.536   6.976
 1890SOL     OW 6568   6.054   5.917   6.656
 1890SOL    HW1 6569   6.037   5.961   6.744
 1890SOL    HW2 6570   6.009   5.828   6.654
 1891SOL     OW 6571   5.037   3.471   6.431
 1891SOL    HW1 6572   5.063   3.471   6.334
 1891SOL    HW2 6573   4.993   3.384   6.453
 1892SOL     OW 6574   4.315   0.481   3.335
 1892SOL    HW1 6575   4.311   0.554   3.403
 1892SOL    HW2 6576   4.232   0.483   3.280
 1893SOL     OW 6577   3.114   1.863   6.920
 1893SOL    HW1 6578   3.201   1.902   6.892
 1893SOL    HW2 6579   3.049   1.937   6.939
 1894SOL     OW 6580   4.856   3.215   0.452
 1894SOL    HW1 6581   4.864   3.295   0.393
 1894SOL    HW2 6582   4.831   3.135   0.396
 1895SOL     OW 6583   4.826   5.725   3.152
 1895SOL    HW1 6584   4.816   5.794   3.080
 1895SOL    HW2 6585   4.741   5.718   3.204
 1896SOL     OW 6586   6.379   1.327   5.009
 1896SOL    HW1 6587   6.375   1.422   4.977
 1896SOL    HW2 6588   6.344   1.267   4.937
 1897SOL     OW 6589   5.057   5.816   2.871
 1897SOL    HW1 6590   5.111   5.752   2.926
 1897SOL    HW2 6591   5.118   5.887   2.834
 1898SOL     OW 6592   5.598   6.336   0.047
 1898SOL    HW1 6593   5.566   6.336   6.967
 1898SOL    HW2 6594   5.596   6.429   0.083
 1899SOL     OW 6595   1.934   2.798   3.458
 1899SOL    HW1 6596   2.027   2.782   3.425
 1899SOL    HW2 6597   1.931   2.781   3.556
 1900SOL     OW 6598   2.737   5.252   1.589
 1900SOL    HW1 6599   2.674   5.188   1.545
 1900SOL    HW2 6600   2.822   5.205   1.611
 1901SOL     OW 6601   0.960   1.168   6.086
 1901SOL    HW1 6602   0.936   1.180   5.990
 1901SOL    HW2 6603   1.053   1.131   6.093
 1902SOL     OW 6604   1.625   2.438   4.361
 1902SOL    HW1 6605   1.633   2.538   4.355
 1902SOL    HW2 6606   1.642   2.409   4.455
 1903SOL     OW 6607   6.516   5.621   3.850
 1903SOL    HW1 6608   6.611   5.588   3.855
 1903SOL    HW2 6609   6.480   5.634   3.942
 1904SOL     OW 6610   0.790   0.538   4.259
 1904SOL    HW1 6611   0.731   0.603   4.307
 1904SOL    HW2 6612   0.862   0.507   4.321
 1905SOL     OW 6613   5.812   2.993   5.603
 1905SOL    HW1 6614   5.716   2.967   5.610
 1905SOL    HW2 6615   5.857   2.980   5.691
 1906SOL     OW 6616   2.417   6.631   5.692
 1906SOL    HW1 6617   2.421   6.542   5.649
 1906SOL    HW2 6618   2.422   6.621   5.792
 1907SOL     OW 6619   4.384   6.840   3.179
 1907SOL    HW1 6620   4.290   6.817   3.154
 1907SOL    HW2 6621   4.445   6.765   3.154
 1908SOL     OW 6622   4.851   4.950   0.447
 1908SOL    HW1 6623   4.865   4.982   0.353
 1908SOL    HW2 6624   4.926   4.981   0.505
 1909SOL     OW 6625   5.218   5.672   3.504
 1909SOL    HW1 6626   5.308   5.635   3.529
 1909SOL    HW2 6627   5.201   5.755   3.557
 1910SOL     OW 6628   4.863   3.967   4.248
 1910SOL    HW1 6629   4.954   3.950   4.211
 1910SOL    HW2 6630   4.862   3.946   4.346
 1911SOL     OW 6631   1.027   2.310   5.654
 1911SOL    HW1 6632   0.992   2.225   5.694
 1911SOL    HW2 6633   1.085   2.357   5.720
 1912SOL     OW 6634   3.063   6.343   2.676
 1912SOL    HW1 6635   2.988   6.277   2.673
 1912SOL    HW2 6636   3.026   6.435   2.693
 1913SOL     OW 6637   2.853   4.183   6.924
 1913SOL    HW1 6638   2.856   4.085   6.939
 1913SOL    HW2 6639   2.892   4.204   6.834
 1914SOL     OW 6640   4.582   1.247   4.930
 1914SOL    HW1 6641   4.582   1.241   4.830
 1914SOL    HW2 6642   4.490   1.267   4.962
 1915SOL     OW 6643   2.646   6.680   5.488
 1915SOL    HW1 6644   2.734   6.726   5.480
 1915SOL    HW2 6645   2.637   6.639   5.578
 1916SOL     OW 6646   3.301   6.306   2.505
 1916SOL    HW1 6647   3.370   6.371   2.539
 1916SOL    HW2 6648   3.216   6.320   2.556
 1917SOL     OW 6649   3.795   4.063   3.824
 1917SOL    HW1 6650   3.875   4.045   3.766
 1917SOL    HW2 6651   3.818   4.041   3.919
 1918SOL     OW 6652   0.511   6.130   5.701
 1918SOL    HW1 6653   0.594   6.074   5.693
 1918SOL    HW2 6654   0.511   6.174   5.790
 1919SOL     OW 6655   5.930   0.928   2.186
 1919SOL    HW1 6656   5.987   1.010   2.175
 1919SOL    HW2 6657   5.928   0.877   2.100
 1920SOL     OW 6658   6.632   6.461   4.918
 1920SOL    HW1 6659   6.597   6.385   4.863
 1920SOL    HW2 6660   6.601   6.452   5.012
 1921SOL     OW 6661   2.548   6.437   0.473
 1921SOL    HW1 6662   2.449   6.422   0.485
 1921SOL    HW2 6663   2.574   6.415   0.379
 1922SOL     OW 6664   3.915   4.374   0.260
 1922SOL    HW1 6665   3.865   4.380   0.173
 1922SOL    HW2 6666   3.861   4.418   0.332
 1923SOL     OW 6667   2.041   3.025   1.086
 1923SOL    HW1 6668   2.140   3.039   1.076
 1923SOL    HW2 6669   1.996   3.041   0.998
 1924SOL     OW 6670   0.655   3.408   1.369
 1924SOL    HW1 6671   0.641   3.495   1.323
 1924SOL    HW2 6672   0.748   3.403   1.404
 1925SOL     OW 6673   3.116   4.143   0.618
 1925SOL    HW1 6674   3.190   4.194   0.662
 1925SOL    HW2 6675   3.152   4.090   0.541
 1926SOL     OW 6676   0.772   0.780   3.911
 1926SOL    HW1 6677   0.732   0.835   3.984
 1926SOL    HW2 6678   0.827   0.839   3.852
 1927SOL     OW 6679   5.225   3.453   1.429
 1927SOL    HW1 6680   5.134   3.444   1.389
 1927SOL    HW2 6681   5.219   3.445   1.528
 1928SOL     OW 6682   0.105   5.266   4.642
 1928SOL    HW1 6683   0.028   5.328   4.629
 1928SOL    HW2 6684   0.085   5.204   4.718
 1929SOL     OW 6685   0.719   5.019   2.930
 1929SOL    HW1 6686   0.699   5.102   2.983
 1929SOL    HW2 6687   0.639   4.961   2.927
 1930SOL     OW 6688   6.847   5.444   5.973
 1930SOL    HW1 6689   6.943   5.459   5.995
 1930SOL    HW2 6690   6.794   5.433   6.057
 1931SOL     OW 6691   1.807   2.273   4.198
 1931SOL    HW1 6692   1.777   2.313   4.285
 1931SOL    HW2 6693   1.778   2.178   4.193
 1932SOL     OW 6694   5.864   3.635   2.503
 1932SOL    HW1 6695   5.765   3.647   2.505
 1932SOL    HW2 6696   5.891   3.570   2.574
 1933SOL     OW 6697   3.236   5.040   0.316
 1933SOL    HW1 6698   3.327   5.070   0.285
 1933SOL    HW2 6699   3.185   5.003   0.238
 1934SOL     OW 6700   0.172   6.130   2.994
 1934SOL    HW1 6701   0.078   6.148   3.025
 1934SOL    HW2 6702   0.209   6.214   2.953
 1935SOL     OW 6703   1.225   0.823   3.161
 1935SOL    HW1 6704   1.243   0.772   3.077
 1935SOL    HW2 6705   1.172   0.905   3.141
 1936SOL     OW 6706   0.351   5.470   5.207
 1936SOL    HW1 6707   0.323   5.501   5.298
 1936SOL    HW2 6708   0.301   5.522   5.138
 1937SOL     OW 6709   4.327   1.813   2.814
 1937SOL    HW1 6710   4.329   1.913   2.819
 1937SOL    HW2 6711   4.325   1.775   2.906
 1938SOL     OW 6712   5.568   6.917   3.932
 1938SOL    HW1 6713   5.595   6.947   4.024
 1938SOL    HW2 6714   5.575   6.994   3.869
 1939SOL     OW 6715   2.843   0.243   4.571
 1939SOL    HW1 6716   2.875   0.287   4.655
 1939SOL    HW2 6717   2.762   0.188   4.592
 1940SOL     OW 6718   6.332   6.166   6.533
 1940SOL    HW1 6719   6.405   6.234   6.538
 1940SOL    HW2 6720   6.334   6.109   6.615
 1941SOL     OW 6721   4.709   4.679   2.419
 1941SOL    HW1 6722   4.781   4.618   2.384
 1941SOL    HW2 6723   4.718   4.769   2.376
 1942SOL     OW 6724   0.066   3.918   2.425
 1942SOL    HW1 6725   6.994   3.913   2.376
 1942SOL    HW2 6726   0.092   4.014   2.437
 1943SOL     OW 6727   3.356   5.293   3.245
 1943SOL    HW1 6728   3.373   5.371   3.304
 1943SOL    HW2 6729   3.298   5.321   3.168
 1944SOL     OW 6730   6.981   6.250   1.896
 1944SOL    HW1 6731   6.981   6.234   1.797
 1944SOL    HW2 6732   6.898   6.298   1.922
 1945SOL     OW 6733   2.665   4.807   2.671
 1945SOL    HW1 6734   2.585   4.852   2.630
 1945SOL    HW2 6735   2.737   4.799   2.603
 1946SOL     OW 6736   1.910   6.854   6.825
 1946SOL    HW1 6737   1.926   6.755   6.822
 1946SOL    HW2 6738   1.918   6.886   6.919
 1947SOL     OW 6739   4.822   0.423   3.426
 1947SOL    HW1 6740   4.772   0.405   3.341
 1947SOL    HW2 6741   4.759   0.423   3.503
 1948SOL     OW 6742   6.351   3.315   5.372
 1948SOL    HW1 6743   6.428   3.366   5.333
 1948SOL    HW2 6744   6.276   3.378   5.391
 1949SOL     OW 6745   4.517   3.789   6.430
 1949SOL    HW1 6746   4.481   3.861   6.370
 1949SOL    HW2 6747   4.476   3.702   6.406
 1950SOL     OW 6748   3.212   5.496   0.617
 1950SOL    HW1 6749   3.251   5.482   0.708
 1950SOL    HW2 6750   3.240   5.586   0.582
 1951SOL     OW 6751   6.059   2.680   6.989
 1951SOL    HW1 6752   6.039   2.757   0.034
 1951SOL    HW2 6753   6.018   2.696   6.899
 1952SOL     OW 6754   3.559   2.849   4.150
 1952SOL    HW1 6755   3.542   2.902   4.233
 1952SOL    HW2 6756   3.530   2.754   4.164
 1953SOL     OW 6757   0.539   2.485   4.199
 1953SOL    HW1 6758   0.505   2.556   4.137
 1953SOL    HW2 6759   0.577   2.409   4.146
 1954SOL     OW 6760   2.400   1.701   4.391
 1954SOL    HW1 6761   2.325   1.700   4.458
 1954SOL    HW2 6762   2.362   1.704   4.299
 1955SOL     OW 6763   5.998   5.548   2.352
 1955SOL    HW1 6764   6.075   5.512   2.299
 1955SOL    HW2 6765   5.972   5.482   2.423
 1956SOL     OW 6766   4.855   6.515   2.902
 1956SOL    HW1 6767   4.799   6.441   2.938
 1956SOL    HW2 6768   4.865   6.505   2.803
 1957SOL     OW 6769   2.406   6.208   4.948
 1957SOL    HW1 6770   2.330   6.147   4.925
 1957SOL    HW2 6771   2.414   6.215   5.048
 1958SOL     OW 6772   3.548   3.868   6.422
 1958SOL    HW1 6773   3.632   3.921   6.424
 1958SOL    HW2 6774   3.469   3.930   6.431
 1959SOL     OW 6775   2.606   0.350   0.777
 1959SOL    HW1 6776   2.690   0.357   0.830
 1959SOL    HW2 6777   2.628   0.324   0.683
 1960SOL     OW 6778   5.145   5.761   2.478
 1960SOL    HW1 6779   5.204   5.807   2.412
 1960SOL    HW2 6780   5.061   5.813   2.490
 1961SOL     OW 6781   4.984   5.004   5.594
 1961SOL    HW1 6782   4.948   5.055   5.673
 1961SOL    HW2 6783   4.995   5.066   5.517
 1962SOL     OW 6784   0.186   6.527   4.600
 1962SOL    HW1 6785   0.120   6.577   4.544
 1962SOL    HW2 6786   0.241   6.591   4.653
 1963SOL     OW 6787   2.717   1.140   3.657
 1963SOL    HW1 6788   2.707   1.233   3.622
 1963SOL    HW2 6789   2.745   1.079   3.583
 1964SOL     OW 6790   6.316   3.108   2.752
 1964SOL    HW1 6791   6.327   3.169   2.674
 1964SOL    HW2 6792   6.386   3.129   2.821
 1965SOL     OW 6793   2.402   6.451   3.347
 1965SOL    HW1 6794   2.404   6.373   3.410
 1965SOL    HW2 6795   2.391   6.418   3.253
 1966SOL     OW 6796   6.609   6.712   6.687
 1966SOL    HW1 6797   6.540   6.643   6.706
 1966SOL    HW2 6798   6.654   6.738   6.772
 1967SOL     OW 6799   5.909   2.873   5.189
 1967SOL    HW1 6800   5.998   2.876   5.143
 1967SOL    HW2 6801   5.875   2.967   5.201
 1968SOL     OW 6802   4.077   5.357   4.871
 1968SOL    HW1 6803   4.027   5.432   4.913
 1968SOL    HW2 6804   4.048   5.346   4.776
 1969SOL     OW 6805   6.587   1.266   1.696
 1969SOL    HW1 6806   6.590   1.358   1.657
 1969SOL    HW2 6807   6.511   1.215   1.657
 1970SOL     OW 6808   1.697   0.458   3.713
 1970SOL    HW1 6809   1.676   0.549   3.678
 1970SOL    HW2 6810   1.620   0.396   3.694
 1971SOL     OW 6811   7.004   1.275   6.264
 1971SOL    HW1 6812   6.997   1.330   6.348
 1971SOL    HW2 6813   0.062   1.208   6.275
 1972SOL     OW 6814   1.424   0.027   3.517
 1972SOL    HW1 6815   1.411   0.076   3.431
 1972SOL    HW2 6816   1.374   6.955   3.514
 1973SOL     OW 6817   2.467   3.493   0.447
 1973SOL    HW1 6818   2.441   3.401   0.479
 1973SOL    HW2 6819   2.498   3.547   0.524
 1974SOL     OW 6820   6.398   6.393   4.528
 1974SOL    HW1 6821   6.391   6.370   4.431
 1974SOL    HW2 6822   6.370   6.488   4.541
 1975SOL     OW 6823   2.837   7.001   3.200
 1975SOL    HW1 6824   2.865   0.082   3.197
 1975SOL    HW2 6825   2.744   6.994   3.238
 1976SOL     OW 6826   6.445   4.350   6.281
 1976SOL    HW1 6827   6.451   4.420   6.352
 1976SOL    HW2 6828   6.536   4.316   6.260
 1977SOL     OW 6829   3.445   2.315   5.318
 1977SOL    HW1 6830   3.360   2.326   5.266
 1977SOL    HW2 6831   3.480   2.404   5.343
 1978SOL     OW 6832   6.882   2.606   5.134
 1978SOL    HW1 6833   6.962   2.602   5.194
 1978SOL    HW2 6834   6.806   2.555   5.175
 1979SOL     OW 6835   6.690   3.802   2.424
 1979SOL    HW1 6836   6.691   3.755   2.513
 1979SOL    HW2 6837   6.609   3.773   2.372
 1980SOL     OW 6838   2.645   0.686   2.446
 1980SOL    HW1 6839   2.719   0.619   2.451
 1980SOL    HW2 6840   2.670   0.768   2.497
 1981SOL     OW 6841   5.324   3.202   2.104
 1981SOL    HW1 6842   5.407   3.246   2.139
 1981SOL    HW2 6843   5.333   3.103   2.112
 1982SOL     OW 6844   0.069   6.909   5.398
 1982SOL    HW1 6845   0.028   6.830   5.445
 1982SOL    HW2 6846   0.118   6.877   5.317
 1983SOL     OW 6847   0.701   4.672   1.354
 1983SOL    HW1 6848   0.793   4.682   1.315
 1983SOL    HW2 6849   0.690   4.738   1.428
 1984SOL     OW 6850   4.775   0.938   5.212
 1984SOL    HW1 6851   4.749   0.910   5.120
 1984SOL    HW2 6852   4.710   1.008   5.245
 1985SOL     OW 6853   1.943   5.921   1.540
 1985SOL    HW1 6854   2.007   5.994   1.564
 1985SOL    HW2 6855   1.925   5.923   1.442
 1986SOL     OW 6856   6.634   2.658   0.441
 1986SOL    HW1 6857   6.634   2.749   0.402
 1986SOL    HW2 6858   6.721   2.612   0.420
 1987SOL     OW 6859   2.431   3.676   6.871
 1987SOL    HW1 6860   2.362   3.693   6.801
 1987SOL    HW2 6861   2.468   3.764   6.903
 1988SOL     OW 6862   4.806   3.165   0.966
 1988SOL    HW1 6863   4.771   3.244   1.016
 1988SOL    HW2 6864   4.830   3.093   1.030
 1989SOL     OW 6865   1.863   2.253   3.769
 1989SOL    HW1 6866   1.829   2.303   3.848
 1989SOL    HW2 6867   1.845   2.306   3.686
 1990SOL     OW 6868   1.113   0.596   3.376
 1990SOL    HW1 6869   1.014   0.582   3.381
 1990SOL    HW2 6870   1.134   0.660   3.302
 1991SOL     OW 6871   4.526   6.234   2.757
 1991SOL    HW1 6872   4.576   6.255   2.841
 1991SOL    HW2 6873   4.429   6.220   2.778
 1992SOL     OW 6874   2.366   5.731   5.557
 1992SOL    HW1 6875   2.282   5.780   5.581
 1992SOL    HW2 6876   2.384   5.661   5.627
 1993SOL     OW 6877   2.960   3.290   3.824
 1993SOL    HW1 6878   2.941   3.371   3.768
 1993SOL    HW2 6879   3.016   3.226   3.771
 1994SOL     OW 6880   6.355   2.343   2.232
 1994SOL    HW1 6881   6.387   2.250   2.216
 1994SOL    HW2 6882   6.434   2.405   2.236
 1995SOL     OW 6883   3.656   2.205   1.410
 1995SOL    HW1 6884   3.605   2.287   1.436
 1995SOL    HW2 6885   3.672   2.149   1.491
 1996SOL     OW 6886   2.416   4.417   5.092
 1996SOL    HW1 6887   2.445   4.374   5.177
 1996SOL    HW2 6888   2.495   4.457   5.046
 1997SOL     OW 6889   5.930   6.031   3.904
 1997SOL    HW1 6890   5.854   6.028   3.839
 1997SOL    HW2 6891   5.987   6.111   3.884
 1998SOL     OW 6892   2.853   4.842   5.185
 1998SOL    HW1 6893   2.944   4.808   5.208
 1998SOL    HW2 6894   2.810   4.780   5.120
 1999SOL     OW 6895   2.215   1.734   2.195
 1999SOL    HW1 6896   2.166   1.793   2.131
 1999SOL    HW2 6897   2.309   1.766   2.206
 2000SOL     OW 6898   3.261   1.049   5.354
 2000SOL    HW1 6899   3.244   1.084   5.262
 2000SOL    HW2 6900   3.269   1.126   5.418
 2001SOL     OW 6901   2.376   2.788   6.642
 2001SOL    HW1 6902   2.424   2.841   6.572
 2001SOL    HW2 6903   2.303   2.734   6.599
 2002SOL     OW 6904   1.375   4.897   4.529
 2002SOL    HW1 6905   1.446   4.967   4.537
 2002SOL    HW2 6906   1.348   4.888   4.433
 2003SOL     OW 6907   6.522   4.162   3.586
 2003SOL    HW1 6908   6.536   4.260   3.571
 2003SOL    HW2 6909   6.509   4.117   3.497
 2004SOL     OW 6910   3.509   0.091   6.743
 2004SOL    HW1 6911   3.563   0.051   6.669
 2004SOL    HW2 6912   3.525   0.190   6.746
 2005SOL     OW 6913   2.681   6.185   5.078
 2005SOL    HW1 6914   2.617   6.190   5.155
 2005SOL    HW2 6915   2.659   6.104   5.023
 2006SOL     OW 6916   4.798   6.668   3.250
 2006SOL    HW1 6917   4.878   6.612   3.271
 2006SOL    HW2 6918   4.773   6.720   3.332
 2007SOL     OW 6919   6.416   5.130   0.003
 2007SOL    HW1 6920   6.342   5.178   6.970
 2007SOL    HW2 6921   6.429   5.172   0.093
 2008SOL     OW 6922   0.218   5.755   5.642
 2008SOL    HW1 6923   0.124   5.767   5.672
 2008SOL    HW2 6924   0.249   5.837   5.594
 2009SOL     OW 6925   1.285   0.414   6.811
 2009SOL    HW1 6926   1.322   0.363   6.889
 2009SOL    HW2 6927   1.289   0.512   6.831
 2010SOL     OW 6928   2.278   0.858   1.052
 2010SOL    HW1 6929   2.222   0.788   1.006
 2010SOL    HW2 6930   2.240   0.877   1.142
 2011SOL     OW 6931   6.923   1.994   4.752
 2011SOL    HW1 6932   6.953   1.917   4.809
 2011SOL    HW2 6933   6.878   2.062   4.810
 2012SOL     OW 6934   6.739   3.243   1.298
 2012SOL    HW1 6935   6.680   3.173   1.258
 2012SOL    HW2 6936   6.761   3.312   1.228
 2013SOL     OW 6937   4.247   2.015   1.710
 2013SOL    HW1 6938   4.324   1.983   1.766
 2013SOL    HW2 6939   4.237   1.956   1.630
 2014SOL     OW 6940   3.662   5.449   3.254
 2014SOL    HW1 6941   3.638   5.382   3.325
 2014SOL    HW2 6942   3.589   5.517   3.246
 2015SOL     OW 6943   3.286   6.233   0.364
 2015SOL    HW1 6944   3.319   6.321   0.397
 2015SOL    HW2 6945   3.295   6.230   0.264
 2016SOL     OW 6946   6.074   5.899   4.100
 2016SOL    HW1 6947   6.032   5.918   4.189
 2016SOL    HW2 6948   6.018   5.939   4.028
 2017SOL     OW 6949   2.232   5.468   2.285
 2017SOL    HW1 6950   2.305   5.401   2.297
 2017SOL    HW2 6951   2.144   5.425   2.308
 2018SOL     OW 6952   0.319   3.879   6.418
 2018SOL    HW1 6953   0.384   3.814   6.459
 2018SOL    HW2 6954   0.368   3.963   6.393
 2019SOL     OW 6955   5.516   1.332   2.808
 2019SOL    HW1 6956   5.460   1.304   2.730
 2019SOL    HW2 6957   5.497   1.272   2.886
 2020SOL     OW 6958   2.468   5.179   3.525
 2020SOL    HW1 6959   2.565   5.160   3.510
 2020SOL    HW2 6960   2.449   5.274   3.503
 2021SOL     OW 6961   2.104   6.198   1.591
 2021SOL    HW1 6962   2.109   6.206   1.491
 2021SOL    HW2 6963   2.191   6.228   1.631
 2022SOL     OW 6964   3.294   5.479   1.363
 2022SOL    HW1 6965   3.376   5.507   1.414
 2022SOL    HW2 6966   3.314   5.482   1.265
 2023SOL     OW 6967   6.610   2.110   5.901
 2023SOL    HW1 6968   6.564   2.050   5.966
 2023SOL    HW2 6969   6.575   2.092   5.809
 2024SOL     OW 6970   5.912   0.309   3.042
 2024SOL    HW1 6971   5.827   0.347   3.005
 2024SOL    HW2 6972   5.976   0.292   2.968
 2025SOL     OW 6973   6.181   0.735   0.930
 2025SOL    HW1 6974   6.215   0.820   0.971
 2025SOL    HW2 6975   6.112   0.756   0.862
 2026SOL     OW 6976   2.034   1.905   5.296
 2026SOL    HW1 6977   1.994   1.882   5.384
 2026SOL    HW2 6978   2.055   2.002   5.293
 2027SOL     OW 6979   6.771   0.270   1.951
 2027SOL    HW1 6980   6.781   0.246   1.854
 2027SOL    HW2 6981   6.775   0.370   1.961
 2028SOL     OW 6982   3.560   3.724   5.858
 2028SOL    HW1 6983   3.551   3.766   5.948
 2028SOL    HW2 6984   3.609   3.637   5.866
 2029SOL     OW 6985   2.181   0.534   0.514
 2029SOL    HW1 6986   2.124   0.588   0.452
 2029SOL    HW2 6987   2.262   0.502   0.466
 2030SOL     OW 6988   1.554   2.672   2.972
 2030SOL    HW1 6989   1.500   2.630   3.044
 2030SOL    HW2 6990   1.639   2.708   3.011
 2031SOL     OW 6991   6.377   6.963   2.789
 2031SOL    HW1 6992   6.314   6.926   2.857
 2031SOL    HW2 6993   6.374   6.906   2.707
 2032SOL     OW 6994   4.474   5.896   2.003
 2032SOL    HW1 6995   4.552   5.951   2.031
 2032SOL    HW2 6996   4.437   5.931   1.917
 2033SOL     OW 6997   0.256   5.127   6.388
 2033SOL    HW1 6998   0.274   5.224   6.409
 2033SOL    HW2 6999   0.279   5.110   6.292
 2034SOL     OW 7000   2.359   5.725   3.594
 2034SOL    HW1 7001   2.320   5.771   3.674
 2034SOL    HW2 7002   2.291   5.717   3.522
 2035SOL     OW 7003   0.609   2.267   2.980
 2035SOL    HW1 7004   0.614   2.219   2.893
 2035SOL    HW2 7005   0.611   2.366   2.964
 2036SOL     OW 7006   0.720   4.953   0.852
 2036SOL    HW1 7007   0.679   5.031   0.899
 2036SOL    HW2 7008   0.728   4.877   0.916
 2037SOL     OW 7009   0.046   1.919   6.922
 2037SOL    HW1 7010   7.010   1.872   6.994
 2037SOL    HW2 7011   0.081   1.851   6.857
 2038SOL     OW 7012   1.582   6.881   4.921
 2038SOL    HW1 7013   1.511   6.839   4.864
 2038SOL    HW2 7014   1.552   6.972   4.950
 2039SOL     OW 7015   0.791   5.186   1.562
 2039SOL    HW1 7016   0.786   5.158   1.657
 2039SOL    HW2 7017   0.847   5.268   1.554
 2040SOL     OW 7018   3.519   3.922   4.652
 2040SOL    HW1 7019   3.598   3.875   4.693
 2040SOL    HW2 7020   3.546   4.013   4.623
 2041SOL     OW 7021   5.014   2.791   6.661
 2041SOL    HW1 7022   4.941   2.797   6.728
 2041SOL    HW2 7023   5.042   2.696   6.649
 2042SOL     OW 7024   2.922   5.717   0.513
 2042SOL    HW1 7025   2.940   5.641   0.575
 2042SOL    HW2 7026   2.996   5.723   0.445
 2043SOL     OW 7027   4.463   5.488   2.244
 2043SOL    HW1 7028   4.454   5.532   2.155
 2043SOL    HW2 7029   4.491   5.393   2.231
 2044SOL     OW 7030   6.536   0.773   2.432
 2044SOL    HW1 7031   6.572   0.777   2.525
 2044SOL    HW2 7032   6.611   0.757   2.368
 2045SOL     OW 7033   3.323   6.508   6.539
 2045SOL    HW1 7034   3.373   6.448   6.602
 2045SOL    HW2 7035   3.388   6.569   6.494
 2046SOL     OW 7036   6.419   6.919   5.862
 2046SOL    HW1 7037   6.430   6.891   5.766
 2046SOL    HW2 7038   6.493   6.982   5.887
 2047SOL     OW 7039   4.804   2.687   0.285
 2047SOL    HW1 7040   4.786   2.785   0.273
 2047SOL    HW2 7041   4.725   2.635   0.254
 2048SOL     OW 7042   4.832   6.173   5.598
 2048SOL    HW1 7043   4.876   6.220   5.521
 2048SOL    HW2 7044   4.879   6.197   5.683
 2049SOL     OW 7045   4.800   5.389   6.808
 2049SOL    HW1 7046   4.857   5.451   6.755
 2049SOL    HW2 7047   4.733   5.345   6.749
 2050SOL     OW 7048   5.650   0.513   3.613
 2050SOL    HW1 7049   5.712   0.591   3.603
 2050SOL    HW2 7050   5.560   0.538   3.577
 2051SOL     OW 7051   3.100   5.283   1.011
 2051SOL    HW1 7052   3.072   5.274   0.915
 2051SOL    HW2 7053   3.026   5.324   1.064
 2052SOL     OW 7054   2.020   2.784   0.935
 2052SOL    HW1 7055   1.976   2.850   0.995
 2052SOL    HW2 7056   1.954   2.749   0.868
 2053SOL     OW 7057   4.802   1.262   0.898
 2053SOL    HW1 7058   4.705   1.250   0.876
 2053SOL    HW2 7059   4.834   1.182   0.948
 2054SOL     OW 7060   0.545   3.241   1.165
 2054SOL    HW1 7061   0.608   3.290   1.226
 2054SOL    HW2 7062   0.556   3.142   1.179
 2055SOL     OW 7063   6.491   1.549   3.907
 2055SOL    HW1 7064   6.441   1.587   3.829
 2055SOL    HW2 7065   6.582   1.591   3.912
 2056SOL     OW 7066   0.941   6.976   2.355
 2056SOL    HW1 7067   0.952   0.043   2.412
 2056SOL    HW2 7068   0.865   6.989   2.292
 2057SOL     OW 7069   5.846   2.894   4.488
 2057SOL    HW1 7070   5.887   2.817   4.537
 2057SOL    HW2 7071   5.769   2.860   4.434
 2058SOL     OW 7072   0.543   1.234   1.653
 2058SOL    HW1 7073   0.639   1.262   1.651
 2058SOL    HW2 7074   0.536   1.138   1.679
 2059SOL     OW 7075   1.432   0.919   6.783
 2059SOL    HW1 7076   1.393   0.925   6.691
 2059SOL    HW2 7077   1.528   0.891   6.777
 2060SOL     OW 7078   0.410   5.292   2.761
 2060SOL    HW1 7079   0.459   5.228   2.701
 2060SOL    HW2 7080   0.359   5.357   2.705
 2061SOL     OW 7081   1.355   0.801   0.901
 2061SOL    HW1 7082   1.354   0.856   0.817
 2061SOL    HW2 7083   1.444   0.809   0.945
 2062SOL     OW 7084   4.409   0.141   4.012
 2062SOL    HW1 7085   4.353   0.193   4.076
 2062SOL    HW2 7086   4.365   0.054   3.991
 2063SOL     OW 7087   2.340   2.020   1.087
 2063SOL    HW1 7088   2.352   2.023   1.186
 2063SOL    HW2 7089   2.323   1.926   1.058
 2064SOL     OW 7090   1.117   2.113   0.811
 2064SOL    HW1 7091   1.181   2.035   0.805
 2064SOL    HW2 7092   1.080   2.118   0.903
 2065SOL     OW 7093   0.002   3.450   2.475
 2065SOL    HW1 7094   0.023   3.531   2.421
 2065SOL    HW2 7095   6.993   3.477   2.568
 2066SOL     OW 7096   1.721   6.243   2.684
 2066SOL    HW1 7097   1.746   6.285   2.596
 2066SOL    HW2 7098   1.746   6.147   2.683
 2067SOL     OW 7099   0.709   0.078   0.101
 2067SOL    HW1 7100   0.702   0.177   0.091
 2067SOL    HW2 7101   0.760   0.056   0.184
 2068SOL     OW 7102   1.799   1.665   5.246
 2068SOL    HW1 7103   1.700   1.659   5.242
 2068SOL    HW2 7104   1.835   1.588   5.300
 2069SOL     OW 7105   1.077   2.094   1.790
 2069SOL    HW1 7106   1.106   2.122   1.881
 2069SOL    HW2 7107   0.991   2.138   1.767
 2070SOL     OW 7108   0.188   1.106   2.665
 2070SOL    HW1 7109   0.099   1.147   2.650
 2070SOL    HW2 7110   0.238   1.102   2.578
 2071SOL     OW 7111   2.490   6.389   5.534
 2071SOL    HW1 7112   2.571   6.426   5.487
 2071SOL    HW2 7113   2.501   6.291   5.547
 2072SOL     OW 7114   5.095   4.864   2.354
 2072SOL    HW1 7115   5.159   4.788   2.341
 2072SOL    HW2 7116   5.075   4.875   2.451
 2073SOL     OW 7117   3.268   6.971   5.314
 2073SOL    HW1 7118   3.203   7.008   5.380
 2073SOL    HW2 7119   3.326   0.030   5.280
 2074SOL     OW 7120   5.795   2.803   2.526
 2074SOL    HW1 7121   5.787   2.703   2.523
 2074SOL    HW2 7122   5.798   2.834   2.621
 2075SOL     OW 7123   3.666   3.085   5.936
 2075SOL    HW1 7124   3.611   3.051   5.860
 2075SOL    HW2 7125   3.684   3.183   5.924
 2076SOL     OW 7126   5.415   0.076   0.947
 2076SOL    HW1 7127   5.487   0.038   0.888
 2076SOL    HW2 7128   5.434   0.172   0.967
 2077SOL     OW 7129   4.318   1.093   3.951
 2077SOL    HW1 7130   4.367   1.110   3.865
 2077SOL    HW2 7131   4.369   1.133   4.027
 2078SOL     OW 7132   4.031   5.756   4.813
 2078SOL    HW1 7133   4.089   5.702   4.752
 2078SOL    HW2 7134   3.978   5.822   4.759
 2079SOL     OW 7135   6.196   6.866   4.128
 2079SOL    HW1 7136   6.179   6.792   4.064
 2079SOL    HW2 7137   6.290   6.899   4.118
 2080SOL     OW 7138   2.845   1.795   3.608
 2080SOL    HW1 7139   2.821   1.709   3.654
 2080SOL    HW2 7140   2.778   1.814   3.537
 2081SOL     OW 7141   1.272   6.285   4.202
 2081SOL    HW1 7142   1.318   6.206   4.162
 2081SOL    HW2 7143   1.229   6.259   4.288
 2082SOL     OW 7144   4.526   0.619   1.962
 2082SOL    HW1 7145   4.487   0.710   1.969
 2082SOL    HW2 7146   4.480   0.557   2.025
 2083SOL     OW 7147   4.023   4.328   6.123
 2083SOL    HW1 7148   4.062   4.365   6.038
 2083SOL    HW2 7149   3.959   4.393   6.162
 2084SOL     OW 7150   6.818   2.589   2.924
 2084SOL    HW1 7151   6.895   2.538   2.886
 2084SOL    HW2 7152   6.803   2.561   3.018
 2085SOL     OW 7153   6.068   6.489   6.674
 2085SOL    HW1 7154   6.032   6.533   6.756
 2085SOL    HW2 7155   6.150   6.538   6.644
 2086SOL     OW 7156   3.658   5.090   0.252
 2086SOL    HW1 7157   3.734   5.059   0.194
 2086SOL    HW2 7158   3.590   5.136   0.195
 2087SOL     OW 7159   5.859   6.010   3.430
 2087SOL    HW1 7160   5.851   5.927   3.486
 2087SOL    HW2 7161   5.843   6.090   3.488
 2088SOL     OW 7162   2.678   6.676   1.376
 2088SOL    HW1 7163   2.583   6.703   1.359
 2088SOL    HW2 7164   2.684   6.630   1.464
 2089SOL     OW 7165   2.279   1.228   0.312
 2089SOL    HW1 7166   2.311   1.281   0.390
 2089SOL    HW2 7167   2.320   1.137   0.314
 2090SOL     OW 7168   3.378   3.839   4.056
 2090SOL    HW1 7169   3.329   3.913   4.010
 2090SOL    HW2 7170   3.409   3.772   3.988
 2091SOL     OW 7171   2.586   4.523   0.939
 2091SOL    HW1 7172   2.643   4.493   0.863
 2091SOL    HW2 7173   2.616   4.479   1.023
 2092SOL     OW 7174   0.358   6.003   1.192
 2092SOL    HW1 7175   0.408   6.046   1.267
 2092SOL    HW2 7176   0.293   5.936   1.228
 2093SOL     OW 7177   1.210   2.517   1.640
 2093SOL    HW1 7178   1.287   2.492   1.581
 2093SOL    HW2 7179   1.177   2.607   1.614
 2094SOL     OW 7180   6.069   0.691   1.841
 2094SOL    HW1 7181   6.134   0.680   1.766
 2094SOL    HW2 7182   6.016   0.774   1.826
 2095SOL     OW 7183   6.403   4.842   5.086
 2095SOL    HW1 7184   6.467   4.917   5.107
 2095SOL    HW2 7185   6.412   4.771   5.156
 2096SOL     OW 7186   4.855   4.058   3.811
 2096SOL    HW1 7187   4.831   3.968   3.847
 2096SOL    HW2 7188   4.785   4.124   3.836
 2097SOL     OW 7189   6.509   3.952   6.069
 2097SOL    HW1 7190   6.431   4.015   6.076
 2097SOL    HW2 7191   6.489   3.882   6.000
 2098SOL     OW 7192   4.209   0.039   4.394
 2098SOL    HW1 7193   4.151   0.073   4.468
 2098SOL    HW2 7194   4.294   0.091   4.391
 2099SOL     OW 7195   2.881   1.992   3.374
 2099SOL    HW1 7196   2.949   2.031   3.436
 2099SOL    HW2 7197   2.907   2.011   3.279
 2100SOL     OW 7198   3.990   4.778   6.352
 2100SOL    HW1 7199   3.962   4.818   6.439
 2100SOL    HW2 7200   4.053   4.702   6.368
 2101SOL     OW 7201   6.382   0.066   2.034
 2101SOL    HW1 7202   6.445   0.086   2.110
 2101SOL    HW2 7203   6.422   0.100   1.949
 2102SOL     OW 7204   6.608   5.188   1.712
 2102SOL    HW1 7205   6.593   5.214   1.807
 2102SOL    HW2 7206   6.627   5.269   1.657
 2103SOL     OW 7207   3.546   3.629   6.298
 2103SOL    HW1 7208   3.530   3.696   6.371
 2103SOL    HW2 7209   3.526   3.537   6.332
 2104SOL     OW 7210   1.601   4.592   5.904
 2104SOL    HW1 7211   1.646   4.668   5.856
 2104SOL    HW2 7212   1.512   4.574   5.863
 2105SOL     OW 7213   5.688   6.505   2.133
 2105SOL    HW1 7214   5.648   6.580   2.184
 2105SOL    HW2 7215   5.616   6.448   2.095
 2106SOL     OW 7216   5.766   5.854   6.521
 2106SOL    HW1 7217   5.826   5.821   6.595
 2106SOL    HW2 7218   5.808   5.834   6.433
 2107SOL     OW 7219   2.678   5.079   0.407
 2107SOL    HW1 7220   2.776   5.056   0.403
 2107SOL    HW2 7221   2.665   5.174   0.379
 2108SOL     OW 7222   6.011   4.176   6.695
 2108SOL    HW1 7223   6.038   4.264   6.655
 2108SOL    HW2 7224   6.064   4.103   6.652
 2109SOL     OW 7225   5.477   5.619   2.265
 2109SOL    HW1 7226   5.415   5.691   2.235
 2109SOL    HW2 7227   5.559   5.620   2.209
 2110SOL     OW 7228   1.567   5.076   5.387
 2110SOL    HW1 7229   1.520   5.153   5.344
 2110SOL    HW2 7230   1.500   5.010   5.420
 2111SOL     OW 7231   1.888   2.239   0.268
 2111SOL    HW1 7232   1.816   2.307   0.259
 2111SOL    HW2 7233   1.860   2.169   0.333
 2112SOL     OW 7234   5.093   3.784   0.420
 2112SOL    HW1 7235   5.090   3.748   0.327
 2112SOL    HW2 7236   5.186   3.779   0.455
 2113SOL     OW 7237   6.627   2.033   3.236
 2113SOL    HW1 7238   6.613   1.960   3.302
 2113SOL    HW2 7239   6.614   1.998   3.143
 2114SOL     OW 7240   1.387   3.470   6.947
 2114SOL    HW1 7241   1.391   3.500   0.027
 2114SOL    HW2 7242   1.434   3.536   6.889
 2115SOL     OW 7243   3.637   5.449   1.771
 2115SOL    HW1 7244   3.626   5.532   1.825
 2115SOL    HW2 7245   3.722   5.403   1.797
 2116SOL     OW 7246   0.885   3.936   4.493
 2116SOL    HW1 7247   0.903   4.016   4.549
 2116SOL    HW2 7248   0.787   3.917   4.493
 2117SOL     OW 7249   6.907   5.731   6.243
 2117SOL    HW1 7250   6.841   5.789   6.194
 2117SOL    HW2 7251   6.861   5.685   6.319
 2118SOL     OW 7252   0.006   3.900   1.988
 2118SOL    HW1 7253   0.052   3.811   1.978
 2118SOL    HW2 7254   6.961   3.915   1.910
 2119SOL     OW 7255   4.147   6.299   0.672
 2119SOL    HW1 7256   4.058   6.309   0.715
 2119SOL    HW2 7257   4.152   6.211   0.624
 2120SOL     OW 7258   6.386   4.311   2.166
 2120SOL    HW1 7259   6.378   4.212   2.151
 2120SOL    HW2 7260   6.298   4.347   2.199
 2121SOL     OW 7261   0.541   3.724   4.927
 2121SOL    HW1 7262   0.528   3.695   4.832
 2121SOL    HW2 7263   0.500   3.656   4.988
 2122SOL     OW 7264   4.118   5.247   5.593
 2122SOL    HW1 7265   4.086   5.218   5.503
 2122SOL    HW2 7266   4.209   5.208   5.611
 2123SOL     OW 7267   4.568   4.976   3.514
 2123SOL    HW1 7268   4.569   4.979   3.414
 2123SOL    HW2 7269   4.590   4.884   3.544
 2124SOL     OW 7270   2.867   2.108   1.309
 2124SOL    HW1 7271   2.860   2.062   1.221
 2124SOL    HW2 7272   2.931   2.185   1.301
 2125SOL     OW 7273   4.976   5.793   0.714
 2125SOL    HW1 7274   4.957   5.870   0.653
 2125SOL    HW2 7275   4.915   5.797   0.793
 2126SOL     OW 7276   3.064   1.148   1.713
 2126SOL    HW1 7277   3.085   1.074   1.777
 2126SOL    HW2 7278   3.022   1.224   1.763
 2127SOL     OW 7279   5.668   2.752   4.880
 2127SOL    HW1 7280   5.714   2.838   4.859
 2127SOL    HW2 7281   5.690   2.724   4.973
 2128SOL     OW 7282   0.332   3.822   4.291
 2128SOL    HW1 7283   0.239   3.856   4.273
 2128SOL    HW2 7284   0.393   3.899   4.307
 2129SOL     OW 7285   4.426   2.345   5.079
 2129SOL    HW1 7286   4.332   2.375   5.068
 2129SOL    HW2 7287   4.487   2.424   5.072
 2130SOL     OW 7288   5.400   0.808   3.587
 2130SOL    HW1 7289   5.353   0.864   3.519
 2130SOL    HW2 7290   5.397   0.712   3.560
 2131SOL     OW 7291   5.378   1.916   6.665
 2131SOL    HW1 7292   5.418   1.857   6.735
 2131SOL    HW2 7293   5.297   1.872   6.626
 2132SOL     OW 7294   1.824   3.561   0.925
 2132SOL    HW1 7295   1.809   3.624   0.848
 2132SOL    HW2 7296   1.782   3.473   0.904
 2133SOL     OW 7297   2.426   4.215   6.381
 2133SOL    HW1 7298   2.329   4.222   6.357
 2133SOL    HW2 7299   2.448   4.284   6.450
 2134SOL     OW 7300   0.164   6.420   0.765
 2134SOL    HW1 7301   0.231   6.472   0.712
 2134SOL    HW2 7302   0.151   6.330   0.724
 2135SOL     OW 7303   6.589   4.944   5.450
 2135SOL    HW1 7304   6.679   4.905   5.432
 2135SOL    HW2 7305   6.551   4.982   5.366
 2136SOL     OW 7306   1.467   5.469   6.833
 2136SOL    HW1 7307   1.473   5.495   6.929
 2136SOL    HW2 7308   1.550   5.498   6.785
 2137SOL     OW 7309   1.330   6.790   3.470
 2137SOL    HW1 7310   1.339   6.764   3.374
 2137SOL    HW2 7311   1.254   6.738   3.511
 2138SOL     OW 7312   5.106   2.129   2.048
 2138SOL    HW1 7313   5.142   2.085   1.966
 2138SOL    HW2 7314   5.011   2.101   2.062
 2139SOL     OW 7315   2.771   6.366   5.738
 2139SOL    HW1 7316   2.809   6.379   5.646
 2139SOL    HW2 7317   2.731   6.453   5.769
 2140SOL     OW 7318   2.353   1.655   4.098
 2140SOL    HW1 7319   2.254   1.650   4.080
 2140SOL    HW2 7320   2.386   1.746   4.075
 2141SOL     OW 7321   6.829   3.517   3.358
 2141SOL    HW1 7322   6.764   3.456   3.313
 2141SOL    HW2 7323   6.923   3.492   3.333
 2142SOL     OW 7324   1.630   2.516   2.223
 2142SOL    HW1 7325   1.556   2.453   2.248
 2142SOL    HW2 7326   1.713   2.464   2.201
 2143SOL     OW 7327   0.138   5.249   5.572
 2143SOL    HW1 7328   0.116   5.167   5.625
 2143SOL    HW2 7329   0.110   5.331   5.623
 2144SOL     OW 7330   6.015   4.739   3.145
 2144SOL    HW1 7331   6.070   4.740   3.061
 2144SOL    HW2 7332   5.991   4.833   3.171
 2145SOL     OW 7333   4.042   1.625   2.867
 2145SOL    HW1 7334   4.015   1.720   2.852
 2145SOL    HW2 7335   4.142   1.619   2.869
 2146SOL     OW 7336   1.650   1.909   6.644
 2146SOL    HW1 7337   1.609   1.997   6.622
 2146SOL    HW2 7338   1.744   1.923   6.677
 2147SOL     OW 7339   5.934   6.410   4.966
 2147SOL    HW1 7340   5.880   6.485   5.003
 2147SOL    HW2 7341   5.959   6.431   4.871
 2148SOL     OW 7342   0.593   2.163   4.789
 2148SOL    HW1 7343   0.604   2.165   4.889
 2148SOL    HW2 7344   0.646   2.087   4.751
 2149SOL     OW 7345   0.706   6.130   0.014
 2149SOL    HW1 7346   0.745   6.205   6.975
 2149SOL    HW2 7347   0.658   6.067   6.967
 2150SOL     OW 7348   1.819   2.707   0.807
 2150SOL    HW1 7349   1.783   2.763   0.732
 2150SOL    HW2 7350   1.788   2.612   0.795
 2151SOL     OW 7351   0.526   4.819   6.822
 2151SOL    HW1 7352   0.560   4.910   6.798
 2151SOL    HW2 7353   0.589   4.750   6.787
 2152SOL     OW 7354   5.073   6.213   3.817
 2152SOL    HW1 7355   5.043   6.121   3.842
 2152SOL    HW2 7356   4.993   6.273   3.810
 2153SOL     OW 7357   5.277   0.090   3.886
 2153SOL    HW1 7358   5.191   0.141   3.880
 2153SOL    HW2 7359   5.285   0.050   3.977
 2154SOL     OW 7360   2.523   6.638   2.365
 2154SOL    HW1 7361   2.493   6.715   2.422
 2154SOL    HW2 7362   2.495   6.552   2.407
 2155SOL     OW 7363   4.172   1.050   1.144
 2155SOL    HW1 7364   4.107   1.058   1.069
 2155SOL    HW2 7365   4.201   1.142   1.173
 2156SOL     OW 7366   6.366   2.351   5.136
 2156SOL    HW1 7367   6.371   2.345   5.236
 2156SOL    HW2 7368   6.271   2.369   5.109
 2157SOL     OW 7369   4.117   6.410   4.303
 2157SOL    HW1 7370   4.039   6.452   4.349
 2157SOL    HW2 7371   4.120   6.312   4.322
 2158SOL     OW 7372   2.993   6.788   0.810
 2158SOL    HW1 7373   2.903   6.752   0.837
 2158SOL    HW2 7374   3.065   6.738   0.859
 2159SOL     OW 7375   0.468   1.122   5.950
 2159SOL    HW1 7376   0.503   1.180   5.876
 2159SOL    HW2 7377   0.422   1.043   5.911
 2160SOL     OW 7378   5.337   6.723   6.451
 2160SOL    HW1 7379   5.306   6.651   6.513
 2160SOL    HW2 7380   5.258   6.775   6.418
 2161SOL     OW 7381   1.605   3.886   0.523
 2161SOL    HW1 7382   1.505   3.897   0.521
 2161SOL    HW2 7383   1.647   3.974   0.544
 2162SOL     OW 7384   2.082   0.356   0.692
 2162SOL    HW1 7385   2.125   0.420   0.628
 2162SOL    HW2 7386   2.003   0.400   0.735
 2163SOL     OW 7387   1.309   3.006   3.553
 2163SOL    HW1 7388   1.281   2.978   3.461
 2163SOL    HW2 7389   1.254   2.957   3.621
 2164SOL     OW 7390   2.120   3.692   2.146
 2164SOL    HW1 7391   2.143   3.600   2.114
 2164SOL    HW2 7392   2.040   3.686   2.206
 2165SOL     OW 7393   6.050   1.434   4.978
 2165SOL    HW1 7394   6.064   1.523   5.021
 2165SOL    HW2 7395   5.964   1.434   4.926
 2166SOL     OW 7396   0.370   3.110   1.896
 2166SOL    HW1 7397   0.307   3.182   1.868
 2166SOL    HW2 7398   0.434   3.091   1.822
 2167SOL     OW 7399   1.181   2.427   3.242
 2167SOL    HW1 7400   1.090   2.392   3.217
 2167SOL    HW2 7401   1.228   2.359   3.297
 2168SOL     OW 7402   1.546   2.240   3.406
 2168SOL    HW1 7403   1.475   2.291   3.454
 2168SOL    HW2 7404   1.567   2.156   3.456
 2169SOL     OW 7405   6.724   0.216   0.978
 2169SOL    HW1 7406   6.742   0.254   1.068
 2169SOL    HW2 7407   6.796   0.244   0.915
 2170SOL     OW 7408   1.309   3.487   6.394
 2170SOL    HW1 7409   1.390   3.505   6.339
 2170SOL    HW2 7410   1.257   3.412   6.354
 2171SOL     OW 7411   0.021   6.082   1.323
 2171SOL    HW1 7412   6.947   6.057   1.359
 2171SOL    HW2 7413   0.020   6.179   1.297
 2172SOL     OW 7414   2.705   2.278   4.967
 2172SOL    HW1 7415   2.629   2.312   5.022
 2172SOL    HW2 7416   2.708   2.327   4.880
 2173SOL     OW 7417   4.538   0.773   4.630
 2173SOL    HW1 7418   4.511   0.696   4.572
 2173SOL    HW2 7419   4.464   0.794   4.694
 2174SOL     OW 7420   5.555   6.910   6.122
 2174SOL    HW1 7421   5.512   6.823   6.101
 2174SOL    HW2 7422   5.554   6.926   6.221
 2175SOL     OW 7423   3.403   3.404   6.002
 2175SOL    HW1 7424   3.395   3.408   5.903
 2175SOL    HW2 7425   3.495   3.430   6.029
 2176SOL     OW 7426   6.056   1.846   3.034
 2176SOL    HW1 7427   6.027   1.757   2.998
 2176SOL    HW2 7428   6.046   1.847   3.133
 2177SOL     OW 7429   0.812   0.884   4.921
 2177SOL    HW1 7430   0.775   0.862   4.831
 2177SOL    HW2 7431   0.773   0.969   4.954
 2178SOL     OW 7432   1.629   2.647   2.457
 2178SOL    HW1 7433   1.671   2.599   2.533
 2178SOL    HW2 7434   1.627   2.588   2.376
 2179SOL     OW 7435   1.174   4.175   0.180
 2179SOL    HW1 7436   1.211   4.226   0.258
 2179SOL    HW2 7437   1.074   4.179   0.182
 2180SOL     OW 7438   0.427   5.618   2.661
 2180SOL    HW1 7439   0.366   5.562   2.603
 2180SOL    HW2 7440   0.396   5.613   2.756
 2181SOL     OW 7441   4.109   4.784   4.467
 2181SOL    HW1 7442   4.190   4.727   4.455
 2181SOL    HW2 7443   4.042   4.736   4.523
 2182SOL     OW 7444   6.927   6.342   1.274
 2182SOL    HW1 7445   6.831   6.329   1.299
 2182SOL    HW2 7446   6.932   6.386   1.184
 2183SOL     OW 7447   3.211   3.291   6.741
 2183SOL    HW1 7448   3.150   3.224   6.698
 2183SOL    HW2 7449   3.158   3.351   6.800
 2184SOL     OW 7450   6.210   1.771   0.348
 2184SOL    HW1 7451   6.187   1.859   0.391
 2184SOL    HW2 7452   6.167   1.697   0.400
 2185SOL     OW 7453   0.731   1.676   5.939
 2185SOL    HW1 7454   0.815   1.623   5.935
 2185SOL    HW2 7455   0.702   1.700   5.847
 2186SOL     OW 7456   6.852   6.077   5.425
 2186SOL    HW1 7457   6.757   6.077   5.456
 2186SOL    HW2 7458   6.870   5.992   5.375
 2187SOL     OW 7459   5.801   4.713   1.167
 2187SOL    HW1 7460   5.795   4.765   1.081
 2187SOL    HW2 7461   5.828   4.775   1.241
 2188SOL     OW 7462   3.187   0.836   0.708
 2188SOL    HW1 7463   3.129   0.836   0.789
 2188SOL    HW2 7464   3.130   0.836   0.626
 2189SOL     OW 7465   1.957   0.612   2.562
 2189SOL    HW1 7466   2.046   0.635   2.601
 2189SOL    HW2 7467   1.905   0.558   2.627
 2190SOL     OW 7468   6.254   4.745   2.168
 2190SOL    HW1 7469   6.223   4.840   2.163
 2190SOL    HW2 7470   6.307   4.723   2.087
 2191SOL     OW 7471   3.733   0.033   6.543
 2191SOL    HW1 7472   3.823   0.002   6.512
 2191SOL    HW2 7473   3.695   0.096   6.475
 2192SOL     OW 7474   4.720   2.192   1.658
 2192SOL    HW1 7475   4.745   2.223   1.750
 2192SOL    HW2 7476   4.802   2.182   1.602
 2193SOL     OW 7477   1.965   0.487   4.589
 2193SOL    HW1 7478   1.926   0.413   4.535
 2193SOL    HW2 7479   1.959   0.464   4.686
 2194SOL     OW 7480   0.356   4.254   5.280
 2194SOL    HW1 7481   0.442   4.297   5.309
 2194SOL    HW2 7482   0.280   4.313   5.305
 2195SOL     OW 7483   0.121   3.632   4.788
 2195SOL    HW1 7484   0.071   3.636   4.874
 2195SOL    HW2 7485   0.189   3.705   4.785
 2196SOL     OW 7486   4.103   0.401   6.882
 2196SOL    HW1 7487   4.155   0.323   6.917
 2196SOL    HW2 7488   4.091   0.392   6.783
 2197SOL     OW 7489   3.504   5.562   6.756
 2197SOL    HW1 7490   3.532   5.640   6.812
 2197SOL    HW2 7491   3.536   5.575   6.662
 2198SOL     OW 7492   1.384   1.162   6.907
 2198SOL    HW1 7493   1.396   1.075   6.858
 2198SOL    HW2 7494   1.375   1.236   6.841
 2199SOL     OW 7495   3.924   6.715   3.732
 2199SOL    HW1 7496   3.832   6.753   3.731
 2199SOL    HW2 7497   3.957   6.709   3.826
 2200SOL     OW 7498   2.282   2.546   4.289
 2200SOL    HW1 7499   2.350   2.582   4.226
 2200SOL    HW2 7500   2.303   2.576   4.382
 2201SOL     OW 7501   5.544   3.871   4.860
 2201SOL    HW1 7502   5.591   3.890   4.774
 2201SOL    HW2 7503   5.501   3.781   4.856
 2202SOL     OW 7504   3.580   6.546   3.543
 2202SOL    HW1 7505   3.584   6.575   3.638
 2202SOL    HW2 7506   3.657   6.486   3.522
 2203SOL     OW 7507   2.213   5.319   1.134
 2203SOL    HW1 7508   2.258   5.231   1.144
 2203SOL    HW2 7509   2.119   5.312   1.167
 2204SOL     OW 7510   5.255   2.887   0.687
 2204SOL    HW1 7511   5.170   2.938   0.694
 2204SOL    HW2 7512   5.329   2.948   0.659
 2205SOL     OW 7513   5.874   5.880   0.840
 2205SOL    HW1 7514   5.778   5.906   0.840
 2205SOL    HW2 7515   5.916   5.905   0.927
 2206SOL     OW 7516   3.800   2.510   5.805
 2206SOL    HW1 7517   3.706   2.522   5.839
 2206SOL    HW2 7518   3.824   2.587   5.747
 2207SOL     OW 7519   4.521   5.656   1.756
 2207SOL    HW1 7520   4.485   5.605   1.834
 2207SOL    HW2 7521   4.452   5.661   1.684
 2208SOL     OW 7522   6.910   6.439   2.756
 2208SOL    HW1 7523   6.903   6.363   2.822
 2208SOL    HW2 7524   6.914   6.525   2.806
 2209SOL     OW 7525   2.989   5.231   3.365
 2209SOL    HW1 7526   2.986   5.190   3.274
 2209SOL    HW2 7527   2.969   5.328   3.359
 2210SOL     OW 7528   5.156   0.079   1.820
 2210SOL    HW1 7529   5.249   0.112   1.804
 2210SOL    HW2 7530   5.141   7.008   1.771
 2211SOL     OW 7531   1.206   1.924   1.308
 2211SOL    HW1 7532   1.208   1.939   1.209
 2211SOL    HW2 7533   1.132   1.978   1.348
 2212SOL     OW 7534   2.915   5.695   6.358
 2212SOL    HW1 7535   2.929   5.778   6.303
 2212SOL    HW2 7536   2.895   5.721   6.452
 2213SOL     OW 7537   3.408   1.673   4.551
 2213SOL    HW1 7538   3.328   1.616   4.528
 2213SOL    HW2 7539   3.379   1.768   4.561
 2214SOL     OW 7540   4.155   4.372   6.575
 2214SOL    HW1 7541   4.132   4.276   6.594
 2214SOL    HW2 7542   4.231   4.400   6.633
 2215SOL     OW 7543   5.103   5.788   0.156
 2215SOL    HW1 7544   5.167   5.751   0.224
 2215SOL    HW2 7545   5.077   5.715   0.093
 2216SOL     OW 7546   0.511   5.926   6.968
 2216SOL    HW1 7547   0.441   5.935   6.897
 2216SOL    HW2 7548   0.552   5.835   6.963
 2217SOL     OW 7549   3.978   1.453   3.493
 2217SOL    HW1 7550   3.995   1.355   3.483
 2217SOL    HW2 7551   3.896   1.478   3.441
 2218SOL     OW 7552   6.302   5.581   5.680
 2218SOL    HW1 7553   6.373   5.630   5.731
 2218SOL    HW2 7554   6.345   5.517   5.617
 2219SOL     OW 7555   5.018   2.152   0.418
 2219SOL    HW1 7556   5.056   2.130   0.507
 2219SOL    HW2 7557   4.951   2.082   0.392
 2220SOL     OW 7558   6.678   6.406   4.523
 2220SOL    HW1 7559   6.580   6.384   4.518
 2220SOL    HW2 7560   6.691   6.502   4.499
 2221SOL     OW 7561   5.572   0.749   4.613
 2221SOL    HW1 7562   5.578   0.849   4.612
 2221SOL    HW2 7563   5.639   0.712   4.548
 2222SOL     OW 7564   3.349   0.913   3.549
 2222SOL    HW1 7565   3.264   0.936   3.501
 2222SOL    HW2 7566   3.330   0.908   3.647
 2223SOL     OW 7567   1.007   0.017   5.428
 2223SOL    HW1 7568   0.926   6.980   5.401
 2223SOL    HW2 7569   1.081   7.014   5.363
 2224SOL     OW 7570   5.170   4.532   6.462
 2224SOL    HW1 7571   5.202   4.470   6.391
 2224SOL    HW2 7572   5.096   4.489   6.513
 2225SOL     OW 7573   6.569   6.669   1.074
 2225SOL    HW1 7574   6.479   6.653   1.114
 2225SOL    HW2 7575   6.579   6.613   0.991
 2226SOL     OW 7576   2.592   3.385   0.057
 2226SOL    HW1 7577   2.545   3.372   0.145
 2226SOL    HW2 7578   2.650   3.466   0.063
 2227SOL     OW 7579   3.941   2.067   2.156
 2227SOL    HW1 7580   3.858   2.110   2.122
 2227SOL    HW2 7581   3.936   2.056   2.255
 2228SOL     OW 7582   5.496   6.150   6.537
 2228SOL    HW1 7583   5.536   6.099   6.613
 2228SOL    HW2 7584   5.569   6.185   6.478
 2229SOL     OW 7585   2.966   3.383   4.314
 2229SOL    HW1 7586   2.958   3.311   4.382
 2229SOL    HW2 7587   2.944   3.347   4.223
 2230SOL     OW 7588   6.443   0.557   6.002
 2230SOL    HW1 7589   6.424   0.464   5.971
 2230SOL    HW2 7590   6.534   0.584   5.972
 2231SOL     OW 7591   1.583   0.214   6.189
 2231SOL    HW1 7592   1.521   0.154   6.139
 2231SOL    HW2 7593   1.677   0.185   6.173
 2232SOL     OW 7594   1.593   1.122   6.048
 2232SOL    HW1 7595   1.637   1.190   6.106
 2232SOL    HW2 7596   1.539   1.060   6.105
 2233SOL     OW 7597   3.083   4.804   0.889
 2233SOL    HW1 7598   3.067   4.865   0.966
 2233SOL    HW2 7599   2.997   4.761   0.862
 2234SOL     OW 7600   4.926   2.133   1.489
 2234SOL    HW1 7601   4.916   2.115   1.391
 2234SOL    HW2 7602   5.003   2.195   1.504
 2235SOL     OW 7603   0.627   2.140   2.743
 2235SOL    HW1 7604   0.691   2.064   2.729
 2235SOL    HW2 7605   0.535   2.111   2.715
 2236SOL     OW 7606   2.986   5.411   5.314
 2236SOL    HW1 7607   2.958   5.315   5.321
 2236SOL    HW2 7608   3.083   5.419   5.337
 2237SOL     OW 7609   6.325   6.354   6.214
 2237SOL    HW1 7610   6.399   6.348   6.146
 2237SOL    HW2 7611   6.356   6.410   6.291
 2238SOL     OW 7612   5.928   3.671   2.224
 2238SOL    HW1 7613   5.902   3.646   2.317
 2238SOL    HW2 7614   5.897   3.764   2.205
 2239SOL     OW 7615   4.107   0.240   2.928
 2239SOL    HW1 7616   4.114   0.160   2.988
 2239SOL    HW2 7617   4.052   0.310   2.972
 2240SOL     OW 7618   4.713   5.209   2.441
 2240SOL    HW1 7619   4.741   5.286   2.498
 2240SOL    HW2 7620   4.689   5.242   2.350
 2241SOL     OW 7621   0.601   1.720   3.076
 2241SOL    HW1 7622   0.540   1.727   2.996
 2241SOL    HW2 7623   0.623   1.624   3.093
 2242SOL     OW 7624   5.638   2.500   4.479
 2242SOL    HW1 7625   5.558   2.476   4.425
 2242SOL    HW2 7626   5.610   2.536   4.568
 2243SOL     OW 7627   2.546   0.042   0.540
 2243SOL    HW1 7628   2.469   0.084   0.588
 2243SOL    HW2 7629   2.534   6.958   0.536
 2244SOL     OW 7630   2.955   1.665   1.282
 2244SOL    HW1 7631   2.861   1.631   1.278
 2244SOL    HW2 7632   2.966   1.740   1.216
 2245SOL     OW 7633   0.430   0.509   6.888
 2245SOL    HW1 7634   0.506   0.575   6.893
 2245SOL    HW2 7635   0.412   0.471   6.979
 2246SOL     OW 7636   4.907   1.476   5.972
 2246SOL    HW1 7637   4.853   1.427   5.904
 2246SOL    HW2 7638   4.950   1.556   5.929
 2247SOL     OW 7639   2.803   3.472   1.898
 2247SOL    HW1 7640   2.705   3.493   1.907
 2247SOL    HW2 7641   2.817   3.409   1.822
 2248SOL     OW 7642   5.023   2.908   4.435
 2248SOL    HW1 7643   5.113   2.943   4.411
 2248SOL    HW2 7644   5.028   2.864   4.525
 2249SOL     OW 7645   2.516   6.035   3.773
 2249SOL    HW1 7646   2.572   6.077   3.702
 2249SOL    HW2 7647   2.564   5.955   3.809
 2250SOL     OW 7648   4.390   5.799   5.902
 2250SOL    HW1 7649   4.443   5.768   5.823
 2250SOL    HW2 7650   4.359   5.893   5.886
 2251SOL     OW 7651   4.302   6.760   5.010
 2251SOL    HW1 7652   4.348   6.766   5.099
 2251SOL    HW2 7653   4.357   6.706   4.947
 2252SOL     OW 7654   4.080   1.007   2.348
 2252SOL    HW1 7655   4.037   1.007   2.438
 2252SOL    HW2 7656   4.180   1.006   2.359
 2253SOL     OW 7657   0.609   3.713   1.933
 2253SOL    HW1 7658   0.526   3.731   1.879
 2253SOL    HW2 7659   0.614   3.615   1.954
 2254SOL     OW 7660   3.374   2.905   2.868
 2254SOL    HW1 7661   3.375   2.909   2.968
 2254SOL    HW2 7662   3.295   2.956   2.834
 2255SOL     OW 7663   1.280   2.557   6.553
 2255SOL    HW1 7664   1.262   2.653   6.533
 2255SOL    HW2 7665   1.196   2.513   6.584
 2256SOL     OW 7666   5.436   0.632   1.340
 2256SOL    HW1 7667   5.371   0.706   1.351
 2256SOL    HW2 7668   5.515   0.648   1.399
 2257SOL     OW 7669   0.463   0.258   5.624
 2257SOL    HW1 7670   0.504   0.349   5.621
 2257SOL    HW2 7671   0.364   0.265   5.633
 2258SOL     OW 7672   2.415   6.605   4.063
 2258SOL    HW1 7673   2.363   6.560   3.989
 2258SOL    HW2 7674   2.369   6.689   4.090
 2259SOL     OW 7675   6.052   0.679   4.595
 2259SOL    HW1 7676   6.142   0.694   4.554
 2259SOL    HW2 7677   6.030   0.582   4.592
 2260SOL     OW 7678   1.179   3.751   0.868
 2260SOL    HW1 7679   1.270   3.769   0.904
 2260SOL    HW2 7680   1.140   3.671   0.914
 2261SOL     OW 7681   5.130   4.497   6.067
 2261SOL    HW1 7682   5.175   4.574   6.021
 2261SOL    HW2 7683   5.192   4.458   6.135
 2262SOL     OW 7684   0.036   6.739   4.145
 2262SOL    HW1 7685   0.011   6.705   4.054
 2262SOL    HW2 7686   0.022   6.838   4.147
 2263SOL     OW 7687   1.969   4.205   6.746
 2263SOL    HW1 7688   1.879   4.166   6.725
 2263SOL    HW2 7689   1.985   4.285   6.688
 2264SOL     OW 7690   2.193   0.080   6.225
 2264SOL    HW1 7691   2.258   0.108   6.296
 2264SOL    HW2 7692   2.181   0.154   6.159
 2265SOL     OW 7693   6.920   6.711   3.918
 2265SOL    HW1 7694   6.854   6.750   3.981
 2265SOL    HW2 7695   6.880   6.631   3.873
 2266SOL     OW 7696   4.446   3.057   6.352
 2266SOL    HW1 7697   4.509   2.980   6.365
 2266SOL    HW2 7698   4.457   3.121   6.428
 2267SOL     OW 7699   5.813   3.067   4.888
 2267SOL    HW1 7700   5.892   3.007   4.892
 2267SOL    HW2 7701   5.812   3.114   4.799
 2268SOL     OW 7702   1.079   6.459   4.975
 2268SOL    HW1 7703   1.112   6.484   5.066
 2268SOL    HW2 7704   1.053   6.541   4.925
 2269SOL     OW 7705   1.898   2.316   5.670
 2269SOL    HW1 7706   1.962   2.281   5.739
 2269SOL    HW2 7707   1.843   2.390   5.710
 2270SOL     OW 7708   5.089   2.016   6.338
 2270SOL    HW1 7709   5.095   2.091   6.273
 2270SOL    HW2 7710   4.993   1.993   6.354
 2271SOL     OW 7711   4.149   5.971   5.666
 2271SOL    HW1 7712   4.190   5.890   5.624
 2271SOL    HW2 7713   4.104   5.945   5.752
 2272SOL     OW 7714   6.139   1.409   6.006
 2272SOL    HW1 7715   6.193   1.462   5.941
 2272SOL    HW2 7716   6.179   1.417   6.097
 2273SOL     OW 7717   0.890   2.749   3.686
 2273SOL    HW1 7718   0.862   2.695   3.765
 2273SOL    HW2 7719   0.826   2.824   3.672
 2274SOL     OW 7720   1.357   0.975   0.695
 2274SOL    HW1 7721   1.439   1.020   0.732
 2274SOL    HW2 7722   1.308   1.039   0.637
 2275SOL     OW 7723   5.759   3.591   3.368
 2275SOL    HW1 7724   5.827   3.662   3.349
 2275SOL    HW2 7725   5.744   3.537   3.285
 2276SOL     OW 7726   1.806   1.709   1.399
 2276SOL    HW1 7727   1.807   1.780   1.329
 2276SOL    HW2 7728   1.744   1.635   1.370
 2277SOL     OW 7729   3.700   3.131   3.366
 2277SOL    HW1 7730   3.684   3.214   3.312
 2277SOL    HW2 7731   3.706   3.157   3.463
 2278SOL     OW 7732   6.966   2.826   3.996
 2278SOL    HW1 7733   6.939   2.885   3.920
 2278SOL    HW2 7734   6.919   2.738   3.988
 2279SOL     OW 7735   1.301   4.758   5.650
 2279SOL    HW1 7736   1.208   4.775   5.681
 2279SOL    HW2 7737   1.324   4.662   5.664
 2280SOL     OW 7738   5.359   2.137   5.385
 2280SOL    HW1 7739   5.320   2.222   5.348
 2280SOL    HW2 7740   5.324   2.123   5.478
 2281SOL     OW 7741   5.163   0.061   2.551
 2281SOL    HW1 7742   5.219   0.016   2.480
 2281SOL    HW2 7743   5.166   0.006   2.634
 2282SOL     OW 7744   3.813   5.658   6.189
 2282SOL    HW1 7745   3.875   5.610   6.127
 2282SOL    HW2 7746   3.846   5.647   6.283
 2283SOL     OW 7747   0.028   0.871   4.671
 2283SOL    HW1 7748   0.111   0.866   4.616
 2283SOL    HW2 7749   6.965   0.839   4.617
 2284SOL     OW 7750   1.648   3.616   6.339
 2284SOL    HW1 7751   1.607   3.694   6.386
 2284SOL    HW2 7752   1.638   3.628   6.241
 2285SOL     OW 7753   1.445   4.388   6.849
 2285SOL    HW1 7754   1.355   4.425   6.874
 2285SOL    HW2 7755   1.504   4.387   6.930
 2286SOL     OW 7756   4.544   4.735   3.013
 2286SOL    HW1 7757   4.614   4.788   2.965
 2286SOL    HW2 7758   4.576   4.714   3.106
 2287SOL     OW 7759   1.302   1.343   4.344
 2287SOL    HW1 7760   1.256   1.269   4.295
 2287SOL    HW2 7761   1.274   1.431   4.306
 2288SOL     OW 7762   6.577   5.246   2.839
 2288SOL    HW1 7763   6.605   5.246   2.743
 2288SOL    HW2 7764   6.484   5.210   2.847
 2289SOL     OW 7765   0.599   5.230   0.392
 2289SOL    HW1 7766   0.517   5.235   0.448
 2289SOL    HW2 7767   0.671   5.180   0.441
 2290SOL     OW 7768   0.873   5.267   6.570
 2290SOL    HW1 7769   0.969   5.237   6.572
 2290SOL    HW2 7770   0.839   5.276   6.664
 2291SOL     OW 7771   2.174   1.791   0.208
 2291SOL    HW1 7772   2.238   1.740   0.265
 2291SOL    HW2 7773   2.187   1.889   0.222
 2292SOL     OW 7774   2.299   1.133   4.408
 2292SOL    HW1 7775   2.215   1.140   4.460
 2292SOL    HW2 7776   2.289   1.181   4.321
 2293SOL     OW 7777   5.751   4.000   2.486
 2293SOL    HW1 7778   5.713   4.054   2.562
 2293SOL    HW2 7779   5.771   3.907   2.518
 2294SOL     OW 7780   4.422   6.287   0.300
 2294SOL    HW1 7781   4.470   6.346   0.235
 2294SOL    HW2 7782   4.474   6.203   0.314
 2295SOL     OW 7783   0.806   1.480   2.031
 2295SOL    HW1 7784   0.794   1.579   2.016
 2295SOL    HW2 7785   0.872   1.444   1.965
 2296SOL     OW 7786   3.054   6.471   0.386
 2296SOL    HW1 7787   3.055   6.438   0.480
 2296SOL    HW2 7788   3.020   6.399   0.325
 2297SOL     OW 7789   4.359   6.597   6.870
 2297SOL    HW1 7790   4.458   6.605   6.875
 2297SOL    HW2 7791   4.333   6.501   6.861
 2298SOL     OW 7792   4.019   3.067   6.966
 2298SOL    HW1 7793   3.952   3.015   0.004
 2298SOL    HW2 7794   4.006   3.049   6.869
 2299SOL     OW 7795   4.330   6.967   0.392
 2299SOL    HW1 7796   4.265   6.971   0.468
 2299SOL    HW2 7797   4.291   7.015   0.313
 2300SOL     OW 7798   1.154   4.503   0.811
 2300SOL    HW1 7799   1.135   4.413   0.772
 2300SOL    HW2 7800   1.147   4.572   0.739
 2301SOL     OW 7801   3.962   3.703   1.874
 2301SOL    HW1 7802   3.955   3.776   1.943
 2301SOL    HW2 7803   3.908   3.624   1.903
 2302SOL     OW 7804   2.145   5.085   2.452
 2302SOL    HW1 7805   2.136   5.007   2.514
 2302SOL    HW2 7806   2.091   5.161   2.487
 2303SOL     OW 7807   6.823   2.860   5.786
 2303SOL    HW1 7808   6.786   2.951   5.766
 2303SOL    HW2 7809   6.790   2.795   5.717
 2304SOL     OW 7810   2.078   1.458   4.603
 2304SOL    HW1 7811   2.165   1.422   4.637
 2304SOL    HW2 7812   2.032   1.509   4.676
 2305SOL     OW 7813   4.277   4.457   1.735
 2305SOL    HW1 7814   4.371   4.492   1.737
 2305SOL    HW2 7815   4.275   4.367   1.778
 2306SOL     OW 7816   0.137   4.205   0.148
 2306SOL    HW1 7817   0.226   4.194   0.192
 2306SOL    HW2 7818   0.095   4.115   0.134
 2307SOL     OW 7819   0.591   1.684   2.784
 2307SOL    HW1 7820   0.530   1.751   2.826
 2307SOL    HW2 7821   0.541   1.598   2.770
 2308SOL     OW 7822   0.604   6.688   0.543
 2308SOL    HW1 7823   0.650   6.775   0.525
 2308SOL    HW2 7824   0.569   6.650   0.457
 2309SOL     OW 7825   2.938   4.866   5.905
 2309SOL    HW1 7826   3.014   4.876   5.841
 2309SOL    HW2 7827   2.973   4.860   5.999
 2310SOL     OW 7828   5.743   1.660   2.974
 2310SOL    HW1 7829   5.757   1.740   2.915
 2310SOL    HW2 7830   5.655   1.618   2.952
 2311SOL     OW 7831   2.459   0.553   2.570
 2311SOL    HW1 7832   2.530   0.591   2.510
 2311SOL    HW2 7833   2.412   0.479   2.522
 2312SOL     OW 7834   2.239   1.112   2.404
 2312SOL    HW1 7835   2.320   1.166   2.425
 2312SOL    HW2 7836   2.201   1.076   2.489
 2313SOL     OW 7837   5.102   3.859   1.688
 2313SOL    HW1 7838   5.184   3.806   1.708
 2313SOL    HW2 7839   5.081   3.918   1.766
 2314SOL     OW 7840   6.673   6.295   2.706
 2314SOL    HW1 7841   6.673   6.275   2.608
 2314SOL    HW2 7842   6.745   6.361   2.727
 2315SOL     OW 7843   4.312   5.952   4.726
 2315SOL    HW1 7844   4.374   6.021   4.762
 2315SOL    HW2 7845   4.278   5.981   4.636
 2316SOL     OW 7846   2.923   1.331   5.803
 2316SOL    HW1 7847   2.853   1.374   5.746
 2316SOL    HW2 7848   3.011   1.375   5.787
 2317SOL     OW 7849   0.228   5.327   2.945
 2317SOL    HW1 7850   0.260   5.334   3.040
 2317SOL    HW2 7851   0.307   5.316   2.884
 2318SOL     OW 7852   0.961   4.561   4.730
 2318SOL    HW1 7853   0.899   4.517   4.666
 2318SOL    HW2 7854   0.932   4.540   4.824
 2319SOL     OW 7855   1.746   5.203   3.460
 2319SOL    HW1 7856   1.800   5.234   3.382
 2319SOL    HW2 7857   1.680   5.134   3.430
 2320SOL     OW 7858   0.903   1.767   5.050
 2320SOL    HW1 7859   0.947   1.777   5.139
 2320SOL    HW2 7860   0.972   1.777   4.978
 2321SOL     OW 7861   1.673   4.376   5.271
 2321SOL    HW1 7862   1.575   4.386   5.291
 2321SOL    HW2 7863   1.689   4.395   5.175
 2322SOL     OW 7864   1.561   3.806   2.020
 2322SOL    HW1 7865   1.514   3.894   2.025
 2322SOL    HW2 7866   1.502   3.740   1.974
 2323SOL     OW 7867   2.532   5.099   0.701
 2323SOL    HW1 7868   2.567   5.187   0.671
 2323SOL    HW2 7869   2.606   5.032   0.703
 2324SOL     OW 7870   6.521   4.965   2.714
 2324SOL    HW1 7871   6.441   4.937   2.661
 2324SOL    HW2 7872   6.492   5.021   2.791
 2325SOL     OW 7873   6.134   5.422   2.089
 2325SOL    HW1 7874   6.061   5.412   2.022
 2325SOL    HW2 7875   6.182   5.335   2.100
 2326SOL     OW 7876   1.938   0.282   0.101
 2326SOL    HW1 7877   1.888   0.304   0.184
 2326SOL    HW2 7878   1.875   0.279   0.024
 2327SOL     OW 7879   0.189   6.772   2.185
 2327SOL    HW1 7880   0.190   6.701   2.255
 2327SOL    HW2 7881   0.105   6.765   2.132
 2328SOL     OW 7882   2.116   3.699   2.653
 2328SOL    HW1 7883   2.152   3.789   2.628
 2328SOL    HW2 7884   2.103   3.644   2.570
 2329SOL     OW 7885   0.371   5.069   3.008
 2329SOL    HW1 7886   0.292   5.076   2.947
 2329SOL    HW2 7887   0.394   5.159   3.044
 2330SOL     OW 7888   6.295   3.186   1.094
 2330SOL    HW1 7889   6.272   3.283   1.090
 2330SOL    HW2 7890   6.276   3.144   1.005
 2331SOL     OW 7891   4.962   5.713   1.465
 2331SOL    HW1 7892   4.972   5.686   1.560
 2331SOL    HW2 7893   5.039   5.677   1.412
 2332SOL     OW 7894   6.164   6.894   5.989
 2332SOL    HW1 7895   6.100   6.951   5.938
 2332SOL    HW2 7896   6.258   6.913   5.958
 2333SOL     OW 7897   0.408   4.251   2.353
 2333SOL    HW1 7898   0.398   4.156   2.382
 2333SOL    HW2 7899   0.361   4.311   2.418
 2334SOL     OW 7900   2.677   1.833   6.457
 2334SOL    HW1 7901   2.774   1.835   6.482
 2334SOL    HW2 7902   2.655   1.915   6.403
 2335SOL     OW 7903   0.046   1.408   3.402
 2335SOL    HW1 7904   0.018   1.348   3.477
 2335SOL    HW2 7905   0.104   1.482   3.439
 2336SOL     OW 7906   1.488   1.771   3.521
 2336SOL    HW1 7907   1.427   1.850   3.518
 2336SOL    HW2 7908   1.552   1.780   3.597
 2337SOL     OW 7909   4.248   1.807   1.489
 2337SOL    HW1 7910   4.322   1.744   1.510
 2337SOL    HW2 7911   4.160   1.760   1.501
 2338SOL     OW 7912   0.208   4.055   3.655
 2338SOL    HW1 7913   0.176   4.118   3.584
 2338SOL    HW2 7914   0.133   3.993   3.680
 2339SOL     OW 7915   2.957   3.221   2.974
 2339SOL    HW1 7916   2.960   3.260   2.882
 2339SOL    HW2 7917   2.883   3.154   2.980
 2340SOL     OW 7918   2.341   4.479   6.929
 2340SOL    HW1 7919   2.262   4.417   6.932
 2340SOL    HW2 7920   2.401   4.460   7.007
 2341SOL     OW 7921   2.384   4.422   3.983
 2341SOL    HW1 7922   2.465   4.474   3.956
 2341SOL    HW2 7923   2.328   4.478   4.045
 2342SOL     OW 7924   3.353   0.964   3.820
 2342SOL    HW1 7925   3.281   1.020   3.859
 2342SOL    HW2 7926   3.442   0.997   3.851
 2343SOL     OW 7927   1.041   0.137   1.485
 2343SOL    HW1 7928   1.016   0.221   1.534
 2343SOL    HW2 7929   1.008   0.057   1.536
 2344SOL     OW 7930   5.451   3.975   0.278
 2344SOL    HW1 7931   5.379   4.035   0.311
 2344SOL    HW2 7932   5.451   3.975   0.178
 2345SOL     OW 7933   3.514   5.979   4.969
 2345SOL    HW1 7934   3.558   5.999   5.057
 2345SOL    HW2 7935   3.481   6.064   4.928
 2346SOL     OW 7936   4.321   3.525   6.833
 2346SOL    HW1 7937   4.343   3.436   6.791
 2346SOL    HW2 7938   4.375   3.596   6.789
 2347SOL     OW 7939   1.519   2.230   1.649
 2347SOL    HW1 7940   1.565   2.314   1.620
 2347SOL    HW2 7941   1.517   2.227   1.749
 2348SOL     OW 7942   0.278   5.126   2.460
 2348SOL    HW1 7943   0.367   5.141   2.503
 2348SOL    HW2 7944   0.261   5.028   2.453
 2349SOL     OW 7945   0.782   4.117   5.321
 2349SOL    HW1 7946   0.716   4.061   5.371
 2349SOL    HW2 7947   0.870   4.115   5.369
 2350SOL     OW 7948   5.573   3.172   0.088
 2350SOL    HW1 7949   5.591   3.176   7.005
 2350SOL    HW2 7950   5.499   3.236   0.111
 2351SOL     OW 7951   2.746   5.406   2.359
 2351SOL    HW1 7952   2.703   5.472   2.421
 2351SOL    HW2 7953   2.695   5.403   2.273
 2352SOL     OW 7954   0.193   2.563   3.347
 2352SOL    HW1 7955   0.265   2.506   3.309
 2352SOL    HW2 7956   0.129   2.591   3.275
 2353SOL     OW 7957   3.220   5.406   4.573
 2353SOL    HW1 7958   3.252   5.430   4.665
 2353SOL    HW2 7959   3.174   5.317   4.576
 2354SOL     OW 7960   2.312   2.719   3.660
 2354SOL    HW1 7961   2.371   2.648   3.621
 2354SOL    HW2 7962   2.343   2.740   3.753
 2355SOL     OW 7963   2.566   6.222   4.554
 2355SOL    HW1 7964   2.627   6.148   4.524
 2355SOL    HW2 7965   2.479   6.214   4.506
 2356SOL     OW 7966   6.491   2.935   6.629
 2356SOL    HW1 7967   6.540   2.995   6.692
 2356SOL    HW2 7968   6.553   2.905   6.556
 2357SOL     OW 7969   2.460   6.438   2.518
 2357SOL    HW1 7970   2.507   6.358   2.481
 2357SOL    HW2 7971   2.388   6.408   2.581
 2358SOL     OW 7972   3.256   4.399   5.748
 2358SOL    HW1 7973   3.165   4.364   5.723
 2358SOL    HW2 7974   3.284   4.359   5.835
 2359SOL     OW 7975   1.889   6.920   4.969
 2359SOL    HW1 7976   1.804   6.873   4.945
 2359SOL    HW2 7977   1.967   6.870   4.932
 2360SOL     OW 7978   6.587   3.903   0.037
 2360SOL    HW1 7979   6.607   3.821   0.091
 2360SOL    HW2 7980   6.492   3.929   0.052
 2361SOL     OW 7981   3.489   1.474   0.345
 2361SOL    HW1 7982   3.427   1.459   0.268
 2361SOL    HW2 7983   3.551   1.395   0.353
 2362SOL     OW 7984   3.046   6.063   3.283
 2362SOL    HW1 7985   3.068   6.158   3.260
 2362SOL    HW2 7986   3.010   6.059   3.377
 2363SOL     OW 7987   3.899   0.331   4.373
 2363SOL    HW1 7988   3.860   0.327   4.281
 2363SOL    HW2 7989   3.861   0.409   4.422
 2364SOL     OW 7990   1.222   2.543   0.978
 2364SOL    HW1 7991   1.313   2.521   1.012
 2364SOL    HW2 7992   1.214   2.513   0.883
 2365SOL     OW 7993   5.072   2.500   6.670
 2365SOL    HW1 7994   5.053   2.456   6.758
 2365SOL    HW2 7995   5.163   2.541   6.672
 2366SOL     OW 7996   4.321   5.423   0.646
 2366SOL    HW1 7997   4.323   5.451   0.550
 2366SOL    HW2 7998   4.227   5.399   0.671
 2367SOL     OW 7999   2.451   3.261   6.171
 2367SOL    HW1 8000   2.472   3.324   6.096
 2367SOL    HW2 8001   2.536   3.224   6.208
 2368SOL     OW 8002   6.048   5.807   2.507
 2368SOL    HW1 8003   6.071   5.720   2.464
 2368SOL    HW2 8004   5.984   5.792   2.582
 2369SOL     OW 8005   2.477   1.112   3.307
 2369SOL    HW1 8006   2.430   1.157   3.383
 2369SOL    HW2 8007   2.561   1.069   3.341
 2370SOL     OW 8008   6.509   2.159   6.391
 2370SOL    HW1 8009   6.479   2.093   6.460
 2370SOL    HW2 8010   6.433   2.218   6.365
 2371SOL     OW 8011   2.815   6.502   1.605
 2371SOL    HW1 8012   2.803   6.418   1.551
 2371SOL    HW2 8013   2.892   6.554   1.568
 2372SOL     OW 8014   6.288   2.692   2.938
 2372SOL    HW1 8015   6.359   2.673   2.870
 2372SOL    HW2 8016   6.224   2.759   2.901
 2373SOL     OW 8017   2.519   3.476   6.471
 2373SOL    HW1 8018   2.566   3.553   6.514
 2373SOL    HW2 8019   2.457   3.510   6.401
 2374SOL     OW 8020   5.855   3.177   5.159
 2374SOL    HW1 8021   5.875   3.157   5.063
 2374SOL    HW2 8022   5.862   3.276   5.173
 2375SOL     OW 8023   2.845   6.549   5.018
 2375SOL    HW1 8024   2.932   6.586   5.050
 2375SOL    HW2 8025   2.792   6.514   5.096
 2376SOL     OW 8026   6.484   2.856   4.499
 2376SOL    HW1 8027   6.384   2.864   4.508
 2376SOL    HW2 8028   6.510   2.761   4.514
 2377SOL     OW 8029   3.730   3.064   3.689
 2377SOL    HW1 8030   3.732   3.038   3.786
 2377SOL    HW2 8031   3.682   2.993   3.637
 2378SOL     OW 8032   5.306   2.767   0.365
 2378SOL    HW1 8033   5.217   2.722   0.372
 2378SOL    HW2 8034   5.371   2.721   0.425
 2379SOL     OW 8035   6.983   6.863   6.459
 2379SOL    HW1 8036   0.062   6.832   6.471
 2379SOL    HW2 8037   6.949   6.901   6.546
 2380SOL     OW 8038   6.238   2.063   2.571
 2380SOL    HW1 8039   6.288   1.978   2.552
 2380SOL    HW2 8040   6.155   2.042   2.622
 2381SOL     OW 8041   1.736   6.749   2.975
 2381SOL    HW1 8042   1.789   6.692   2.913
 2381SOL    HW2 8043   1.677   6.692   3.032
 2382SOL     OW 8044   1.603   3.630   5.591
 2382SOL    HW1 8045   1.627   3.645   5.495
 2382SOL    HW2 8046   1.662   3.686   5.650
 2383SOL     OW 8047   5.948   6.338   1.718
 2383SOL    HW1 8048   5.902   6.291   1.643
 2383SOL    HW2 8049   5.882   6.394   1.768
 2384SOL     OW 8050   4.451   1.911   1.870
 2384SOL    HW1 8051   4.532   1.858   1.844
 2384SOL    HW2 8052   4.436   1.903   1.968
 2385SOL     OW 8053   0.567   2.291   0.092
 2385SOL    HW1 8054   0.599   2.233   0.166
 2385SOL    HW2 8055   0.494   2.244   0.042
 2386SOL     OW 8056   4.148   5.423   3.765
 2386SOL    HW1 8057   4.111   5.499   3.711
 2386SOL    HW2 8058   4.124   5.336   3.721
 2387SOL     OW 8059   1.701   1.210   2.712
 2387SOL    HW1 8060   1.709   1.111   2.723
 2387SOL    HW2 8061   1.763   1.241   2.641
 2388SOL     OW 8062   6.797   1.425   4.222
 2388SOL    HW1 8063   6.700   1.447   4.217
 2388SOL    HW2 8064   6.821   1.402   4.316
 2389SOL     OW 8065   3.828   6.222   2.479
 2389SOL    HW1 8066   3.834   6.210   2.380
 2389SOL    HW2 8067   3.897   6.289   2.508
 2390SOL     OW 8068   2.981   4.113   1.513
 2390SOL    HW1 8069   3.035   4.036   1.479
 2390SOL    HW2 8070   3.035   4.166   1.578
 2391SOL     OW 8071   3.577   5.446   5.580
 2391SOL    HW1 8072   3.604   5.518   5.516
 2391SOL    HW2 8073   3.649   5.435   5.650
 2392SOL     OW 8074   4.189   0.798   6.261
 2392SOL    HW1 8075   4.210   0.804   6.164
 2392SOL    HW2 8076   4.254   0.855   6.312
 2393SOL     OW 8077   3.457   5.241   5.387
 2393SOL    HW1 8078   3.532   5.239   5.454
 2393SOL    HW2 8079   3.433   5.147   5.363
 2394SOL     OW 8080   6.999   4.787   5.577
 2394SOL    HW1 8081   0.059   4.819   5.635
 2394SOL    HW2 8082   6.916   4.836   5.600
 2395SOL     OW 8083   4.424   6.908   6.339
 2395SOL    HW1 8084   4.375   6.894   6.253
 2395SOL    HW2 8085   4.455   7.003   6.345
 2396SOL     OW 8086   3.537   5.168   0.700
 2396SOL    HW1 8087   3.459   5.113   0.669
 2396SOL    HW2 8088   3.600   5.182   0.624
 2397SOL     OW 8089   0.015   3.886   3.820
 2397SOL    HW1 8090   7.013   3.808   3.760
 2397SOL    HW2 8091   6.946   3.909   3.870
 2398SOL     OW 8092   4.848   4.280   5.560
 2398SOL    HW1 8093   4.919   4.211   5.575
 2398SOL    HW2 8094   4.778   4.243   5.498
 2399SOL     OW 8095   4.154   2.252   1.626
 2399SOL    HW1 8096   4.218   2.277   1.554
 2399SOL    HW2 8097   4.181   2.164   1.666
 2400SOL     OW 8098   2.074   5.476   0.712
 2400SOL    HW1 8099   2.010   5.399   0.708
 2400SOL    HW2 8100   2.101   5.491   0.807
 2401SOL     OW 8101   0.542   6.061   6.232
 2401SOL    HW1 8102   0.474   5.996   6.266
 2401SOL    HW2 8103   0.512   6.154   6.252
 2402SOL     OW 8104   6.570   6.401   3.886
 2402SOL    HW1 8105   6.488   6.350   3.909
 2402SOL    HW2 8106   6.552   6.499   3.898
 2403SOL     OW 8107   0.048   1.165   5.166
 2403SOL    HW1 8108   0.059   1.130   5.072
 2403SOL    HW2 8109   7.009   1.100   5.219
 2404SOL     OW 8110   1.641   0.891   0.073
 2404SOL    HW1 8111   1.656   0.904   6.990
 2404SOL    HW2 8112   1.587   0.809   0.088
 2405SOL     OW 8113   3.033   3.552   1.563
 2405SOL    HW1 8114   2.965   3.564   1.491
 2405SOL    HW2 8115   3.094   3.632   1.565
 2406SOL     OW 8116   4.400   0.980   1.364
 2406SOL    HW1 8117   4.317   1.021   1.325
 2406SOL    HW2 8118   4.379   0.888   1.397
 2407SOL     OW 8119   5.341   0.465   3.925
 2407SOL    HW1 8120   5.265   0.448   3.863
 2407SOL    HW2 8121   5.341   0.561   3.953
 2408SOL     OW 8122   4.489   4.495   2.190
 2408SOL    HW1 8123   4.399   4.539   2.184
 2408SOL    HW2 8124   4.499   4.431   2.113
 2409SOL     OW 8125   1.119   4.512   0.342
 2409SOL    HW1 8126   1.062   4.514   0.260
 2409SOL    HW2 8127   1.177   4.431   0.341
 2410SOL     OW 8128   2.955   3.278   2.707
 2410SOL    HW1 8129   2.994   3.214   2.641
 2410SOL    HW2 8130   2.913   3.355   2.658
 2411SOL     OW 8131   4.486   0.167   4.336
 2411SOL    HW1 8132   4.531   0.126   4.256
 2411SOL    HW2 8133   4.503   0.266   4.336
 2412SOL     OW 8134   4.079   3.679   1.116
 2412SOL    HW1 8135   4.126   3.757   1.073
 2412SOL    HW2 8136   4.140   3.638   1.184
 2413SOL     OW 8137   4.362   0.242   2.840
 2413SOL    HW1 8138   4.268   0.241   2.874
 2413SOL    HW2 8139   4.415   0.170   2.884
 2414SOL     OW 8140   5.715   3.253   4.214
 2414SOL    HW1 8141   5.744   3.176   4.158
 2414SOL    HW2 8142   5.634   3.228   4.267
 2415SOL     OW 8143   4.275   1.060   3.313
 2415SOL    HW1 8144   4.371   1.068   3.340
 2415SOL    HW2 8145   4.269   1.009   3.227
 2416SOL     OW 8146   5.528   1.907   6.376
 2416SOL    HW1 8147   5.586   1.829   6.399
 2416SOL    HW2 8148   5.472   1.932   6.456
 2417SOL     OW 8149   3.138   4.176   5.178
 2417SOL    HW1 8150   3.227   4.222   5.168
 2417SOL    HW2 8151   3.147   4.098   5.239
 2418SOL     OW 8152   3.459   3.233   2.817
 2418SOL    HW1 8153   3.384   3.267   2.874
 2418SOL    HW2 8154   3.426   3.159   2.758
 2419SOL     OW 8155   0.377   0.516   2.871
 2419SOL    HW1 8156   0.361   0.588   2.803
 2419SOL    HW2 8157   0.298   0.511   2.933
 2420SOL     OW 8158   2.165   6.920   1.958
 2420SOL    HW1 8159   2.180   6.909   1.860
 2420SOL    HW2 8160   2.198   7.010   1.987
 2421SOL     OW 8161   3.401   1.454   3.430
 2421SOL    HW1 8162   3.334   1.478   3.360
 2421SOL    HW2 8163   3.379   1.363   3.467
 2422SOL     OW 8164   4.835   1.790   0.680
 2422SOL    HW1 8165   4.856   1.693   0.683
 2422SOL    HW2 8166   4.757   1.805   0.619
 2423SOL     OW 8167   2.050   5.302   2.575
 2423SOL    HW1 8168   2.133   5.299   2.630
 2423SOL    HW2 8169   1.970   5.316   2.634
 2424SOL     OW 8170   6.824   0.380   0.308
 2424SOL    HW1 8171   6.798   0.477   0.310
 2424SOL    HW2 8172   6.919   0.370   0.336
 2425SOL     OW 8173   6.759   6.656   4.498
 2425SOL    HW1 8174   6.854   6.664   4.467
 2425SOL    HW2 8175   6.700   6.706   4.436
 2426SOL     OW 8176   2.235   4.828   4.031
 2426SOL    HW1 8177   2.188   4.871   3.955
 2426SOL    HW2 8178   2.187   4.744   4.057
 2427SOL     OW 8179   6.236   0.182   5.808
 2427SOL    HW1 8180   6.232   0.267   5.755
 2427SOL    HW2 8181   6.256   0.105   5.748
 2428SOL     OW 8182   5.685   1.085   0.675
 2428SOL    HW1 8183   5.601   1.033   0.692
 2428SOL    HW2 8184   5.664   1.166   0.621
 2429SOL     OW 8185   5.273   5.073   2.483
 2429SOL    HW1 8186   5.183   5.033   2.501
 2429SOL    HW2 8187   5.280   5.162   2.528
 2430SOL     OW 8188   5.246   0.028   2.964
 2430SOL    HW1 8189   5.239   6.992   2.879
 2430SOL    HW2 8190   5.193   0.113   2.956
 2431SOL     OW 8191   4.646   6.841   2.462
 2431SOL    HW1 8192   4.681   6.933   2.477
 2431SOL    HW2 8193   4.556   6.846   2.418
 2432SOL     OW 8194   2.502   5.960   2.722
 2432SOL    HW1 8195   2.453   5.963   2.635
 2432SOL    HW2 8196   2.518   6.054   2.754
 2433SOL     OW 8197   4.583   0.706   1.031
 2433SOL    HW1 8198   4.665   0.710   0.975
 2433SOL    HW2 8199   4.509   0.756   0.986
 2434SOL     OW 8200   3.795   3.098   4.516
 2434SOL    HW1 8201   3.749   3.013   4.543
 2434SOL    HW2 8202   3.752   3.175   4.562
 2435SOL     OW 8203   6.200   5.946   6.074
 2435SOL    HW1 8204   6.139   5.869   6.089
 2435SOL    HW2 8205   6.217   5.994   6.160
 2436SOL     OW 8206   2.744   4.912   0.678
 2436SOL    HW1 8207   2.816   4.909   0.608
 2436SOL    HW2 8208   2.773   4.858   0.757
 2437SOL     OW 8209   6.632   0.818   5.438
 2437SOL    HW1 8210   6.703   0.845   5.503
 2437SOL    HW2 8211   6.563   0.763   5.485
 2438SOL     OW 8212   3.101   3.474   0.925
 2438SOL    HW1 8213   3.107   3.381   0.963
 2438SOL    HW2 8214   3.063   3.536   0.994
 2439SOL     OW 8215   6.080   4.657   6.027
 2439SOL    HW1 8216   6.030   4.645   6.113
 2439SOL    HW2 8217   6.114   4.751   6.021
 2440SOL     OW 8218   5.685   4.636   5.373
 2440SOL    HW1 8219   5.723   4.727   5.389
 2440SOL    HW2 8220   5.661   4.593   5.460
 2441SOL     OW 8221   6.110   2.263   0.729
 2441SOL    HW1 8222   6.130   2.353   0.768
 2441SOL    HW2 8223   6.194   2.210   0.722
 2442SOL     OW 8224   0.054   2.119   4.978
 2442SOL    HW1 8225   0.028   2.211   4.948
 2442SOL    HW2 8226   0.137   2.091   4.931
 2443SOL     OW 8227   2.666   5.058   5.264
 2443SOL    HW1 8228   2.625   5.080   5.175
 2443SOL    HW2 8229   2.715   4.971   5.257
 2444SOL     OW 8230   3.621   2.805   5.778
 2444SOL    HW1 8231   3.707   2.817   5.828
 2444SOL    HW2 8232   3.565   2.735   5.824
 2445SOL     OW 8233   1.130   0.171   0.984
 2445SOL    HW1 8234   1.220   0.162   1.027
 2445SOL    HW2 8235   1.141   0.179   0.885
 2446SOL     OW 8236   4.874   3.150   6.343
 2446SOL    HW1 8237   4.917   3.068   6.382
 2446SOL    HW2 8238   4.896   3.156   6.246
 2447SOL     OW 8239   0.678   3.341   6.652
 2447SOL    HW1 8240   0.708   3.386   6.736
 2447SOL    HW2 8241   0.623   3.261   6.676
 2448SOL     OW 8242   0.378   6.665   4.748
 2448SOL    HW1 8243   0.395   6.641   4.844
 2448SOL    HW2 8244   0.454   6.632   4.692
 2449SOL     OW 8245   0.785   2.849   5.080
 2449SOL    HW1 8246   0.825   2.939   5.067
 2449SOL    HW2 8247   0.701   2.857   5.134
 2450SOL     OW 8248   2.340   3.311   1.428
 2450SOL    HW1 8249   2.399   3.287   1.505
 2450SOL    HW2 8250   2.320   3.409   1.430
 2451SOL     OW 8251   1.998   5.570   4.021
 2451SOL    HW1 8252   2.019   5.542   3.928
 2451SOL    HW2 8253   2.046   5.655   4.043
 2452SOL     OW 8254   2.156   2.321   4.765
 2452SOL    HW1 8255   2.247   2.279   4.757
 2452SOL    HW2 8256   2.111   2.321   4.675
 2453SOL     OW 8257   0.669   3.408   0.950
 2453SOL    HW1 8258   0.653   3.487   1.009
 2453SOL    HW2 8259   0.638   3.325   0.997
 2454SOL     OW 8260   1.492   0.153   1.949
 2454SOL    HW1 8261   1.452   0.240   1.922
 2454SOL    HW2 8262   1.534   0.162   2.039
 2455SOL     OW 8263   5.519   3.429   1.247
 2455SOL    HW1 8264   5.523   3.421   1.147
 2455SOL    HW2 8265   5.503   3.339   1.287
 2456SOL     OW 8266   2.743   6.761   1.110
 2456SOL    HW1 8267   2.745   6.689   1.041
 2456SOL    HW2 8268   2.704   6.725   1.195
 2457SOL     OW 8269   6.034   6.064   1.005
 2457SOL    HW1 8270   5.986   6.046   1.091
 2457SOL    HW2 8271   6.000   6.148   0.964
 2458SOL     OW 8272   0.796   6.293   1.706
 2458SOL    HW1 8273   0.791   6.209   1.652
 2458SOL    HW2 8274   0.870   6.351   1.672
 2459SOL     OW 8275   1.406   1.109   0.358
 2459SOL    HW1 8276   1.447   1.177   0.419
 2459SOL    HW2 8277   1.436   1.126   0.265
 2460SOL     OW 8278   2.623   4.743   1.447
 2460SOL    HW1 8279   2.681   4.685   1.389
 2460SOL    HW2 8280   2.656   4.741   1.541
 2461SOL     OW 8281   4.807   1.384   2.973
 2461SOL    HW1 8282   4.826   1.355   2.879
 2461SOL    HW2 8283   4.755   1.469   2.972
 2462SOL     OW 8284   2.819   3.964   6.085
 2462SOL    HW1 8285   2.750   3.903   6.047
 2462SOL    HW2 8286   2.774   4.044   6.125
 2463SOL     OW 8287   0.932   2.621   4.916
 2463SOL    HW1 8288   0.882   2.537   4.935
 2463SOL    HW2 8289   0.877   2.699   4.945
 2464SOL     OW 8290   0.936   2.963   0.501
 2464SOL    HW1 8291   0.905   3.039   0.559
 2464SOL    HW2 8292   0.961   2.886   0.559
 2465SOL     OW 8293   6.305   4.929   2.543
 2465SOL    HW1 8294   6.276   4.835   2.526
 2465SOL    HW2 8295   6.322   4.975   2.456
 2466SOL     OW 8296   3.456   1.478   1.712
 2466SOL    HW1 8297   3.391   1.549   1.738
 2466SOL    HW2 8298   3.406   1.395   1.687
 2467SOL     OW 8299   0.672   0.871   4.672
 2467SOL    HW1 8300   0.685   0.817   4.588
 2467SOL    HW2 8301   0.697   0.966   4.655
 2468SOL     OW 8302   6.262   4.767   6.945
 2468SOL    HW1 8303   6.348   4.723   6.971
 2468SOL    HW2 8304   6.223   4.813   0.010
 2469SOL     OW 8305   2.815   2.693   5.925
 2469SOL    HW1 8306   2.751   2.662   5.854
 2469SOL    HW2 8307   2.789   2.785   5.955
 2470SOL     OW 8308   5.311   2.965   1.236
 2470SOL    HW1 8309   5.339   2.874   1.267
 2470SOL    HW2 8310   5.219   2.959   1.196
 2471SOL     OW 8311   0.182   1.446   2.668
 2471SOL    HW1 8312   0.135   1.410   2.749
 2471SOL    HW2 8313   0.133   1.420   2.586
 2472SOL     OW 8314   6.117   0.942   3.720
 2472SOL    HW1 8315   6.084   0.852   3.692
 2472SOL    HW2 8316   6.112   1.005   3.643
 2473SOL     OW 8317   0.658   6.251   5.419
 2473SOL    HW1 8318   0.650   6.166   5.471
 2473SOL    HW2 8319   0.722   6.238   5.343
 2474SOL     OW 8320   6.353   6.670   4.517
 2474SOL    HW1 8321   6.264   6.716   4.521
 2474SOL    HW2 8322   6.416   6.713   4.581
 2475SOL     OW 8323   4.262   2.506   6.273
 2475SOL    HW1 8324   4.304   2.459   6.196
 2475SOL    HW2 8325   4.222   2.592   6.242
 2476SOL     OW 8326   0.520   1.305   3.240
 2476SOL    HW1 8327   0.439   1.273   3.191
 2476SOL    HW2 8328   0.570   1.226   3.276
 2477SOL     OW 8329   4.509   4.498   2.497
 2477SOL    HW1 8330   4.452   4.474   2.418
 2477SOL    HW2 8331   4.558   4.583   2.479
 2478SOL     OW 8332   6.975   0.429   2.170
 2478SOL    HW1 8333   6.975   0.329   2.167
 2478SOL    HW2 8334   0.026   0.465   2.104
 2479SOL     OW 8335   1.157   3.167   0.080
 2479SOL    HW1 8336   1.224   3.111   0.031
 2479SOL    HW2 8337   1.073   3.114   0.094
 2480SOL     OW 8338   6.405   5.294   1.514
 2480SOL    HW1 8339   6.467   5.354   1.464
 2480SOL    HW2 8340   6.398   5.206   1.468
 2481SOL     OW 8341   4.066   4.777   2.354
 2481SOL    HW1 8342   4.123   4.806   2.430
 2481SOL    HW2 8343   3.969   4.782   2.381
 2482SOL     OW 8344   4.211   2.292   4.767
 2482SOL    HW1 8345   4.182   2.201   4.798
 2482SOL    HW2 8346   4.145   2.361   4.798
 2483SOL     OW 8347   1.135   3.419   6.971
 2483SOL    HW1 8348   1.230   3.441   6.953
 2483SOL    HW2 8349   1.129   3.355   0.033
 2484SOL     OW 8350   3.844   4.025   5.764
 2484SOL    HW1 8351   3.859   3.937   5.719
 2484SOL    HW2 8352   3.747   4.039   5.780
 2485SOL     OW 8353   0.623   5.681   6.923
 2485SOL    HW1 8354   0.699   5.672   6.858
 2485SOL    HW2 8355   0.555   5.610   6.905
 2486SOL     OW 8356   0.706   5.624   3.284
 2486SOL    HW1 8357   0.618   5.582   3.262
 2486SOL    HW2 8358   0.778   5.556   3.275
 2487SOL     OW 8359   3.360   1.204   1.372
 2487SOL    HW1 8360   3.386   1.108   1.359
 2487SOL    HW2 8361   3.404   1.261   1.303
 2488SOL     OW 8362   3.405   5.864   6.379
 2488SOL    HW1 8363   3.309   5.870   6.405
 2488SOL    HW2 8364   3.426   5.770   6.350
 2489SOL     OW 8365   6.909   5.450   4.658
 2489SOL    HW1 8366   6.817   5.477   4.629
 2489SOL    HW2 8367   6.963   5.531   4.678
 2490SOL     OW 8368   5.648   3.058   1.354
 2490SOL    HW1 8369   5.694   3.134   1.307
 2490SOL    HW2 8370   5.557   3.087   1.384
 2491SOL     OW 8371   6.937   4.137   3.114
 2491SOL    HW1 8372   6.837   4.139   3.116
 2491SOL    HW2 8373   6.972   4.155   3.205
 2492SOL     OW 8374   4.262   1.096   6.874
 2492SOL    HW1 8375   4.283   1.019   6.934
 2492SOL    HW2 8376   4.205   1.163   6.922
 2493SOL     OW 8377   6.303   0.421   5.114
 2493SOL    HW1 8378   6.306   0.323   5.129
 2493SOL    HW2 8379   6.229   0.461   5.168
 2494SOL     OW 8380   4.843   5.029   0.852
 2494SOL    HW1 8381   4.836   4.930   0.866
 2494SOL    HW2 8382   4.791   5.056   0.772
 2495SOL     OW 8383   0.094   1.466   2.401
 2495SOL    HW1 8384   0.176   1.523   2.401
 2495SOL    HW2 8385   0.016   1.520   2.371
 2496SOL     OW 8386   2.023   4.805   0.548
 2496SOL    HW1 8387   2.072   4.861   0.615
 2496SOL    HW2 8388   1.925   4.820   0.556
 2497SOL     OW 8389   5.617   0.446   6.227
 2497SOL    HW1 8390   5.630   0.421   6.323
 2497SOL    HW2 8391   5.535   0.503   6.218
 2498SOL     OW 8392   0.809   3.225   4.652
 2498SOL    HW1 8393   0.721   3.257   4.688
 2498SOL    HW2 8394   0.873   3.302   4.646
 2499SOL     OW 8395   5.212   1.270   0.168
 2499SOL    HW1 8396   5.284   1.244   0.233
 2499SOL    HW2 8397   5.152   1.338   0.210
 2500SOL     OW 8398   4.737   3.677   6.128
 2500SOL    HW1 8399   4.652   3.627   6.147
 2500SOL    HW2 8400   4.715   3.771   6.104
 2501SOL     OW 8401   6.796   4.872   1.054
 2501SOL    HW1 8402   6.750   4.913   1.133
 2501SOL    HW2 8403   6.756   4.909   0.969
 2502SOL     OW 8404   0.893   0.294   3.632
 2502SOL    HW1 8405   0.843   0.293   3.719
 2502SOL    HW2 8406   0.829   0.286   3.556
 2503SOL     OW 8407   5.565   6.442   4.874
 2503SOL    HW1 8408   5.620   6.444   4.791
 2503SOL    HW2 8409   5.620   6.472   4.952
 2504SOL     OW 8410   2.378   4.306   3.054
 2504SOL    HW1 8411   2.303   4.261   3.101
 2504SOL    HW2 8412   2.357   4.403   3.043
 2505SOL     OW 8413   5.040   4.316   4.667
 2505SOL    HW1 8414   5.134   4.284   4.677
 2505SOL    HW2 8415   4.990   4.253   4.608
 2506SOL     OW 8416   0.815   0.677   0.383
 2506SOL    HW1 8417   0.826   0.609   0.456
 2506SOL    HW2 8418   0.787   0.764   0.423
 2507SOL     OW 8419   6.435   6.165   0.023
 2507SOL    HW1 8420   6.392   6.102   6.972
 2507SOL    HW2 8421   6.513   6.119   0.065
 2508SOL     OW 8422   1.463   2.292   1.995
 2508SOL    HW1 8423   1.523   2.221   1.959
 2508SOL    HW2 8424   1.434   2.267   2.087
 2509SOL     OW 8425   6.127   0.395   3.786
 2509SOL    HW1 8426   6.216   0.426   3.822
 2509SOL    HW2 8427   6.142   0.319   3.723
 2510SOL     OW 8428   4.293   5.889   2.237
 2510SOL    HW1 8429   4.265   5.795   2.258
 2510SOL    HW2 8430   4.347   5.890   2.152
 2511SOL     OW 8431   0.706   6.467   3.356
 2511SOL    HW1 8432   0.668   6.502   3.442
 2511SOL    HW2 8433   0.661   6.381   3.332
 2512SOL     OW 8434   5.569   3.759   4.286
 2512SOL    HW1 8435   5.567   3.684   4.219
 2512SOL    HW2 8436   5.593   3.723   4.376
 2513SOL     OW 8437   0.072   4.780   0.964
 2513SOL    HW1 8438   0.133   4.722   1.017
 2513SOL    HW2 8439   7.005   4.799   1.018
 2514SOL     OW 8440   6.695   1.966   3.616
 2514SOL    HW1 8441   6.682   2.039   3.548
 2514SOL    HW2 8442   6.611   1.952   3.667
 2515SOL     OW 8443   1.131   4.378   6.744
 2515SOL    HW1 8444   1.075   4.458   6.728
 2515SOL    HW2 8445   1.151   4.370   6.842
 2516SOL     OW 8446   5.027   6.850   3.928
 2516SOL    HW1 8447   5.035   6.754   3.957
 2516SOL    HW2 8448   4.998   6.906   4.005
 2517SOL     OW 8449   2.407   5.479   0.664
 2517SOL    HW1 8450   2.364   5.450   0.749
 2517SOL    HW2 8451   2.462   5.404   0.627
 2518SOL     OW 8452   2.428   2.444   0.169
 2518SOL    HW1 8453   2.424   2.409   0.075
 2518SOL    HW2 8454   2.338   2.479   0.195
 2519SOL     OW 8455   6.163   4.483   4.706
 2519SOL    HW1 8456   6.115   4.569   4.688
 2519SOL    HW2 8457   6.165   4.467   4.805
 2520SOL     OW 8458   3.801   5.397   0.720
 2520SOL    HW1 8459   3.776   5.324   0.656
 2520SOL    HW2 8460   3.817   5.358   0.811
 2521SOL     OW 8461   5.853   6.398   6.070
 2521SOL    HW1 8462   5.931   6.401   6.132
 2521SOL    HW2 8463   5.842   6.487   6.026
 2522SOL     OW 8464   2.332   4.737   5.148
 2522SOL    HW1 8465   2.260   4.760   5.082
 2522SOL    HW2 8466   2.412   4.702   5.099
 2523SOL     OW 8467   0.606   2.150   6.393
 2523SOL    HW1 8468   0.575   2.109   6.307
 2523SOL    HW2 8469   0.580   2.246   6.396
 2524SOL     OW 8470   1.720   6.770   4.560
 2524SOL    HW1 8471   1.662   6.847   4.588
 2524SOL    HW2 8472   1.701   6.746   4.465
 2525SOL     OW 8473   2.641   4.768   2.113
 2525SOL    HW1 8474   2.686   4.713   2.043
 2525SOL    HW2 8475   2.606   4.852   2.071
 2526SOL     OW 8476   1.592   2.678   4.581
 2526SOL    HW1 8477   1.622   2.710   4.491
 2526SOL    HW2 8478   1.505   2.629   4.572
 2527SOL     OW 8479   0.037   6.621   4.392
 2527SOL    HW1 8480   0.023   6.673   4.307
 2527SOL    HW2 8481   0.030   6.523   4.372
 2528SOL     OW 8482   5.297   5.239   1.066
 2528SOL    HW1 8483   5.212   5.273   1.107
 2528SOL    HW2 8484   5.359   5.316   1.050
 2529SOL     OW 8485   5.239   4.481   5.125
 2529SOL    HW1 8486   5.278   4.444   5.041
 2529SOL    HW2 8487   5.153   4.434   5.145
 2530SOL     OW 8488   1.163   6.444   2.989
 2530SOL    HW1 8489   1.230   6.433   2.915
 2530SOL    HW2 8490   1.210   6.444   3.077
 2531SOL     OW 8491   5.612   2.288   6.678
 2531SOL    HW1 8492   5.565   2.307   6.591
 2531SOL    HW2 8493   5.687   2.224   6.661
 2532SOL     OW 8494   0.738   5.588   5.924
 2532SOL    HW1 8495   0.736   5.661   5.992
 2532SOL    HW2 8496   0.725   5.627   5.832
 2533SOL     OW 8497   5.542   0.730   4.997
 2533SOL    HW1 8498   5.566   0.636   4.974
 2533SOL    HW2 8499   5.452   0.732   5.040
 2534SOL     OW 8500   6.747   1.129   3.618
 2534SOL    HW1 8501   6.826   1.183   3.586
 2534SOL    HW2 8502   6.754   1.116   3.717
 2535SOL     OW 8503   2.908   0.949   2.022
 2535SOL    HW1 8504   2.938   0.939   1.927
 2535SOL    HW2 8505   2.987   0.940   2.083
 2536SOL     OW 8506   0.576   0.487   3.800
 2536SOL    HW1 8507   0.637   0.432   3.857
 2536SOL    HW2 8508   0.626   0.564   3.761
 2537SOL     OW 8509   2.502   6.111   2.296
 2537SOL    HW1 8510   2.577   6.158   2.342
 2537SOL    HW2 8511   2.482   6.157   2.209
 2538SOL     OW 8512   0.180   5.254   5.299
 2538SOL    HW1 8513   0.159   5.289   5.391
 2538SOL    HW2 8514   0.248   5.313   5.256
 2539SOL     OW 8515   1.822   0.382   5.454
 2539SOL    HW1 8516   1.827   0.367   5.355
 2539SOL    HW2 8517   1.798   0.296   5.499
 2540SOL     OW 8518   4.936   2.490   2.448
 2540SOL    HW1 8519   4.878   2.415   2.413
 2540SOL    HW2 8520   4.982   2.534   2.371
 2541SOL     OW 8521   1.434   1.518   0.011
 2541SOL    HW1 8522   1.485   1.573   6.960
 2541SOL    HW2 8523   1.341   1.504   6.993
 2542SOL     OW 8524   4.028   1.790   3.232
 2542SOL    HW1 8525   4.063   1.877   3.197
 2542SOL    HW2 8526   4.096   1.748   3.293
 2543SOL     OW 8527   5.906   6.833   5.430
 2543SOL    HW1 8528   5.812   6.852   5.403
 2543SOL    HW2 8529   5.952   6.782   5.358
 2544SOL     OW 8530   0.202   6.836   0.889
 2544SOL    HW1 8531   0.257   6.851   0.808
 2544SOL    HW2 8532   0.256   6.786   0.958
 2545SOL     OW 8533   6.415   1.459   6.927
 2545SOL    HW1 8534   6.404   1.455   0.011
 2545SOL    HW2 8535   6.328   1.483   6.884
 2546SOL     OW 8536   6.324   3.532   2.413
 2546SOL    HW1 8537   6.402   3.591   2.390
 2546SOL    HW2 8538   6.261   3.528   2.335
 2547SOL     OW 8539   5.632   3.350   0.990
 2547SOL    HW1 8540   5.637   3.429   0.929
 2547SOL    HW2 8541   5.647   3.266   0.938
 2548SOL     OW 8542   6.926   0.325   5.390
 2548SOL    HW1 8543   6.880   0.237   5.381
 2548SOL    HW2 8544   7.013   0.323   5.341
 2549SOL     OW 8545   2.915   5.248   0.321
 2549SOL    HW1 8546   2.949   5.158   0.349
 2549SOL    HW2 8547   2.863   5.239   0.236
 2550SOL     OW 8548   3.812   0.501   0.893
 2550SOL    HW1 8549   3.895   0.445   0.885
 2550SOL    HW2 8550   3.734   0.451   0.855
 2551SOL     OW 8551   3.310   4.624   1.171
 2551SOL    HW1 8552   3.254   4.549   1.137
 2551SOL    HW2 8553   3.360   4.594   1.253
 2552SOL     OW 8554   2.426   4.744   1.749
 2552SOL    HW1 8555   2.372   4.798   1.813
 2552SOL    HW2 8556   2.365   4.686   1.695
 2553SOL     OW 8557   4.483   1.746   0.243
 2553SOL    HW1 8558   4.531   1.665   0.275
 2553SOL    HW2 8559   4.387   1.722   0.225
 2554SOL     OW 8560   0.939   5.796   0.834
 2554SOL    HW1 8561   0.882   5.876   0.814
 2554SOL    HW2 8562   0.948   5.740   0.752
 2555SOL     OW 8563   0.938   6.363   5.634
 2555SOL    HW1 8564   0.895   6.277   5.662
 2555SOL    HW2 8565   1.014   6.344   5.572
 2556SOL     OW 8566   5.437   0.389   0.749
 2556SOL    HW1 8567   5.384   0.472   0.732
 2556SOL    HW2 8568   5.467   0.387   0.845
 2557SOL     OW 8569   2.588   1.491   0.317
 2557SOL    HW1 8570   2.613   1.412   0.260
 2557SOL    HW2 8571   2.508   1.536   0.277
 2558SOL     OW 8572   5.567   2.235   1.209
 2558SOL    HW1 8573   5.663   2.241   1.236
 2558SOL    HW2 8574   5.556   2.156   1.149
 2559SOL     OW 8575   6.204   4.994   3.688
 2559SOL    HW1 8576   6.160   5.050   3.758
 2559SOL    HW2 8577   6.212   5.047   3.603
 2560SOL     OW 8578   4.152   2.516   1.479
 2560SOL    HW1 8579   4.236   2.515   1.534
 2560SOL    HW2 8580   4.075   2.485   1.535
 2561SOL     OW 8581   3.299   0.178   4.290
 2561SOL    HW1 8582   3.299   0.120   4.372
 2561SOL    HW2 8583   3.371   0.147   4.227
 2562SOL     OW 8584   1.442   6.481   5.065
 2562SOL    HW1 8585   1.384   6.458   4.987
 2562SOL    HW2 8586   1.529   6.518   5.032
 2563SOL     OW 8587   4.111   2.752   6.195
 2563SOL    HW1 8588   4.172   2.796   6.129
 2563SOL    HW2 8589   4.089   2.816   6.268
 2564SOL     OW 8590   1.741   1.221   1.223
 2564SOL    HW1 8591   1.712   1.241   1.130
 2564SOL    HW2 8592   1.840   1.215   1.228
 2565SOL     OW 8593   0.071   0.682   1.140
 2565SOL    HW1 8594   6.989   0.705   1.139
 2565SOL    HW2 8595   0.113   0.707   1.053
 2566SOL     OW 8596   2.927   1.422   0.564
 2566SOL    HW1 8597   2.991   1.455   0.635
 2566SOL    HW2 8598   2.891   1.333   0.591
 2567SOL     OW 8599   2.125   1.003   6.375
 2567SOL    HW1 8600   2.081   1.089   6.350
 2567SOL    HW2 8601   2.163   1.010   6.467
 2568SOL     OW 8602   2.804   6.378   0.867
 2568SOL    HW1 8603   2.823   6.306   0.934
 2568SOL    HW2 8604   2.758   6.337   0.788
 2569SOL     OW 8605   2.494   6.367   6.506
 2569SOL    HW1 8606   2.405   6.342   6.467
 2569SOL    HW2 8607   2.533   6.443   6.453
 2570SOL     OW 8608   0.106   0.075   3.569
 2570SOL    HW1 8609   0.102   6.999   3.610
 2570SOL    HW2 8610   0.191   0.083   3.516
 2571SOL     OW 8611   3.582   3.167   3.059
 2571SOL    HW1 8612   3.581   3.239   3.128
 2571SOL    HW2 8613   3.544   3.202   2.974
 2572SOL     OW 8614   2.605   5.599   2.477
 2572SOL    HW1 8615   2.645   5.667   2.416
 2572SOL    HW2 8616   2.506   5.614   2.483
 2573SOL     OW 8617   6.723   0.859   3.194
 2573SOL    HW1 8618   6.749   0.857   3.098
 2573SOL    HW2 8619   6.760   0.942   3.237
 2574SOL     OW 8620   0.084   4.229   1.986
 2574SOL    HW1 8621   0.072   4.189   1.894
 2574SOL    HW2 8622   0.177   4.209   2.018
 2575SOL     OW 8623   4.767   3.777   5.314
 2575SOL    HW1 8624   4.690   3.840   5.325
 2575SOL    HW2 8625   4.738   3.698   5.261
 2576SOL     OW 8626   0.368   0.298   2.694
 2576SOL    HW1 8627   0.461   0.287   2.660
 2576SOL    HW2 8628   0.368   0.362   2.772
 2577SOL     OW 8629   1.628   4.302   0.763
 2577SOL    HW1 8630   1.700   4.370   0.772
 2577SOL    HW2 8631   1.539   4.347   0.770
 2578SOL     OW 8632   4.457   2.360   4.686
 2578SOL    HW1 8633   4.366   2.332   4.716
 2578SOL    HW2 8634   4.526   2.309   4.737
 2579SOL     OW 8635   0.220   0.994   6.853
 2579SOL    HW1 8636   0.279   0.943   6.915
 2579SOL    HW2 8637   0.274   1.062   6.804
 2580SOL     OW 8638   2.115   1.957   5.914
 2580SOL    HW1 8639   2.138   1.911   5.828
 2580SOL    HW2 8640   2.017   1.947   5.932
 2581SOL     OW 8641   5.627   6.855   4.302
 2581SOL    HW1 8642   5.562   6.885   4.372
 2581SOL    HW2 8643   5.622   6.755   4.293
 2582SOL     OW 8644   6.384   3.995   3.137
 2582SOL    HW1 8645   6.334   4.062   3.083
 2582SOL    HW2 8646   6.402   3.913   3.082
 2583SOL     OW 8647   2.991   0.814   0.471
 2583SOL    HW1 8648   3.037   0.729   0.445
 2583SOL    HW2 8649   2.957   0.860   0.389
 2584SOL     OW 8650   4.001   0.780   3.264
 2584SOL    HW1 8651   4.038   0.688   3.273
 2584SOL    HW2 8652   3.958   0.791   3.174
 2585SOL     OW 8653   3.800   0.695   2.403
 2585SOL    HW1 8654   3.761   0.726   2.489
 2585SOL    HW2 8655   3.900   0.697   2.409
 2586SOL     OW 8656   0.837   1.551   4.207
 2586SOL    HW1 8657   0.917   1.597   4.168
 2586SOL    HW2 8658   0.856   1.524   4.301
 2587SOL     OW 8659   6.224   4.849   2.970
 2587SOL    HW1 8660   6.297   4.808   3.025
 2587SOL    HW2 8661   6.202   4.789   2.893
 2588SOL     OW 8662   3.594   6.592   2.777
 2588SOL    HW1 8663   3.553   6.679   2.806
 2588SOL    HW2 8664   3.655   6.558   2.849
 2589SOL     OW 8665   4.661   6.538   2.017
 2589SOL    HW1 8666   4.707   6.576   2.097
 2589SOL    HW2 8667   4.707   6.454   1.988
 2590SOL     OW 8668   4.261   5.872   3.772
 2590SOL    HW1 8669   4.216   5.947   3.820
 2590SOL    HW2 8670   4.340   5.907   3.721
 2591SOL     OW 8671   6.135   0.364   0.724
 2591SOL    HW1 8672   6.222   0.394   0.686
 2591SOL    HW2 8673   6.067   0.437   0.714
 2592SOL     OW 8674   2.695   4.714   1.726
 2592SOL    HW1 8675   2.596   4.710   1.721
 2592SOL    HW2 8676   2.727   4.659   1.803
 2593SOL     OW 8677   2.948   0.140   3.439
 2593SOL    HW1 8678   3.004   0.094   3.370
 2593SOL    HW2 8679   2.906   0.222   3.400
 2594SOL     OW 8680   2.073   6.059   6.818
 2594SOL    HW1 8681   2.061   6.005   6.901
 2594SOL    HW2 8682   2.168   6.054   6.788
 2595SOL     OW 8683   6.807   2.968   4.193
 2595SOL    HW1 8684   6.854   2.931   4.274
 2595SOL    HW2 8685   6.827   2.910   4.114
 2596SOL     OW 8686   4.213   1.862   0.896
 2596SOL    HW1 8687   4.228   1.780   0.840
 2596SOL    HW2 8688   4.294   1.878   0.952
 2597SOL     OW 8689   2.426   2.066   6.478
 2597SOL    HW1 8690   2.382   2.151   6.508
 2597SOL    HW2 8691   2.357   2.006   6.437
 2598SOL     OW 8692   6.807   1.157   3.199
 2598SOL    HW1 8693   6.751   1.156   3.281
 2598SOL    HW2 8694   6.748   1.155   3.118
 2599SOL     OW 8695   4.744   5.819   6.384
 2599SOL    HW1 8696   4.715   5.904   6.429
 2599SOL    HW2 8697   4.843   5.814   6.382
 2600SOL     OW 8698   0.519   2.402   4.664
 2600SOL    HW1 8699   0.437   2.429   4.715
 2600SOL    HW2 8700   0.554   2.316   4.701
 2601SOL     OW 8701   3.919   4.307   5.258
 2601SOL    HW1 8702   3.982   4.364   5.311
 2601SOL    HW2 8703   3.825   4.335   5.276
 2602SOL     OW 8704   5.848   6.664   6.205
 2602SOL    HW1 8705   5.943   6.641   6.183
 2602SOL    HW2 8706   5.800   6.691   6.121
 2603SOL     OW 8707   1.621   1.838   0.073
 2603SOL    HW1 8708   1.664   1.846   0.164
 2603SOL    HW2 8709   1.628   1.744   0.041
 2604SOL     OW 8710   5.119   1.687   0.436
 2604SOL    HW1 8711   5.102   1.671   0.534
 2604SOL    HW2 8712   5.092   1.781   0.413
 2605SOL     OW 8713   5.766   3.419   4.533
 2605SOL    HW1 8714   5.727   3.334   4.498
 2605SOL    HW2 8715   5.829   3.397   4.609
 2606SOL     OW 8716   6.814   4.740   1.581
 2606SOL    HW1 8717   6.733   4.799   1.578
 2606SOL    HW2 8718   6.897   4.796   1.573
 2607SOL     OW 8719   0.934   1.192   3.788
 2607SOL    HW1 8720   0.924   1.262   3.859
 2607SOL    HW2 8721   1.031   1.172   3.776
 2608SOL     OW 8722   4.742   0.686   0.344
 2608SOL    HW1 8723   4.835   0.720   0.334
 2608SOL    HW2 8724   4.713   0.641   0.260
 2609SOL     OW 8725   0.768   3.653   3.304
 2609SOL    HW1 8726   0.855   3.606   3.315
 2609SOL    HW2 8727   0.730   3.673   3.394
 2610SOL     OW 8728   4.865   5.591   4.902
 2610SOL    HW1 8729   4.944   5.583   4.962
 2610SOL    HW2 8730   4.894   5.626   4.812
 2611SOL     OW 8731   2.674   5.788   2.305
 2611SOL    HW1 8732   2.717   5.747   2.225
 2611SOL    HW2 8733   2.699   5.884   2.311
 2612SOL     OW 8734   0.628   0.006   5.041
 2612SOL    HW1 8735   0.710   6.966   5.031
 2612SOL    HW2 8736   0.577   0.005   4.955
 2613SOL     OW 8737   3.957   1.298   0.278
 2613SOL    HW1 8738   3.971   1.228   0.348
 2613SOL    HW2 8739   4.014   1.278   0.198
 2614SOL     OW 8740   6.279   6.031   6.825
 2614SOL    HW1 8741   6.283   5.932   6.828
 2614SOL    HW2 8742   6.184   6.061   6.825
 2615SOL     OW 8743   6.312   3.817   1.445
 2615SOL    HW1 8744   6.231   3.772   1.409
 2615SOL    HW2 8745   6.387   3.807   1.379
 2616SOL     OW 8746   4.032   3.964   1.950
 2616SOL    HW1 8747   4.045   4.005   2.040
 2616SOL    HW2 8748   4.094   4.006   1.885
 2617SOL     OW 8749   2.669   6.218   1.415
 2617SOL    HW1 8750   2.658   6.202   1.316
 2617SOL    HW2 8751   2.764   6.203   1.440
 2618SOL     OW 8752   0.660   6.107   0.295
 2618SOL    HW1 8753   0.655   6.111   0.195
 2618SOL    HW2 8754   0.581   6.056   0.330
 2619SOL     OW 8755   6.300   1.280   1.901
 2619SOL    HW1 8756   6.382   1.263   1.955
 2619SOL    HW2 8757   6.303   1.226   1.817
 2620SOL     OW 8758   1.553   5.759   4.112
 2620SOL    HW1 8759   1.482   5.742   4.181
 2620SOL    HW2 8760   1.625   5.691   4.120
 2621SOL     OW 8761   0.791   6.223   4.616
 2621SOL    HW1 8762   0.733   6.218   4.697
 2621SOL    HW2 8763   0.873   6.167   4.630
 2622SOL     OW 8764   2.572   2.430   4.739
 2622SOL    HW1 8765   2.492   2.370   4.731
 2622SOL    HW2 8766   2.577   2.490   4.660
 2623SOL     OW 8767   3.183   0.656   6.308
 2623SOL    HW1 8768   3.188   0.752   6.335
 2623SOL    HW2 8769   3.191   0.649   6.209
 2624SOL     OW 8770   5.473   1.855   4.070
 2624SOL    HW1 8771   5.379   1.878   4.047
 2624SOL    HW2 8772   5.492   1.760   4.043
 2625SOL     OW 8773   2.690   6.908   6.161
 2625SOL    HW1 8774   2.621   6.974   6.130
 2625SOL    HW2 8775   2.660   6.815   6.139
 2626SOL     OW 8776   2.270   6.717   3.225
 2626SOL    HW1 8777   2.285   6.639   3.286
 2626SOL    HW2 8778   2.191   6.699   3.167
 2627SOL     OW 8779   0.805   6.905   4.654
 2627SOL    HW1 8780   0.706   6.922   4.652
 2627SOL    HW2 8781   0.838   6.896   4.560
 2628SOL     OW 8782   4.665   5.779   0.113
 2628SOL    HW1 8783   4.570   5.796   0.085
 2628SOL    HW2 8784   4.716   5.865   0.112
 2629SOL     OW 8785   2.916   3.720   1.853
 2629SOL    HW1 8786   2.985   3.735   1.924
 2629SOL    HW2 8787   2.907   3.622   1.836
 2630SOL     OW 8788   3.306   1.900   2.499
 2630SOL    HW1 8789   3.405   1.896   2.487
 2630SOL    HW2 8790   3.261   1.888   2.410
 2631SOL     OW 8791   3.583   6.286   4.285
 2631SOL    HW1 8792   3.557   6.379   4.308
 2631SOL    HW2 8793   3.599   6.279   4.187
 2632SOL     OW 8794   4.769   1.416   1.465
 2632SOL    HW1 8795   4.806   1.507   1.482
 2632SOL    HW2 8796   4.817   1.349   1.521
 2633SOL     OW 8797   0.093   2.208   6.984
 2633SOL    HW1 8798   0.117   2.255   6.899
 2633SOL    HW2 8799   0.064   2.114   6.964
 2634SOL     OW 8800   2.946   4.974   0.449
 2634SOL    HW1 8801   2.931   4.889   0.397
 2634SOL    HW2 8802   3.040   4.977   0.482
 2635SOL     OW 8803   5.800   4.801   3.450
 2635SOL    HW1 8804   5.845   4.723   3.406
 2635SOL    HW2 8805   5.868   4.872   3.469
 2636SOL     OW 8806   5.660   5.741   5.355
 2636SOL    HW1 8807   5.681   5.740   5.453
 2636SOL    HW2 8808   5.648   5.647   5.322
 2637SOL     OW 8809   4.821   5.941   2.968
 2637SOL    HW1 8810   4.856   6.026   3.007
 2637SOL    HW2 8811   4.881   5.911   2.893
 2638SOL     OW 8812   5.055   5.355   1.104
 2638SOL    HW1 8813   4.976   5.329   1.159
 2638SOL    HW2 8814   5.039   5.331   1.008
 2639SOL     OW 8815   6.894   6.980   6.730
 2639SOL    HW1 8816   6.878   0.063   6.721
 2639SOL    HW2 8817   6.828   6.940   6.793
 2640SOL     OW 8818   6.623   6.205   6.573
 2640SOL    HW1 8819   6.682   6.127   6.552
 2640SOL    HW2 8820   6.645   6.281   6.512
 2641SOL     OW 8821   0.061   5.494   0.889
 2641SOL    HW1 8822   0.123   5.449   0.952
 2641SOL    HW2 8823   6.994   5.524   0.938
 2642SOL     OW 8824   6.344   0.565   4.012
 2642SOL    HW1 8825   6.371   0.515   3.930
 2642SOL    HW2 8826   6.426   0.597   4.060
 2643SOL     OW 8827   2.220   0.324   2.430
 2643SOL    HW1 8828   2.157   0.366   2.496
 2643SOL    HW2 8829   2.240   0.230   2.459
 2644SOL     OW 8830   6.633   5.961   4.888
 2644SOL    HW1 8831   6.548   5.952   4.837
 2644SOL    HW2 8832   6.701   6.009   4.832
 2645SOL     OW 8833   5.682   6.271   6.361
 2645SOL    HW1 8834   5.646   6.352   6.314
 2645SOL    HW2 8835   5.781   6.276   6.364
 2646SOL     OW 8836   5.924   5.885   6.308
 2646SOL    HW1 8837   5.997   5.949   6.331
 2646SOL    HW2 8838   5.952   5.828   6.230
 2647SOL     OW 8839   3.256   3.660   0.350
 2647SOL    HW1 8840   3.183   3.606   0.307
 2647SOL    HW2 8841   3.312   3.600   0.407
 2648SOL     OW 8842   4.129   1.228   3.449
 2648SOL    HW1 8843   4.199   1.167   3.414
 2648SOL    HW2 8844   4.172   1.307   3.494
 2649SOL     OW 8845   2.800   3.927   5.309
 2649SOL    HW1 8846   2.865   3.873   5.363
 2649SOL    HW2 8847   2.797   4.021   5.345
 2650SOL     OW 8848   0.658   6.646   2.178
 2650SOL    HW1 8849   0.644   6.701   2.260
 2650SOL    HW2 8850   0.689   6.554   2.205
 2651SOL     OW 8851   0.547   0.349   3.195
 2651SOL    HW1 8852   0.469   0.286   3.194
 2651SOL    HW2 8853   0.595   0.343   3.107
 2652SOL     OW 8854   3.248   3.319   2.555
 2652SOL    HW1 8855   3.219   3.374   2.633
 2652SOL    HW2 8856   3.272   3.227   2.586
 2653SOL     OW 8857   6.959   6.126   0.948
 2653SOL    HW1 8858   6.926   6.079   0.866
 2653SOL    HW2 8859   6.903   6.207   0.965
 2654SOL     OW 8860   6.822   1.989   5.720
 2654SOL    HW1 8861   6.824   2.084   5.750
 2654SOL    HW2 8862   6.728   1.963   5.697
 2655SOL     OW 8863   5.326   5.560   4.337
 2655SOL    HW1 8864   5.276   5.630   4.388
 2655SOL    HW2 8865   5.415   5.597   4.308
 2656SOL     OW 8866   6.070   3.408   5.037
 2656SOL    HW1 8867   6.107   3.324   5.075
 2656SOL    HW2 8868   5.989   3.436   5.089
 2657SOL     OW 8869   3.932   2.727   5.640
 2657SOL    HW1 8870   3.969   2.797   5.701
 2657SOL    HW2 8871   4.002   2.699   5.575
 2658SOL     OW 8872   6.595   4.116   5.036
 2658SOL    HW1 8873   6.618   4.058   4.958
 2658SOL    HW2 8874   6.523   4.180   5.009
 2659SOL     OW 8875   6.617   1.576   3.543
 2659SOL    HW1 8876   6.520   1.580   3.567
 2659SOL    HW2 8877   6.633   1.497   3.484
 2660SOL     OW 8878   0.953   2.094   3.591
 2660SOL    HW1 8879   0.957   2.009   3.644
 2660SOL    HW2 8880   0.904   2.076   3.505
 2661SOL     OW 8881   3.805   6.645   3.242
 2661SOL    HW1 8882   3.809   6.629   3.143
 2661SOL    HW2 8883   3.809   6.743   3.261
 2662SOL     OW 8884   3.814   0.849   3.750
 2662SOL    HW1 8885   3.747   0.923   3.741
 2662SOL    HW2 8886   3.812   0.814   3.844
 2663SOL     OW 8887   0.964   4.310   2.736
 2663SOL    HW1 8888   0.978   4.267   2.825
 2663SOL    HW2 8889   0.873   4.287   2.702
 2664SOL     OW 8890   4.514   4.262   1.558
 2664SOL    HW1 8891   4.497   4.234   1.652
 2664SOL    HW2 8892   4.427   4.288   1.515
 2665SOL     OW 8893   4.573   0.089   5.055
 2665SOL    HW1 8894   4.610   0.180   5.074
 2665SOL    HW2 8895   4.511   0.062   5.128
 2666SOL     OW 8896   5.005   5.637   1.730
 2666SOL    HW1 8897   4.930   5.667   1.789
 2666SOL    HW2 8898   5.074   5.590   1.784
 2667SOL     OW 8899   1.764   5.062   2.884
 2667SOL    HW1 8900   1.804   4.978   2.920
 2667SOL    HW2 8901   1.696   5.041   2.814
 2668SOL     OW 8902   0.226   2.461   5.217
 2668SOL    HW1 8903   0.316   2.437   5.254
 2668SOL    HW2 8904   0.185   2.533   5.273
 2669SOL     OW 8905   4.014   5.997   5.008
 2669SOL    HW1 8906   4.021   5.913   4.954
 2669SOL    HW2 8907   4.046   6.074   4.953
 2670SOL     OW 8908   2.653   6.537   4.194
 2670SOL    HW1 8909   2.571   6.584   4.161
 2670SOL    HW2 8910   2.709   6.509   4.116
 2671SOL     OW 8911   3.111   3.915   6.696
 2671SOL    HW1 8912   3.160   3.851   6.637
 2671SOL    HW2 8913   3.033   3.868   6.737
 2672SOL     OW 8914   0.707   4.243   0.446
 2672SOL    HW1 8915   0.715   4.343   0.446
 2672SOL    HW2 8916   0.643   4.215   0.517
 2673SOL     OW 8917   3.616   2.135   2.770
 2673SOL    HW1 8918   3.571   2.115   2.683
 2673SOL    HW2 8919   3.595   2.228   2.798
 2674SOL     OW 8920   5.502   5.503   5.318
 2674SOL    HW1 8921   5.483   5.428   5.255
 2674SOL    HW2 8922   5.503   5.469   5.412
 2675SOL     OW 8923   0.173   4.783   5.761
 2675SOL    HW1 8924   0.238   4.730   5.816
 2675SOL    HW2 8925   0.209   4.875   5.747
 2676SOL     OW 8926   4.337   0.618   1.700
 2676SOL    HW1 8927   4.255   0.606   1.756
 2676SOL    HW2 8928   4.403   0.675   1.749
 2677SOL     OW 8929   2.322   4.443   2.116
 2677SOL    HW1 8930   2.238   4.425   2.066
 2677SOL    HW2 8931   2.399   4.446   2.052
 2678SOL     OW 8932   0.619   6.351   6.516
 2678SOL    HW1 8933   0.558   6.320   6.442
 2678SOL    HW2 8934   0.622   6.281   6.588
 2679SOL     OW 8935   2.530   5.018   2.027
 2679SOL    HW1 8936   2.448   5.060   1.988
 2679SOL    HW2 8937   2.611   5.053   1.980
 2680SOL     OW 8938   0.775   2.473   1.047
 2680SOL    HW1 8939   0.843   2.493   1.118
 2680SOL    HW2 8940   0.683   2.485   1.086
 2681SOL     OW 8941   2.097   2.064   1.779
 2681SOL    HW1 8942   2.002   2.059   1.748
 2681SOL    HW2 8943   2.108   2.009   1.862
 2682SOL     OW 8944   0.134   2.660   3.747
 2682SOL    HW1 8945   0.123   2.596   3.824
 2682SOL    HW2 8946   0.177   2.744   3.779
 2683SOL     OW 8947   1.480   0.044   0.275
 2683SOL    HW1 8948   1.515   6.982   0.222
 2683SOL    HW2 8949   1.542   0.064   0.351
 2684SOL     OW 8950   2.117   5.683   3.011
 2684SOL    HW1 8951   2.175   5.743   2.955
 2684SOL    HW2 8952   2.165   5.597   3.026
 2685SOL     OW 8953   5.521   5.441   5.900
 2685SOL    HW1 8954   5.599   5.383   5.878
 2685SOL    HW2 8955   5.437   5.387   5.900
 2686SOL     OW 8956   0.823   3.370   4.955
 2686SOL    HW1 8957   0.780   3.423   4.882
 2686SOL    HW2 8958   0.891   3.427   5.001
 2687SOL     OW 8959   4.440   5.274   3.107
 2687SOL    HW1 8960   4.465   5.366   3.136
 2687SOL    HW2 8961   4.477   5.208   3.173
 2688SOL     OW 8962   3.162   4.512   5.468
 2688SOL    HW1 8963   3.096   4.443   5.497
 2688SOL    HW2 8964   3.254   4.480   5.488
 2689SOL     OW 8965   6.065   2.185   4.216
 2689SOL    HW1 8966   6.021   2.269   4.246
 2689SOL    HW2 8967   6.125   2.151   4.289
 2690SOL     OW 8968   3.226   4.009   3.694
 2690SOL    HW1 8969   3.321   4.033   3.674
 2690SOL    HW2 8970   3.167   4.040   3.619
 2691SOL     OW 8971   1.459   5.963   1.693
 2691SOL    HW1 8972   1.376   5.970   1.748
 2691SOL    HW2 8973   1.482   5.866   1.681
 2692SOL     OW 8974   0.232   4.468   3.319
 2692SOL    HW1 8975   0.312   4.459   3.378
 2692SOL    HW2 8976   0.255   4.525   3.240
 2693SOL     OW 8977   1.856   3.389   2.904
 2693SOL    HW1 8978   1.868   3.345   2.993
 2693SOL    HW2 8979   1.872   3.322   2.832
 2694SOL     OW 8980   2.056   1.923   2.876
 2694SOL    HW1 8981   1.988   1.864   2.919
 2694SOL    HW2 8982   2.079   1.888   2.785
 2695SOL     OW 8983   3.862   1.780   2.325
 2695SOL    HW1 8984   3.888   1.691   2.363
 2695SOL    HW2 8985   3.810   1.767   2.240
 2696SOL     OW 8986   3.683   3.508   5.967
 2696SOL    HW1 8987   3.742   3.583   5.996
 2696SOL    HW2 8988   3.738   3.439   5.920
 2697SOL     OW 8989   2.773   1.086   5.183
 2697SOL    HW1 8990   2.837   1.095   5.260
 2697SOL    HW2 8991   2.708   1.162   5.185
 2698SOL     OW 8992   1.250   1.764   6.610
 2698SOL    HW1 8993   1.164   1.783   6.562
 2698SOL    HW2 8994   1.236   1.690   6.675
 2699SOL     OW 8995   1.599   5.127   3.693
 2699SOL    HW1 8996   1.655   5.178   3.759
 2699SOL    HW2 8997   1.632   5.146   3.600
 2700SOL     OW 8998   2.234   4.175   2.566
 2700SOL    HW1 8999   2.210   4.236   2.490
 2700SOL    HW2 9000   2.296   4.223   2.628
 2701SOL     OW 9001   2.637   0.598   5.291
 2701SOL    HW1 9002   2.608   0.550   5.208
 2701SOL    HW2 9003   2.626   0.697   5.278
 2702SOL     OW 9004   6.355   6.211   2.594
 2702SOL    HW1 9005   6.439   6.202   2.540
 2702SOL    HW2 9006   6.315   6.120   2.609
 2703SOL     OW 9007   1.817   2.160   3.111
 2703SOL    HW1 9008   1.792   2.257   3.118
 2703SOL    HW2 9009   1.913   2.152   3.086
 2704SOL     OW 9010   1.296   6.529   0.660
 2704SOL    HW1 9011   1.215   6.543   0.716
 2704SOL    HW2 9012   1.269   6.523   0.563
 2705SOL     OW 9013   0.083   3.662   2.329
 2705SOL    HW1 9014   0.069   3.740   2.390
 2705SOL    HW2 9015   0.177   3.661   2.296
 2706SOL     OW 9016   6.489   2.318   3.701
 2706SOL    HW1 9017   6.433   2.265   3.765
 2706SOL    HW2 9018   6.436   2.336   3.617
 2707SOL     OW 9019   2.446   1.401   6.731
 2707SOL    HW1 9020   2.408   1.361   6.814
 2707SOL    HW2 9021   2.512   1.472   6.756
 2708SOL     OW 9022   1.539   4.905   6.878
 2708SOL    HW1 9023   1.504   4.979   6.935
 2708SOL    HW2 9024   1.636   4.919   6.861
 2709SOL     OW 9025   4.590   6.558   1.703
 2709SOL    HW1 9026   4.613   6.644   1.657
 2709SOL    HW2 9027   4.626   6.560   1.797
 2710SOL     OW 9028   6.474   4.063   2.567
 2710SOL    HW1 9029   6.442   4.158   2.565
 2710SOL    HW2 9030   6.572   4.061   2.552
 2711SOL     OW 9031   1.207   0.014   2.226
 2711SOL    HW1 9032   1.212   0.071   2.308
 2711SOL    HW2 9033   1.151   6.948   2.246
 2712SOL     OW 9034   3.264   5.414   2.656
 2712SOL    HW1 9035   3.197   5.373   2.594
 2712SOL    HW2 9036   3.343   5.355   2.663
 2713SOL     OW 9037   1.613   2.710   5.610
 2713SOL    HW1 9038   1.558   2.788   5.580
 2713SOL    HW2 9039   1.691   2.698   5.548
 2714SOL     OW 9040   5.445   0.037   6.931
 2714SOL    HW1 9041   5.493   0.124   6.941
 2714SOL    HW2 9042   5.351   0.047   6.962
 2715SOL     OW 9043   6.488   0.552   0.039
 2715SOL    HW1 9044   6.473   0.646   0.071
 2715SOL    HW2 9045   6.439   0.488   0.098
 2716SOL     OW 9046   6.287   6.691   1.881
 2716SOL    HW1 9047   6.213   6.630   1.911
 2716SOL    HW2 9048   6.303   6.677   1.783
 2717SOL     OW 9049   0.317   6.725   3.448
 2717SOL    HW1 9050   0.360   6.708   3.359
 2717SOL    HW2 9051   0.295   6.822   3.456
 2718SOL     OW 9052   0.573   4.161   3.509
 2718SOL    HW1 9053   0.641   4.232   3.531
 2718SOL    HW2 9054   0.606   4.105   3.434
 2719SOL     OW 9055   4.067   4.810   3.016
 2719SOL    HW1 9056   4.125   4.729   3.024
 2719SOL    HW2 9057   4.007   4.801   2.937
 2720SOL     OW 9058   0.306   6.050   4.141
 2720SOL    HW1 9059   0.344   6.132   4.097
 2720SOL    HW2 9060   0.221   6.025   4.095
 2721SOL     OW 9061   5.219   6.152   3.591
 2721SOL    HW1 9062   5.242   6.241   3.553
 2721SOL    HW2 9063   5.180   6.163   3.682
 2722SOL     OW 9064   0.606   5.625   2.055
 2722SOL    HW1 9065   0.566   5.695   2.114
 2722SOL    HW2 9066   0.690   5.660   2.014
 2723SOL     OW 9067   1.980   1.836   4.342
 2723SOL    HW1 9068   2.043   1.762   4.363
 2723SOL    HW2 9069   2.008   1.882   4.258
 2724SOL     OW 9070   4.489   5.604   6.062
 2724SOL    HW1 9071   4.440   5.678   6.015
 2724SOL    HW2 9072   4.577   5.639   6.097
 2725SOL     OW 9073   2.855   4.886   3.553
 2725SOL    HW1 9074   2.867   4.895   3.652
 2725SOL    HW2 9075   2.821   4.973   3.515
 2726SOL     OW 9076   4.265   6.180   2.766
 2726SOL    HW1 9077   4.224   6.263   2.804
 2726SOL    HW2 9078   4.208   6.146   2.691
 2727SOL     OW 9079   2.118   6.073   4.128
 2727SOL    HW1 9080   2.209   6.103   4.100
 2727SOL    HW2 9081   2.100   6.102   4.222
 2728SOL     OW 9082   2.860   6.843   5.403
 2728SOL    HW1 9083   2.901   6.892   5.480
 2728SOL    HW2 9084   2.831   6.908   5.333
 2729SOL     OW 9085   0.163   4.999   2.826
 2729SOL    HW1 9086   0.110   4.981   2.909
 2729SOL    HW2 9087   0.177   4.914   2.776
 2730SOL     OW 9088   1.087   4.485   1.075
 2730SOL    HW1 9089   1.101   4.507   0.978
 2730SOL    HW2 9090   1.072   4.386   1.085
 2731SOL     OW 9091   2.452   3.705   0.651
 2731SOL    HW1 9092   2.404   3.750   0.576
 2731SOL    HW2 9093   2.529   3.762   0.680
 2732SOL     OW 9094   5.273   2.969   4.310
 2732SOL    HW1 9095   5.365   3.008   4.311
 2732SOL    HW2 9096   5.212   3.029   4.257
 2733SOL     OW 9097   2.092   0.616   6.653
 2733SOL    HW1 9098   2.044   0.693   6.611
 2733SOL    HW2 9099   2.075   0.533   6.599
 2734SOL     OW 9100   1.781   6.765   4.210
 2734SOL    HW1 9101   1.701   6.715   4.242
 2734SOL    HW2 9102   1.776   6.777   4.111
 2735SOL     OW 9103   1.762   5.711   1.600
 2735SOL    HW1 9104   1.826   5.780   1.569
 2735SOL    HW2 9105   1.803   5.620   1.591
 2736SOL     OW 9106   4.104   6.998   6.718
 2736SOL    HW1 9107   4.113   6.909   6.763
 2736SOL    HW2 9108   4.059   6.987   6.629
 2737SOL     OW 9109   3.969   3.866   5.504
 2737SOL    HW1 9110   4.065   3.885   5.487
 2737SOL    HW2 9111   3.934   3.804   5.434
 2738SOL     OW 9112   6.334   4.224   4.098
 2738SOL    HW1 9113   6.393   4.227   4.178
 2738SOL    HW2 9114   6.388   4.197   4.018
 2739SOL     OW 9115   4.328   4.494   6.949
 2739SOL    HW1 9116   4.237   4.454   6.937
 2739SOL    HW2 9117   4.373   4.450   0.012
 2740SOL     OW 9118   6.086   2.481   4.413
 2740SOL    HW1 9119   6.109   2.542   4.338
 2740SOL    HW2 9120   6.168   2.462   4.467
 2741SOL     OW 9121   2.113   2.934   5.211
 2741SOL    HW1 9122   2.059   2.875   5.151
 2741SOL    HW2 9123   2.193   2.969   5.161
 2742SOL     OW 9124   2.607   5.995   5.875
 2742SOL    HW1 9125   2.548   5.972   5.953
 2742SOL    HW2 9126   2.625   5.913   5.821
 2743SOL     OW 9127   5.687   4.517   6.563
 2743SOL    HW1 9128   5.715   4.557   6.650
 2743SOL    HW2 9129   5.684   4.417   6.571
 2744SOL     OW 9130   4.814   6.922   0.380
 2744SOL    HW1 9131   4.758   6.852   0.336
 2744SOL    HW2 9132   4.910   6.905   0.360
 2745SOL     OW 9133   3.184   5.916   2.037
 2745SOL    HW1 9134   3.114   5.858   1.996
 2745SOL    HW2 9135   3.220   5.979   1.968
 2746SOL     OW 9136   0.569   1.987   6.621
 2746SOL    HW1 9137   0.579   2.032   6.532
 2746SOL    HW2 9138   0.565   1.888   6.608
 2747SOL     OW 9139   4.976   5.929   3.866
 2747SOL    HW1 9140   4.903   5.862   3.870
 2747SOL    HW2 9141   5.037   5.909   3.789
 2748SOL     OW 9142   5.629   1.230   5.006
 2748SOL    HW1 9143   5.681   1.163   4.953
 2748SOL    HW2 9144   5.627   1.202   5.102
 2749SOL     OW 9145   5.102   4.840   3.326
 2749SOL    HW1 9146   5.177   4.810   3.385
 2749SOL    HW2 9147   5.078   4.934   3.348
 2750SOL     OW 9148   1.195   6.680   0.340
 2750SOL    HW1 9149   1.202   6.747   0.414
 2750SOL    HW2 9150   1.184   6.589   0.378
 2751SOL     OW 9151   1.898   0.174   6.841
 2751SOL    HW1 9152   1.996   0.159   6.834
 2751SOL    HW2 9153   1.853   0.090   6.873
 2752SOL     OW 9154   0.865   6.959   6.125
 2752SOL    HW1 9155   0.822   0.029   6.094
 2752SOL    HW2 9156   0.906   6.974   6.215
 2753SOL     OW 9157   3.256   5.372   5.001
 2753SOL    HW1 9158   3.260   5.407   4.907
 2753SOL    HW2 9159   3.198   5.431   5.056
 2754SOL     OW 9160   1.053   5.808   4.219
 2754SOL    HW1 9161   1.049   5.831   4.121
 2754SOL    HW2 9162   0.982   5.742   4.241
 2755SOL     OW 9163   4.626   6.088   2.540
 2755SOL    HW1 9164   4.604   6.130   2.628
 2755SOL    HW2 9165   4.579   5.999   2.533
 2756SOL     OW 9166   0.065   2.669   5.336
 2756SOL    HW1 9167   0.120   2.748   5.364
 2756SOL    HW2 9168   0.038   2.616   5.416
 2757SOL     OW 9169   5.375   3.803   6.230
 2757SOL    HW1 9170   5.323   3.742   6.290
 2757SOL    HW2 9171   5.458   3.757   6.200
 2758SOL     OW 9172   0.271   5.994   1.486
 2758SOL    HW1 9173   0.230   5.921   1.541
 2758SOL    HW2 9174   0.199   6.039   1.433
 2759SOL     OW 9175   3.633   3.757   5.215
 2759SOL    HW1 9176   3.645   3.857   5.217
 2759SOL    HW2 9177   3.562   3.733   5.150
 2760SOL     OW 9178   5.068   5.512   2.548
 2760SOL    HW1 9179   5.109   5.604   2.545
 2760SOL    HW2 9180   4.997   5.505   2.478
 2761SOL     OW 9181   1.633   3.716   4.103
 2761SOL    HW1 9182   1.610   3.760   4.017
 2761SOL    HW2 9183   1.560   3.732   4.169
 2762SOL     OW 9184   4.387   1.373   2.137
 2762SOL    HW1 9185   4.376   1.275   2.121
 2762SOL    HW2 9186   4.362   1.394   2.231
 2763SOL     OW 9187   5.917   1.105   4.385
 2763SOL    HW1 9188   5.874   1.018   4.360
 2763SOL    HW2 9189   5.923   1.163   4.304
 2764SOL     OW 9190   6.786   2.704   3.465
 2764SOL    HW1 9191   6.752   2.636   3.530
 2764SOL    HW2 9192   6.881   2.727   3.486
 2765SOL     OW 9193   0.487   6.562   6.628
 2765SOL    HW1 9194   0.402   6.585   6.580
 2765SOL    HW2 9195   0.538   6.495   6.574
 2766SOL     OW 9196   4.601   0.327   0.549
 2766SOL    HW1 9197   4.629   0.298   0.458
 2766SOL    HW2 9198   4.575   0.247   0.603
 2767SOL     OW 9199   0.491   5.863   5.753
 2767SOL    HW1 9200   0.415   5.799   5.740
 2767SOL    HW2 9201   0.462   5.954   5.723
 2768SOL     OW 9202   4.114   6.466   1.439
 2768SOL    HW1 9203   4.214   6.465   1.433
 2768SOL    HW2 9204   4.087   6.511   1.524
 2769SOL     OW 9205   0.533   4.825   5.271
 2769SOL    HW1 9206   0.500   4.730   5.276
 2769SOL    HW2 9207   0.455   4.887   5.275
 2770SOL     OW 9208   2.483   6.590   0.820
 2770SOL    HW1 9209   2.420   6.666   0.834
 2770SOL    HW2 9210   2.433   6.511   0.785
 2771SOL     OW 9211   4.392   6.772   5.284
 2771SOL    HW1 9212   4.372   6.869   5.270
 2771SOL    HW2 9213   4.405   6.754   5.381
 2772SOL     OW 9214   5.333   1.968   3.371
 2772SOL    HW1 9215   5.293   2.020   3.295
 2772SOL    HW2 9216   5.433   1.971   3.364
 2773SOL     OW 9217   5.646   2.171   6.362
 2773SOL    HW1 9218   5.611   2.206   6.275
 2773SOL    HW2 9219   5.606   2.081   6.380
 2774SOL     OW 9220   6.766   0.212   3.742
 2774SOL    HW1 9221   6.667   0.221   3.750
 2774SOL    HW2 9222   6.810   0.276   3.804
 2775SOL     OW 9223   6.823   2.120   4.418
 2775SOL    HW1 9224   6.883   2.057   4.467
 2775SOL    HW2 9225   6.878   2.180   4.360
 2776SOL     OW 9226   4.738   3.937   6.032
 2776SOL    HW1 9227   4.671   4.003   5.997
 2776SOL    HW2 9228   4.791   3.900   5.956
 2777SOL     OW 9229   1.767   1.923   0.271
 2777SOL    HW1 9230   1.860   1.897   0.298
 2777SOL    HW2 9231   1.727   1.984   0.340
 2778SOL     OW 9232   3.006   6.957   5.652
 2778SOL    HW1 9233   3.076   0.012   5.663
 2778SOL    HW2 9234   3.030   6.878   5.709
 2779SOL     OW 9235   4.777   0.983   2.713
 2779SOL    HW1 9236   4.858   0.976   2.770
 2779SOL    HW2 9237   4.779   0.912   2.643
 2780SOL     OW 9238   0.722   1.145   4.655
 2780SOL    HW1 9239   0.782   1.192   4.719
 2780SOL    HW2 9240   0.771   1.127   4.569
 2781SOL     OW 9241   0.265   0.353   2.437
 2781SOL    HW1 9242   0.320   0.283   2.392
 2781SOL    HW2 9243   0.277   0.347   2.536
 2782SOL     OW 9244   5.611   0.105   4.927
 2782SOL    HW1 9245   5.620   0.108   5.026
 2782SOL    HW2 9246   5.605   0.199   4.891
 2783SOL     OW 9247   6.000   3.015   1.997
 2783SOL    HW1 9248   6.066   3.040   2.068
 2783SOL    HW2 9249   6.017   2.921   1.968
 2784SOL     OW 9250   0.331   2.756   2.107
 2784SOL    HW1 9251   0.242   2.787   2.140
 2784SOL    HW2 9252   0.327   2.658   2.088
 2785SOL     OW 9253   5.414   3.955   3.653
 2785SOL    HW1 9254   5.425   3.860   3.681
 2785SOL    HW2 9255   5.484   3.979   3.586
 2786SOL     OW 9256   6.842   5.496   0.660
 2786SOL    HW1 9257   6.772   5.566   0.676
 2786SOL    HW2 9258   6.914   5.505   0.729
 2787SOL     OW 9259   0.820   6.847   5.786
 2787SOL    HW1 9260   0.728   6.830   5.821
 2787SOL    HW2 9261   0.814   6.887   5.695
 2788SOL     OW 9262   2.737   6.648   0.549
 2788SOL    HW1 9263   2.739   6.669   0.647
 2788SOL    HW2 9264   2.714   6.551   0.537
 2789SOL     OW 9265   1.680   1.745   3.727
 2789SOL    HW1 9266   1.752   1.702   3.673
 2789SOL    HW2 9267   1.708   1.839   3.751
 2790SOL     OW 9268   6.693   5.363   1.507
 2790SOL    HW1 9269   6.699   5.443   1.447
 2790SOL    HW2 9270   6.766   5.366   1.575
 2791SOL     OW 9271   0.324   3.143   5.177
 2791SOL    HW1 9272   0.387   3.144   5.255
 2791SOL    HW2 9273   0.241   3.194   5.200
 2792SOL     OW 9274   2.955   2.437   6.202
 2792SOL    HW1 9275   3.040   2.484   6.177
 2792SOL    HW2 9276   2.968   2.338   6.193
 2793SOL     OW 9277   3.821   3.660   6.333
 2793SOL    HW1 9278   3.725   3.659   6.305
 2793SOL    HW2 9279   3.827   3.668   6.433
 2794SOL     OW 9280   1.557   1.691   6.819
 2794SOL    HW1 9281   1.645   1.661   6.782
 2794SOL    HW2 9282   1.536   1.782   6.783
 2795SOL     OW 9283   1.477   0.072   0.708
 2795SOL    HW1 9284   1.546   0.052   0.639
 2795SOL    HW2 9285   1.521   0.101   0.792
 2796SOL     OW 9286   3.292   6.276   6.968
 2796SOL    HW1 9287   3.229   6.347   6.999
 2796SOL    HW2 9288   3.358   6.257   0.025
 2797SOL     OW 9289   4.722   4.230   4.239
 2797SOL    HW1 9290   4.792   4.158   4.242
 2797SOL    HW2 9291   4.685   4.235   4.146
 2798SOL     OW 9292   5.335   2.506   1.842
 2798SOL    HW1 9293   5.391   2.588   1.852
 2798SOL    HW2 9294   5.297   2.479   1.931
 2799SOL     OW 9295   3.323   6.688   4.877
 2799SOL    HW1 9296   3.297   6.593   4.896
 2799SOL    HW2 9297   3.243   6.747   4.883
 2800SOL     OW 9298   5.118   1.772   6.585
 2800SOL    HW1 9299   5.058   1.804   6.658
 2800SOL    HW2 9300   5.066   1.763   6.500
 2801SOL     OW 9301   0.459   4.409   3.491
 2801SOL    HW1 9302   0.481   4.312   3.503
 2801SOL    HW2 9303   0.538   4.455   3.450
 2802SOL     OW 9304   1.263   4.772   4.282
 2802SOL    HW1 9305   1.297   4.807   4.195
 2802SOL    HW2 9306   1.320   4.695   4.312
 2803SOL     OW 9307   3.327   2.437   6.538
 2803SOL    HW1 9308   3.369   2.503   6.476
 2803SOL    HW2 9309   3.388   2.358   6.548
 2804SOL     OW 9310   5.936   2.495   3.979
 2804SOL    HW1 9311   5.930   2.542   4.067
 2804SOL    HW2 9312   5.888   2.548   3.909
 2805SOL     OW 9313   4.295   4.704   0.462
 2805SOL    HW1 9314   4.387   4.742   0.458
 2805SOL    HW2 9315   4.267   4.694   0.558
 2806SOL     OW 9316   0.359   2.960   4.737
 2806SOL    HW1 9317   0.438   2.989   4.792
 2806SOL    HW2 9318   0.389   2.893   4.669
 2807SOL     OW 9319   4.609   1.831   3.988
 2807SOL    HW1 9320   4.576   1.789   4.072
 2807SOL    HW2 9321   4.691   1.784   3.957
 2808SOL     OW 9322   1.391   6.257   6.342
 2808SOL    HW1 9323   1.388   6.169   6.293
 2808SOL    HW2 9324   1.298   6.291   6.354
 2809SOL     OW 9325   1.112   6.069   0.695
 2809SOL    HW1 9326   1.203   6.080   0.733
 2809SOL    HW2 9327   1.050   6.136   0.736
 2810SOL     OW 9328   0.823   6.212   2.320
 2810SOL    HW1 9329   0.738   6.182   2.362
 2810SOL    HW2 9330   0.893   6.141   2.331
 2811SOL     OW 9331   1.030   0.982   0.646
 2811SOL    HW1 9332   1.054   0.907   0.708
 2811SOL    HW2 9333   1.080   0.971   0.560
 2812SOL     OW 9334   1.995   1.063   1.152
 2812SOL    HW1 9335   2.002   1.058   1.053
 2812SOL    HW2 9336   2.086   1.052   1.193
 2813SOL     OW 9337   6.593   2.162   1.163
 2813SOL    HW1 9338   6.584   2.064   1.180
 2813SOL    HW2 9339   6.688   2.190   1.180
 2814SOL     OW 9340   2.649   4.358   6.876
 2814SOL    HW1 9341   2.593   4.305   6.812
 2814SOL    HW2 9342   2.727   4.303   6.905
 2815SOL     OW 9343   6.708   5.671   5.184
 2815SOL    HW1 9344   6.694   5.605   5.259
 2815SOL    HW2 9345   6.635   5.660   5.117
 2816SOL     OW 9346   0.861   4.842   4.621
 2816SOL    HW1 9347   0.947   4.809   4.582
 2816SOL    HW2 9348   0.815   4.767   4.669
 2817SOL     OW 9349   2.227   0.450   2.065
 2817SOL    HW1 9350   2.196   0.518   2.131
 2817SOL    HW2 9351   2.249   0.496   1.978
 2818SOL     OW 9352   1.802   1.044   0.486
 2818SOL    HW1 9353   1.815   0.992   0.402
 2818SOL    HW2 9354   1.857   1.004   0.559
 2819SOL     OW 9355   6.768   0.372   6.493
 2819SOL    HW1 9356   6.772   0.346   6.397
 2819SOL    HW2 9357   6.675   0.363   6.527
 2820SOL     OW 9358   1.884   1.792   0.619
 2820SOL    HW1 9359   1.947   1.714   0.613
 2820SOL    HW2 9360   1.805   1.774   0.561
 2821SOL     OW 9361   3.295   2.248   6.205
 2821SOL    HW1 9362   3.281   2.346   6.194
 2821SOL    HW2 9363   3.382   2.231   6.252
 2822SOL     OW 9364   4.151   2.962   1.104
 2822SOL    HW1 9365   4.166   2.896   1.176
 2822SOL    HW2 9366   4.183   2.925   1.017
 2823SOL     OW 9367   5.776   4.209   2.916
 2823SOL    HW1 9368   5.697   4.220   2.976
 2823SOL    HW2 9369   5.762   4.261   2.832
 2824SOL     OW 9370   0.603   4.483   5.111
 2824SOL    HW1 9371   0.604   4.383   5.108
 2824SOL    HW2 9372   0.541   4.514   5.183
 2825SOL     OW 9373   5.613   2.108   5.323
 2825SOL    HW1 9374   5.514   2.120   5.338
 2825SOL    HW2 9375   5.653   2.060   5.401
 2826SOL     OW 9376   2.828   3.152   6.993
 2826SOL    HW1 9377   2.923   3.122   6.998
 2826SOL    HW2 9378   2.823   3.251   7.004
 2827SOL     OW 9379   6.510   2.031   0.170
 2827SOL    HW1 9380   6.427   2.086   0.157
 2827SOL    HW2 9381   6.526   2.016   0.267
 2828SOL     OW 9382   1.654   4.513   0.083
 2828SOL    HW1 9383   1.659   4.453   0.162
 2828SOL    HW2 9384   1.699   4.600   0.103
 2829SOL     OW 9385   3.462   4.150   1.572
 2829SOL    HW1 9386   3.488   4.234   1.620
 2829SOL    HW2 9387   3.469   4.073   1.635
 2830SOL     OW 9388   3.039   5.658   4.299
 2830SOL    HW1 9389   3.109   5.708   4.350
 2830SOL    HW2 9390   3.081   5.582   4.250
 2831SOL     OW 9391   6.391   1.807   2.001
 2831SOL    HW1 9392   6.445   1.879   1.959
 2831SOL    HW2 9393   6.378   1.732   1.936
 2832SOL     OW 9394   1.373   4.139   1.503
 2832SOL    HW1 9395   1.310   4.080   1.452
 2832SOL    HW2 9396   1.393   4.098   1.592
 2833SOL     OW 9397   6.621   3.242   3.540
 2833SOL    HW1 9398   6.619   3.288   3.451
 2833SOL    HW2 9399   6.681   3.162   3.536
 2834SOL     OW 9400   2.833   0.660   4.683
 2834SOL    HW1 9401   2.864   0.656   4.588
 2834SOL    HW2 9402   2.752   0.717   4.690
 2835SOL     OW 9403   6.865   1.162   0.543
 2835SOL    HW1 9404   6.777   1.118   0.559
 2835SOL    HW2 9405   6.895   1.209   0.626
 2836SOL     OW 9406   3.178   5.839   1.282
 2836SOL    HW1 9407   3.172   5.861   1.379
 2836SOL    HW2 9408   3.137   5.749   1.266
 2837SOL     OW 9409   5.748   4.295   2.644
 2837SOL    HW1 9410   5.653   4.323   2.658
 2837SOL    HW2 9411   5.799   4.369   2.602
 2838SOL     OW 9412   7.012   3.908   5.657
 2838SOL    HW1 9413   6.965   3.975   5.715
 2838SOL    HW2 9414   0.095   3.912   5.674
 2839SOL     OW 9415   5.920   2.999   5.843
 2839SOL    HW1 9416   5.966   2.917   5.877
 2839SOL    HW2 9417   5.882   3.049   5.921
 2840SOL     OW 9418   6.436   6.028   5.284
 2840SOL    HW1 9419   6.470   6.092   5.215
 2840SOL    HW2 9420   6.337   6.019   5.276
 2841SOL     OW 9421   5.639   3.780   2.981
 2841SOL    HW1 9422   5.648   3.839   3.061
 2841SOL    HW2 9423   5.599   3.692   3.008
 2842SOL     OW 9424   0.879   6.350   3.627
 2842SOL    HW1 9425   0.888   6.440   3.584
 2842SOL    HW2 9426   0.932   6.283   3.576
 2843SOL     OW 9427   1.253   3.222   4.323
 2843SOL    HW1 9428   1.179   3.246   4.260
 2843SOL    HW2 9429   1.236   3.263   4.412
 2844SOL     OW 9430   5.343   4.384   0.259
 2844SOL    HW1 9431   5.335   4.415   0.164
 2844SOL    HW2 9432   5.439   4.383   0.286
 2845SOL     OW 9433   3.937   1.946   1.153
 2845SOL    HW1 9434   3.872   1.871   1.148
 2845SOL    HW2 9435   4.028   1.910   1.176
 2846SOL     OW 9436   5.127   0.001   6.774
 2846SOL    HW1 9437   5.082   0.073   6.826
 2846SOL    HW2 9438   5.062   6.977   6.708
 2847SOL     OW 9439   5.358   4.700   2.718
 2847SOL    HW1 9440   5.354   4.798   2.732
 2847SOL    HW2 9441   5.308   4.653   2.791
 2848SOL     OW 9442   0.497   3.504   0.065
 2848SOL    HW1 9443   0.479   3.523   6.983
 2848SOL    HW2 9444   0.592   3.529   0.086
 2849SOL     OW 9445   5.483   0.714   1.084
 2849SOL    HW1 9446   5.387   0.704   1.057
 2849SOL    HW2 9447   5.496   0.674   1.175
 2850SOL     OW 9448   0.647   0.976   1.004
 2850SOL    HW1 9449   0.616   0.887   1.037
 2850SOL    HW2 9450   0.569   1.032   0.977
 2851SOL     OW 9451   3.711   3.595   1.831
 2851SOL    HW1 9452   3.729   3.579   1.734
 2851SOL    HW2 9453   3.615   3.617   1.844
 2852SOL     OW 9454   0.771   5.280   4.641
 2852SOL    HW1 9455   0.742   5.280   4.545
 2852SOL    HW2 9456   0.743   5.366   4.683
 2853SOL     OW 9457   0.515   4.572   6.154
 2853SOL    HW1 9458   0.610   4.566   6.121
 2853SOL    HW2 9459   0.515   4.576   6.254
 2854SOL     OW 9460   3.267   0.309   6.894
 2854SOL    HW1 9461   3.357   0.265   6.894
 2854SOL    HW2 9462   3.268   0.387   6.956
 2855SOL     OW 9463   2.209   2.092   4.417
 2855SOL    HW1 9464   2.149   2.119   4.342
 2855SOL    HW2 9465   2.276   2.025   4.383
 2856SOL     OW 9466   1.521   5.370   4.848
 2856SOL    HW1 9467   1.587   5.323   4.906
 2856SOL    HW2 9468   1.463   5.302   4.802
 2857SOL     OW 9469   0.259   4.462   0.353
 2857SOL    HW1 9470   0.204   4.483   0.273
 2857SOL    HW2 9471   0.282   4.365   0.353
 2858SOL     OW 9472   5.527   4.873   3.879
 2858SOL    HW1 9473   5.599   4.942   3.869
 2858SOL    HW2 9474   5.561   4.785   3.848
 2859SOL     OW 9475   6.545   4.992   1.989
 2859SOL    HW1 9476   6.536   5.089   2.014
 2859SOL    HW2 9477   6.472   4.967   1.925
 2860SOL     OW 9478   1.071   6.817   3.143
 2860SOL    HW1 9479   1.011   6.740   3.123
 2860SOL    HW2 9480   1.017   6.897   3.169
 2861SOL     OW 9481   5.379   3.132   5.275
 2861SOL    HW1 9482   5.451   3.103   5.211
 2861SOL    HW2 9483   5.311   3.187   5.226
 2862SOL     OW 9484   4.667   1.093   0.384
 2862SOL    HW1 9485   4.741   1.083   0.318
 2862SOL    HW2 9486   4.608   1.012   0.382
 2863SOL     OW 9487   5.550   1.768   6.126
 2863SOL    HW1 9488   5.562   1.669   6.138
 2863SOL    HW2 9489   5.508   1.806   6.208
 2864SOL     OW 9490   4.153   4.795   1.087
 2864SOL    HW1 9491   4.055   4.784   1.107
 2864SOL    HW2 9492   4.191   4.708   1.057
 2865SOL     OW 9493   5.485   5.188   6.147
 2865SOL    HW1 9494   5.467   5.151   6.056
 2865SOL    HW2 9495   5.511   5.113   6.208
 2866SOL     OW 9496   4.202   5.764   0.884
 2866SOL    HW1 9497   4.260   5.682   0.887
 2866SOL    HW2 9498   4.121   5.745   0.829
 2867SOL     OW 9499   0.178   6.346   2.785
 2867SOL    HW1 9500   0.092   6.366   2.739
 2867SOL    HW2 9501   0.241   6.302   2.721
 2868SOL     OW 9502   6.786   0.105   5.334
 2868SOL    HW1 9503   6.698   0.132   5.295
 2868SOL    HW2 9504   6.786   0.007   5.352
 2869SOL     OW 9505   5.034   4.762   5.493
 2869SOL    HW1 9506   5.030   4.854   5.532
 2869SOL    HW2 9507   5.033   4.695   5.567
 2870SOL     OW 9508   0.459   1.300   1.398
 2870SOL    HW1 9509   0.505   1.257   1.320
 2870SOL    HW2 9510   0.497   1.262   1.483
 2871SOL     OW 9511   4.551   1.096   3.332
 2871SOL    HW1 9512   4.573   1.154   3.253
 2871SOL    HW2 9513   4.597   1.007   3.322
 2872SOL     OW 9514   3.672   1.666   2.680
 2872SOL    HW1 9515   3.720   1.607   2.745
 2872SOL    HW2 9516   3.639   1.748   2.727
 2873SOL     OW 9517   0.625   6.874   2.396
 2873SOL    HW1 9518   0.548   6.907   2.450
 2873SOL    HW2 9519   0.644   6.939   2.323
 2874SOL     OW 9520   1.984   0.789   2.829
 2874SOL    HW1 9521   1.978   0.878   2.874
 2874SOL    HW2 9522   2.027   0.723   2.891
 2875SOL     OW 9523   2.573   0.866   2.781
 2875SOL    HW1 9524   2.603   0.774   2.804
 2875SOL    HW2 9525   2.625   0.900   2.703
 2876SOL     OW 9526   1.086   6.727   1.038
 2876SOL    HW1 9527   1.074   6.680   1.125
 2876SOL    HW2 9528   1.004   6.779   1.015
 2877SOL     OW 9529   1.240   3.604   6.634
 2877SOL    HW1 9530   1.268   3.572   6.543
 2877SOL    HW2 9531   1.177   3.537   6.674
 2878SOL     OW 9532   3.130   3.126   4.463
 2878SOL    HW1 9533   3.192   3.204   4.464
 2878SOL    HW2 9534   3.045   3.151   4.509
 2879SOL     OW 9535   6.131   5.829   0.545
 2879SOL    HW1 9536   6.119   5.877   0.632
 2879SOL    HW2 9537   6.116   5.731   0.559
 2880SOL     OW 9538   1.426   1.954   2.856
 2880SOL    HW1 9539   1.471   1.870   2.886
 2880SOL    HW2 9540   1.330   1.952   2.882
 2881SOL     OW 9541   5.110   4.939   0.098
 2881SOL    HW1 9542   5.205   4.966   0.116
 2881SOL    HW2 9543   5.108   4.872   0.023
 2882SOL     OW 9544   4.995   6.807   6.888
 2882SOL    HW1 9545   5.004   6.898   6.849
 2882SOL    HW2 9546   4.910   6.802   6.942
 2883SOL     OW 9547   5.080   6.567   3.112
 2883SOL    HW1 9548   5.117   6.659   3.125
 2883SOL    HW2 9549   4.991   6.574   3.067
 2884SOL     OW 9550   6.000   5.605   3.429
 2884SOL    HW1 9551   5.987   5.700   3.401
 2884SOL    HW2 9552   5.967   5.593   3.523
 2885SOL     OW 9553   0.093   3.632   3.179
 2885SOL    HW1 9554   0.096   3.581   3.265
 2885SOL    HW2 9555   0.171   3.607   3.123
 2886SOL     OW 9556   2.284   4.180   4.762
 2886SOL    HW1 9557   2.216   4.140   4.700
 2886SOL    HW2 9558   2.307   4.113   4.834
 2887SOL     OW 9559   0.004   4.873   3.014
 2887SOL    HW1 9560   6.998   4.868   3.111
 2887SOL    HW2 9561   6.934   4.879   2.962
 2888SOL     OW 9562   4.424   5.986   6.178
 2888SOL    HW1 9563   4.502   5.938   6.135
 2888SOL    HW2 9564   4.457   6.065   6.228
 2889SOL     OW 9565   4.120   5.598   4.625
 2889SOL    HW1 9566   4.134   5.661   4.549
 2889SOL    HW2 9567   4.078   5.514   4.592
 2890SOL     OW 9568   1.761   2.185   0.711
 2890SOL    HW1 9569   1.682   2.195   0.772
 2890SOL    HW2 9570   1.819   2.110   0.742
 2891SOL     OW 9571   1.374   1.177   5.341
 2891SOL    HW1 9572   1.438   1.133   5.278
 2891SOL    HW2 9573   1.309   1.233   5.289
 2892SOL     OW 9574   5.574   3.932   2.005
 2892SOL    HW1 9575   5.674   3.935   2.006
 2892SOL    HW2 9576   5.542   3.899   1.916
 2893SOL     OW 9577   6.902   5.599   5.495
 2893SOL    HW1 9578   6.969   5.636   5.430
 2893SOL    HW2 9579   6.827   5.557   5.445
 2894SOL     OW 9580   2.070   5.592   1.017
 2894SOL    HW1 9581   1.995   5.527   1.031
 2894SOL    HW2 9582   2.107   5.621   1.105
 2895SOL     OW 9583   4.889   6.657   6.365
 2895SOL    HW1 9584   4.965   6.655   6.300
 2895SOL    HW2 9585   4.843   6.746   6.359
 2896SOL     OW 9586   6.295   0.409   5.671
 2896SOL    HW1 9587   6.228   0.414   5.597
 2896SOL    HW2 9588   6.374   0.355   5.642
 2897SOL     OW 9589   3.702   5.914   3.341
 2897SOL    HW1 9590   3.688   5.827   3.388
 2897SOL    HW2 9591   3.614   5.951   3.312
 2898SOL     OW 9592   5.150   2.696   2.794
 2898SOL    HW1 9593   5.137   2.771   2.730
 2898SOL    HW2 9594   5.203   2.623   2.750
 2899SOL     OW 9595   6.386   2.846   0.997
 2899SOL    HW1 9596   6.397   2.923   0.933
 2899SOL    HW2 9597   6.372   2.762   0.945
 2900SOL     OW 9598   3.162   3.041   5.270
 2900SOL    HW1 9599   3.146   3.097   5.352
 2900SOL    HW2 9600   3.141   2.946   5.291
 2901SOL     OW 9601   1.592   3.713   1.646
 2901SOL    HW1 9602   1.622   3.639   1.706
 2901SOL    HW2 9603   1.662   3.730   1.577
 2902SOL     OW 9604   5.530   6.467   3.412
 2902SOL    HW1 9605   5.617   6.441   3.454
 2902SOL    HW2 9606   5.537   6.560   3.374
 2903SOL     OW 9607   0.874   5.510   0.983
 2903SOL    HW1 9608   0.783   5.470   0.975
 2903SOL    HW2 9609   0.871   5.590   1.043
 2904SOL     OW 9610   2.831   4.801   4.799
 2904SOL    HW1 9611   2.837   4.748   4.715
 2904SOL    HW2 9612   2.810   4.740   4.876
 2905SOL     OW 9613   1.113   4.834   1.324
 2905SOL    HW1 9614   1.092   4.918   1.372
 2905SOL    HW2 9615   1.185   4.851   1.256
 2906SOL     OW 9616   6.968   6.052   6.145
 2906SOL    HW1 9617   6.870   6.033   6.147
 2906SOL    HW2 9618   6.999   6.078   6.237
 2907SOL     OW 9619   6.659   1.082   5.694
 2907SOL    HW1 9620   6.585   1.078   5.761
 2907SOL    HW2 9621   6.622   1.113   5.606
 2908SOL     OW 9622   4.155   6.163   3.900
 2908SOL    HW1 9623   4.247   6.198   3.913
 2908SOL    HW2 9624   4.115   6.203   3.817
 2909SOL     OW 9625   0.401   6.774   1.367
 2909SOL    HW1 9626   0.347   6.816   1.440
 2909SOL    HW2 9627   0.469   6.713   1.406
 2910SOL     OW 9628   1.186   0.891   4.296
 2910SOL    HW1 9629   1.280   0.873   4.327
 2910SOL    HW2 9630   1.122   0.876   4.371
 2911SOL     OW 9631   6.495   3.878   4.128
 2911SOL    HW1 9632   6.462   3.870   4.033
 2911SOL    HW2 9633   6.544   3.794   4.152
 2912SOL     OW 9634   0.523   1.328   2.485
 2912SOL    HW1 9635   0.526   1.394   2.410
 2912SOL    HW2 9636   0.497   1.374   2.569
 2913SOL     OW 9637   0.883   6.174   4.190
 2913SOL    HW1 9638   0.808   6.117   4.223
 2913SOL    HW2 9639   0.853   6.224   4.108
 2914SOL     OW 9640   3.647   4.564   1.035
 2914SOL    HW1 9641   3.557   4.606   1.022
 2914SOL    HW2 9642   3.636   4.466   1.051
 2915SOL     OW 9643   2.142   0.879   3.986
 2915SOL    HW1 9644   2.084   0.850   3.910
 2915SOL    HW2 9645   2.235   0.895   3.952
 2916SOL     OW 9646   0.209   5.513   6.383
 2916SOL    HW1 9647   0.190   5.446   6.454
 2916SOL    HW2 9648   0.165   5.600   6.405
 2917SOL     OW 9649   2.221   0.794   3.659
 2917SOL    HW1 9650   2.132   0.822   3.695
 2917SOL    HW2 9651   2.222   0.805   3.560
 2918SOL     OW 9652   4.895   2.256   1.187
 2918SOL    HW1 9653   4.883   2.160   1.161
 2918SOL    HW2 9654   4.810   2.291   1.226
 2919SOL     OW 9655   0.835   6.350   5.089
 2919SOL    HW1 9656   0.914   6.356   5.027
 2919SOL    HW2 9657   0.837   6.428   5.152
 2920SOL     OW 9658   2.724   2.145   1.860
 2920SOL    HW1 9659   2.745   2.236   1.895
 2920SOL    HW2 9660   2.808   2.104   1.823
 2921SOL     OW 9661   0.375   5.331   3.163
 2921SOL    HW1 9662   0.389   5.267   3.239
 2921SOL    HW2 9663   0.389   5.424   3.196
 2922SOL     OW 9664   3.916   4.877   3.229
 2922SOL    HW1 9665   3.932   4.834   3.140
 2922SOL    HW2 9666   3.911   4.976   3.217
 2923SOL     OW 9667   1.406   5.388   4.127
 2923SOL    HW1 9668   1.321   5.437   4.110
 2923SOL    HW2 9669   1.467   5.399   4.048
 2924SOL     OW 9670   5.727   1.721   6.949
 2924SOL    HW1 9671   5.759   1.667   6.870
 2924SOL    HW2 9672   5.728   1.664   0.015
 2925SOL     OW 9673   5.428   6.859   4.656
 2925SOL    HW1 9674   5.399   6.873   4.750
 2925SOL    HW2 9675   5.478   6.940   4.624
 2926SOL     OW 9676   6.373   2.701   4.702
 2926SOL    HW1 9677   6.353   2.790   4.743
 2926SOL    HW2 9678   6.345   2.628   4.764
 2927SOL     OW 9679   0.865   2.290   2.393
 2927SOL    HW1 9680   0.844   2.303   2.490
 2927SOL    HW2 9681   0.878   2.379   2.350
 2928SOL     OW 9682   5.049   4.197   0.727
 2928SOL    HW1 9683   5.122   4.265   0.721
 2928SOL    HW2 9684   5.089   4.106   0.737
 2929SOL     OW 9685   2.070   1.956   3.411
 2929SOL    HW1 9686   2.123   2.034   3.376
 2929SOL    HW2 9687   2.092   1.875   3.357
 2930SOL     OW 9688   0.638   3.411   4.293
 2930SOL    HW1 9689   0.602   3.391   4.384
 2930SOL    HW2 9690   0.580   3.479   4.247
 2931SOL     OW 9691   5.970   3.988   5.934
 2931SOL    HW1 9692   5.938   3.903   5.892
 2931SOL    HW2 9693   5.907   4.014   6.008
 2932SOL     OW 9694   6.533   6.252   1.064
 2932SOL    HW1 9695   6.610   6.294   1.016
 2932SOL    HW2 9696   6.447   6.292   1.031
 2933SOL     OW 9697   0.904   6.999   0.278
 2933SOL    HW1 9698   0.982   0.026   0.325
 2933SOL    HW2 9699   0.935   6.919   0.228
 2934SOL     OW 9700   5.749   5.105   2.171
 2934SOL    HW1 9701   5.712   5.197   2.184
 2934SOL    HW2 9702   5.673   5.041   2.157
 2935SOL     OW 9703   0.842   3.993   5.743
 2935SOL    HW1 9704   0.932   3.980   5.786
 2935SOL    HW2 9705   0.804   3.905   5.718
 2936SOL     OW 9706   4.020   5.933   2.137
 2936SOL    HW1 9707   3.966   5.859   2.176
 2936SOL    HW2 9708   4.117   5.915   2.152
 2937SOL     OW 9709   6.204   3.483   3.238
 2937SOL    HW1 9710   6.142   3.469   3.161
 2937SOL    HW2 9711   6.298   3.472   3.208
 2938SOL     OW 9712   0.596   5.527   0.975
 2938SOL    HW1 9713   0.582   5.495   0.881
 2938SOL    HW2 9714   0.562   5.620   0.984
 2939SOL     OW 9715   5.971   6.323   1.324
 2939SOL    HW1 9716   6.015   6.236   1.347
 2939SOL    HW2 9717   5.871   6.311   1.325
 2940SOL     OW 9718   4.685   6.428   4.016
 2940SOL    HW1 9719   4.771   6.380   4.029
 2940SOL    HW2 9720   4.649   6.408   3.924
 2941SOL     OW 9721   2.613   4.988   2.961
 2941SOL    HW1 9722   2.600   4.990   3.060
 2941SOL    HW2 9723   2.657   5.072   2.932
 2942SOL     OW 9724   3.388   1.992   1.357
 2942SOL    HW1 9725   3.420   1.951   1.271
 2942SOL    HW2 9726   3.334   1.925   1.408
 2943SOL     OW 9727   0.457   3.832   3.876
 2943SOL    HW1 9728   0.365   3.867   3.858
 2943SOL    HW2 9729   0.519   3.863   3.804
 2944SOL     OW 9730   0.618   5.794   3.054
 2944SOL    HW1 9731   0.686   5.742   3.001
 2944SOL    HW2 9732   0.566   5.730   3.111
 2945SOL     OW 9733   5.710   3.802   0.546
 2945SOL    HW1 9734   5.689   3.893   0.582
 2945SOL    HW2 9735   5.667   3.732   0.604
 2946SOL     OW 9736   3.109   4.098   4.525
 2946SOL    HW1 9737   3.011   4.104   4.543
 2946SOL    HW2 9738   3.126   4.101   4.427
 2947SOL     OW 9739   6.164   5.317   6.925
 2947SOL    HW1 9740   6.182   5.368   7.010
 2947SOL    HW2 9741   6.114   5.233   6.947
 2948SOL     OW 9742   6.253   4.273   0.835
 2948SOL    HW1 9743   6.303   4.201   0.789
 2948SOL    HW2 9744   6.290   4.363   0.810
 2949SOL     OW 9745   1.706   6.215   0.884
 2949SOL    HW1 9746   1.796   6.184   0.851
 2949SOL    HW2 9747   1.700   6.198   0.983
 2950SOL     OW 9748   5.400   5.346   2.308
 2950SOL    HW1 9749   5.435   5.436   2.287
 2950SOL    HW2 9750   5.352   5.349   2.396
 2951SOL     OW 9751   0.578   2.302   1.430
 2951SOL    HW1 9752   0.650   2.327   1.494
 2951SOL    HW2 9753   0.600   2.215   1.387
 2952SOL     OW 9754   0.424   1.557   4.216
 2952SOL    HW1 9755   0.446   1.649   4.247
 2952SOL    HW2 9756   0.356   1.516   4.277
 2953SOL     OW 9757   1.512   5.882   3.124
 2953SOL    HW1 9758   1.568   5.949   3.173
 2953SOL    HW2 9759   1.451   5.930   3.061
 2954SOL     OW 9760   1.037   4.346   6.388
 2954SOL    HW1 9761   1.019   4.275   6.457
 2954SOL    HW2 9762   1.105   4.312   6.323
 2955SOL     OW 9763   2.175   4.694   6.547
 2955SOL    HW1 9764   2.160   4.774   6.604
 2955SOL    HW2 9765   2.125   4.705   6.461
 2956SOL     OW 9766   5.509   3.968   4.473
 2956SOL    HW1 9767   5.532   3.888   4.417
 2956SOL    HW2 9768   5.558   4.048   4.438
 2957SOL     OW 9769   1.448   4.983   2.791
 2957SOL    HW1 9770   1.425   5.055   2.856
 2957SOL    HW2 9771   1.413   4.895   2.825
 2958SOL     OW 9772   1.628   4.075   1.464
 2958SOL    HW1 9773   1.537   4.117   1.466
 2958SOL    HW2 9774   1.626   3.995   1.404
 2959SOL     OW 9775   0.276   4.245   3.883
 2959SOL    HW1 9776   0.291   4.337   3.848
 2959SOL    HW2 9777   0.255   4.183   3.808
 2960SOL     OW 9778   5.138   5.954   1.102
 2960SOL    HW1 9779   5.067   5.894   1.065
 2960SOL    HW2 9780   5.096   6.033   1.146
 2961SOL     OW 9781   5.746   2.308   1.586
 2961SOL    HW1 9782   5.760   2.226   1.642
 2961SOL    HW2 9783   5.788   2.294   1.496
 2962SOL     OW 9784   0.112   0.023   3.947
 2962SOL    HW1 9785   0.122   0.120   3.927
 2962SOL    HW2 9786   0.032   0.009   4.005
 2963SOL     OW 9787   2.244   1.787   5.672
 2963SOL    HW1 9788   2.198   1.732   5.742
 2963SOL    HW2 9789   2.222   1.752   5.581
 2964SOL     OW 9790   1.183   0.757   5.850
 2964SOL    HW1 9791   1.120   0.758   5.927
 2964SOL    HW2 9792   1.135   0.725   5.768
 2965SOL     OW 9793   6.088   0.391   6.562
 2965SOL    HW1 9794   6.021   0.460   6.534
 2965SOL    HW2 9795   6.162   0.435   6.613
 2966SOL     OW 9796   3.424   5.953   2.783
 2966SOL    HW1 9797   3.405   5.917   2.692
 2966SOL    HW2 9798   3.371   6.036   2.799
 2967SOL     OW 9799   5.916   6.884   5.029
 2967SOL    HW1 9800   5.943   6.848   5.118
 2967SOL    HW2 9801   5.988   6.943   4.993
 2968SOL     OW 9802   1.205   4.318   1.612
 2968SOL    HW1 9803   1.285   4.277   1.568
 2968SOL    HW2 9804   1.234   4.399   1.663
 2969SOL     OW 9805   4.686   2.618   4.616
 2969SOL    HW1 9806   4.640   2.636   4.702
 2969SOL    HW2 9807   4.623   2.573   4.553
 2970SOL     OW 9808   2.495   2.316   6.043
 2970SOL    HW1 9809   2.567   2.382   6.062
 2970SOL    HW2 9810   2.532   2.224   6.047
 2971SOL     OW 9811   4.306   3.735   6.153
 2971SOL    HW1 9812   4.241   3.675   6.199
 2971SOL    HW2 9813   4.288   3.735   6.055
 2972SOL     OW 9814   0.660   5.785   6.224
 2972SOL    HW1 9815   0.635   5.882   6.235
 2972SOL    HW2 9816   0.589   5.728   6.265
 2973SOL     OW 9817   5.576   0.765   4.041
 2973SOL    HW1 9818   5.620   0.693   3.987
 2973SOL    HW2 9819   5.582   0.743   4.138
 2974SOL     OW 9820   5.355   6.249   2.698
 2974SOL    HW1 9821   5.424   6.199   2.645
 2974SOL    HW2 9822   5.281   6.186   2.723
 2975SOL     OW 9823   0.062   3.554   4.527
 2975SOL    HW1 9824   0.084   3.596   4.615
 2975SOL    HW2 9825   6.989   3.588   4.495
 2976SOL     OW 9826   3.862   0.378   1.429
 2976SOL    HW1 9827   3.802   0.427   1.366
 2976SOL    HW2 9828   3.942   0.435   1.450
 2977SOL     OW 9829   1.480   1.072   2.293
 2977SOL    HW1 9830   1.545   1.067   2.369
 2977SOL    HW2 9831   1.395   1.026   2.319
 2978SOL     OW 9832   3.769   6.048   0.119
 2978SOL    HW1 9833   3.699   6.052   0.048
 2978SOL    HW2 9834   3.822   5.964   0.108
 2979SOL     OW 9835   2.798   1.400   5.550
 2979SOL    HW1 9836   2.707   1.366   5.573
 2979SOL    HW2 9837   2.804   1.418   5.452
 2980SOL     OW 9838   3.321   2.921   3.987
 2980SOL    HW1 9839   3.397   2.928   4.052
 2980SOL    HW2 9840   3.239   2.961   4.029
 2981SOL     OW 9841   2.952   1.963   1.730
 2981SOL    HW1 9842   2.983   2.056   1.708
 2981SOL    HW2 9843   2.964   1.905   1.649
 2982SOL     OW 9844   1.646   0.636   1.597
 2982SOL    HW1 9845   1.709   0.561   1.615
 2982SOL    HW2 9846   1.676   0.686   1.515
 2983SOL     OW 9847   6.791   2.641   6.487
 2983SOL    HW1 9848   6.783   2.682   6.397
 2983SOL    HW2 9849   6.828   2.548   6.478
 2984SOL     OW 9850   0.596   6.337   0.876
 2984SOL    HW1 9851   0.603   6.255   0.933
 2984SOL    HW2 9852   0.514   6.388   0.899
 2985SOL     OW 9853   6.691   0.098   5.663
 2985SOL    HW1 9854   6.680   0.102   5.762
 2985SOL    HW2 9855   6.788   0.105   5.639
 2986SOL     OW 9856   3.890   3.236   2.966
 2986SOL    HW1 9857   3.893   3.138   2.985
 2986SOL    HW2 9858   3.802   3.260   2.926
 2987SOL     OW 9859   2.361   5.756   5.149
 2987SOL    HW1 9860   2.383   5.825   5.218
 2987SOL    HW2 9861   2.292   5.693   5.186
 2988SOL     OW 9862   0.744   1.706   6.550
 2988SOL    HW1 9863   0.823   1.664   6.504
 2988SOL    HW2 9864   0.661   1.656   6.525
 2989SOL     OW 9865   5.666   3.862   5.690
 2989SOL    HW1 9866   5.702   3.956   5.691
 2989SOL    HW2 9867   5.611   3.848   5.608
 2990SOL     OW 9868   4.645   0.815   5.407
 2990SOL    HW1 9869   4.561   0.817   5.353
 2990SOL    HW2 9870   4.721   0.851   5.352
 2991SOL     OW 9871   6.426   2.943   0.058
 2991SOL    HW1 9872   6.485   2.921   6.996
 2991SOL    HW2 9873   6.340   2.981   0.024
 2992SOL     OW 9874   1.541   3.916   5.430
 2992SOL    HW1 9875   1.485   3.883   5.506
 2992SOL    HW2 9876   1.561   3.840   5.368
 2993SOL     OW 9877   3.670   4.972   6.700
 2993SOL    HW1 9878   3.677   5.010   6.608
 2993SOL    HW2 9879   3.583   4.923   6.709
 2994SOL     OW 9880   2.564   4.800   4.889
 2994SOL    HW1 9881   2.635   4.870   4.882
 2994SOL    HW2 9882   2.584   4.742   4.968
 2995SOL     OW 9883   4.807   0.093   1.800
 2995SOL    HW1 9884   4.840   0.095   1.894
 2995SOL    HW2 9885   4.825   0.181   1.756
 2996SOL     OW 9886   6.990   0.796   4.032
 2996SOL    HW1 9887   6.897   0.828   4.016
 2996SOL    HW2 9888   0.025   0.864   4.085
 2997SOL     OW 9889   4.643   6.091   4.212
 2997SOL    HW1 9890   4.737   6.080   4.180
 2997SOL    HW2 9891   4.644   6.114   4.309
 2998SOL     OW 9892   2.410   0.021   2.255
 2998SOL    HW1 9893   2.481   0.058   2.196
 2998SOL    HW2 9894   2.428   0.046   2.350
 2999SOL     OW 9895   1.884   4.807   7.013
 2999SOL    HW1 9896   1.977   4.785   0.029
 2999SOL    HW2 9897   1.825   4.821   0.077
 3000SOL     OW 9898   1.610   4.277   6.234
 3000SOL    HW1 9899   1.610   4.304   6.330
 3000SOL    HW2 9900   1.620   4.178   6.228
 3001SOL     OW 9901   3.889   0.479   6.270
 3001SOL    HW1 9902   3.924   0.492   6.177
 3001SOL    HW2 9903   3.791   0.461   6.266
 3002SOL     OW 9904   1.164   2.488   1.935
 3002SOL    HW1 9905   1.155   2.478   1.836
 3002SOL    HW2 9906   1.255   2.460   1.964
 3003SOL     OW 9907   1.581   6.051   0.637
 3003SOL    HW1 9908   1.610   6.138   0.678
 3003SOL    HW2 9909   1.514   6.069   0.564
 3004SOL     OW 9910   2.959   0.053   4.414
 3004SOL    HW1 9911   2.920   0.074   4.325
 3004SOL    HW2 9912   2.925   0.118   4.482
 3005SOL     OW 9913   2.597   2.188   0.653
 3005SOL    HW1 9914   2.548   2.273   0.633
 3005SOL    HW2 9915   2.584   2.165   0.749
 3006SOL     OW 9916   5.661   1.016   5.876
 3006SOL    HW1 9917   5.667   0.975   5.784
 3006SOL    HW2 9918   5.573   1.062   5.886
 3007SOL     OW 9919   6.270   5.627   6.019
 3007SOL    HW1 9920   6.321   5.544   5.997
 3007SOL    HW2 9921   6.332   5.696   6.057
 3008SOL     OW 9922   5.248   4.164   5.339
 3008SOL    HW1 9923   5.172   4.115   5.297
 3008SOL    HW2 9924   5.273   4.242   5.282
 3009SOL     OW 9925   5.319   3.719   1.714
 3009SOL    HW1 9926   5.332   3.626   1.750
 3009SOL    HW2 9927   5.403   3.771   1.726
 3010SOL     OW 9928   4.298   4.385   1.462
 3010SOL    HW1 9929   4.221   4.322   1.459
 3010SOL    HW2 9930   4.279   4.458   1.526
 3011SOL     OW 9931   6.209   6.796   0.253
 3011SOL    HW1 9932   6.172   6.840   0.172
 3011SOL    HW2 9933   6.274   6.725   0.226
 3012SOL     OW 9934   2.677   1.444   4.755
 3012SOL    HW1 9935   2.687   1.369   4.689
 3012SOL    HW2 9936   2.746   1.435   4.827
 3013SOL     OW 9937   0.551   5.287   5.241
 3013SOL    HW1 9938   0.480   5.355   5.224
 3013SOL    HW2 9939   0.543   5.254   5.335
 3014SOL     OW 9940   3.894   0.438   0.110
 3014SOL    HW1 9941   3.935   0.347   0.102
 3014SOL    HW2 9942   3.816   0.434   0.172
 3015SOL     OW 9943   2.204   6.486   6.205
 3015SOL    HW1 9944   2.254   6.537   6.135
 3015SOL    HW2 9945   2.118   6.532   6.226
 3016SOL     OW 9946   3.489   1.157   4.368
 3016SOL    HW1 9947   3.485   1.159   4.468
 3016SOL    HW2 9948   3.466   1.065   4.336
 3017SOL     OW 9949   1.427   6.217   0.441
 3017SOL    HW1 9950   1.444   6.284   0.513
 3017SOL    HW2 9951   1.329   6.212   0.422
 3018SOL     OW 9952   2.497   2.156   1.645
 3018SOL    HW1 9953   2.535   2.064   1.645
 3018SOL    HW2 9954   2.528   2.205   1.726
 3019SOL     OW 9955   1.310   0.675   5.213
 3019SOL    HW1 9956   1.282   0.586   5.250
 3019SOL    HW2 9957   1.304   0.744   5.285
 3020SOL     OW 9958   4.752   4.246   6.542
 3020SOL    HW1 9959   4.775   4.337   6.577
 3020SOL    HW2 9960   4.756   4.247   6.442
 3021SOL     OW 9961   4.434   6.376   4.478
 3021SOL    HW1 9962   4.371   6.377   4.556
 3021SOL    HW2 9963   4.381   6.375   4.393
 3022SOL     OW 9964   4.165   0.003   3.361
 3022SOL    HW1 9965   4.212   0.056   3.432
 3022SOL    HW2 9966   4.139   6.928   3.398
 3023SOL     OW 9967   5.106   4.762   4.916
 3023SOL    HW1 9968   5.074   4.808   4.832
 3023SOL    HW2 9969   5.105   4.663   4.903
 3024SOL     OW 9970   6.385   1.243   0.366
 3024SOL    HW1 9971   6.346   1.294   0.290
 3024SOL    HW2 9972   6.485   1.247   0.360
 3025SOL     OW 9973   4.213   5.105   0.771
 3025SOL    HW1 9974   4.283   5.083   0.704
 3025SOL    HW2 9975   4.233   5.058   0.857
 3026SOL     OW 9976   0.444   0.161   2.400
 3026SOL    HW1 9977   0.542   0.183   2.402
 3026SOL    HW2 9978   0.425   0.099   2.324
 3027SOL     OW 9979   4.118   0.345   0.582
 3027SOL    HW1 9980   4.168   0.362   0.667
 3027SOL    HW2 9981   4.132   0.250   0.553
 3028SOL     OW 9982   4.008   3.329   4.291
 3028SOL    HW1 9983   4.069   3.377   4.226
 3028SOL    HW2 9984   3.960   3.256   4.243
 3029SOL     OW 9985   0.277   2.348   4.500
 3029SOL    HW1 9986   0.358   2.406   4.487
 3029SOL    HW2 9987   0.199   2.389   4.451
 3030SOL     OW 9988   0.320   3.409   6.405
 3030SOL    HW1 9989   0.284   3.478   6.342
 3030SOL    HW2 9990   0.387   3.352   6.357
 3031SOL     OW 9991   0.398   4.466   6.843
 3031SOL    HW1 9992   0.444   4.427   6.923
 3031SOL    HW2 9993   0.462   4.520   6.790
 3032SOL     OW 9994   3.528   0.082   4.096
 3032SOL    HW1 9995   3.583   7.014   4.083
 3032SOL    HW2 9996   3.448   0.079   4.037
 3033SOL     OW 9997   1.994   0.883   6.677
 3033SOL    HW1 9998   1.934   0.937   6.736
 3033SOL    HW2 9999   2.080   0.932   6.662
 3034SOL     OW10000   5.482   3.290   3.447
 3034SOL    HW110001   5.475   3.385   3.418
 3034SOL    HW210002   5.406   3.238   3.407
 3035SOL     OW10003   6.512   4.003   6.407
 3035SOL    HW110004   6.583   4.019   6.339
 3035SOL    HW210005   6.536   4.051   6.492
 3036SOL     OW10006   3.079   2.307   5.786
 3036SOL    HW110007   3.042   2.383   5.734
 3036SOL    HW210008   3.011   2.276   5.853
 3037SOL     OW10009   0.502   5.276   6.194
 3037SOL    HW110010   0.584   5.294   6.249
 3037SOL    HW210011   0.501   5.336   6.114
 3038SOL     OW10012   5.748   4.551   5.119
 3038SOL    HW110013   5.705   4.552   5.209
 3038SOL    HW210014   5.680   4.573   5.049
 3039SOL     OW10015   5.912   3.290   6.247
 3039SOL    HW110016   6.002   3.264   6.279
 3039SOL    HW210017   5.918   3.320   6.152
 3040SOL     OW10018   4.227   6.271   6.535
 3040SOL    HW110019   4.319   6.281   6.573
 3040SOL    HW210020   4.197   6.358   6.498
 3041SOL     OW10021   2.463   5.874   6.665
 3041SOL    HW110022   2.561   5.872   6.681
 3041SOL    HW210023   2.431   5.969   6.664
 3042SOL     OW10024   0.125   5.396   3.817
 3042SOL    HW110025   0.049   5.451   3.781
 3042SOL    HW210026   0.169   5.347   3.741
 3043SOL     OW10027   2.241   3.941   1.205
 3043SOL    HW110028   2.233   4.037   1.232
 3043SOL    HW210029   2.319   3.899   1.254
 3044SOL     OW10030   3.749   3.839   4.802
 3044SOL    HW110031   3.770   3.747   4.834
 3044SOL    HW210032   3.817   3.903   4.839
 3045SOL     OW10033   5.821   0.350   3.300
 3045SOL    HW110034   5.879   0.352   3.219
 3045SOL    HW210035   5.873   0.384   3.379
 3046SOL     OW10036   6.535   5.721   1.179
 3046SOL    HW110037   6.436   5.727   1.173
 3046SOL    HW210038   6.575   5.810   1.157
 3047SOL     OW10039   4.842   1.390   3.501
 3047SOL    HW110040   4.790   1.373   3.417
 3047SOL    HW210041   4.938   1.403   3.479
 3048SOL     OW10042   4.500   5.183   1.181
 3048SOL    HW110043   4.413   5.233   1.189
 3048SOL    HW210044   4.543   5.205   1.093
 3049SOL     OW10045   0.079   0.824   1.646
 3049SOL    HW110046   0.139   0.898   1.676
 3049SOL    HW210047   0.072   0.823   1.547
 3050SOL     OW10048   4.155   2.455   5.908
 3050SOL    HW110049   4.252   2.455   5.931
 3050SOL    HW210050   4.111   2.534   5.951
 3051SOL     OW10051   2.030   4.722   6.313
 3051SOL    HW110052   1.986   4.807   6.342
 3051SOL    HW210053   2.060   4.730   6.218
 3052SOL     OW10054   6.047   6.269   3.857
 3052SOL    HW110055   6.001   6.358   3.847
 3052SOL    HW210056   6.073   6.235   3.766
 3053SOL     OW10057   0.842   5.624   6.346
 3053SOL    HW110058   0.784   5.686   6.293
 3053SOL    HW210059   0.938   5.643   6.327
 3054SOL     OW10060   6.146   6.463   3.489
 3054SOL    HW110061   6.230   6.516   3.501
 3054SOL    HW210062   6.067   6.525   3.485
 3055SOL     OW10063   5.068   6.377   0.499
 3055SOL    HW110064   5.016   6.394   0.582
 3055SOL    HW210065   5.104   6.464   0.464
 3056SOL     OW10066   4.293   2.021   0.500
 3056SOL    HW110067   4.269   2.111   0.536
 3056SOL    HW210068   4.321   2.030   0.405
 3057SOL     OW10069   6.691   3.376   3.775
 3057SOL    HW110070   6.643   3.304   3.824
 3057SOL    HW210071   6.675   3.367   3.677
 3058SOL     OW10072   6.049   4.250   5.934
 3058SOL    HW110073   6.144   4.269   5.910
 3058SOL    HW210074   6.038   4.153   5.954
 3059SOL     OW10075   1.530   2.662   3.748
 3059SOL    HW110076   1.619   2.707   3.754
 3059SOL    HW210077   1.508   2.642   3.652
 3060SOL     OW10078   5.727   3.627   3.748
 3060SOL    HW110079   5.766   3.593   3.662
 3060SOL    HW210080   5.765   3.576   3.825
 3061SOL     OW10081   5.748   6.326   2.517
 3061SOL    HW110082   5.723   6.423   2.519
 3061SOL    HW210083   5.845   6.316   2.536
 3062SOL     OW10084   3.737   5.192   0.506
 3062SOL    HW110085   3.692   5.189   0.416
 3062SOL    HW210086   3.829   5.154   0.498
 3063SOL     OW10087   6.602   5.249   0.556
 3063SOL    HW110088   6.667   5.245   0.632
 3063SOL    HW210089   6.641   5.202   0.476
 3064SOL     OW10090   4.692   1.689   6.111
 3064SOL    HW110091   4.632   1.733   6.043
 3064SOL    HW210092   4.785   1.684   6.075
 3065SOL     OW10093   5.246   0.629   6.587
 3065SOL    HW110094   5.188   0.620   6.668
 3065SOL    HW210095   5.334   0.669   6.613
 3066SOL     OW10096   5.500   6.648   5.821
 3066SOL    HW110097   5.466   6.688   5.906
 3066SOL    HW210098   5.464   6.555   5.811
 3067SOL     OW10099   1.657   2.049   4.654
 3067SOL    HW110100   1.582   1.984   4.646
 3067SOL    HW210101   1.725   2.032   4.583
 3068SOL     OW10102   5.657   6.849   0.395
 3068SOL    HW110103   5.723   6.794   0.444
 3068SOL    HW210104   5.649   6.939   0.438
 3069SOL     OW10105   5.491   6.128   3.615
 3069SOL    HW110106   5.485   6.078   3.529
 3069SOL    HW210107   5.399   6.145   3.650
 3070SOL     OW10108   2.958   1.209   1.287
 3070SOL    HW110109   3.049   1.227   1.249
 3070SOL    HW210110   2.890   1.211   1.214
 3071SOL     OW10111   5.432   4.565   4.693
 3071SOL    HW110112   5.348   4.549   4.744
 3071SOL    HW210113   5.454   4.663   4.696
 3072SOL     OW10114   1.584   6.453   5.335
 3072SOL    HW110115   1.680   6.444   5.310
 3072SOL    HW210116   1.533   6.492   5.258
 3073SOL     OW10117   6.911   5.453   3.110
 3073SOL    HW110118   6.980   5.520   3.084
 3073SOL    HW210119   6.822   5.479   3.073
 3074SOL     OW10120   3.198   3.180   1.824
 3074SOL    HW110121   3.163   3.273   1.832
 3074SOL    HW210122   3.147   3.131   1.753
 3075SOL     OW10123   3.737   4.822   0.410
 3075SOL    HW110124   3.817   4.877   0.386
 3075SOL    HW210125   3.654   4.868   0.377
 3076SOL     OW10126   1.882   1.458   4.031
 3076SOL    HW110127   1.801   1.400   4.036
 3076SOL    HW210128   1.952   1.412   3.977
 3077SOL     OW10129   0.120   3.880   2.674
 3077SOL    HW110130   0.071   3.944   2.732
 3077SOL    HW210131   0.073   3.871   2.586
 3078SOL     OW10132   6.699   4.506   1.183
 3078SOL    HW110133   6.719   4.525   1.087
 3078SOL    HW210134   6.610   4.544   1.207
 3079SOL     OW10135   0.911   4.030   3.515
 3079SOL    HW110136   0.976   3.973   3.466
 3079SOL    HW210137   0.855   4.081   3.450
 3080SOL     OW10138   3.823   4.662   1.684
 3080SOL    HW110139   3.846   4.568   1.656
 3080SOL    HW210140   3.740   4.661   1.739
 3081SOL     OW10141   2.017   2.801   6.330
 3081SOL    HW110142   1.967   2.723   6.367
 3081SOL    HW210143   2.091   2.768   6.271
 3082SOL     OW10144   5.805   4.129   4.799
 3082SOL    HW110145   5.864   4.141   4.879
 3082SOL    HW210146   5.842   4.183   4.723
 3083SOL     OW10147   3.937   5.952   1.147
 3083SOL    HW110148   3.871   5.977   1.076
 3083SOL    HW210149   4.025   5.997   1.128
 3084SOL     OW10150   6.709   5.197   3.998
 3084SOL    HW110151   6.725   5.290   3.964
 3084SOL    HW210152   6.709   5.199   4.098
 3085SOL     OW10153   6.509   5.205   6.626
 3085SOL    HW110154   6.598   5.236   6.595
 3085SOL    HW210155   6.520   5.122   6.681
 3086SOL     OW10156   6.146   6.057   6.347
 3086SOL    HW110157   6.208   6.095   6.417
 3086SOL    HW210158   6.092   6.131   6.307
 3087SOL     OW10159   2.786   0.236   1.910
 3087SOL    HW110160   2.886   0.243   1.912
 3087SOL    HW210161   2.748   0.320   1.871
 3088SOL     OW10162   2.447   3.300   5.340
 3088SOL    HW110163   2.517   3.298   5.411
 3088SOL    HW210164   2.453   3.217   5.285
 3089SOL     OW10165   3.797   6.601   0.108
 3089SOL    HW110166   3.845   6.577   0.024
 3089SOL    HW210167   3.779   6.518   0.161
 3090SOL     OW10168   1.442   2.355   2.342
 3090SOL    HW110169   1.448   2.257   2.322
 3090SOL    HW210170   1.381   2.368   2.421
 3091SOL     OW10171   1.289   2.731   6.831
 3091SOL    HW110172   1.388   2.737   6.819
 3091SOL    HW210173   1.244   2.731   6.742
 3092SOL     OW10174   4.746   1.694   3.373
 3092SOL    HW110175   4.749   1.714   3.471
 3092SOL    HW210176   4.839   1.681   3.339
 3093SOL     OW10177   6.185   4.870   0.168
 3093SOL    HW110178   6.234   4.957   0.172
 3093SOL    HW210179   6.190   4.824   0.257
 3094SOL     OW10180   2.581   0.991   5.933
 3094SOL    HW110181   2.531   1.025   5.854
 3094SOL    HW210182   2.535   0.911   5.970
 3095SOL     OW10183   1.903   3.381   5.490
 3095SOL    HW110184   1.942   3.428   5.410
 3095SOL    HW210185   1.956   3.406   5.571
 3096SOL     OW10186   1.658   3.063   3.716
 3096SOL    HW110187   1.574   3.092   3.761
 3096SOL    HW210188   1.642   3.054   3.617
 3097SOL     OW10189   5.355   2.735   5.916
 3097SOL    HW110190   5.269   2.779   5.943
 3097SOL    HW210191   5.424   2.805   5.897
 3098SOL     OW10192   1.168   3.428   2.170
 3098SOL    HW110193   1.258   3.385   2.171
 3098SOL    HW210194   1.099   3.360   2.196
 3099SOL     OW10195   0.555   6.839   5.848
 3099SOL    HW110196   0.550   6.769   5.776
 3099SOL    HW210197   0.470   6.891   5.850
 3100SOL     OW10198   6.020   4.136   2.683
 3100SOL    HW110199   5.949   4.202   2.659
 3100SOL    HW210200   6.109   4.170   2.652
 3101SOL     OW10201   5.609   1.034   4.598
 3101SOL    HW110202   5.593   1.003   4.504
 3101SOL    HW210203   5.591   1.132   4.604
 3102SOL     OW10204   6.292   3.901   2.801
 3102SOL    HW110205   6.343   3.953   2.733
 3102SOL    HW210206   6.196   3.927   2.798
 3103SOL     OW10207   1.251   0.938   2.418
 3103SOL    HW110208   1.160   0.907   2.446
 3103SOL    HW210209   1.318   0.910   2.488
 3104SOL     OW10210   5.814   2.197   6.061
 3104SOL    HW110211   5.910   2.218   6.043
 3104SOL    HW210212   5.769   2.275   6.103
 3105SOL     OW10213   5.715   4.094   0.674
 3105SOL    HW110214   5.742   4.121   0.767
 3105SOL    HW210215   5.793   4.105   0.613
 3106SOL     OW10216   5.448   1.885   5.743
 3106SOL    HW110217   5.536   1.849   5.711
 3106SOL    HW210218   5.463   1.945   5.821
 3107SOL     OW10219   4.082   2.051   4.804
 3107SOL    HW110220   3.988   2.054   4.838
 3107SOL    HW210221   4.089   1.984   4.730
 3108SOL     OW10222   1.817   4.480   3.652
 3108SOL    HW110223   1.811   4.562   3.595
 3108SOL    HW210224   1.903   4.433   3.633
 3109SOL     OW10225   0.241   5.243   3.630
 3109SOL    HW110226   0.338   5.246   3.654
 3109SOL    HW210227   0.215   5.149   3.609
 3110SOL     OW10228   1.362   5.790   4.505
 3110SOL    HW110229   1.423   5.870   4.502
 3110SOL    HW210230   1.376   5.741   4.591
 3111SOL     OW10231   6.713   4.017   3.729
 3111SOL    HW110232   6.701   3.931   3.779
 3111SOL    HW210233   6.630   4.038   3.678
 3112SOL     OW10234   4.378   0.505   1.055
 3112SOL    HW110235   4.462   0.557   1.039
 3112SOL    HW210236   4.401   0.411   1.080
 3113SOL     OW10237   1.261   6.961   3.921
 3113SOL    HW110238   1.289   6.998   4.009
 3113SOL    HW210239   1.239   6.864   3.930
 3114SOL     OW10240   4.595   5.901   5.186
 3114SOL    HW110241   4.637   5.814   5.158
 3114SOL    HW210242   4.656   5.949   5.249
 3115SOL     OW10243   4.635   6.130   4.485
 3115SOL    HW110244   4.557   6.191   4.496
 3115SOL    HW210245   4.716   6.171   4.526
 3116SOL     OW10246   0.752   2.065   6.825
 3116SOL    HW110247   0.676   2.021   6.777
 3116SOL    HW210248   0.725   2.157   6.852
 3117SOL     OW10249   4.728   0.092   1.110
 3117SOL    HW110250   4.698   0.006   1.152
 3117SOL    HW210251   4.682   0.105   1.022
 3118SOL     OW10252   0.998   2.040   3.179
 3118SOL    HW110253   0.972   2.098   3.102
 3118SOL    HW210254   0.918   2.023   3.237
 3119SOL     OW10255   4.186   6.674   4.256
 3119SOL    HW110256   4.276   6.655   4.216
 3119SOL    HW210257   4.163   6.601   4.321
 3120SOL     OW10258   3.424   6.399   6.775
 3120SOL    HW110259   3.384   6.351   6.853
 3120SOL    HW210260   3.441   6.495   6.799
 3121SOL     OW10261   3.386   2.122   3.137
 3121SOL    HW110262   3.471   2.170   3.163
 3121SOL    HW210263   3.333   2.101   3.219
 3122SOL     OW10264   5.601   3.637   6.146
 3122SOL    HW110265   5.580   3.564   6.212
 3122SOL    HW210266   5.697   3.630   6.118
 3123SOL     OW10267   1.778   3.034   2.755
 3123SOL    HW110268   1.806   3.122   2.717
 3123SOL    HW210269   1.788   2.963   2.685
 3124SOL     OW10270   4.820   6.612   6.000
 3124SOL    HW110271   4.738   6.665   6.021
 3124SOL    HW210272   4.899   6.673   6.000
 3125SOL     OW10273   1.791   1.922   5.110
 3125SOL    HW110274   1.831   1.846   5.161
 3125SOL    HW210275   1.863   1.972   5.062
 3126SOL     OW10276   4.702   4.481   5.409
 3126SOL    HW110277   4.736   4.443   5.495
 3126SOL    HW210278   4.746   4.570   5.393
 3127SOL     OW10279   6.365   2.355   5.761
 3127SOL    HW110280   6.305   2.287   5.719
 3127SOL    HW210281   6.334   2.447   5.736
 3128SOL     OW10282   3.847   1.187   1.137
 3128SOL    HW110283   3.882   1.131   1.061
 3128SOL    HW210284   3.924   1.229   1.186
 3129SOL     OW10285   4.421   4.982   0.050
 3129SOL    HW110286   4.347   4.960   0.114
 3129SOL    HW210287   4.501   5.013   0.101
 3130SOL     OW10288   6.439   5.921   2.342
 3130SOL    HW110289   6.516   5.934   2.280
 3130SOL    HW210290   6.473   5.902   2.434
 3131SOL     OW10291   6.807   2.573   3.196
 3131SOL    HW110292   6.768   2.481   3.197
 3131SOL    HW210293   6.783   2.620   3.281
 3132SOL     OW10294   4.588   4.164   6.228
 3132SOL    HW110295   4.536   4.079   6.221
 3132SOL    HW210296   4.556   4.216   6.307
 3133SOL     OW10297   5.726   6.134   3.772
 3133SOL    HW110298   5.648   6.106   3.716
 3133SOL    HW210299   5.698   6.206   3.836
 3134SOL     OW10300   4.724   4.890   2.869
 3134SOL    HW110301   4.790   4.834   2.818
 3134SOL    HW210302   4.756   4.901   2.963
 3135SOL     OW10303   3.496   0.989   6.405
 3135SOL    HW110304   3.513   1.088   6.409
 3135SOL    HW210305   3.552   0.943   6.473
 3136SOL     OW10306   6.539   6.388   2.196
 3136SOL    HW110307   6.485   6.471   2.210
 3136SOL    HW210308   6.489   6.325   2.136
 3137SOL     OW10309   4.738   4.697   6.957
 3137SOL    HW110310   4.647   4.668   6.926
 3137SOL    HW210311   4.806   4.668   6.890
 3138SOL     OW10312   6.680   6.701   4.775
 3138SOL    HW110313   6.649   6.625   4.833
 3138SOL    HW210314   6.710   6.665   4.687
 3139SOL     OW10315   1.230   4.782   1.819
 3139SOL    HW110316   1.201   4.799   1.913
 3139SOL    HW210317   1.197   4.857   1.760
 3140SOL     OW10318   5.254   6.066   6.993
 3140SOL    HW110319   5.161   6.070   0.015
 3140SOL    HW210320   5.262   5.988   6.932
 3141SOL     OW10321   5.838   1.768   0.248
 3141SOL    HW110322   5.907   1.766   0.176
 3141SOL    HW210323   5.797   1.860   0.253
 3142SOL     OW10324   4.448   1.335   4.126
 3142SOL    HW110325   4.371   1.392   4.152
 3142SOL    HW210326   4.481   1.284   4.205
 3143SOL     OW10327   6.587   1.398   0.866
 3143SOL    HW110328   6.493   1.414   0.897
 3143SOL    HW210329   6.598   1.301   0.843
 3144SOL     OW10330   4.096   5.057   6.951
 3144SOL    HW110331   4.106   4.972   7.002
 3144SOL    HW210332   4.130   5.044   6.858
 3145SOL     OW10333   1.154   5.660   5.223
 3145SOL    HW110334   1.235   5.717   5.236
 3145SOL    HW210335   1.113   5.680   5.133
 3146SOL     OW10336   6.304   1.894   4.409
 3146SOL    HW110337   6.231   1.952   4.443
 3146SOL    HW210338   6.360   1.945   4.344
 3147SOL     OW10339   4.847   6.374   0.725
 3147SOL    HW110340   4.895   6.288   0.738
 3147SOL    HW210341   4.750   6.356   0.708
 3148SOL     OW10342   5.893   4.884   0.440
 3148SOL    HW110343   5.935   4.950   0.502
 3148SOL    HW210344   5.799   4.866   0.469
 3149SOL     OW10345   3.963   3.352   6.865
 3149SOL    HW110346   3.973   3.435   6.811
 3149SOL    HW210347   4.033   3.286   6.839
 3150SOL     OW10348   0.327   0.097   5.204
 3150SOL    HW110349   0.409   0.154   5.209
 3150SOL    HW210350   0.341   0.014   5.257
 3151SOL     OW10351   6.964   1.171   5.955
 3151SOL    HW110352   6.926   1.183   5.863
 3151SOL    HW210353   6.987   1.261   5.993
 3152SOL     OW10354   2.613   2.069   5.982
 3152SOL    HW110355   2.651   1.982   6.013
 3152SOL    HW210356   2.600   2.066   5.882
 3153SOL     OW10357   5.770   5.712   1.874
 3153SOL    HW110358   5.869   5.703   1.875
 3153SOL    HW210359   5.741   5.746   1.784
 3154SOL     OW10360   3.375   1.938   0.554
 3154SOL    HW110361   3.366   1.839   0.559
 3154SOL    HW210362   3.305   1.980   0.612
 3155SOL     OW10363   0.385   5.687   6.570
 3155SOL    HW110364   0.388   5.594   6.535
 3155SOL    HW210365   0.472   5.733   6.549
 3156SOL     OW10366   3.246   3.943   1.164
 3156SOL    HW110367   3.322   3.952   1.099
 3156SOL    HW210368   3.166   3.990   1.129
 3157SOL     OW10369   1.681   1.168   3.766
 3157SOL    HW110370   1.675   1.218   3.680
 3157SOL    HW210371   1.655   1.229   3.842
 3158SOL     OW10372   2.671   0.849   6.712
 3158SOL    HW110373   2.731   0.796   6.653
 3158SOL    HW210374   2.610   0.788   6.763
 3159SOL     OW10375   4.891   6.482   1.512
 3159SOL    HW110376   4.873   6.577   1.485
 3159SOL    HW210377   4.905   6.478   1.611
 3160SOL     OW10378   2.578   1.289   5.039
 3160SOL    HW110379   2.597   1.213   4.976
 3160SOL    HW210380   2.661   1.343   5.049
 3161SOL     OW10381   1.917   2.731   2.165
 3161SOL    HW110382   1.834   2.759   2.213
 3161SOL    HW210383   1.930   2.789   2.084
 3162SOL     OW10384   1.009   5.675   2.103
 3162SOL    HW110385   1.105   5.667   2.076
 3162SOL    HW210386   0.954   5.700   2.023
 3163SOL     OW10387   5.011   4.540   0.843
 3163SOL    HW110388   5.103   4.512   0.869
 3163SOL    HW210389   4.946   4.467   0.865
 3164SOL     OW10390   2.775   0.423   4.146
 3164SOL    HW110391   2.857   0.479   4.141
 3164SOL    HW210392   2.716   0.455   4.220
 3165SOL     OW10393   1.112   5.514   6.809
 3165SOL    HW110394   1.196   5.468   6.783
 3165SOL    HW210395   1.110   5.526   6.909
 3166SOL     OW10396   3.854   1.687   4.569
 3166SOL    HW110397   3.817   1.601   4.534
 3166SOL    HW210398   3.848   1.688   4.669
 3167SOL     OW10399   6.487   3.094   2.131
 3167SOL    HW110400   6.420   3.095   2.057
 3167SOL    HW210401   6.575   3.128   2.097
 3168SOL     OW10402   5.208   1.421   1.276
 3168SOL    HW110403   5.248   1.475   1.349
 3168SOL    HW210404   5.182   1.331   1.312
 3169SOL     OW10405   0.763   3.183   1.711
 3169SOL    HW110406   0.754   3.091   1.674
 3169SOL    HW210407   0.683   3.237   1.686
 3170SOL     OW10408   2.274   4.163   3.912
 3170SOL    HW110409   2.323   4.240   3.952
 3170SOL    HW210410   2.281   4.166   3.813
 3171SOL     OW10411   5.110   1.294   5.008
 3171SOL    HW110412   5.161   1.363   5.059
 3171SOL    HW210413   5.171   1.219   4.983
 3172SOL     OW10414   6.076   3.654   1.352
 3172SOL    HW110415   6.013   3.718   1.398
 3172SOL    HW210416   6.039   3.562   1.357
 3173SOL     OW10417   5.314   3.352   0.161
 3173SOL    HW110418   5.319   3.430   0.098
 3173SOL    HW210419   5.242   3.290   0.132
 3174SOL     OW10420   3.236   2.910   6.556
 3174SOL    HW110421   3.165   2.936   6.622
 3174SOL    HW210422   3.205   2.930   6.464
 3175SOL     OW10423   6.051   6.089   5.493
 3175SOL    HW110424   6.054   6.147   5.575
 3175SOL    HW210425   6.020   5.997   5.518
 3176SOL     OW10426   0.460   5.074   3.846
 3176SOL    HW110427   0.555   5.046   3.838
 3176SOL    HW210428   0.455   5.168   3.878
 3177SOL     OW10429   5.076   2.778   2.422
 3177SOL    HW110430   4.995   2.733   2.460
 3177SOL    HW210431   5.071   2.776   2.322
 3178SOL     OW10432   1.178   0.753   2.881
 3178SOL    HW110433   1.267   0.707   2.877
 3178SOL    HW210434   1.106   0.684   2.875
 3179SOL     OW10435   0.769   3.363   2.303
 3179SOL    HW110436   0.847   3.311   2.335
 3179SOL    HW210437   0.770   3.366   2.203
 3180SOL     OW10438   6.545   0.063   6.874
 3180SOL    HW110439   6.576   0.125   6.946
 3180SOL    HW210440   6.445   0.059   6.873
 3181SOL     OW10441   0.513   6.349   4.797
 3181SOL    HW110442   0.433   6.372   4.852
 3181SOL    HW210443   0.498   6.262   4.751
 3182SOL     OW10444   1.377   0.063   1.019
 3182SOL    HW110445   1.464   0.108   1.002
 3182SOL    HW210446   1.381   0.015   1.107
 3183SOL     OW10447   4.363   4.071   0.503
 3183SOL    HW110448   4.343   4.169   0.496
 3183SOL    HW210449   4.390   4.049   0.597
 3184SOL     OW10450   6.237   1.140   4.088
 3184SOL    HW110451   6.284   1.111   4.004
 3184SOL    HW210452   6.250   1.238   4.101
 3185SOL     OW10453   1.361   0.101   5.603
 3185SOL    HW110454   1.417   0.114   5.685
 3185SOL    HW210455   1.293   0.029   5.620
 3186SOL     OW10456   0.428   1.999   5.520
 3186SOL    HW110457   0.419   2.099   5.519
 3186SOL    HW210458   0.358   1.959   5.461
 3187SOL     OW10459   5.408   7.008   3.197
 3187SOL    HW110460   5.345   7.004   3.120
 3187SOL    HW210461   5.475   0.067   3.182
 3188SOL     OW10462   1.419   5.779   1.183
 3188SOL    HW110463   1.357   5.840   1.234
 3188SOL    HW210464   1.510   5.820   1.181
 3189SOL     OW10465   2.630   1.328   6.335
 3189SOL    HW110466   2.622   1.295   6.241
 3189SOL    HW210467   2.637   1.428   6.334
 3190SOL     OW10468   5.919   6.353   4.620
 3190SOL    HW110469   6.015   6.338   4.597
 3190SOL    HW210470   5.862   6.286   4.573
 3191SOL     OW10471   3.825   4.935   1.298
 3191SOL    HW110472   3.757   4.953   1.227
 3191SOL    HW210473   3.900   5.001   1.290
 3192SOL     OW10474   5.731   0.627   3.155
 3192SOL    HW110475   5.686   0.562   3.216
 3192SOL    HW210476   5.678   0.634   3.070
 3193SOL     OW10477   3.344   5.760   4.923
 3193SOL    HW110478   3.280   5.816   4.871
 3193SOL    HW210479   3.422   5.816   4.952
 3194SOL     OW10480   2.112   6.521   4.942
 3194SOL    HW110481   2.157   6.479   4.863
 3194SOL    HW210482   2.176   6.525   5.019
 3195SOL     OW10483   0.645   6.423   0.387
 3195SOL    HW110484   0.601   6.420   0.297
 3195SOL    HW210485   0.596   6.362   0.450
 3196SOL     OW10486   6.217   6.701   2.377
 3196SOL    HW110487   6.291   6.688   2.311
 3196SOL    HW210488   6.234   6.783   2.431
 3197SOL     OW10489   2.757   0.881   0.277
 3197SOL    HW110490   2.796   0.804   0.227
 3197SOL    HW210491   2.682   0.850   0.335
 3198SOL     OW10492   5.136   3.692   3.899
 3198SOL    HW110493   5.050   3.706   3.947
 3198SOL    HW210494   5.200   3.643   3.958
 3199SOL     OW10495   4.952   3.571   3.659
 3199SOL    HW110496   4.930   3.479   3.625
 3199SOL    HW210497   4.934   3.575   3.758
 3200SOL     OW10498   5.974   3.411   4.725
 3200SOL    HW110499   5.952   3.338   4.790
 3200SOL    HW210500   6.019   3.486   4.774
 3201SOL     OW10501   6.305   4.019   2.095
 3201SOL    HW110502   6.284   4.010   2.193
 3201SOL    HW210503   6.321   3.928   2.056
 3202SOL     OW10504   2.922   2.754   6.237
 3202SOL    HW110505   2.881   2.712   6.156
 3202SOL    HW210506   2.941   2.684   6.306
 3203SOL     OW10507   3.340   6.421   1.927
 3203SOL    HW110508   3.380   6.413   1.836
 3203SOL    HW210509   3.245   6.391   1.925
 3204SOL     OW10510   4.858   0.817   4.108
 3204SOL    HW110511   4.868   0.917   4.112
 3204SOL    HW210512   4.940   0.774   4.146
 3205SOL     OW10513   4.475   2.722   6.666
 3205SOL    HW110514   4.456   2.771   6.751
 3205SOL    HW210515   4.390   2.709   6.615
 3206SOL     OW10516   2.927   4.569   0.580
 3206SOL    HW110517   2.909   4.615   0.493
 3206SOL    HW210518   3.025   4.554   0.590
 3207SOL     OW10519   2.393   6.234   3.509
 3207SOL    HW110520   2.485   6.220   3.545
 3207SOL    HW210521   2.347   6.146   3.499
 3208SOL     OW10522   6.672   3.511   6.203
 3208SOL    HW110523   6.729   3.586   6.236
 3208SOL    HW210524   6.698   3.489   6.109
 3209SOL     OW10525   4.945   6.937   5.844
 3209SOL    HW110526   4.986   0.012   5.829
 3209SOL    HW210527   4.961   6.908   5.939
 3210SOL     OW10528   5.193   5.021   2.101
 3210SOL    HW110529   5.134   5.012   2.181
 3210SOL    HW210530   5.154   4.968   2.025
 3211SOL     OW10531   2.246   6.331   6.434
 3211SOL    HW110532   2.215   6.392   6.361
 3211SOL    HW210533   2.177   6.328   6.507
 3212SOL     OW10534   3.352   6.726   4.136
 3212SOL    HW110535   3.298   6.698   4.056
 3212SOL    HW210536   3.446   6.744   4.108
 3213SOL     OW10537   1.200   0.373   5.610
 3213SOL    HW110538   1.233   0.279   5.615
 3213SOL    HW210539   1.120   0.383   5.669
 3214SOL     OW10540   3.468   0.807   3.001
 3214SOL    HW110541   3.539   0.865   2.962
 3214SOL    HW210542   3.384   0.815   2.948
 3215SOL     OW10543   2.151   3.000   2.145
 3215SOL    HW110544   2.148   3.082   2.089
 3215SOL    HW210545   2.178   2.922   2.088
 3216SOL     OW10546   5.948   5.033   0.649
 3216SOL    HW110547   5.920   5.124   0.617
 3216SOL    HW210548   5.906   5.015   0.738
 3217SOL     OW10549   6.428   6.000   3.820
 3217SOL    HW110550   6.374   6.075   3.857
 3217SOL    HW210551   6.425   6.002   3.720
 3218SOL     OW10552   6.034   1.390   3.444
 3218SOL    HW110553   6.038   1.355   3.350
 3218SOL    HW210554   6.045   1.490   3.442
 3219SOL     OW10555   5.638   1.877   4.303
 3219SOL    HW110556   5.584   1.880   4.219
 3219SOL    HW210557   5.587   1.922   4.376
 3220SOL     OW10558   6.907   3.693   5.535
 3220SOL    HW110559   6.955   3.768   5.579
 3220SOL    HW210560   6.955   3.607   5.553
 3221SOL     OW10561   4.140   1.432   2.044
 3221SOL    HW110562   4.234   1.412   2.073
 3221SOL    HW210563   4.078   1.420   2.121
 3222SOL     OW10564   3.156   0.791   4.069
 3222SOL    HW110565   3.133   0.779   3.973
 3222SOL    HW210566   3.097   0.862   4.109
 3223SOL     OW10567   1.606   5.787   0.695
 3223SOL    HW110568   1.659   5.789   0.779
 3223SOL    HW210569   1.607   5.878   0.653
 3224SOL     OW10570   4.609   2.568   4.230
 3224SOL    HW110571   4.568   2.531   4.314
 3224SOL    HW210572   4.700   2.603   4.250
 3225SOL     OW10573   4.567   1.210   4.672
 3225SOL    HW110574   4.512   1.278   4.623
 3225SOL    HW210575   4.618   1.156   4.605
 3226SOL     OW10576   6.008   0.977   0.540
 3226SOL    HW110577   5.932   0.969   0.475
 3226SOL    HW210578   6.056   0.890   0.545
 3227SOL     OW10579   5.785   4.117   5.693
 3227SOL    HW110580   5.763   4.144   5.787
 3227SOL    HW210581   5.884   4.115   5.681
 3228SOL     OW10582   2.377   4.474   0.420
 3228SOL    HW110583   2.354   4.428   0.505
 3228SOL    HW210584   2.350   4.570   0.425
 3229SOL     OW10585   1.377   1.422   1.550
 3229SOL    HW110586   1.294   1.396   1.501
 3229SOL    HW210587   1.395   1.356   1.623
 3230SOL     OW10588   2.868   6.325   4.750
 3230SOL    HW110589   2.907   6.235   4.767
 3230SOL    HW210590   2.770   6.323   4.771
 3231SOL     OW10591   2.428   2.629   2.602
 3231SOL    HW110592   2.465   2.592   2.687
 3231SOL    HW210593   2.370   2.708   2.622
 3232SOL     OW10594   2.581   4.605   3.272
 3232SOL    HW110595   2.629   4.519   3.252
 3232SOL    HW210596   2.590   4.666   3.193
 3233SOL     OW10597   3.064   0.297   6.404
 3233SOL    HW110598   3.089   0.230   6.474
 3233SOL    HW210599   3.115   0.278   6.320
 3234SOL     OW10600   3.333   3.559   0.796
 3234SOL    HW110601   3.255   3.531   0.852
 3234SOL    HW210602   3.316   3.651   0.760
 3235SOL     OW10603   6.793   1.481   2.696
 3235SOL    HW110604   6.746   1.422   2.630
 3235SOL    HW210605   6.833   1.560   2.648
 3236SOL     OW10606   5.458   6.915   0.201
 3236SOL    HW110607   5.522   6.868   0.263
 3236SOL    HW210608   5.477   7.013   0.201
 3237SOL     OW10609   6.231   0.966   5.373
 3237SOL    HW110610   6.200   0.910   5.297
 3237SOL    HW210611   6.153   1.012   5.415
 3238SOL     OW10612   6.662   4.964   1.567
 3238SOL    HW110613   6.736   5.012   1.520
 3238SOL    HW210614   6.611   5.029   1.623
 3239SOL     OW10615   6.179   0.261   5.412
 3239SOL    HW110616   6.235   0.209   5.347
 3239SOL    HW210617   6.114   0.200   5.456
 3240SOL     OW10618   0.876   1.850   1.379
 3240SOL    HW110619   0.942   1.800   1.434
 3240SOL    HW210620   0.913   1.940   1.356
 3241SOL     OW10621   0.396   2.700   5.872
 3241SOL    HW110622   0.480   2.722   5.822
 3241SOL    HW210623   0.402   2.737   5.965
 3242SOL     OW10624   0.220   4.526   5.009
 3242SOL    HW110625   0.147   4.458   5.021
 3242SOL    HW210626   0.308   4.480   5.003
 3243SOL     OW10627   5.548   5.745   4.325
 3243SOL    HW110628   5.569   5.729   4.229
 3243SOL    HW210629   5.623   5.795   4.368
 3244SOL     OW10630   4.783   0.106   6.658
 3244SOL    HW110631   4.819   0.015   6.643
 3244SOL    HW210632   4.684   0.106   6.643
 3245SOL     OW10633   3.232   6.466   4.223
 3245SOL    HW110634   3.222   6.401   4.147
 3245SOL    HW210635   3.261   6.555   4.186
 3246SOL     OW10636   6.835   5.701   3.291
 3246SOL    HW110637   6.822   5.760   3.371
 3246SOL    HW210638   6.817   5.606   3.317
 3247SOL     OW10639   2.012   4.217   3.980
 3247SOL    HW110640   1.956   4.205   3.899
 3247SOL    HW210641   2.109   4.219   3.954
 3248SOL     OW10642   6.308   2.718   3.733
 3248SOL    HW110643   6.282   2.629   3.770
 3248SOL    HW210644   6.408   2.726   3.732
 3249SOL     OW10645   3.802   4.086   4.360
 3249SOL    HW110646   3.744   4.091   4.441
 3249SOL    HW210647   3.890   4.046   4.384
 3250SOL     OW10648   4.599   6.298   3.687
 3250SOL    HW110649   4.593   6.380   3.630
 3250SOL    HW210650   4.631   6.221   3.631
 3251SOL     OW10651   2.451   2.333   2.470
 3251SOL    HW110652   2.422   2.417   2.425
 3251SOL    HW210653   2.512   2.355   2.546
 3252SOL     OW10654   1.839   1.754   2.922
 3252SOL    HW110655   1.760   1.771   2.981
 3252SOL    HW210656   1.826   1.668   2.873
 3253SOL     OW10657   6.775   3.859   0.647
 3253SOL    HW110658   6.794   3.943   0.697
 3253SOL    HW210659   6.821   3.782   0.692
 3254SOL     OW10660   6.480   6.675   0.146
 3254SOL    HW110661   6.502   6.652   0.241
 3254SOL    HW210662   6.555   6.728   0.106
 3255SOL     OW10663   3.636   5.556   2.141
 3255SOL    HW110664   3.726   5.536   2.179
 3255SOL    HW210665   3.589   5.470   2.121
 3256SOL     OW10666   5.408   2.733   1.354
 3256SOL    HW110667   5.313   2.744   1.383
 3256SOL    HW210668   5.432   2.636   1.357
 3257SOL     OW10669   2.332   1.371   3.102
 3257SOL    HW110670   2.295   1.417   3.021
 3257SOL    HW210671   2.397   1.432   3.148
 3258SOL     OW10672   1.088   5.457   3.934
 3258SOL    HW110673   1.001   5.409   3.939
 3258SOL    HW210674   1.112   5.473   3.838
 3259SOL     OW10675   5.611   4.977   4.142
 3259SOL    HW110676   5.552   4.909   4.098
 3259SOL    HW210677   5.689   4.997   4.082
 3260SOL     OW10678   1.575   4.492   3.388
 3260SOL    HW110679   1.610   4.549   3.463
 3260SOL    HW210680   1.620   4.403   3.390
 3261SOL     OW10681   6.200   0.153   4.140
 3261SOL    HW110682   6.186   0.054   4.151
 3261SOL    HW210683   6.136   0.188   4.072
 3262SOL     OW10684   3.110   2.191   3.439
 3262SOL    HW110685   3.175   2.117   3.422
 3262SOL    HW210686   3.068   2.220   3.353
 3263SOL     OW10687   5.943   0.371   1.283
 3263SOL    HW110688   5.997   0.406   1.360
 3263SOL    HW210689   5.996   0.378   1.199
 3264SOL     OW10690   1.512   4.597   6.670
 3264SOL    HW110691   1.438   4.662   6.658
 3264SOL    HW210692   1.480   4.519   6.723
 3265SOL     OW10693   0.428   5.598   6.227
 3265SOL    HW110694   0.350   5.555   6.274
 3265SOL    HW210695   0.462   5.536   6.156
 3266SOL     OW10696   3.431   4.797   6.085
 3266SOL    HW110697   3.397   4.812   6.178
 3266SOL    HW210698   3.507   4.859   6.067
 3267SOL     OW10699   3.615   0.167   1.172
 3267SOL    HW110700   3.560   0.223   1.233
 3267SOL    HW210701   3.559   0.137   1.094
 3268SOL     OW10702   5.542   4.188   1.670
 3268SOL    HW110703   5.565   4.284   1.650
 3268SOL    HW210704   5.488   4.151   1.594
 3269SOL     OW10705   2.163   4.843   1.268
 3269SOL    HW110706   2.261   4.825   1.266
 3269SOL    HW210707   2.135   4.865   1.362
 3270SOL     OW10708   1.165   3.527   6.086
 3270SOL    HW110709   1.217   3.458   6.136
 3270SOL    HW210710   1.212   3.549   6.000
 3271SOL     OW10711   1.311   3.731   1.234
 3271SOL    HW110712   1.308   3.783   1.320
 3271SOL    HW210713   1.393   3.673   1.233
 3272SOL     OW10714   4.117   6.786   1.140
 3272SOL    HW110715   4.113   6.687   1.124
 3272SOL    HW210716   4.035   6.815   1.189
 3273SOL     OW10717   3.903   3.936   6.729
 3273SOL    HW110718   3.830   3.969   6.789
 3273SOL    HW210719   3.865   3.869   6.665
 3274SOL     OW10720   4.369   0.277   1.895
 3274SOL    HW110721   4.375   0.220   1.813
 3274SOL    HW210722   4.278   0.268   1.935
 3275SOL     OW10723   5.246   0.598   2.127
 3275SOL    HW110724   5.265   0.596   2.029
 3275SOL    HW210725   5.292   0.521   2.172
 3276SOL     OW10726   6.026   5.494   0.458
 3276SOL    HW110727   6.105   5.526   0.511
 3276SOL    HW210728   5.950   5.558   0.469
 3277SOL     OW10729   3.597   1.431   2.411
 3277SOL    HW110730   3.609   1.529   2.396
 3277SOL    HW210731   3.502   1.412   2.434
 3278SOL     OW10732   5.217   1.323   6.705
 3278SOL    HW110733   5.285   1.259   6.741
 3278SOL    HW210734   5.252   1.363   6.620
 3279SOL     OW10735   4.025   0.311   2.235
 3279SOL    HW110736   4.007   0.281   2.141
 3279SOL    HW210737   4.083   0.243   2.281
 3280SOL     OW10738   0.199   2.746   4.102
 3280SOL    HW110739   0.220   2.792   4.189
 3280SOL    HW210740   0.117   2.785   4.062
 3281SOL     OW10741   5.600   2.226   1.928
 3281SOL    HW110742   5.668   2.261   1.864
 3281SOL    HW210743   5.642   2.216   2.019
 3282SOL     OW10744   6.192   4.383   5.206
 3282SOL    HW110745   6.190   4.478   5.237
 3282SOL    HW210746   6.287   4.352   5.199
 3283SOL     OW10747   2.785   1.614   0.449
 3283SOL    HW110748   2.846   1.547   0.492
 3283SOL    HW210749   2.702   1.569   0.417
 3284SOL     OW10750   2.045   0.557   5.179
 3284SOL    HW110751   2.056   0.632   5.114
 3284SOL    HW210752   2.113   0.566   5.252
 3285SOL     OW10753   3.812   2.136   3.730
 3285SOL    HW110754   3.902   2.164   3.761
 3285SOL    HW210755   3.742   2.171   3.792
 3286SOL     OW10756   1.368   3.551   2.879
 3286SOL    HW110757   1.421   3.596   2.951
 3286SOL    HW210758   1.417   3.470   2.847
 3287SOL     OW10759   2.588   1.407   0.588
 3287SOL    HW110760   2.633   1.319   0.600
 3287SOL    HW210761   2.590   1.432   0.491
 3288SOL     OW10762   2.939   5.442   1.777
 3288SOL    HW110763   3.012   5.508   1.797
 3288SOL    HW210764   2.979   5.354   1.752
 3289SOL     OW10765   4.964   0.515   7.004
 3289SOL    HW110766   4.957   0.578   0.066
 3289SOL    HW210767   4.883   0.456   7.003
 3290SOL     OW10768   1.106   5.176   6.910
 3290SOL    HW110769   1.093   5.273   6.933
 3290SOL    HW210770   1.136   5.126   6.991
 3291SOL     OW10771   4.928   6.242   5.349
 3291SOL    HW110772   5.008   6.188   5.374
 3291SOL    HW210773   4.889   6.205   5.264
 3292SOL     OW10774   0.261   3.199   0.303
 3292SOL    HW110775   0.165   3.229   0.303
 3292SOL    HW210776   0.294   3.195   0.209
 3293SOL     OW10777   6.445   4.333   2.620
 3293SOL    HW110778   6.502   4.415   2.609
 3293SOL    HW210779   6.351   4.353   2.593
 3294SOL     OW10780   3.711   2.921   5.516
 3294SOL    HW110781   3.735   2.867   5.436
 3294SOL    HW210782   3.685   2.860   5.591
 3295SOL     OW10783   1.549   2.877   3.521
 3295SOL    HW110784   1.584   2.814   3.590
 3295SOL    HW210785   1.469   2.925   3.557
 3296SOL     OW10786   2.781   0.586   6.988
 3296SOL    HW110787   2.788   0.489   6.968
 3296SOL    HW210788   2.714   0.629   6.927
 3297SOL     OW10789   3.438   0.484   5.536
 3297SOL    HW110790   3.339   0.473   5.543
 3297SOL    HW210791   3.463   0.576   5.567
 3298SOL     OW10792   3.359   4.277   5.965
 3298SOL    HW110793   3.358   4.178   5.978
 3298SOL    HW210794   3.448   4.313   5.993
 3299SOL     OW10795   2.837   0.150   4.195
 3299SOL    HW110796   2.751   0.118   4.156
 3299SOL    HW210797   2.841   0.250   4.190
 3300SOL     OW10798   1.963   0.692   3.419
 3300SOL    HW110799   1.961   0.789   3.444
 3300SOL    HW210800   1.937   0.637   3.497
 3301SOL     OW10801   1.289   1.334   2.283
 3301SOL    HW110802   1.352   1.310   2.357
 3301SOL    HW210803   1.236   1.414   2.309
 3302SOL     OW10804   1.402   5.010   5.084
 3302SOL    HW110805   1.491   4.985   5.046
 3302SOL    HW210806   1.356   4.928   5.117
 3303SOL     OW10807   3.753   3.594   0.548
 3303SOL    HW110808   3.757   3.519   0.482
 3303SOL    HW210809   3.698   3.565   0.627
 3304SOL     OW10810   2.305   3.832   0.462
 3304SOL    HW110811   2.244   3.782   0.400
 3304SOL    HW210812   2.276   3.927   0.467
 3305SOL     OW10813   2.870   2.698   0.129
 3305SOL    HW110814   2.785   2.652   0.155
 3305SOL    HW210815   2.849   2.789   0.093
 3306SOL     OW10816   2.994   0.073   1.321
 3306SOL    HW110817   2.955   0.021   1.245
 3306SOL    HW210818   2.935   0.152   1.341
 3307SOL     OW10819   2.320   5.940   4.937
 3307SOL    HW110820   2.383   5.887   4.994
 3307SOL    HW210821   2.333   5.916   4.841
 3308SOL     OW10822   4.656   5.134   1.382
 3308SOL    HW110823   4.607   5.120   1.468
 3308SOL    HW210824   4.591   5.155   1.309
 3309SOL     OW10825   5.765   4.240   3.681
 3309SOL    HW110826   5.824   4.268   3.757
 3309SOL    HW210827   5.754   4.140   3.683
 3310SOL     OW10828   6.452   4.444   6.550
 3310SOL    HW110829   6.469   4.542   6.565
 3310SOL    HW210830   6.488   4.392   6.627
 3311SOL     OW10831   2.208   2.588   6.916
 3311SOL    HW110832   2.230   2.529   6.838
 3311SOL    HW210833   2.279   2.658   6.926
 3312SOL     OW10834   4.742   3.627   0.098
 3312SOL    HW110835   4.784   3.651   0.011
 3312SOL    HW210836   4.643   3.616   0.085
 3313SOL     OW10837   0.248   0.413   4.069
 3313SOL    HW110838   0.306   0.347   4.116
 3313SOL    HW210839   0.289   0.504   4.076
 3314SOL     OW10840   3.581   6.169   3.038
 3314SOL    HW110841   3.663   6.112   3.042
 3314SOL    HW210842   3.556   6.186   2.943
 3315SOL     OW10843   0.861   6.249   3.911
 3315SOL    HW110844   0.827   6.295   3.829
 3315SOL    HW210845   0.859   6.150   3.896
 3316SOL     OW10846   3.607   1.913   0.237
 3316SOL    HW110847   3.630   1.851   0.162
 3316SOL    HW210848   3.574   1.860   0.315
 3317SOL     OW10849   5.841   2.274   1.285
 3317SOL    HW110850   5.889   2.362   1.282
 3317SOL    HW210851   5.906   2.202   1.309
 3318SOL     OW10852   3.779   3.038   0.597
 3318SOL    HW110853   3.847   3.036   0.671
 3318SOL    HW210854   3.688   3.053   0.636
 3319SOL     OW10855   6.700   6.740   4.084
 3319SOL    HW110856   6.626   6.727   4.018
 3319SOL    HW210857   6.667   6.718   4.176
 3320SOL     OW10858   6.250   0.411   2.275
 3320SOL    HW110859   6.270   0.352   2.354
 3320SOL    HW210860   6.335   0.430   2.226
 3321SOL     OW10861   4.563   1.900   0.037
 3321SOL    HW110862   4.535   1.848   0.117
 3321SOL    HW210863   4.631   1.968   0.064
 3322SOL     OW10864   5.682   2.786   1.354
 3322SOL    HW110865   5.598   2.737   1.330
 3322SOL    HW210866   5.667   2.884   1.343
 3323SOL     OW10867   1.507   1.084   1.997
 3323SOL    HW110868   1.527   1.054   2.090
 3323SOL    HW210869   1.465   1.174   2.000
 3324SOL     OW10870   5.960   4.882   5.715
 3324SOL    HW110871   5.990   4.787   5.704
 3324SOL    HW210872   6.024   4.943   5.668
 3325SOL     OW10873   2.977   5.253   5.954
 3325SOL    HW110874   2.976   5.346   5.990
 3325SOL    HW210875   2.913   5.197   6.006
 3326SOL     OW10876   3.608   1.978   1.967
 3326SOL    HW110877   3.616   1.967   1.868
 3326SOL    HW210878   3.624   2.074   1.991
 3327SOL     OW10879   1.903   5.706   5.815
 3327SOL    HW110880   1.894   5.805   5.815
 3327SOL    HW210881   1.893   5.672   5.909
 3328SOL     OW10882   4.727   3.001   5.309
 3328SOL    HW110883   4.732   3.076   5.243
 3328SOL    HW210884   4.779   2.923   5.274
 3329SOL     OW10885   0.520   6.229   5.949
 3329SOL    HW110886   0.505   6.156   6.016
 3329SOL    HW210887   0.609   6.270   5.964
 3330SOL     OW10888   6.661   2.947   3.141
 3330SOL    HW110889   6.731   2.899   3.192
 3330SOL    HW210890   6.690   2.956   3.045
 3331SOL     OW10891   2.067   2.597   0.425
 3331SOL    HW110892   2.137   2.662   0.453
 3331SOL    HW210893   2.043   2.538   0.502
 3332SOL     OW10894   0.120   4.057   1.461
 3332SOL    HW110895   0.037   4.102   1.428
 3332SOL    HW210896   0.200   4.110   1.433
 3333SOL     OW10897   3.206   5.785   5.707
 3333SOL    HW110898   3.136   5.742   5.763
 3333SOL    HW210899   3.289   5.800   5.761
 3334SOL     OW10900   1.415   2.761   0.956
 3334SOL    HW110901   1.437   2.683   1.014
 3334SOL    HW210902   1.441   2.741   0.861
 3335SOL     OW10903   5.523   4.833   4.707
 3335SOL    HW110904   5.478   4.913   4.748
 3335SOL    HW210905   5.578   4.862   4.629
 3336SOL     OW10906   3.194   6.446   5.525
 3336SOL    HW110907   3.205   6.374   5.457
 3336SOL    HW210908   3.243   6.528   5.495
 3337SOL     OW10909   3.756   1.850   0.743
 3337SOL    HW110910   3.712   1.923   0.796
 3337SOL    HW210911   3.686   1.792   0.701
 3338SOL     OW10912   6.784   4.749   6.960
 3338SOL    HW110913   6.784   4.726   0.042
 3338SOL    HW210914   6.829   4.838   6.946
 3339SOL     OW10915   0.756   4.722   6.111
 3339SOL    HW110916   0.756   4.783   6.191
 3339SOL    HW210917   0.704   4.766   6.037
 3340SOL     OW10918   4.094   0.202   1.956
 3340SOL    HW110919   4.126   0.109   1.941
 3340SOL    HW210920   4.014   0.221   1.898
 3341SOL     OW10921   0.921   0.081   0.627
 3341SOL    HW110922   0.978   0.118   0.700
 3341SOL    HW210923   0.904   6.999   0.644
 3342SOL     OW10924   2.590   0.245   5.257
 3342SOL    HW110925   2.667   0.288   5.304
 3342SOL    HW210926   2.504   0.279   5.296
 3343SOL     OW10927   0.270   2.735   1.111
 3343SOL    HW110928   0.324   2.652   1.096
 3343SOL    HW210929   0.285   2.799   1.036
 3344SOL     OW10930   1.195   2.810   6.574
 3344SOL    HW110931   1.266   2.880   6.566
 3344SOL    HW210932   1.120   2.831   6.511
 3345SOL     OW10933   1.992   3.100   5.562
 3345SOL    HW110934   1.977   3.002   5.556
 3345SOL    HW210935   1.971   3.143   5.474
 3346SOL     OW10936   2.086   6.086   2.600
 3346SOL    HW110937   2.073   6.111   2.504
 3346SOL    HW210938   2.103   5.988   2.608
 3347SOL     OW10939   6.093   3.945   3.565
 3347SOL    HW110940   6.097   3.871   3.633
 3347SOL    HW210941   6.143   4.024   3.599
 3348SOL     OW10942   3.803   3.603   3.477
 3348SOL    HW110943   3.760   3.518   3.508
 3348SOL    HW210944   3.743   3.680   3.499
 3349SOL     OW10945   5.025   2.952   6.437
 3349SOL    HW110946   5.025   2.888   6.514
 3349SOL    HW210947   5.107   3.009   6.441
 3350SOL     OW10948   2.000   2.840   1.312
 3350SOL    HW110949   1.986   2.742   1.302
 3350SOL    HW210950   2.001   2.884   1.222
 3351SOL     OW10951   5.968   2.741   0.450
 3351SOL    HW110952   5.882   2.787   0.472
 3351SOL    HW210953   5.950   2.657   0.399
 3352SOL     OW10954   0.092   3.343   6.939
 3352SOL    HW110955   0.110   3.388   6.852
 3352SOL    HW210956   0.148   3.260   6.946
 3353SOL     OW10957   1.752   6.667   6.022
 3353SOL    HW110958   1.736   6.677   5.924
 3353SOL    HW210959   1.825   6.600   6.037
 3354SOL     OW10960   0.625   0.714   1.855
 3354SOL    HW110961   0.708   0.770   1.856
 3354SOL    HW210962   0.649   0.619   1.875
 3355SOL     OW10963   6.075   0.876   2.818
 3355SOL    HW110964   6.063   0.957   2.761
 3355SOL    HW210965   6.173   0.864   2.838
 3356SOL     OW10966   0.968   3.622   6.429
 3356SOL    HW110967   1.028   3.542   6.427
 3356SOL    HW210968   1.010   3.696   6.377
 3357SOL     OW10969   2.561   5.421   2.124
 3357SOL    HW110970   2.475   5.378   2.097
 3357SOL    HW210971   2.623   5.423   2.045
 3358SOL     OW10972   6.590   4.409   3.553
 3358SOL    HW110973   6.683   4.372   3.554
 3358SOL    HW210974   6.587   4.491   3.610
 3359SOL     OW10975   2.019   1.593   1.941
 3359SOL    HW110976   1.970   1.646   2.010
 3359SOL    HW210977   2.006   1.495   1.958
 3360SOL     OW10978   2.483   0.959   6.534
 3360SOL    HW110979   2.480   1.059   6.543
 3360SOL    HW210980   2.545   0.921   6.603
 3361SOL     OW10981   3.205   1.106   2.870
 3361SOL    HW110982   3.106   1.118   2.862
 3361SOL    HW210983   3.226   1.057   2.954
 3362SOL     OW10984   3.119   1.862   4.455
 3362SOL    HW110985   3.165   1.937   4.406
 3362SOL    HW210986   3.078   1.898   4.539
 3363SOL     OW10987   6.882   0.624   6.508
 3363SOL    HW110988   6.814   0.551   6.503
 3363SOL    HW210989   6.846   0.706   6.462
 3364SOL     OW10990   2.432   5.066   5.653
 3364SOL    HW110991   2.485   5.043   5.735
 3364SOL    HW210992   2.493   5.102   5.583
 3365SOL     OW10993   6.584   2.721   5.441
 3365SOL    HW110994   6.498   2.757   5.404
 3365SOL    HW210995   6.591   2.624   5.420
 3366SOL     OW10996   5.574   1.006   0.145
 3366SOL    HW110997   5.551   0.911   0.166
 3366SOL    HW210998   5.596   1.015   0.048
 3367SOL     OW10999   2.053   0.299   2.857
 3367SOL    HW111000   2.153   0.293   2.857
 3367SOL    HW211001   2.019   0.292   2.764
 3368SOL     OW11002   6.350   1.455   4.679
 3368SOL    HW111003   6.313   1.373   4.723
 3368SOL    HW211004   6.346   1.446   4.580
 3369SOL     OW11005   3.753   5.957   6.579
 3369SOL    HW111006   3.818   5.989   6.511
 3369SOL    HW211007   3.706   6.035   6.619
 3370SOL     OW11008   5.709   6.927   5.218
 3370SOL    HW111009   5.693   0.010   5.233
 3370SOL    HW211010   5.771   6.915   5.141
 3371SOL     OW11011   6.930   4.658   1.287
 3371SOL    HW111012   6.907   4.717   1.363
 3371SOL    HW211013   6.849   4.642   1.231
 3372SOL     OW11014   0.560   2.292   2.457
 3372SOL    HW111015   0.533   2.378   2.500
 3372SOL    HW211016   0.660   2.289   2.448
 3373SOL     OW11017   0.637   2.563   6.613
 3373SOL    HW111018   0.561   2.622   6.639
 3373SOL    HW211019   0.723   2.612   6.624
 3374SOL     OW11020   3.494   6.195   5.311
 3374SOL    HW111021   3.515   6.107   5.268
 3374SOL    HW211022   3.507   6.268   5.244
 3375SOL     OW11023   3.358   3.758   4.430
 3375SOL    HW111024   3.400   3.820   4.363
 3375SOL    HW211025   3.363   3.798   4.521
 3376SOL     OW11026   3.018   2.964   1.780
 3376SOL    HW111027   2.948   2.967   1.851
 3376SOL    HW211028   3.019   2.874   1.738
 3377SOL     OW11029   2.995   5.571   5.630
 3377SOL    HW111030   2.976   5.506   5.556
 3377SOL    HW211031   3.084   5.552   5.670
 3378SOL     OW11032   0.420   1.104   0.903
 3378SOL    HW111033   0.481   1.129   0.827
 3378SOL    HW211034   0.384   1.187   0.945
 3379SOL     OW11035   5.887   5.002   5.255
 3379SOL    HW111036   5.847   4.969   5.169
 3379SOL    HW211037   5.983   5.027   5.240
 3380SOL     OW11038   0.441   3.574   5.192
 3380SOL    HW111039   0.502   3.601   5.266
 3380SOL    HW211040   0.358   3.534   5.231
 3381SOL     OW11041   3.300   2.350   1.648
 3381SOL    HW111042   3.340   2.436   1.677
 3381SOL    HW211043   3.325   2.278   1.713
 3382SOL     OW11044   0.479   6.687   0.289
 3382SOL    HW111045   0.456   6.772   0.242
 3382SOL    HW211046   0.396   6.647   0.328
 3383SOL     OW11047   0.602   4.417   1.437
 3383SOL    HW111048   0.644   4.484   1.376
 3383SOL    HW211049   0.588   4.457   1.527
 3384SOL     OW11050   3.146   3.103   4.173
 3384SOL    HW111051   3.073   3.167   4.147
 3384SOL    HW211052   3.143   3.087   4.272
 3385SOL     OW11053   6.893   4.310   3.703
 3385SOL    HW111054   6.983   4.306   3.659
 3385SOL    HW211055   6.856   4.217   3.713
 3386SOL     OW11056   5.942   4.238   4.534
 3386SOL    HW111057   5.918   4.330   4.501
 3386SOL    HW211058   6.041   4.233   4.548
 3387SOL     OW11059   3.179   1.781   2.755
 3387SOL    HW111060   3.222   1.719   2.821
 3387SOL    HW211061   3.249   1.827   2.702
 3388SOL     OW11062   5.409   2.178   1.478
 3388SOL    HW111063   5.336   2.238   1.509
 3388SOL    HW211064   5.432   2.199   1.383
 3389SOL     OW11065   4.286   5.632   2.640
 3389SOL    HW111066   4.305   5.691   2.718
 3389SOL    HW211067   4.188   5.615   2.634
 3390SOL     OW11068   4.468   1.783   5.402
 3390SOL    HW111069   4.397   1.767   5.471
 3390SOL    HW211070   4.425   1.804   5.314
 3391SOL     OW11071   3.606   2.134   3.963
 3391SOL    HW111072   3.568   2.131   4.056
 3391SOL    HW211073   3.532   2.145   3.897
 3392SOL     OW11074   5.085   6.153   3.275
 3392SOL    HW111075   5.058   6.206   3.355
 3392SOL    HW211076   5.076   6.055   3.295
 3393SOL     OW11077   0.082   0.067   0.140
 3393SOL    HW111078   0.076   0.095   0.044
 3393SOL    HW211079   0.164   0.106   0.181
 3394SOL     OW11080   5.577   1.105   2.578
 3394SOL    HW111081   5.573   1.105   2.677
 3394SOL    HW211082   5.573   1.011   2.544
 3395SOL     OW11083   1.334   3.694   5.574
 3395SOL    HW111084   1.430   3.666   5.569
 3395SOL    HW211085   1.279   3.617   5.605
 3396SOL     OW11086   6.390   3.297   4.316
 3396SOL    HW111087   6.473   3.313   4.262
 3396SOL    HW211088   6.401   3.213   4.370
 3397SOL     OW11089   3.648   5.997   6.139
 3397SOL    HW111090   3.703   6.022   6.060
 3397SOL    HW211091   3.605   5.908   6.123
 3398SOL     OW11092   0.558   0.822   2.614
 3398SOL    HW111093   0.609   0.738   2.597
 3398SOL    HW211094   0.592   0.865   2.698
 3399SOL     OW11095   4.361   5.726   4.925
 3399SOL    HW111096   4.312   5.783   4.860
 3399SOL    HW211097   4.346   5.760   5.018
 3400SOL     OW11098   5.066   2.622   0.348
 3400SOL    HW111099   5.095   2.529   0.327
 3400SOL    HW211100   4.969   2.632   0.326
 3401SOL     OW11101   6.658   4.305   6.102
 3401SOL    HW111102   6.710   4.369   6.158
 3401SOL    HW211103   6.708   4.218   6.096
 3402SOL     OW11104   5.313   5.272   2.070
 3402SOL    HW111105   5.348   5.296   2.160
 3402SOL    HW211106   5.274   5.180   2.072
 3403SOL     OW11107   3.763   1.609   5.232
 3403SOL    HW111108   3.695   1.680   5.211
 3403SOL    HW211109   3.762   1.541   5.159
 3404SOL     OW11110   4.716   6.789   1.644
 3404SOL    HW111111   4.722   6.785   1.744
 3404SOL    HW211112   4.656   6.865   1.617
 3405SOL     OW11113   6.284   4.220   0.156
 3405SOL    HW111114   6.341   4.257   0.082
 3405SOL    HW211115   6.197   4.269   0.159
 3406SOL     OW11116   1.014   4.231   1.153
 3406SOL    HW111117   1.052   4.152   1.104
 3406SOL    HW211118   1.010   4.211   1.251
 3407SOL     OW11119   1.309   4.808   2.944
 3407SOL    HW111120   1.228   4.854   2.906
 3407SOL    HW211121   1.285   4.767   3.032
 3408SOL     OW11122   5.260   3.720   3.361
 3408SOL    HW111123   5.219   3.702   3.451
 3408SOL    HW211124   5.250   3.818   3.339
 3409SOL     OW11125   2.848   0.901   5.905
 3409SOL    HW111126   2.757   0.927   5.935
 3409SOL    HW211127   2.915   0.965   5.943
 3410SOL     OW11128   6.953   1.778   0.105
 3410SOL    HW111129   6.992   1.693   0.139
 3410SOL    HW211130   6.946   1.844   0.180
 3411SOL     OW11131   4.478   2.215   2.218
 3411SOL    HW111132   4.484   2.223   2.119
 3411SOL    HW211133   4.441   2.300   2.256
 3412SOL     OW11134   4.437   5.594   6.868
 3412SOL    HW111135   4.471   5.678   6.825
 3412SOL    HW211136   4.352   5.566   6.823
 3413SOL     OW11137   4.933   1.376   2.300
 3413SOL    HW111138   4.966   1.389   2.206
 3413SOL    HW211139   5.009   1.390   2.364
 3414SOL     OW11140   3.913   0.673   5.353
 3414SOL    HW111141   3.986   0.615   5.316
 3414SOL    HW211142   3.861   0.621   5.421
 3415SOL     OW11143   1.025   5.148   4.254
 3415SOL    HW111144   1.123   5.145   4.235
 3415SOL    HW211145   1.009   5.119   4.348
 3416SOL     OW11146   1.951   4.282   6.200
 3416SOL    HW111147   1.880   4.324   6.142
 3416SOL    HW211148   1.998   4.211   6.148
 3417SOL     OW11149   5.146   1.030   1.222
 3417SOL    HW111150   5.058   1.061   1.256
 3417SOL    HW211151   5.143   1.020   1.123
 3418SOL     OW11152   3.166   2.935   6.300
 3418SOL    HW111153   3.083   2.885   6.275
 3418SOL    HW211154   3.241   2.907   6.240
 3419SOL     OW11155   4.911   3.741   6.580
 3419SOL    HW111156   4.838   3.809   6.587
 3419SOL    HW211157   4.882   3.668   6.517
 3420SOL     OW11158   4.220   1.510   3.863
 3420SOL    HW111159   4.145   1.554   3.812
 3420SOL    HW211160   4.307   1.548   3.833
 3421SOL     OW11161   0.097   6.475   2.543
 3421SOL    HW111162   0.193   6.452   2.559
 3421SOL    HW211163   0.072   6.555   2.598
 3422SOL     OW11164   2.868   2.243   2.814
 3422SOL    HW111165   2.963   2.217   2.795
 3422SOL    HW211166   2.817   2.162   2.843
 3423SOL     OW11167   3.024   0.477   1.802
 3423SOL    HW111168   3.117   0.481   1.767
 3423SOL    HW211169   2.963   0.525   1.739
 3424SOL     OW11170   4.339   0.992   1.676
 3424SOL    HW111171   4.260   0.971   1.617
 3424SOL    HW211172   4.391   1.067   1.636
 3425SOL     OW11173   4.292   4.014   1.684
 3425SOL    HW111174   4.358   4.053   1.749
 3425SOL    HW211175   4.283   3.916   1.701
 3426SOL     OW11176   4.656   3.671   0.915
 3426SOL    HW111177   4.594   3.682   0.993
 3426SOL    HW211178   4.667   3.759   0.868
 3427SOL     OW11179   0.746   1.413   0.484
 3427SOL    HW111180   0.700   1.336   0.441
 3427SOL    HW211181   0.813   1.380   0.550
 3428SOL     OW11182   4.178   4.893   3.347
 3428SOL    HW111183   4.082   4.903   3.322
 3428SOL    HW211184   4.231   4.969   3.309
 3429SOL     OW11185   0.159   2.865   0.535
 3429SOL    HW111186   0.221   2.878   0.458
 3429SOL    HW211187   0.132   2.954   0.573
 3430SOL     OW11188   1.621   4.957   6.442
 3430SOL    HW111189   1.607   5.012   6.359
 3430SOL    HW211190   1.583   4.866   6.428
 3431SOL     OW11191   1.752   6.325   6.582
 3431SOL    HW111192   1.810   6.348   6.504
 3431SOL    HW211193   1.765   6.230   6.607
 3432SOL     OW11194   2.875   1.775   6.660
 3432SOL    HW111195   2.906   1.865   6.630
 3432SOL    HW211196   2.866   1.776   6.760
 3433SOL     OW11197   5.037   0.927   4.756
 3433SOL    HW111198   5.040   1.000   4.824
 3433SOL    HW211199   5.114   0.937   4.693
 3434SOL     OW11200   4.353   1.712   3.046
 3434SOL    HW111201   4.379   1.620   3.078
 3434SOL    HW211202   4.358   1.776   3.123
 3435SOL     OW11203   0.793   1.233   0.135
 3435SOL    HW111204   0.835   1.194   0.217
 3435SOL    HW211205   0.859   1.232   0.060
 3436SOL     OW11206   4.733   0.076   2.944
 3436SOL    HW111207   4.636   0.052   2.956
 3436SOL    HW211208   4.788   7.008   2.950
 3437SOL     OW11209   4.531   0.627   6.639
 3437SOL    HW111210   4.611   0.582   6.600
 3437SOL    HW211211   4.494   0.571   6.713
 3438SOL     OW11212   1.364   4.808   6.598
 3438SOL    HW111213   1.446   4.866   6.594
 3438SOL    HW211214   1.293   4.847   6.540
 3439SOL     OW11215   2.419   0.082   3.912
 3439SOL    HW111216   2.465   0.007   3.958
 3439SOL    HW211217   2.485   0.135   3.860
 3440SOL     OW11218   3.112   2.009   0.690
 3440SOL    HW111219   3.122   2.101   0.728
 3440SOL    HW211220   3.016   1.993   0.668
 3441SOL     OW11221   4.743   0.360   4.265
 3441SOL    HW111222   4.757   0.453   4.229
 3441SOL    HW211223   4.812   0.341   4.335
 3442SOL     OW11224   1.004   4.741   3.007
 3442SOL    HW111225   1.075   4.745   3.078
 3442SOL    HW211226   1.034   4.679   2.934
 3443SOL     OW11227   5.565   6.549   4.326
 3443SOL    HW111228   5.589   6.569   4.421
 3443SOL    HW211229   5.567   6.450   4.311
 3444SOL     OW11230   4.239   4.911   0.231
 3444SOL    HW111231   4.239   4.843   0.304
 3444SOL    HW211232   4.147   4.948   0.220
 3445SOL     OW11233   5.860   5.271   4.617
 3445SOL    HW111234   5.798   5.199   4.648
 3445SOL    HW211235   5.807   5.352   4.592
 3446SOL     OW11236   2.713   6.242   2.426
 3446SOL    HW111237   2.778   6.279   2.360
 3446SOL    HW211238   2.753   6.247   2.518
 3447SOL     OW11239   6.068   4.650   5.319
 3447SOL    HW111240   6.025   4.568   5.357
 3447SOL    HW211241   6.039   4.663   5.225
 3448SOL     OW11242   3.479   3.312   0.979
 3448SOL    HW111243   3.576   3.306   0.957
 3448SOL    HW211244   3.459   3.402   1.017
 3449SOL     OW11245   6.638   6.048   2.795
 3449SOL    HW111246   6.626   6.030   2.892
 3449SOL    HW211247   6.653   6.146   2.781
 3450SOL     OW11248   0.636   2.063   1.339
 3450SOL    HW111249   0.556   2.054   1.279
 3450SOL    HW211250   0.717   2.028   1.292
 3451SOL     OW11251   1.529   4.366   4.318
 3451SOL    HW111252   1.582   4.366   4.233
 3451SOL    HW211253   1.440   4.408   4.302
 3452SOL     OW11254   7.006   1.797   0.697
 3452SOL    HW111255   0.059   1.861   0.663
 3452SOL    HW211256   0.036   1.724   0.747
 3453SOL     OW11257   6.013   6.241   5.727
 3453SOL    HW111258   6.024   6.207   5.821
 3453SOL    HW211259   6.040   6.337   5.724
 3454SOL     OW11260   1.270   1.344   0.840
 3454SOL    HW111261   1.248   1.423   0.783
 3454SOL    HW211262   1.333   1.371   0.913
 3455SOL     OW11263   2.239   2.554   3.940
 3455SOL    HW111264   2.150   2.557   3.985
 3455SOL    HW211265   2.232   2.499   3.856
 3456SOL     OW11266   0.044   6.867   0.486
 3456SOL    HW111267   0.119   6.893   0.425
 3456SOL    HW211268   0.039   6.767   0.492
 3457SOL     OW11269   1.933   6.221   3.949
 3457SOL    HW111270   1.878   6.294   3.987
 3457SOL    HW211271   1.983   6.175   4.022
 3458SOL     OW11272   5.226   4.662   0.434
 3458SOL    HW111273   5.133   4.651   0.401
 3458SOL    HW211274   5.286   4.684   0.357
 3459SOL     OW11275   6.536   6.325   2.967
 3459SOL    HW111276   6.587   6.324   2.881
 3459SOL    HW211277   6.453   6.270   2.957
 3460SOL     OW11278   3.649   2.791   6.071
 3460SOL    HW111279   3.668   2.873   6.017
 3460SOL    HW211280   3.728   2.770   6.128
 3461SOL     OW11281   2.306   5.482   2.988
 3461SOL    HW111282   2.271   5.411   3.049
 3461SOL    HW211283   2.304   5.448   2.893
 3462SOL     OW11284   5.363   2.790   2.397
 3462SOL    HW111285   5.269   2.763   2.420
 3462SOL    HW211286   5.424   2.711   2.410
 3463SOL     OW11287   1.561   3.183   1.346
 3463SOL    HW111288   1.642   3.226   1.305
 3463SOL    HW211289   1.576   3.171   1.444
 3464SOL     OW11290   5.248   2.147   5.920
 3464SOL    HW111291   5.197   2.085   5.861
 3464SOL    HW211292   5.242   2.115   6.015
 3465SOL     OW11293   1.597   4.462   1.648
 3465SOL    HW111294   1.627   4.366   1.656
 3465SOL    HW211295   1.663   4.513   1.593
 3466SOL     OW11296   6.199   4.486   4.105
 3466SOL    HW111297   6.240   4.571   4.070
 3466SOL    HW211298   6.251   4.408   4.071
 3467SOL     OW11299   3.295   2.852   1.178
 3467SOL    HW111300   3.325   2.787   1.108
 3467SOL    HW211301   3.205   2.889   1.152
 3468SOL     OW11302   3.576   1.649   0.998
 3468SOL    HW111303   3.621   1.563   1.023
 3468SOL    HW211304   3.560   1.651   0.899
 3469SOL     OW11305   3.606   5.386   4.873
 3469SOL    HW111306   3.655   5.427   4.949
 3469SOL    HW211307   3.642   5.294   4.856
 3470SOL     OW11308   0.629   2.469   2.148
 3470SOL    HW111309   0.639   2.375   2.180
 3470SOL    HW211310   0.683   2.530   2.207
 3471SOL     OW11311   4.939   2.984   4.793
 3471SOL    HW111312   5.029   3.002   4.753
 3471SOL    HW211313   4.881   2.940   4.725
 3472SOL     OW11314   4.166   2.001   3.097
 3472SOL    HW111315   4.198   2.088   3.136
 3472SOL    HW211316   4.144   2.014   3.001
 3473SOL     OW11317   6.093   4.685   1.694
 3473SOL    HW111318   6.061   4.755   1.757
 3473SOL    HW211319   6.014   4.633   1.660
 3474SOL     OW11320   4.777   4.901   3.788
 3474SOL    HW111321   4.874   4.909   3.768
 3474SOL    HW211322   4.753   4.962   3.864
 3475SOL     OW11323   6.780   4.182   3.956
 3475SOL    HW111324   6.744   4.144   3.870
 3475SOL    HW211325   6.727   4.146   4.033
 3476SOL     OW11326   1.791   1.354   3.174
 3476SOL    HW111327   1.758   1.417   3.243
 3476SOL    HW211328   1.717   1.331   3.110
 3477SOL     OW11329   0.568   4.197   1.308
 3477SOL    HW111330   0.582   4.284   1.355
 3477SOL    HW211331   0.628   4.193   1.228
 3478SOL     OW11332   2.149   0.577   1.244
 3478SOL    HW111333   2.224   0.513   1.230
 3478SOL    HW211334   2.104   0.594   1.156
 3479SOL     OW11335   1.398   4.485   5.082
 3479SOL    HW111336   1.443   4.411   5.031
 3479SOL    HW211337   1.299   4.481   5.067
 3480SOL     OW11338   1.342   4.452   6.345
 3480SOL    HW111339   1.395   4.501   6.276
 3480SOL    HW211340   1.268   4.511   6.378
 3481SOL     OW11341   5.978   0.420   4.510
 3481SOL    HW111342   5.934   0.396   4.597
 3481SOL    HW211343   5.987   0.338   4.454
 3482SOL     OW11344   5.942   3.524   6.524
 3482SOL    HW111345   5.872   3.573   6.575
 3482SOL    HW211346   5.913   3.429   6.512
 3483SOL     OW11347   5.804   2.595   5.512
 3483SOL    HW111348   5.741   2.542   5.456
 3483SOL    HW211349   5.753   2.662   5.566
 3484SOL     OW11350   1.027   3.552   5.052
 3484SOL    HW111351   1.047   3.565   4.955
 3484SOL    HW211352   1.107   3.577   5.107
 3485SOL     OW11353   0.087   2.986   6.736
 3485SOL    HW111354   0.076   3.055   6.808
 3485SOL    HW211355   0.113   2.899   6.778
 3486SOL     OW11356   1.634   6.448   5.696
 3486SOL    HW111357   1.658   6.543   5.719
 3486SOL    HW211358   1.694   6.416   5.623
 3487SOL     OW11359   4.597   1.480   0.267
 3487SOL    HW111360   4.568   1.425   0.189
 3487SOL    HW211361   4.696   1.496   0.261
 3488SOL     OW11362   5.888   6.823   4.767
 3488SOL    HW111363   5.901   6.840   4.864
 3488SOL    HW211364   5.857   6.907   4.722
 3489SOL     OW11365   3.121   6.017   0.838
 3489SOL    HW111366   3.148   6.075   0.761
 3489SOL    HW211367   3.118   5.922   0.809
 3490SOL     OW11368   3.371   6.276   0.923
 3490SOL    HW111369   3.374   6.321   1.012
 3490SOL    HW211370   3.396   6.342   0.852
 3491SOL     OW11371   4.114   4.691   6.092
 3491SOL    HW111372   4.087   4.683   5.996
 3491SOL    HW211373   4.175   4.615   6.116
 3492SOL     OW11374   5.923   4.437   3.043
 3492SOL    HW111375   5.899   4.494   3.121
 3492SOL    HW211376   5.867   4.354   3.044
 3493SOL     OW11377   6.686   2.962   5.506
 3493SOL    HW111378   6.784   2.952   5.493
 3493SOL    HW211379   6.640   2.876   5.485
 3494SOL     OW11380   4.147   1.630   2.520
 3494SOL    HW111381   4.176   1.721   2.492
 3494SOL    HW211382   4.050   1.631   2.540
 3495SOL     OW11383   1.191   3.678   3.207
 3495SOL    HW111384   1.238   3.608   3.260
 3495SOL    HW211385   1.219   3.673   3.111
 3496SOL     OW11386   6.144   4.896   1.316
 3496SOL    HW111387   6.152   4.860   1.223
 3496SOL    HW211388   6.196   4.981   1.323
 3497SOL     OW11389   3.375   0.201   2.129
 3497SOL    HW111390   3.356   0.137   2.204
 3497SOL    HW211391   3.369   0.152   2.042
 3498SOL     OW11392   1.934   2.670   1.694
 3498SOL    HW111393   1.844   2.698   1.660
 3498SOL    HW211394   1.953   2.578   1.662
 3499SOL     OW11395   5.754   6.722   4.529
 3499SOL    HW111396   5.828   6.747   4.591
 3499SOL    HW211397   5.772   6.759   4.438
 3500SOL     OW11398   2.302   2.164   3.955
 3500SOL    HW111399   2.359   2.180   4.035
 3500SOL    HW211400   2.249   2.246   3.934
 3501SOL     OW11401   1.441   0.141   5.970
 3501SOL    HW111402   1.430   0.212   5.900
 3501SOL    HW211403   1.361   0.141   6.030
 3502SOL     OW11404   4.382   2.362   2.562
 3502SOL    HW111405   4.285   2.345   2.579
 3502SOL    HW211406   4.398   2.376   2.464
 3503SOL     OW11407   0.101   5.820   6.406
 3503SOL    HW111408   0.085   5.916   6.431
 3503SOL    HW211409   0.032   5.791   6.340
 3504SOL     OW11410   1.960   0.670   0.412
 3504SOL    HW111411   1.946   0.685   0.510
 3504SOL    HW211412   1.894   0.725   0.361
 3505SOL     OW11413   4.985   3.647   6.033
 3505SOL    HW111414   5.046   3.591   6.089
 3505SOL    HW211415   4.900   3.663   6.083
 3506SOL     OW11416   4.157   4.708   5.197
 3506SOL    HW111417   4.066   4.733   5.162
 3506SOL    HW211418   4.213   4.673   5.121
 3507SOL     OW11419   3.425   0.970   0.806
 3507SOL    HW111420   3.456   1.059   0.772
 3507SOL    HW211421   3.354   0.934   0.746
 3508SOL     OW11422   3.502   1.324   5.506
 3508SOL    HW111423   3.589   1.371   5.493
 3508SOL    HW211424   3.495   1.293   5.601
 3509SOL     OW11425   4.156   5.700   6.383
 3509SOL    HW111426   4.056   5.689   6.387
 3509SOL    HW211427   4.185   5.767   6.451
 3510SOL     OW11428   2.490   1.701   1.647
 3510SOL    HW111429   2.554   1.624   1.650
 3510SOL    HW211430   2.534   1.783   1.683
 3511SOL     OW11431   2.746   4.328   1.642
 3511SOL    HW111432   2.748   4.230   1.663
 3511SOL    HW211433   2.810   4.377   1.702
 3512SOL     OW11434   6.761   4.907   5.703
 3512SOL    HW111435   6.706   4.871   5.628
 3512SOL    HW211436   6.734   4.863   5.789
 3513SOL     OW11437   6.270   1.855   0.954
 3513SOL    HW111438   6.300   1.939   0.908
 3513SOL    HW211439   6.174   1.839   0.934
 3514SOL     OW11440   3.235   1.600   1.849
 3514SOL    HW111441   3.173   1.522   1.858
 3514SOL    HW211442   3.187   1.684   1.872
 3515SOL     OW11443   0.202   5.156   4.397
 3515SOL    HW111444   0.149   5.110   4.325
 3515SOL    HW211445   0.140   5.211   4.454
 3516SOL     OW11446   4.612   0.474   1.466
 3516SOL    HW111447   4.551   0.538   1.418
 3516SOL    HW211448   4.642   0.516   1.552
 3517SOL     OW11449   5.237   0.803   1.359
 3517SOL    HW111450   5.240   0.878   1.292
 3517SOL    HW211451   5.176   0.827   1.434
 3518SOL     OW11452   5.032   1.003   5.233
 3518SOL    HW111453   4.939   0.965   5.232
 3518SOL    HW211454   5.067   1.005   5.139
 3519SOL     OW11455   3.258   1.054   1.130
 3519SOL    HW111456   3.196   0.977   1.150
 3519SOL    HW211457   3.353   1.022   1.136
 3520SOL     OW11458   3.187   6.236   4.046
 3520SOL    HW111459   3.192   6.205   4.141
 3520SOL    HW211460   3.124   6.177   3.996
 3521SOL     OW11461   2.840   3.030   6.327
 3521SOL    HW111462   2.889   2.944   6.315
 3521SOL    HW211463   2.904   3.101   6.355
 3522SOL     OW11464   1.121   6.323   6.331
 3522SOL    HW111465   1.071   6.385   6.391
 3522SOL    HW211466   1.061   6.294   6.255
 3523SOL     OW11467   3.198   6.543   6.987
 3523SOL    HW111468   3.113   6.595   6.990
 3523SOL    HW211469   3.249   6.566   6.904
 3524SOL     OW11470   4.870   1.302   3.953
 3524SOL    HW111471   4.916   1.377   3.904
 3524SOL    HW211472   4.772   1.306   3.934
 3525SOL     OW11473   0.125   3.375   3.321
 3525SOL    HW111474   0.225   3.384   3.313
 3525SOL    HW211475   0.103   3.282   3.349
 3526SOL     OW11476   0.327   6.449   1.751
 3526SOL    HW111477   0.321   6.547   1.769
 3526SOL    HW211478   0.249   6.403   1.794
 3527SOL     OW11479   0.049   3.002   6.331
 3527SOL    HW111480   6.987   3.044   6.283
 3527SOL    HW211481   0.086   3.066   6.398
 3528SOL     OW11482   2.544   5.741   4.410
 3528SOL    HW111483   2.483   5.663   4.394
 3528SOL    HW211484   2.629   5.709   4.453
 3529SOL     OW11485   4.284   4.570   0.965
 3529SOL    HW111486   4.297   4.488   0.908
 3529SOL    HW211487   4.333   4.559   1.051
 3530SOL     OW11488   6.656   6.679   0.383
 3530SOL    HW111489   6.749   6.642   0.375
 3530SOL    HW211490   6.638   6.704   0.478
 3531SOL     OW11491   4.816   2.486   0.511
 3531SOL    HW111492   4.813   2.549   0.433
 3531SOL    HW211493   4.785   2.396   0.483
 3532SOL     OW11494   1.864   1.079   1.505
 3532SOL    HW111495   1.770   1.054   1.529
 3532SOL    HW211496   1.917   0.996   1.489
 3533SOL     OW11497   1.020   1.582   3.121
 3533SOL    HW111498   1.087   1.655   3.128
 3533SOL    HW211499   0.945   1.611   3.062
 3534SOL     OW11500   0.030   1.018   1.025
 3534SOL    HW111501   0.104   0.980   0.969
 3534SOL    HW211502   0.069   1.060   1.107
 3535SOL     OW11503   3.353   6.130   4.268
 3535SOL    HW111504   3.433   6.190   4.264
 3535SOL    HW211505   3.275   6.181   4.305
 3536SOL     OW11506   3.803   1.748   3.093
 3536SOL    HW111507   3.882   1.761   3.152
 3536SOL    HW211508   3.825   1.779   3.000
 3537SOL     OW11509   1.746   6.776   3.954
 3537SOL    HW111510   1.744   6.706   3.882
 3537SOL    HW211511   1.683   6.849   3.929
 3538SOL     OW11512   2.830   5.644   2.111
 3538SOL    HW111513   2.793   5.555   2.084
 3538SOL    HW211514   2.869   5.690   2.031
 3539SOL     OW11515   3.533   3.938   4.275
 3539SOL    HW111516   3.490   3.899   4.193
 3539SOL    HW211517   3.527   4.037   4.273
 3540SOL     OW11518   1.363   2.356   3.592
 3540SOL    HW111519   1.384   2.360   3.689
 3540SOL    HW211520   1.272   2.316   3.580
 3541SOL     OW11521   3.972   3.852   4.456
 3541SOL    HW111522   4.020   3.788   4.516
 3541SOL    HW211523   3.880   3.817   4.437
 3542SOL     OW11524   6.593   5.456   1.033
 3542SOL    HW111525   6.569   5.511   1.113
 3542SOL    HW211526   6.548   5.367   1.038
 3543SOL     OW11527   5.535   2.597   4.713
 3543SOL    HW111528   5.589   2.648   4.780
 3543SOL    HW211529   5.451   2.647   4.692
 3544SOL     OW11530   2.356   6.718   0.149
 3544SOL    HW111531   2.283   6.651   0.136
 3544SOL    HW211532   2.319   6.811   0.140
 3545SOL     OW11533   3.407   4.754   0.623
 3545SOL    HW111534   3.395   4.743   0.722
 3545SOL    HW211535   3.395   4.850   0.599
 3546SOL     OW11536   0.226   4.862   2.379
 3546SOL    HW111537   0.258   4.801   2.306
 3546SOL    HW211538   0.128   4.875   2.371
 3547SOL     OW11539   4.844   4.724   4.394
 3547SOL    HW111540   4.943   4.722   4.411
 3547SOL    HW211541   4.815   4.635   4.359
 3548SOL     OW11542   5.138   3.702   5.803
 3548SOL    HW111543   5.229   3.741   5.821
 3548SOL    HW211544   5.098   3.671   5.888
 3549SOL     OW11545   5.399   3.891   2.584
 3549SOL    HW111546   5.378   3.988   2.597
 3549SOL    HW211547   5.328   3.849   2.527
 3550SOL     OW11548   5.094   1.397   3.398
 3550SOL    HW111549   5.145   1.469   3.446
 3550SOL    HW211550   5.057   1.434   3.313
 3551SOL     OW11551   2.151   6.351   2.914
 3551SOL    HW111552   2.230   6.384   2.967
 3551SOL    HW211553   2.090   6.428   2.894
 3552SOL     OW11554   6.542   4.332   3.292
 3552SOL    HW111555   6.572   4.367   3.380
 3552SOL    HW211556   6.451   4.367   3.271
 3553SOL     OW11557   5.709   2.131   3.412
 3553SOL    HW111558   5.678   2.196   3.481
 3553SOL    HW211559   5.808   2.121   3.417
 3554SOL     OW11560   4.025   5.860   6.813
 3554SOL    HW111561   4.012   5.950   6.855
 3554SOL    HW211562   3.939   5.809   6.818
 3555SOL     OW11563   0.269   2.213   3.628
 3555SOL    HW111564   0.223   2.286   3.578
 3555SOL    HW211565   0.240   2.124   3.591
 3556SOL     OW11566   4.396   1.119   6.631
 3556SOL    HW111567   4.335   1.146   6.705
 3556SOL    HW211568   4.443   1.034   6.655
 3557SOL     OW11569   0.995   0.183   4.441
 3557SOL    HW111570   1.091   0.166   4.463
 3557SOL    HW211571   0.983   0.277   4.411
 3558SOL     OW11572   6.784   6.781   1.512
 3558SOL    HW111573   6.801   6.682   1.515
 3558SOL    HW211574   6.869   6.829   1.532
 3559SOL     OW11575   1.238   0.431   5.297
 3559SOL    HW111576   1.293   0.359   5.339
 3559SOL    HW211577   1.143   0.425   5.329
 3560SOL     OW11578   6.645   6.883   1.282
 3560SOL    HW111579   6.639   6.823   1.203
 3560SOL    HW211580   6.663   6.829   1.365
 3561SOL     OW11581   5.425   4.567   4.008
 3561SOL    HW111582   5.364   4.646   4.017
 3561SOL    HW211583   5.391   4.507   3.936
 3562SOL     OW11584   3.692   2.143   3.206
 3562SOL    HW111585   3.684   2.043   3.201
 3562SOL    HW211586   3.775   2.167   3.257
 3563SOL     OW11587   5.017   6.856   1.684
 3563SOL    HW111588   4.936   6.863   1.626
 3563SOL    HW211589   4.992   6.816   1.772
 3564SOL     OW11590   6.672   4.147   3.124
 3564SOL    HW111591   6.627   4.193   3.201
 3564SOL    HW211592   6.604   4.128   3.053
 3565SOL     OW11593   1.623   0.893   5.374
 3565SOL    HW111594   1.599   0.878   5.470
 3565SOL    HW211595   1.718   0.865   5.358
 3566SOL     OW11596   1.122   4.618   6.393
 3566SOL    HW111597   1.106   4.629   6.295
 3566SOL    HW211598   1.082   4.531   6.424
 3567SOL     OW11599   0.019   2.751   1.250
 3567SOL    HW111600   0.106   2.758   1.202
 3567SOL    HW211601   0.030   2.784   1.344
 3568SOL     OW11602   4.720   4.092   3.549
 3568SOL    HW111603   4.797   4.087   3.613
 3568SOL    HW211604   4.679   4.002   3.538
 3569SOL     OW11605   4.042   3.260   3.311
 3569SOL    HW111606   4.024   3.181   3.251
 3569SOL    HW211607   3.990   3.250   3.396
 3570SOL     OW11608   0.395   1.917   5.005
 3570SOL    HW111609   0.354   1.956   5.088
 3570SOL    HW211610   0.489   1.888   5.025
 3571SOL     OW11611   2.599   6.935   4.557
 3571SOL    HW111612   2.551   6.885   4.629
 3571SOL    HW211613   2.586   0.018   4.570
 3572SOL     OW11614   5.114   4.069   1.909
 3572SOL    HW111615   5.065   4.156   1.898
 3572SOL    HW211616   5.213   4.085   1.902
 3573SOL     OW11617   6.886   4.582   3.656
 3573SOL    HW111618   6.959   4.576   3.588
 3573SOL    HW211619   6.868   4.492   3.694
 3574SOL     OW11620   2.108   1.603   5.820
 3574SOL    HW111621   2.159   1.569   5.899
 3574SOL    HW211622   2.089   1.528   5.757
 3575SOL     OW11623   5.448   0.332   6.730
 3575SOL    HW111624   5.455   0.239   6.693
 3575SOL    HW211625   5.354   0.349   6.759
 3576SOL     OW11626   1.292   2.655   0.508
 3576SOL    HW111627   1.369   2.664   0.571
 3576SOL    HW211628   1.266   2.746   0.474
 3577SOL     OW11629   1.347   2.946   4.836
 3577SOL    HW111630   1.336   2.847   4.830
 3577SOL    HW211631   1.444   2.968   4.845
 3578SOL     OW11632   3.716   3.009   6.790
 3578SOL    HW111633   3.645   3.072   6.821
 3578SOL    HW211634   3.710   2.999   6.691
 3579SOL     OW11635   1.000   3.981   0.997
 3579SOL    HW111636   0.954   3.894   1.013
 3579SOL    HW211637   1.099   3.967   0.996
 3580SOL     OW11638   6.867   3.943   2.260
 3580SOL    HW111639   6.805   3.888   2.316
 3580SOL    HW211640   6.883   3.897   2.173
 3581SOL     OW11641   1.429   0.636   2.766
 3581SOL    HW111642   1.467   0.608   2.854
 3581SOL    HW211643   1.495   0.615   2.693
 3582SOL     OW11644   4.531   6.189   6.980
 3582SOL    HW111645   4.607   6.206   0.027
 3582SOL    HW211646   4.481   6.108   7.011
 3583SOL     OW11647   1.800   5.567   1.307
 3583SOL    HW111648   1.747   5.514   1.372
 3583SOL    HW211649   1.890   5.588   1.346
 3584SOL     OW11650   5.897   4.952   4.574
 3584SOL    HW111651   5.966   4.981   4.508
 3584SOL    HW211652   5.826   4.899   4.528
 3585SOL     OW11653   3.549   2.050   3.558
 3585SOL    HW111654   3.635   2.097   3.578
 3585SOL    HW211655   3.567   1.970   3.501
 3586SOL     OW11656   6.723   1.919   5.221
 3586SOL    HW111657   6.820   1.894   5.216
 3586SOL    HW211658   6.685   1.891   5.309
 3587SOL     OW11659   2.851   0.639   5.934
 3587SOL    HW111660   2.804   0.602   6.014
 3587SOL    HW211661   2.839   0.739   5.932
 3588SOL     OW11662   5.697   4.849   4.389
 3588SOL    HW111663   5.741   4.906   4.320
 3588SOL    HW211664   5.630   4.789   4.345
 3589SOL     OW11665   0.987   0.242   6.087
 3589SOL    HW111666   1.016   0.274   5.997
 3589SOL    HW211667   0.895   0.203   6.081
 3590SOL     OW11668   6.038   5.433   5.263
 3590SOL    HW111669   6.101   5.503   5.298
 3590SOL    HW211670   6.090   5.364   5.213
 3591SOL     OW11671   4.481   1.927   0.682
 3591SOL    HW111672   4.486   1.978   0.768
 3591SOL    HW211673   4.398   1.953   0.632
 3592SOL     OW11674   1.362   6.062   0.815
 3592SOL    HW111675   1.384   6.055   0.912
 3592SOL    HW211676   1.447   6.057   0.762
 3593SOL     OW11677   3.822   3.291   5.844
 3593SOL    HW111678   3.836   3.203   5.798
 3593SOL    HW211679   3.911   3.330   5.869
 3594SOL     OW11680   4.526   4.698   5.204
 3594SOL    HW111681   4.532   4.681   5.302
 3594SOL    HW211682   4.440   4.660   5.168
 3595SOL     OW11683   4.866   6.344   4.513
 3595SOL    HW111684   4.800   6.339   4.439
 3595SOL    HW211685   4.850   6.426   4.568
 3596SOL     OW11686   3.893   1.869   2.842
 3596SOL    HW111687   3.793   1.862   2.839
 3596SOL    HW211688   3.930   1.852   2.751
 3597SOL     OW11689   3.396   4.266   5.468
 3597SOL    HW111690   3.335   4.279   5.390
 3597SOL    HW211691   3.427   4.171   5.470
 3598SOL     OW11692   0.077   5.685   5.322
 3598SOL    HW111693   0.102   5.649   5.233
 3598SOL    HW211694   0.156   5.684   5.383
 3599SOL     OW11695   2.554   1.642   4.931
 3599SOL    HW111696   2.642   1.682   4.956
 3599SOL    HW211697   2.570   1.562   4.873
 3600SOL     OW11698   2.813   3.919   6.927
 3600SOL    HW111699   2.875   3.886   6.998
 3600SOL    HW211700   2.765   3.841   6.887
 3601SOL     OW11701   4.469   0.845   5.173
 3601SOL    HW111702   4.431   0.754   5.189
 3601SOL    HW211703   4.474   0.862   5.075
 3602SOL     OW11704   1.674   2.441   1.543
 3602SOL    HW111705   1.771   2.424   1.566
 3602SOL    HW211706   1.663   2.535   1.513
 3603SOL     OW11707   2.243   0.456   5.706
 3603SOL    HW111708   2.257   0.546   5.748
 3603SOL    HW211709   2.316   0.394   5.735
 3604SOL     OW11710   6.794   0.835   3.578
 3604SOL    HW111711   6.840   0.757   3.535
 3604SOL    HW211712   6.859   0.884   3.635
 3605SOL     OW11713   1.287   0.214   5.111
 3605SOL    HW111714   1.303   0.267   5.195
 3605SOL    HW211715   1.209   0.252   5.062
 3606SOL     OW11716   2.309   6.806   2.510
 3606SOL    HW111717   2.270   6.753   2.435
 3606SOL    HW211718   2.247   6.802   2.589
 3607SOL     OW11719   6.645   1.397   3.339
 3607SOL    HW111720   6.602   1.308   3.356
 3607SOL    HW211721   6.601   1.440   3.260
 3608SOL     OW11722   3.702   1.848   5.634
 3608SOL    HW111723   3.741   1.940   5.630
 3608SOL    HW211724   3.770   1.785   5.672
 3609SOL     OW11725   3.210   0.160   5.503
 3609SOL    HW111726   3.219   0.205   5.415
 3609SOL    HW211727   3.196   0.229   5.574
 3610SOL     OW11728   2.208   0.760   5.647
 3610SOL    HW111729   2.205   0.859   5.659
 3610SOL    HW211730   2.115   0.723   5.642
 3611SOL     OW11731   5.612   3.940   3.234
 3611SOL    HW111732   5.568   3.995   3.305
 3611SOL    HW211733   5.708   3.966   3.226
 3612SOL     OW11734   4.795   1.968   0.344
 3612SOL    HW111735   4.732   1.912   0.398
 3612SOL    HW211736   4.852   1.909   0.287
 3613SOL     OW11737   3.734   0.041   2.717
 3613SOL    HW111738   3.803   7.009   2.662
 3613SOL    HW211739   3.644   0.003   2.697
 3614SOL     OW11740   3.586   5.540   0.386
 3614SOL    HW111741   3.589   5.535   0.486
 3614SOL    HW211742   3.581   5.636   0.358
 3615SOL     OW11743   5.053   3.007   5.393
 3615SOL    HW111744   4.967   2.959   5.379
 3615SOL    HW211745   5.042   3.076   5.465
 3616SOL     OW11746   1.529   2.230   0.869
 3616SOL    HW111747   1.457   2.230   0.800
 3616SOL    HW211748   1.512   2.157   0.935
 3617SOL     OW11749   4.125   5.361   5.226
 3617SOL    HW111750   4.067   5.423   5.173
 3617SOL    HW211751   4.068   5.296   5.276
 3618SOL     OW11752   1.298   5.322   4.703
 3618SOL    HW111753   1.255   5.262   4.771
 3618SOL    HW211754   1.238   5.332   4.624
 3619SOL     OW11755   6.477   2.095   2.201
 3619SOL    HW111756   6.462   2.105   2.102
 3619SOL    HW211757   6.419   2.021   2.235
 3620SOL     OW11758   5.154   6.097   5.396
 3620SOL    HW111759   5.231   6.134   5.343
 3620SOL    HW211760   5.186   6.023   5.454
 3621SOL     OW11761   3.666   3.029   3.951
 3621SOL    HW111762   3.608   3.102   3.987
 3621SOL    HW211763   3.636   2.941   3.988
 3622SOL     OW11764   2.008   5.360   6.153
 3622SOL    HW111765   1.977   5.447   6.115
 3622SOL    HW211766   2.105   5.367   6.177
 3623SOL     OW11767   1.633   5.778   6.279
 3623SOL    HW111768   1.694   5.848   6.318
 3623SOL    HW211769   1.640   5.694   6.334
 3624SOL     OW11770   2.738   1.991   2.828
 3624SOL    HW111771   2.661   2.013   2.889
 3624SOL    HW211772   2.706   1.988   2.734
 3625SOL     OW11773   6.191   2.455   1.422
 3625SOL    HW111774   6.151   2.484   1.335
 3625SOL    HW211775   6.272   2.511   1.442
 3626SOL     OW11776   1.496   2.906   6.300
 3626SOL    HW111777   1.441   2.947   6.374
 3626SOL    HW211778   1.589   2.943   6.304
 3627SOL     OW11779   3.308   1.185   2.642
 3627SOL    HW111780   3.253   1.153   2.719
 3627SOL    HW211781   3.333   1.280   2.656
 3628SOL     OW11782   6.627   1.555   1.642
 3628SOL    HW111783   6.657   1.602   1.559
 3628SOL    HW211784   6.703   1.550   1.707
 3629SOL     OW11785   1.752   0.655   4.168
 3629SOL    HW111786   1.695   0.634   4.089
 3629SOL    HW211787   1.776   0.752   4.168
 3630SOL     OW11788   6.415   2.234   2.948
 3630SOL    HW111789   6.427   2.294   3.026
 3630SOL    HW211790   6.360   2.155   2.975
 3631SOL     OW11791   2.065   5.789   2.618
 3631SOL    HW111792   2.080   5.761   2.523
 3631SOL    HW211793   2.152   5.786   2.668
 3632SOL     OW11794   4.960   3.379   2.557
 3632SOL    HW111795   4.920   3.290   2.579
 3632SOL    HW211796   4.948   3.397   2.459
 3633SOL     OW11797   4.167   4.574   6.411
 3633SOL    HW111798   4.167   4.500   6.478
 3633SOL    HW211799   4.201   4.539   6.324
 3634SOL     OW11800   3.208   5.613   6.370
 3634SOL    HW111801   3.134   5.677   6.391
 3634SOL    HW211802   3.176   5.519   6.380
 3635SOL     OW11803   1.590   7.004   2.931
 3635SOL    HW111804   1.657   0.050   2.888
 3635SOL    HW211805   1.637   6.931   2.980
 3636SOL     OW11806   0.218   5.817   5.002
 3636SOL    HW111807   0.306   5.855   4.973
 3636SOL    HW211808   0.175   5.880   5.066
 3637SOL     OW11809   5.690   2.601   6.748
 3637SOL    HW111810   5.780   2.630   6.780
 3637SOL    HW211811   5.659   2.522   6.801
 3638SOL     OW11812   0.310   3.206   3.500
 3638SOL    HW111813   0.339   3.285   3.447
 3638SOL    HW211814   0.381   3.181   3.566
 3639SOL     OW11815   4.086   3.656   4.589
 3639SOL    HW111816   4.074   3.557   4.577
 3639SOL    HW211817   4.121   3.675   4.680
 3640SOL     OW11818   4.549   1.775   2.284
 3640SOL    HW111819   4.450   1.769   2.279
 3640SOL    HW211820   4.586   1.694   2.329
 3641SOL     OW11821   6.611   3.491   1.904
 3641SOL    HW111822   6.522   3.517   1.866
 3641SOL    HW211823   6.632   3.397   1.877
 3642SOL     OW11824   5.073   4.172   6.138
 3642SOL    HW111825   5.121   4.089   6.110
 3642SOL    HW211826   5.140   4.240   6.169
 3643SOL     OW11827   4.129   6.215   4.847
 3643SOL    HW111828   4.222   6.180   4.839
 3643SOL    HW211829   4.128   6.294   4.908
 3644SOL     OW11830   2.789   0.899   2.288
 3644SOL    HW111831   2.801   0.947   2.201
 3644SOL    HW211832   2.746   0.810   2.272
 3645SOL     OW11833   2.200   4.208   3.380
 3645SOL    HW111834   2.196   4.147   3.301
 3645SOL    HW211835   2.182   4.302   3.352
 3646SOL     OW11836   2.013   5.303   5.436
 3646SOL    HW111837   2.103   5.348   5.434
 3646SOL    HW211838   2.024   5.209   5.469
 3647SOL     OW11839   3.931   6.814   0.417
 3647SOL    HW111840   3.838   6.802   0.381
 3647SOL    HW211841   3.991   6.744   0.379
 3648SOL     OW11842   5.079   4.655   3.711
 3648SOL    HW111843   5.035   4.614   3.791
 3648SOL    HW211844   5.069   4.755   3.714
 3649SOL     OW11845   4.916   2.438   0.805
 3649SOL    HW111846   4.871   2.467   0.720
 3649SOL    HW211847   5.010   2.410   0.786
 3650SOL     OW11848   5.427   6.089   6.115
 3650SOL    HW111849   5.418   6.024   6.040
 3650SOL    HW211850   5.518   6.080   6.156
 3651SOL     OW11851   1.240   2.157   6.234
 3651SOL    HW111852   1.236   2.199   6.325
 3651SOL    HW211853   1.190   2.071   6.234
 3652SOL     OW11854   5.294   2.464   2.687
 3652SOL    HW111855   5.232   2.385   2.684
 3652SOL    HW211856   5.314   2.488   2.782
 3653SOL     OW11857   2.215   1.136   0.716
 3653SOL    HW111858   2.230   1.225   0.672
 3653SOL    HW211859   2.304   1.095   0.738
 3654SOL     OW11860   4.366   6.429   1.478
 3654SOL    HW111861   4.463   6.448   1.497
 3654SOL    HW211862   4.340   6.342   1.521
 3655SOL     OW11863   1.428   0.788   4.333
 3655SOL    HW111864   1.423   0.730   4.252
 3655SOL    HW211865   1.518   0.833   4.336
 3656SOL     OW11866   0.516   6.885   0.909
 3656SOL    HW111867   0.486   6.887   0.814
 3656SOL    HW211868   0.508   6.976   0.949
 3657SOL     OW11869   5.881   4.906   6.161
 3657SOL    HW111870   5.824   4.915   6.080
 3657SOL    HW211871   5.876   4.812   6.195
 3658SOL     OW11872   1.666   4.158   5.501
 3658SOL    HW111873   1.705   4.211   5.425
 3658SOL    HW211874   1.617   4.079   5.464
 3659SOL     OW11875   1.064   2.181   6.760
 3659SOL    HW111876   1.045   2.257   6.697
 3659SOL    HW211877   0.996   2.110   6.747
 3660SOL     OW11878   3.893   4.822   5.143
 3660SOL    HW111879   3.900   4.921   5.157
 3660SOL    HW211880   3.824   4.784   5.205
 3661SOL     OW11881   0.881   1.313   4.831
 3661SOL    HW111882   0.826   1.384   4.875
 3661SOL    HW211883   0.934   1.353   4.756
 3662SOL     OW11884   3.780   1.578   5.706
 3662SOL    HW111885   3.752   1.520   5.630
 3662SOL    HW211886   3.731   1.550   5.789
 3663SOL     OW11887   1.646   2.510   6.077
 3663SOL    HW111888   1.680   2.588   6.129
 3663SOL    HW211889   1.604   2.444   6.139
 3664SOL     OW11890   2.693   1.845   1.326
 3664SOL    HW111891   2.651   1.893   1.248
 3664SOL    HW211892   2.678   1.899   1.409
 3665SOL     OW11893   0.073   6.076   5.167
 3665SOL    HW111894   0.012   6.019   5.222
 3665SOL    HW211895   0.020   6.145   5.118
 3666SOL     OW11896   1.897   3.706   4.703
 3666SOL    HW111897   1.991   3.734   4.724
 3666SOL    HW211898   1.858   3.768   4.636
 3667SOL     OW11899   2.011   6.615   1.137
 3667SOL    HW111900   2.056   6.615   1.226
 3667SOL    HW211901   2.030   6.529   1.090
 3668SOL     OW11902   5.058   1.332   0.836
 3668SOL    HW111903   4.964   1.367   0.834
 3668SOL    HW211904   5.108   1.376   0.910
 3669SOL     OW11905   6.266   0.940   1.747
 3669SOL    HW111906   6.252   0.941   1.846
 3669SOL    HW211907   6.266   1.034   1.712
 3670SOL     OW11908   2.069   6.991   2.361
 3670SOL    HW111909   2.146   0.014   2.413
 3670SOL    HW211910   2.078   6.892   2.357
 3671SOL     OW11911   0.292   0.517   5.321
 3671SOL    HW111912   0.230   0.594   5.334
 3671SOL    HW211913   0.352   0.510   5.400
 3672SOL     OW11914   4.190   0.453   3.816
 3672SOL    HW111915   4.126   0.487   3.747
 3672SOL    HW211916   4.270   0.414   3.770
 3673SOL     OW11917   3.385   1.196   1.877
 3673SOL    HW111918   3.479   1.213   1.908
 3673SOL    HW211919   3.381   1.204   1.777
 3674SOL     OW11920   6.974   4.339   5.898
 3674SOL    HW111921   6.951   4.250   5.859
 3674SOL    HW211922   0.032   4.382   5.843
 3675SOL     OW11923   6.681   0.823   4.833
 3675SOL    HW111924   6.705   0.731   4.863
 3675SOL    HW211925   6.719   0.890   4.896
 3676SOL     OW11926   2.527   0.814   5.623
 3676SOL    HW111927   2.514   0.722   5.588
 3676SOL    HW211928   2.624   0.840   5.615
 3677SOL     OW11929   1.432   0.951   4.694
 3677SOL    HW111930   1.467   0.858   4.702
 3677SOL    HW211931   1.507   1.013   4.668
 3678SOL     OW11932   3.116   0.983   3.418
 3678SOL    HW111933   3.109   1.000   3.516
 3678SOL    HW211934   3.030   0.945   3.384
 3679SOL     OW11935   3.181   0.958   2.170
 3679SOL    HW111936   3.267   0.984   2.213
 3679SOL    HW211937   3.130   0.897   2.231
 3680SOL     OW11938   3.926   2.074   4.138
 3680SOL    HW111939   3.997   2.124   4.087
 3680SOL    HW211940   3.889   2.001   4.081
 3681SOL     OW11941   0.979   6.174   3.441
 3681SOL    HW111942   0.899   6.118   3.420
 3681SOL    HW211943   0.975   6.258   3.387
 3682SOL     OW11944   5.345   1.767   1.602
 3682SOL    HW111945   5.291   1.832   1.549
 3682SOL    HW211946   5.413   1.816   1.657
 3683SOL     OW11947   6.661   1.582   1.122
 3683SOL    HW111948   6.568   1.614   1.103
 3683SOL    HW211949   6.711   1.570   1.037
 3684SOL     OW11950   2.611   6.091   5.606
 3684SOL    HW111951   2.627   6.058   5.698
 3684SOL    HW211952   2.686   6.062   5.546
 3685SOL     OW11953   2.021   6.808   3.710
 3685SOL    HW111954   1.971   6.811   3.624
 3685SOL    HW211955   2.083   6.886   3.717
 3686SOL     OW11956   6.939   4.386   0.178
 3686SOL    HW111957   6.885   4.309   0.212
 3686SOL    HW211958   0.004   4.352   0.129
 3687SOL     OW11959   6.485   4.680   4.196
 3687SOL    HW111960   6.470   4.770   4.154
 3687SOL    HW211961   6.518   4.693   4.290
 3688SOL     OW11962   0.031   2.997   1.781
 3688SOL    HW111963   0.118   3.036   1.754
 3688SOL    HW211964   6.971   3.046   1.736
 3689SOL     OW11965   1.628   1.556   5.504
 3689SOL    HW111966   1.591   1.465   5.521
 3689SOL    HW211967   1.695   1.579   5.574
 3690SOL     OW11968   6.211   4.889   1.582
 3690SOL    HW111969   6.201   4.885   1.483
 3690SOL    HW211970   6.177   4.803   1.622
 3691SOL     OW11971   1.981   2.009   0.748
 3691SOL    HW111972   1.953   1.923   0.707
 3691SOL    HW211973   2.064   2.042   0.704
 3692SOL     OW11974   0.804   3.006   5.384
 3692SOL    HW111975   0.851   3.093   5.369
 3692SOL    HW211976   0.870   2.935   5.407
 3693SOL     OW11977   0.133   2.037   2.811
 3693SOL    HW111978   0.045   2.036   2.858
 3693SOL    HW211979   0.207   2.042   2.879
 3694SOL     OW11980   0.221   6.748   1.757
 3694SOL    HW111981   0.163   6.726   1.679
 3694SOL    HW211982   0.167   6.747   1.841
 3695SOL     OW11983   6.133   3.693   3.673
 3695SOL    HW111984   6.086   3.714   3.759
 3695SOL    HW211985   6.177   3.604   3.680
 3696SOL     OW11986   4.543   6.835   4.135
 3696SOL    HW111987   4.603   6.881   4.070
 3696SOL    HW211988   4.447   6.847   4.107
 3697SOL     OW11989   5.937   5.287   3.410
 3697SOL    HW111990   5.992   5.354   3.361
 3697SOL    HW211991   5.965   5.284   3.506
 3698SOL     OW11992   1.085   6.858   4.245
 3698SOL    HW111993   1.129   6.790   4.305
 3698SOL    HW211994   1.155   6.910   4.196
 3699SOL     OW11995   3.176   1.977   2.972
 3699SOL    HW111996   3.143   2.020   2.889
 3699SOL    HW211997   3.260   2.022   3.002
 3700SOL     OW11998   0.765   5.494   4.274
 3700SOL    HW111999   0.718   5.412   4.308
 3700SOL    HW212000   0.705   5.573   4.287
 3701SOL     OW12001   6.442   0.494   2.105
 3701SOL    HW112002   6.540   0.513   2.097
 3701SOL    HW212003   6.407   0.459   2.018
 3702SOL     OW12004   6.334   4.715   3.423
 3702SOL    HW112005   6.291   4.683   3.507
 3702SOL    HW212006   6.431   4.732   3.439
 3703SOL     OW12007   0.761   2.164   3.798
 3703SOL    HW112008   0.681   2.188   3.742
 3703SOL    HW212009   0.844   2.173   3.744
 3704SOL     OW12010   6.326   7.012   0.865
 3704SOL    HW112011   6.309   6.913   0.862
 3704SOL    HW212012   6.242   0.045   0.839
 3705SOL     OW12013   6.260   4.186   3.590
 3705SOL    HW112014   6.354   4.156   3.576
 3705SOL    HW212015   6.259   4.260   3.657
 3706SOL     OW12016   0.828   5.661   6.752
 3706SOL    HW112017   0.872   5.751   6.749
 3706SOL    HW212018   0.895   5.592   6.779
 3707SOL     OW12019   0.651   4.474   3.292
 3707SOL    HW112020   0.750   4.483   3.298
 3707SOL    HW212021   0.628   4.382   3.258
 3708SOL     OW12022   1.709   5.909   0.332
 3708SOL    HW112023   1.781   5.937   0.395
 3708SOL    HW212024   1.676   5.989   0.282
 3709SOL     OW12025   0.894   1.762   2.022
 3709SOL    HW112026   0.926   1.783   1.930
 3709SOL    HW212027   0.972   1.734   2.079
 3710SOL     OW12028   2.293   3.642   5.410
 3710SOL    HW112029   2.274   3.722   5.353
 3710SOL    HW212030   2.388   3.615   5.400
 3711SOL     OW12031   2.106   5.045   5.100
 3711SOL    HW112032   2.151   5.050   5.189
 3711SOL    HW212033   2.037   5.117   5.094
 3712SOL     OW12034   2.946   4.896   4.417
 3712SOL    HW112035   2.873   4.837   4.453
 3712SOL    HW212036   3.001   4.931   4.492
 3713SOL     OW12037   5.836   0.315   5.570
 3713SOL    HW112038   5.811   0.332   5.666
 3713SOL    HW212039   5.879   0.225   5.563
 3714SOL     OW12040   0.250   5.123   0.223
 3714SOL    HW112041   0.267   5.064   0.302
 3714SOL    HW212042   0.224   5.215   0.254
 3715SOL     OW12043   6.218   4.444   2.989
 3715SOL    HW112044   6.119   4.436   2.998
 3715SOL    HW212045   6.240   4.517   2.924
 3716SOL     OW12046   5.690   5.769   5.676
 3716SOL    HW112047   5.769   5.830   5.690
 3716SOL    HW212048   5.643   5.756   5.763
 3717SOL     OW12049   4.952   0.280   1.196
 3717SOL    HW112050   4.895   0.293   1.278
 3717SOL    HW212051   4.909   0.212   1.137
 3718SOL     OW12052   5.417   6.680   6.110
 3718SOL    HW112053   5.466   6.598   6.083
 3718SOL    HW212054   5.344   6.656   6.174
 3719SOL     OW12055   2.455   4.406   0.162
 3719SOL    HW112056   2.547   4.367   0.165
 3719SOL    HW212057   2.421   4.416   0.255
 3720SOL     OW12058   0.899   2.336   0.750
 3720SOL    HW112059   0.909   2.277   0.830
 3720SOL    HW212060   0.978   2.396   0.743
 3721SOL     OW12061   6.622   0.084   5.934
 3721SOL    HW112062   6.561   0.149   5.981
 3721SOL    HW212063   6.656   0.017   6.000
 3722SOL     OW12064   5.699   6.742   0.906
 3722SOL    HW112065   5.655   6.825   0.872
 3722SOL    HW212066   5.742   6.694   0.830
 3723SOL     OW12067   4.677   4.281   5.969
 3723SOL    HW112068   4.758   4.333   5.940
 3723SOL    HW212069   4.703   4.219   6.043
 3724SOL     OW12070   6.441   4.731   4.845
 3724SOL    HW112071   6.527   4.768   4.808
 3724SOL    HW212072   6.423   4.771   4.934
 3725SOL     OW12073   0.224   5.954   0.716
 3725SOL    HW112074   0.312   6.001   0.712
 3725SOL    HW212075   0.187   5.961   0.808
 3726SOL     OW12076   5.987   3.713   5.198
 3726SOL    HW112077   5.942   3.725   5.109
 3726SOL    HW212078   5.926   3.744   5.271
 3727SOL     OW12079   6.496   1.637   4.475
 3727SOL    HW112080   6.535   1.626   4.567
 3727SOL    HW212081   6.526   1.725   4.437
 3728SOL     OW12082   2.076   4.958   0.274
 3728SOL    HW112083   2.080   4.913   0.363
 3728SOL    HW212084   2.116   4.897   0.205
 3729SOL     OW12085   0.346   0.118   6.261
 3729SOL    HW112086   0.384   0.028   6.286
 3729SOL    HW212087   0.248   0.109   6.248
 3730SOL     OW12088   4.988   4.854   4.713
 3730SOL    HW112089   4.899   4.900   4.712
 3730SOL    HW212090   5.005   4.813   4.624
 3731SOL     OW12091   0.203   1.769   1.458
 3731SOL    HW112092   0.104   1.759   1.472
 3731SOL    HW212093   0.230   1.713   1.379
 3732SOL     OW12094   4.074   2.795   0.151
 3732SOL    HW112095   4.005   2.768   0.084
 3732SOL    HW212096   4.144   2.851   0.107
 3733SOL     OW12097   1.525   1.030   3.269
 3733SOL    HW112098   1.477   1.098   3.214
 3733SOL    HW212099   1.620   1.023   3.240
 3734SOL     OW12100   3.800   0.436   2.024
 3734SOL    HW112101   3.798   0.415   2.122
 3734SOL    HW212102   3.741   0.515   2.005
 3735SOL     OW12103   4.569   1.029   2.910
 3735SOL    HW112104   4.487   0.977   2.884
 3735SOL    HW212105   4.636   1.023   2.837
 3736SOL     OW12106   0.838   1.914   0.238
 3736SOL    HW112107   0.800   1.843   0.298
 3736SOL    HW212108   0.928   1.941   0.272
 3737SOL     OW12109   5.229   1.996   4.005
 3737SOL    HW112110   5.152   1.938   3.979
 3737SOL    HW212111   5.257   2.052   3.928
 3738SOL     OW12112   0.255   0.902   0.934
 3738SOL    HW112113   0.290   0.858   1.017
 3738SOL    HW212114   0.314   0.978   0.909
 3739SOL     OW12115   3.259   4.593   6.859
 3739SOL    HW112116   3.174   4.616   6.812
 3739SOL    HW212117   3.283   4.498   6.840
 3740SOL     OW12118   5.816   6.265   6.719
 3740SOL    HW112119   5.829   6.228   6.627
 3740SOL    HW212120   5.772   6.355   6.713
 3741SOL     OW12121   5.766   4.267   0.140
 3741SOL    HW112122   5.858   4.279   0.105
 3741SOL    HW212123   5.753   4.171   0.168
 3742SOL     OW12124   4.967   4.994   1.459
 3742SOL    HW112125   5.027   4.940   1.401
 3742SOL    HW212126   4.872   4.975   1.436
 3743SOL     OW12127   2.461   4.066   0.738
 3743SOL    HW112128   2.479   4.057   0.836
 3743SOL    HW212129   2.368   4.035   0.718
 3744SOL     OW12130   6.533   5.880   2.602
 3744SOL    HW112131   6.436   5.884   2.626
 3744SOL    HW212132   6.586   5.935   2.666
 3745SOL     OW12133   5.638   1.902   2.631
 3745SOL    HW112134   5.698   1.956   2.691
 3745SOL    HW212135   5.561   1.959   2.602
 3746SOL     OW12136   4.949   0.228   5.113
 3746SOL    HW112137   4.855   0.257   5.132
 3746SOL    HW212138   4.968   0.235   5.015
 3747SOL     OW12139   2.213   6.038   5.412
 3747SOL    HW112140   2.287   5.991   5.460
 3747SOL    HW212141   2.176   5.979   5.341
 3748SOL     OW12142   5.114   2.351   3.063
 3748SOL    HW112143   5.055   2.385   3.136
 3748SOL    HW212144   5.058   2.309   2.991
 3749SOL     OW12145   6.124   6.664   1.453
 3749SOL    HW112146   6.074   6.583   1.422
 3749SOL    HW212147   6.062   6.742   1.454
 3750SOL     OW12148   5.765   3.854   1.259
 3750SOL    HW112149   5.763   3.761   1.296
 3750SOL    HW212150   5.860   3.884   1.250
 3751SOL     OW12151   1.580   4.693   0.427
 3751SOL    HW112152   1.605   4.747   0.507
 3751SOL    HW212153   1.553   4.601   0.457
 3752SOL     OW12154   1.072   6.816   5.913
 3752SOL    HW112155   0.976   6.792   5.899
 3752SOL    HW212156   1.086   6.842   6.009
 3753SOL     OW12157   0.824   0.830   5.812
 3753SOL    HW112158   0.764   0.908   5.793
 3753SOL    HW212159   0.920   0.861   5.812
 3754SOL     OW12160   6.539   6.132   1.649
 3754SOL    HW112161   6.615   6.125   1.713
 3754SOL    HW212162   6.517   6.229   1.633
 3755SOL     OW12163   4.548   2.309   3.002
 3755SOL    HW112164   4.628   2.363   3.026
 3755SOL    HW212165   4.476   2.369   2.968
 3756SOL     OW12166   3.446   6.783   0.675
 3756SOL    HW112167   3.366   6.833   0.708
 3756SOL    HW212168   3.449   6.787   0.575
 3757SOL     OW12169   3.060   4.366   6.095
 3757SOL    HW112170   3.028   4.414   6.013
 3757SOL    HW212171   3.028   4.416   6.176
 3758SOL     OW12172   6.801   0.756   2.299
 3758SOL    HW112173   6.815   0.853   2.284
 3758SOL    HW212174   6.830   0.732   2.392
 3759SOL     OW12175   4.767   3.904   0.760
 3759SOL    HW112176   4.859   3.897   0.800
 3759SOL    HW212177   4.773   3.890   0.661
 3760SOL     OW12178   1.859   1.647   5.666
 3760SOL    HW112179   1.832   1.735   5.627
 3760SOL    HW212180   1.948   1.656   5.710
 3761SOL     OW12181   6.360   6.239   3.957
 3761SOL    HW112182   6.302   6.316   3.930
 3761SOL    HW212183   6.343   6.216   4.053
 3762SOL     OW12184   0.399   2.909   0.362
 3762SOL    HW112185   0.383   2.842   0.290
 3762SOL    HW212186   0.409   3.000   0.321
 3763SOL     OW12187   0.013   3.108   4.538
 3763SOL    HW112188   6.999   3.020   4.501
 3763SOL    HW212189   0.100   3.097   4.585
 3764SOL     OW12190   2.106   0.042   4.189
 3764SOL    HW112191   2.154   0.127   4.212
 3764SOL    HW212192   2.099   0.033   4.090
 3765SOL     OW12193   6.364   0.979   3.416
 3765SOL    HW112194   6.393   0.952   3.508
 3765SOL    HW212195   6.266   0.996   3.416
 3766SOL     OW12196   2.068   1.402   5.164
 3766SOL    HW112197   2.079   1.485   5.110
 3766SOL    HW212198   2.146   1.341   5.148
 3767SOL     OW12199   0.045   4.648   0.694
 3767SOL    HW112200   0.123   4.604   0.649
 3767SOL    HW212201   0.063   4.655   0.792
 3768SOL     OW12202   4.664   6.355   1.132
 3768SOL    HW112203   4.695   6.270   1.088
 3768SOL    HW212204   4.722   6.430   1.104
 3769SOL     OW12205   4.172   6.595   4.553
 3769SOL    HW112206   4.232   6.667   4.519
 3769SOL    HW212207   4.217   6.546   4.627
 3770SOL     OW12208   2.017   2.831   0.232
 3770SOL    HW112209   1.994   2.764   0.303
 3770SOL    HW212210   2.116   2.838   0.224
 3771SOL     OW12211   4.245   1.343   5.796
 3771SOL    HW112212   4.298   1.320   5.878
 3771SOL    HW212213   4.307   1.363   5.721
 3772SOL     OW12214   4.820   0.681   2.673
 3772SOL    HW112215   4.733   0.635   2.656
 3772SOL    HW212216   4.844   0.673   2.770
 3773SOL     OW12217   6.464   2.960   0.696
 3773SOL    HW112218   6.490   2.864   0.698
 3773SOL    HW212219   6.519   3.007   0.627
 3774SOL     OW12220   1.385   1.713   1.965
 3774SOL    HW112221   1.377   1.736   1.868
 3774SOL    HW212222   1.297   1.679   1.999
 3775SOL     OW12223   5.240   2.717   3.463
 3775SOL    HW112224   5.318   2.775   3.488
 3775SOL    HW212225   5.186   2.763   3.392
 3776SOL     OW12226   2.809   1.795   6.930
 3776SOL    HW112227   2.725   1.810   6.981
 3776SOL    HW212228   2.868   1.731   6.980
 3777SOL     OW12229   1.272   4.137   3.106
 3777SOL    HW112230   1.211   4.058   3.107
 3777SOL    HW212231   1.325   4.140   3.190
 3778SOL     OW12232   1.621   0.513   2.183
 3778SOL    HW112233   1.711   0.541   2.218
 3778SOL    HW212234   1.585   0.585   2.123
 3779SOL     OW12235   1.954   5.242   6.967
 3779SOL    HW112236   2.023   5.201   6.908
 3779SOL    HW212237   1.863   5.209   6.941
 3780SOL     OW12238   2.362   6.873   4.146
 3780SOL    HW112239   2.306   6.952   4.171
 3780SOL    HW212240   2.435   6.863   4.214
 3781SOL     OW12241   2.833   5.345   4.666
 3781SOL    HW112242   2.858   5.330   4.570
 3781SOL    HW212243   2.765   5.417   4.672
 3782SOL     OW12244   2.474   1.202   2.486
 3782SOL    HW112245   2.564   1.186   2.525
 3782SOL    HW212246   2.481   1.265   2.409
 3783SOL     OW12247   5.188   5.048   4.682
 3783SOL    HW112248   5.120   4.975   4.686
 3783SOL    HW212249   5.166   5.110   4.607
 3784SOL     OW12250   4.797   2.129   4.549
 3784SOL    HW112251   4.795   2.221   4.510
 3784SOL    HW212252   4.738   2.125   4.629
 3785SOL     OW12253   1.001   0.407   1.902
 3785SOL    HW112254   0.955   0.345   1.839
 3785SOL    HW212255   1.039   0.356   1.978
 3786SOL     OW12256   2.666   6.306   1.933
 3786SOL    HW112257   2.650   6.270   1.841
 3786SOL    HW212258   2.581   6.306   1.984
 3787SOL     OW12259   4.884   1.094   4.134
 3787SOL    HW112260   4.878   1.142   4.221
 3787SOL    HW212261   4.866   1.159   4.059
 3788SOL     OW12262   6.454   3.264   2.573
 3788SOL    HW112263   6.467   3.291   2.478
 3788SOL    HW212264   6.519   3.314   2.632
 3789SOL     OW12265   1.496   5.097   2.069
 3789SOL    HW112266   1.551   5.069   2.148
 3789SOL    HW212267   1.403   5.063   2.079
 3790SOL     OW12268   2.094   3.239   3.041
 3790SOL    HW112269   2.138   3.200   3.122
 3790SOL    HW212270   2.096   3.339   3.048
 3791SOL     OW12271   6.250   0.517   2.729
 3791SOL    HW112272   6.337   0.507   2.779
 3791SOL    HW212273   6.239   0.613   2.702
 3792SOL     OW12274   1.004   5.921   6.651
 3792SOL    HW112275   1.063   5.979   6.707
 3792SOL    HW212276   1.031   5.930   6.555
 3793SOL     OW12277   0.680   5.320   2.455
 3793SOL    HW112278   0.756   5.374   2.490
 3793SOL    HW212279   0.619   5.378   2.401
 3794SOL     OW12280   4.681   0.178   4.070
 3794SOL    HW112281   4.709   0.244   4.140
 3794SOL    HW212282   4.598   0.212   4.024
 3795SOL     OW12283   5.559   0.502   0.366
 3795SOL    HW112284   5.522   0.426   0.421
 3795SOL    HW212285   5.499   0.518   0.288
 3796SOL     OW12286   6.943   2.901   0.992
 3796SOL    HW112287   0.008   2.955   0.966
 3796SOL    HW212288   6.972   2.821   1.045
 3797SOL     OW12289   0.272   5.424   2.533
 3797SOL    HW112290   0.180   5.459   2.512
 3797SOL    HW212291   0.325   5.418   2.449
 3798SOL     OW12292   1.142   4.220   0.747
 3798SOL    HW112293   1.142   4.142   0.809
 3798SOL    HW212294   1.071   4.208   0.677
 3799SOL     OW12295   1.652   0.552   5.582
 3799SOL    HW112296   1.641   0.548   5.681
 3799SOL    HW212297   1.695   0.468   5.550
 3800SOL     OW12298   5.281   2.495   5.118
 3800SOL    HW112299   5.255   2.398   5.118
 3800SOL    HW212300   5.235   2.541   5.042
 3801SOL     OW12301   6.932   0.116   5.958
 3801SOL    HW112302   6.848   0.075   5.921
 3801SOL    HW212303   7.011   0.060   5.932
 3802SOL     OW12304   1.803   2.656   5.205
 3802SOL    HW112305   1.711   2.693   5.192
 3802SOL    HW212306   1.835   2.679   5.297
 3803SOL     OW12307   4.050   1.368   1.267
 3803SOL    HW112308   4.133   1.347   1.215
 3803SOL    HW212309   4.017   1.459   1.241
 3804SOL     OW12310   4.994   3.494   5.106
 3804SOL    HW112311   5.024   3.546   5.185
 3804SOL    HW212312   4.924   3.545   5.056
 3805SOL     OW12313   1.849   3.635   1.405
 3805SOL    HW112314   1.912   3.563   1.374
 3805SOL    HW212315   1.899   3.721   1.415
 3806SOL     OW12316   3.735   0.968   0.177
 3806SOL    HW112317   3.810   0.902   0.169
 3806SOL    HW212318   3.720   0.990   0.274
 3807SOL     OW12319   1.382   0.130   2.840
 3807SOL    HW112320   1.304   0.070   2.822
 3807SOL    HW212321   1.452   0.079   2.891
 3808SOL     OW12322   3.960   1.014   0.382
 3808SOL    HW112323   3.976   1.063   0.468
 3808SOL    HW212324   3.959   0.916   0.400
 3809SOL     OW12325   4.250   0.852   0.462
 3809SOL    HW112326   4.262   0.789   0.539
 3809SOL    HW212327   4.289   0.941   0.485
 3810SOL     OW12328   1.798   3.844   6.715
 3810SOL    HW112329   1.823   3.837   6.619
 3810SOL    HW212330   1.880   3.852   6.771
 3811SOL     OW12331   0.336   0.345   6.681
 3811SOL    HW112332   0.337   0.417   6.750
 3811SOL    HW212333   0.365   0.383   6.593
 3812SOL     OW12334   5.021   1.017   5.650
 3812SOL    HW112335   4.982   1.062   5.730
 3812SOL    HW212336   4.972   1.047   5.568
 3813SOL     OW12337   3.535   4.897   2.367
 3813SOL    HW112338   3.473   4.908   2.289
 3813SOL    HW212339   3.481   4.879   2.449
 3814SOL     OW12340   2.415   0.904   1.494
 3814SOL    HW112341   2.449   0.886   1.586
 3814SOL    HW212342   2.315   0.904   1.495
 3815SOL     OW12343   5.224   1.976   1.811
 3815SOL    HW112344   5.182   1.959   1.722
 3815SOL    HW212345   5.318   2.007   1.799
 3816SOL     OW12346   0.320   6.409   0.209
 3816SOL    HW112347   0.325   6.373   0.302
 3816SOL    HW212348   0.393   6.369   0.153
 3817SOL     OW12349   5.266   1.941   5.107
 3817SOL    HW112350   5.301   1.917   5.198
 3817SOL    HW212351   5.335   1.919   5.038
 3818SOL     OW12352   4.058   5.457   2.629
 3818SOL    HW112353   4.034   5.436   2.724
 3818SOL    HW212354   4.104   5.378   2.588
 3819SOL     OW12355   5.757   4.012   6.150
 3819SOL    HW112356   5.775   3.946   6.222
 3819SOL    HW212357   5.663   4.046   6.159
 3820SOL     OW12358   4.477   6.415   3.338
 3820SOL    HW112359   4.555   6.436   3.398
 3820SOL    HW212360   4.409   6.487   3.346
 3821SOL     OW12361   0.279   5.019   1.342
 3821SOL    HW112362   0.328   4.943   1.385
 3821SOL    HW212363   0.270   5.094   1.407
 3822SOL     OW12364   0.735   4.218   1.080
 3822SOL    HW112365   0.724   4.155   1.003
 3822SOL    HW212366   0.832   4.234   1.097
 3823SOL     OW12367   2.875   3.513   5.521
 3823SOL    HW112368   2.868   3.522   5.421
 3823SOL    HW212369   2.847   3.598   5.564
 3824SOL     OW12370   0.458   2.175   6.121
 3824SOL    HW112371   0.439   2.272   6.136
 3824SOL    HW212372   0.403   2.142   6.045
 3825SOL     OW12373   0.488   6.308   6.273
 3825SOL    HW112374   0.539   6.386   6.236
 3825SOL    HW212375   0.391   6.320   6.256
 3826SOL     OW12376   6.910   1.730   1.535
 3826SOL    HW112377   6.846   1.690   1.470
 3826SOL    HW212378   6.920   1.669   1.614
 3827SOL     OW12379   5.492   1.557   1.937
 3827SOL    HW112380   5.417   1.516   1.885
 3827SOL    HW212381   5.470   1.652   1.959
 3828SOL     OW12382   3.996   1.097   1.692
 3828SOL    HW112383   3.917   1.151   1.663
 3828SOL    HW212384   4.069   1.158   1.722
 3829SOL     OW12385   0.749   5.174   3.826
 3829SOL    HW112386   0.766   5.190   3.923
 3829SOL    HW212387   0.693   5.248   3.789
 3830SOL     OW12388   2.939   0.735   5.272
 3830SOL    HW112389   2.840   0.720   5.269
 3830SOL    HW212390   2.972   0.756   5.180
 3831SOL     OW12391   4.819   1.798   2.109
 3831SOL    HW112392   4.730   1.784   2.151
 3831SOL    HW212393   4.842   1.720   2.051
 3832SOL     OW12394   5.786   6.853   2.048
 3832SOL    HW112395   5.744   6.772   2.088
 3832SOL    HW212396   5.859   6.886   2.108
 3833SOL     OW12397   1.585   6.396   2.329
 3833SOL    HW112398   1.621   6.442   2.248
 3833SOL    HW212399   1.660   6.377   2.393
 3834SOL     OW12400   2.660   3.142   0.586
 3834SOL    HW112401   2.722   3.070   0.618
 3834SOL    HW212402   2.711   3.207   0.529
 3835SOL     OW12403   3.442   5.292   2.870
 3835SOL    HW112404   3.444   5.236   2.953
 3835SOL    HW212405   3.464   5.234   2.791
 3836SOL     OW12406   1.207   2.841   5.950
 3836SOL    HW112407   1.301   2.812   5.968
 3836SOL    HW212408   1.204   2.895   5.866
 3837SOL     OW12409   3.201   4.335   0.068
 3837SOL    HW112410   3.282   4.336   0.011
 3837SOL    HW212411   3.164   4.242   0.073
 3838SOL     OW12412   6.297   3.736   4.652
 3838SOL    HW112413   6.229   3.738   4.725
 3838SOL    HW212414   6.283   3.654   4.597
 3839SOL     OW12415   1.104   6.002   6.415
 3839SOL    HW112416   1.024   6.041   6.369
 3839SOL    HW212417   1.187   6.040   6.375
 3840SOL     OW12418   2.604   1.895   3.508
 3840SOL    HW112419   2.532   1.827   3.522
 3840SOL    HW212420   2.640   1.886   3.415
 3841SOL     OW12421   0.804   3.202   3.750
 3841SOL    HW112422   0.706   3.216   3.737
 3841SOL    HW212423   0.822   3.178   3.846
 3842SOL     OW12424   1.720   5.208   6.841
 3842SOL    HW112425   1.631   5.230   6.879
 3842SOL    HW212426   1.726   5.110   6.823
 3843SOL     OW12427   6.000   4.276   0.020
 3843SOL    HW112428   6.025   4.207   6.967
 3843SOL    HW212429   6.034   4.365   7.006
 3844SOL     OW12430   2.442   4.534   5.489
 3844SOL    HW112431   2.517   4.553   5.425
 3844SOL    HW212432   2.371   4.482   5.443
 3845SOL     OW12433   3.261   3.333   4.094
 3845SOL    HW112434   3.226   3.357   4.185
 3845SOL    HW212435   3.242   3.237   4.075
 3846SOL     OW12436   0.053   4.577   4.772
 3846SOL    HW112437   0.118   4.546   4.702
 3846SOL    HW212438   0.086   4.547   4.862
 3847SOL     OW12439   1.200   0.179   0.704
 3847SOL    HW112440   1.230   0.255   0.647
 3847SOL    HW212441   1.273   0.111   0.711
 3848SOL     OW12442   3.099   6.373   1.793
 3848SOL    HW112443   3.046   6.395   1.875
 3848SOL    HW212444   3.129   6.458   1.749
 3849SOL     OW12445   2.829   1.730   5.753
 3849SOL    HW112446   2.744   1.734   5.805
 3849SOL    HW212447   2.819   1.668   5.676
 3850SOL     OW12448   1.551   3.611   1.313
 3850SOL    HW112449   1.639   3.563   1.315
 3850SOL    HW212450   1.490   3.571   1.381
 3851SOL     OW12451   2.476   2.800   1.100
 3851SOL    HW112452   2.544   2.868   1.125
 3851SOL    HW212453   2.470   2.731   1.173
 3852SOL     OW12454   4.924   1.638   5.413
 3852SOL    HW112455   4.961   1.563   5.468
 3852SOL    HW212456   4.979   1.649   5.330
 3853SOL     OW12457   0.586   4.128   1.972
 3853SOL    HW112458   0.648   4.206   1.964
 3853SOL    HW212459   0.564   4.094   1.881
 3854SOL     OW12460   1.564   3.517   4.425
 3854SOL    HW112461   1.578   3.603   4.376
 3854SOL    HW212462   1.586   3.440   4.365
 3855SOL     OW12463   0.078   1.488   5.235
 3855SOL    HW112464   7.002   1.463   5.267
 3855SOL    HW212465   0.099   1.439   5.151
 3856SOL     OW12466   1.538   6.334   6.112
 3856SOL    HW112467   1.455   6.330   6.168
 3856SOL    HW212468   1.521   6.290   6.024
 3857SOL     OW12469   0.951   0.043   6.702
 3857SOL    HW112470   1.010   7.005   6.764
 3857SOL    HW212471   0.884   0.094   6.756
 3858SOL     OW12472   3.645   4.381   0.043
 3858SOL    HW112473   3.579   4.306   0.031
 3858SOL    HW212474   3.604   4.467   0.014
 3859SOL     OW12475   6.177   2.553   2.394
 3859SOL    HW112476   6.214   2.630   2.445
 3859SOL    HW212477   6.223   2.469   2.423
 3860SOL     OW12478   2.538   5.862   4.648
 3860SOL    HW112479   2.635   5.863   4.672
 3860SOL    HW212480   2.526   5.822   4.557
 3861SOL     OW12481   3.255   4.321   6.764
 3861SOL    HW112482   3.157   4.302   6.764
 3861SOL    HW212483   3.283   4.352   6.673
 3862SOL     OW12484   1.181   5.827   5.975
 3862SOL    HW112485   1.274   5.832   6.012
 3862SOL    HW212486   1.166   5.738   5.933
 3863SOL     OW12487   2.464   3.217   0.269
 3863SOL    HW112488   2.506   3.149   0.208
 3863SOL    HW212489   2.469   3.185   0.363
 3864SOL     OW12490   3.241   2.261   1.072
 3864SOL    HW112491   3.335   2.255   1.106
 3864SOL    HW212492   3.179   2.282   1.148
 3865SOL     OW12493   4.060   0.760   2.732
 3865SOL    HW112494   4.106   0.683   2.685
 3865SOL    HW212495   4.021   0.821   2.663
 3866SOL     OW12496   3.841   6.562   6.845
 3866SOL    HW112497   3.771   6.607   6.791
 3866SOL    HW212498   3.868   6.477   6.800
 3867SOL     OW12499   1.965   4.974   3.137
 3867SOL    HW112500   1.947   5.070   3.116
 3867SOL    HW212501   1.924   4.916   3.066
 3868SOL     OW12502   1.880   5.795   3.053
 3868SOL    HW112503   1.970   5.761   3.026
 3868SOL    HW212504   1.875   5.799   3.153
 3869SOL     OW12505   0.573   1.689   3.917
 3869SOL    HW112506   0.495   1.750   3.902
 3869SOL    HW212507   0.562   1.642   4.005
 3870SOL     OW12508   3.489   3.718   0.235
 3870SOL    HW112509   3.390   3.712   0.250
 3870SOL    HW212510   3.536   3.660   0.301
 3871SOL     OW12511   3.170   0.849   4.417
 3871SOL    HW112512   3.106   0.866   4.341
 3871SOL    HW212513   3.263   0.872   4.387
 3872SOL     OW12514   4.500   4.026   0.746
 3872SOL    HW112515   4.594   3.994   0.735
 3872SOL    HW212516   4.477   4.028   0.844
 3873SOL     OW12517   6.229   4.481   1.808
 3873SOL    HW112518   6.192   4.395   1.772
 3873SOL    HW212519   6.188   4.558   1.761
 3874SOL     OW12520   5.292   6.363   6.047
 3874SOL    HW112521   5.330   6.271   6.056
 3874SOL    HW212522   5.336   6.409   5.969
 3875SOL     OW12523   2.704   3.635   0.122
 3875SOL    HW112524   2.794   3.673   0.101
 3875SOL    HW212525   2.654   3.697   0.183
 3876SOL     OW12526   6.091   3.828   2.536
 3876SOL    HW112527   6.022   3.760   2.511
 3876SOL    HW212528   6.054   3.888   2.607
 3877SOL     OW12529   4.261   1.866   2.082
 3877SOL    HW112530   4.204   1.853   2.163
 3877SOL    HW212531   4.214   1.828   2.002
 3878SOL     OW12532   4.822   5.761   4.655
 3878SOL    HW112533   4.852   5.851   4.687
 3878SOL    HW212534   4.734   5.737   4.698
 3879SOL     OW12535   2.609   6.020   0.611
 3879SOL    HW112536   2.590   5.972   0.526
 3879SOL    HW212537   2.695   5.987   0.650
 3880SOL     OW12538   6.292   1.411   4.058
 3880SOL    HW112539   6.346   1.471   4.000
 3880SOL    HW212540   6.195   1.436   4.053
 3881SOL     OW12541   0.100   5.460   6.085
 3881SOL    HW112542   0.062   5.438   6.175
 3881SOL    HW212543   0.157   5.542   6.093
 3882SOL     OW12544   6.892   6.594   6.303
 3882SOL    HW112545   6.905   6.595   6.204
 3882SOL    HW212546   6.914   6.684   6.341
 3883SOL     OW12547   3.824   2.136   6.978
 3883SOL    HW112548   3.760   2.176   0.028
 3883SOL    HW212549   3.787   2.144   6.886
 3884SOL     OW12550   2.781   5.554   5.853
 3884SOL    HW112551   2.864   5.539   5.906
 3884SOL    HW212552   2.793   5.516   5.761
 3885SOL     OW12553   6.864   0.448   3.891
 3885SOL    HW112554   6.956   0.411   3.873
 3885SOL    HW212555   6.860   0.480   3.986
 3886SOL     OW12556   6.812   6.101   4.737
 3886SOL    HW112557   6.835   6.163   4.812
 3886SOL    HW212558   6.833   6.146   4.650
 3887SOL     OW12559   6.544   3.096   4.887
 3887SOL    HW112560   6.608   3.030   4.927
 3887SOL    HW212561   6.594   3.159   4.827
 3888SOL     OW12562   5.343   0.926   2.802
 3888SOL    HW112563   5.312   0.875   2.882
 3888SOL    HW212564   5.268   0.934   2.736
 3889SOL     OW12565   6.718   5.345   6.486
 3889SOL    HW112566   6.750   5.418   6.546
 3889SOL    HW212567   6.638   5.376   6.435
 3890SOL     OW12568   6.096   3.438   3.011
 3890SOL    HW112569   6.155   3.442   2.931
 3890SOL    HW212570   6.003   3.462   2.985
 3891SOL     OW12571   4.459   4.223   5.649
 3891SOL    HW112572   4.435   4.136   5.692
 3891SOL    HW212573   4.500   4.206   5.559
 3892SOL     OW12574   5.361   5.727   3.767
 3892SOL    HW112575   5.347   5.793   3.841
 3892SOL    HW212576   5.361   5.634   3.803
 3893SOL     OW12577   2.709   6.460   4.465
 3893SOL    HW112578   2.693   6.471   4.367
 3893SOL    HW212579   2.645   6.393   4.502
 3894SOL     OW12580   5.952   5.399   6.573
 3894SOL    HW112581   5.940   5.403   6.473
 3894SOL    HW212582   5.895   5.326   6.610
 3895SOL     OW12583   1.435   2.351   6.199
 3895SOL    HW112584   1.448   2.353   6.299
 3895SOL    HW212585   1.347   2.309   6.178
 3896SOL     OW12586   6.253   2.385   0.336
 3896SOL    HW112587   6.301   2.473   0.335
 3896SOL    HW212588   6.286   2.329   0.412
 3897SOL     OW12589   2.829   6.895   2.916
 3897SOL    HW112590   2.839   6.941   3.004
 3897SOL    HW212591   2.891   6.937   2.850
 3898SOL     OW12592   3.271   4.085   3.948
 3898SOL    HW112593   3.358   4.134   3.944
 3898SOL    HW212594   3.229   4.085   3.857
 3899SOL     OW12595   5.053   2.195   6.634
 3899SOL    HW112596   5.141   2.178   6.589
 3899SOL    HW212597   5.068   2.253   6.714
 3900SOL     OW12598   0.867   2.542   3.481
 3900SOL    HW112599   0.851   2.611   3.552
 3900SOL    HW212600   0.784   2.487   3.469
 3901SOL     OW12601   3.558   6.367   5.095
 3901SOL    HW112602   3.548   6.307   5.016
 3901SOL    HW212603   3.549   6.463   5.066
 3902SOL     OW12604   3.445   5.625   3.078
 3902SOL    HW112605   3.419   5.624   3.174
 3902SOL    HW212606   3.508   5.701   3.061
 3903SOL     OW12607   3.329   4.030   6.437
 3903SOL    HW112608   3.288   3.943   6.464
 3903SOL    HW212609   3.281   4.067   6.357
 3904SOL     OW12610   2.837   6.362   0.006
 3904SOL    HW112611   2.865   6.282   0.059
 3904SOL    HW212612   2.834   6.442   0.065
 3905SOL     OW12613   4.053   0.424   5.335
 3905SOL    HW112614   4.052   0.424   5.435
 3905SOL    HW212615   4.041   0.330   5.302
 3906SOL     OW12616   6.326   5.815   4.007
 3906SOL    HW112617   6.362   5.871   3.933
 3906SOL    HW212618   6.233   5.843   4.028
 3907SOL     OW12619   0.677   1.614   4.570
 3907SOL    HW112620   0.633   1.670   4.499
 3907SOL    HW212621   0.612   1.593   4.642
 3908SOL     OW12622   2.173   1.689   4.513
 3908SOL    HW112623   2.127   1.612   4.556
 3908SOL    HW212624   2.164   1.770   4.571
 3909SOL     OW12625   5.900   3.391   2.121
 3909SOL    HW112626   5.897   3.328   2.199
 3909SOL    HW212627   5.869   3.481   2.149
 3910SOL     OW12628   2.018   2.353   1.032
 3910SOL    HW112629   1.989   2.356   1.128
 3910SOL    HW212630   2.118   2.343   1.028
 3911SOL     OW12631   6.158   1.134   1.219
 3911SOL    HW112632   6.149   1.051   1.274
 3911SOL    HW212633   6.115   1.119   1.130
 3912SOL     OW12634   5.085   4.068   0.414
 3912SOL    HW112635   5.003   4.108   0.454
 3912SOL    HW212636   5.084   3.969   0.427
 3913SOL     OW12637   3.973   4.582   1.459
 3913SOL    HW112638   3.951   4.542   1.371
 3913SOL    HW212639   3.944   4.521   1.533
 3914SOL     OW12640   0.461   0.752   0.661
 3914SOL    HW112641   0.458   0.825   0.592
 3914SOL    HW212642   0.537   0.768   0.724
 3915SOL     OW12643   5.281   0.625   5.014
 3915SOL    HW112644   5.213   0.566   5.057
 3915SOL    HW212645   5.279   0.612   4.915
 3916SOL     OW12646   2.043   2.558   2.374
 3916SOL    HW112647   2.037   2.622   2.298
 3916SOL    HW212648   1.951   2.537   2.407
 3917SOL     OW12649   4.216   5.634   2.312
 3917SOL    HW112650   4.308   5.595   2.305
 3917SOL    HW212651   4.150   5.574   2.267
 3918SOL     OW12652   3.865   6.772   1.222
 3918SOL    HW112653   3.879   6.713   1.302
 3918SOL    HW212654   3.785   6.830   1.237
 3919SOL     OW12655   5.153   5.305   3.334
 3919SOL    HW112656   5.105   5.380   3.287
 3919SOL    HW212657   5.244   5.336   3.362
 3920SOL     OW12658   4.606   1.308   6.335
 3920SOL    HW112659   4.519   1.347   6.362
 3920SOL    HW212660   4.680   1.370   6.361
 3921SOL     OW12661   0.765   3.310   6.149
 3921SOL    HW112662   0.847   3.253   6.146
 3921SOL    HW212663   0.745   3.343   6.057
 3922SOL     OW12664   5.510   2.295   4.008
 3922SOL    HW112665   5.568   2.214   3.997
 3922SOL    HW212666   5.438   2.294   3.939
 3923SOL     OW12667   5.330   1.178   1.021
 3923SOL    HW112668   5.402   1.109   1.027
 3923SOL    HW212669   5.246   1.135   0.990
 3924SOL     OW12670   5.348   5.211   3.692
 3924SOL    HW112671   5.282   5.164   3.634
 3924SOL    HW212672   5.321   5.202   3.788
 3925SOL     OW12673   3.561   4.377   1.703
 3925SOL    HW112674   3.569   4.475   1.722
 3925SOL    HW212675   3.591   4.326   1.784
 3926SOL     OW12676   1.423   5.745   5.272
 3926SOL    HW112677   1.457   5.680   5.340
 3926SOL    HW212678   1.500   5.784   5.222
 3927SOL     OW12679   6.283   6.684   5.357
 3927SOL    HW112680   6.264   6.587   5.371
 3927SOL    HW212681   6.334   6.696   5.272
 3928SOL     OW12682   4.566   5.549   2.872
 3928SOL    HW112683   4.533   5.496   2.794
 3928SOL    HW212684   4.619   5.628   2.839
 3929SOL     OW12685   1.916   1.397   5.382
 3929SOL    HW112686   1.981   1.413   5.308
 3929SOL    HW212687   1.824   1.382   5.344
 3930SOL     OW12688   2.526   5.344   4.133
 3930SOL    HW112689   2.549   5.266   4.076
 3930SOL    HW212690   2.443   5.324   4.185
 3931SOL     OW12691   0.472   2.340   0.542
 3931SOL    HW112692   0.408   2.273   0.506
 3931SOL    HW212693   0.457   2.351   0.640
 3932SOL     OW12694   1.846   4.221   2.652
 3932SOL    HW112695   1.748   4.240   2.645
 3932SOL    HW212696   1.873   4.160   2.578
 3933SOL     OW12697   1.456   6.705   1.507
 3933SOL    HW112698   1.532   6.764   1.535
 3933SOL    HW212699   1.431   6.725   1.412
 3934SOL     OW12700   1.939   6.926   2.101
 3934SOL    HW112701   1.966   6.978   2.182
 3934SOL    HW212702   2.020   6.907   2.045
 3935SOL     OW12703   0.112   0.708   5.300
 3935SOL    HW112704   0.099   0.695   5.202
 3935SOL    HW212705   0.076   0.798   5.326
 3936SOL     OW12706   6.292   4.448   3.747
 3936SOL    HW112707   6.266   4.545   3.739
 3936SOL    HW212708   6.391   4.441   3.762
 3937SOL     OW12709   1.297   6.250   0.096
 3937SOL    HW112710   1.204   6.261   0.130
 3937SOL    HW212711   1.350   6.332   0.118
 3938SOL     OW12712   0.379   4.316   6.536
 3938SOL    HW112713   0.306   4.348   6.596
 3938SOL    HW212714   0.430   4.242   6.581
 3939SOL     OW12715   2.402   6.277   4.174
 3939SOL    HW112716   2.386   6.256   4.078
 3939SOL    HW212717   2.483   6.335   4.183
 3940SOL     OW12718   2.783   6.475   6.769
 3940SOL    HW112719   2.730   6.560   6.774
 3940SOL    HW212720   2.806   6.445   6.862
 3941SOL     OW12721   5.716   5.388   2.328
 3941SOL    HW112722   5.756   5.436   2.250
 3941SOL    HW212723   5.658   5.452   2.379
 3942SOL     OW12724   0.434   6.385   6.833
 3942SOL    HW112725   0.464   6.298   6.794
 3942SOL    HW212726   0.434   6.456   6.762
 3943SOL     OW12727   0.780   5.065   0.549
 3943SOL    HW112728   0.746   5.113   0.630
 3943SOL    HW212729   0.707   5.008   0.512
 3944SOL     OW12730   4.608   2.927   0.819
 3944SOL    HW112731   4.651   3.003   0.772
 3944SOL    HW212732   4.511   2.948   0.836
 3945SOL     OW12733   6.865   0.780   2.964
 3945SOL    HW112734   6.958   0.766   2.932
 3945SOL    HW212735   6.811   0.696   2.949
 3946SOL     OW12736   5.886   1.774   1.363
 3946SOL    HW112737   5.836   1.838   1.420
 3946SOL    HW212738   5.826   1.699   1.334
 3947SOL     OW12739   5.442   0.046   1.777
 3947SOL    HW112740   5.518   6.997   1.789
 3947SOL    HW212741   5.419   0.051   1.680
 3948SOL     OW12742   1.866   1.455   4.320
 3948SOL    HW112743   1.866   1.449   4.220
 3948SOL    HW212744   1.811   1.534   4.348
 3949SOL     OW12745   6.235   7.004   2.499
 3949SOL    HW112746   6.203   0.045   2.423
 3949SOL    HW212747   6.330   6.977   2.483
 3950SOL     OW12748   1.984   5.053   1.768
 3950SOL    HW112749   2.002   5.000   1.685
 3950SOL    HW212750   1.905   5.113   1.753
 3951SOL     OW12751   6.873   2.351   3.977
 3951SOL    HW112752   6.823   2.331   4.062
 3951SOL    HW212753   6.843   2.289   3.905
 3952SOL     OW12754   5.737   4.833   6.626
 3952SOL    HW112755   5.824   4.798   6.590
 3952SOL    HW212756   5.736   4.933   6.617
 3953SOL     OW12757   3.724   3.432   5.282
 3953SOL    HW112758   3.697   3.382   5.364
 3953SOL    HW212759   3.688   3.385   5.201
 3954SOL     OW12760   0.865   4.394   5.348
 3954SOL    HW112761   0.828   4.307   5.318
 3954SOL    HW212762   0.799   4.440   5.408
 3955SOL     OW12763   5.789   3.384   0.136
 3955SOL    HW112764   5.855   3.351   0.069
 3955SOL    HW212765   5.747   3.469   0.103
 3956SOL     OW12766   6.565   3.077   5.284
 3956SOL    HW112767   6.503   3.148   5.319
 3956SOL    HW212768   6.624   3.046   5.359
 3957SOL     OW12769   1.977   2.844   1.918
 3957SOL    HW112770   1.940   2.814   1.830
 3957SOL    HW212771   2.075   2.827   1.922
 3958SOL     OW12772   5.764   5.620   1.253
 3958SOL    HW112773   5.714   5.540   1.284
 3958SOL    HW212774   5.836   5.643   1.318
 3959SOL     OW12775   3.150   5.022   1.109
 3959SOL    HW112776   3.243   4.986   1.117
 3959SOL    HW212777   3.154   5.117   1.079
 3960SOL     OW12778   5.943   3.067   1.084
 3960SOL    HW112779   6.002   3.079   1.164
 3960SOL    HW212780   5.999   3.042   1.005
 3961SOL     OW12781   6.934   1.312   1.117
 3961SOL    HW112782   6.868   1.241   1.143
 3961SOL    HW212783   0.011   1.275   1.123
 3962SOL     OW12784   0.220   6.640   6.544
 3962SOL    HW112785   0.136   6.594   6.571
 3962SOL    HW212786   0.220   6.655   6.445
 3963SOL     OW12787   5.258   3.854   4.551
 3963SOL    HW112788   5.244   3.843   4.649
 3963SOL    HW212789   5.336   3.914   4.535
 3964SOL     OW12790   5.592   4.260   6.557
 3964SOL    HW112791   5.501   4.238   6.593
 3964SOL    HW212792   5.660   4.201   6.600
 3965SOL     OW12793   2.296   4.199   1.318
 3965SOL    HW112794   2.272   4.283   1.367
 3965SOL    HW212795   2.291   4.215   1.219
 3966SOL     OW12796   6.897   2.872   5.369
 3966SOL    HW112797   6.911   2.925   5.286
 3966SOL    HW212798   6.935   2.780   5.356
 3967SOL     OW12799   2.036   0.612   0.043
 3967SOL    HW112800   2.063   0.523   0.081
 3967SOL    HW212801   1.985   0.663   0.112
 3968SOL     OW12802   4.156   2.817   0.830
 3968SOL    HW112803   4.192   2.781   0.744
 3968SOL    HW212804   4.158   2.744   0.899
 3969SOL     OW12805   5.902   6.263   0.918
 3969SOL    HW112806   5.918   6.308   0.830
 3969SOL    HW212807   5.804   6.251   0.931
 3970SOL     OW12808   5.752   4.300   4.141
 3970SOL    HW112809   5.752   4.397   4.165
 3970SOL    HW212810   5.830   4.280   4.081
 3971SOL     OW12811   0.089   5.893   4.129
 3971SOL    HW112812   0.120   5.813   4.180
 3971SOL    HW212813   0.002   5.926   4.168
 3972SOL     OW12814   0.836   0.680   6.645
 3972SOL    HW112815   0.855   0.599   6.589
 3972SOL    HW212816   0.918   0.705   6.696
 3973SOL     OW12817   3.940   3.064   2.000
 3973SOL    HW112818   3.932   3.026   1.908
 3973SOL    HW212819   3.912   3.160   1.999
 3974SOL     OW12820   5.336   1.085   6.828
 3974SOL    HW112821   5.293   1.027   6.758
 3974SOL    HW212822   5.286   1.076   6.914
 3975SOL     OW12823   6.840   5.948   4.212
 3975SOL    HW112824   6.819   5.858   4.252
 3975SOL    HW212825   6.787   6.018   4.260
 3976SOL     OW12826   0.914   2.837   5.731
 3976SOL    HW112827   0.907   2.750   5.781
 3976SOL    HW212828   0.838   2.897   5.758
 3977SOL     OW12829   2.517   4.878   5.894
 3977SOL    HW112830   2.541   4.974   5.905
 3977SOL    HW212831   2.600   4.822   5.895
 3978SOL     OW12832   4.783   2.508   5.871
 3978SOL    HW112833   4.830   2.568   5.807
 3978SOL    HW212834   4.847   2.441   5.907
 3979SOL     OW12835   1.049   5.267   2.814
 3979SOL    HW112836   1.071   5.202   2.887
 3979SOL    HW212837   0.960   5.243   2.775
 3980SOL     OW12838   5.210   4.269   4.341
 3980SOL    HW112839   5.267   4.231   4.268
 3980SOL    HW212840   5.258   4.261   4.428
 3981SOL     OW12841   0.076   0.923   6.497
 3981SOL    HW112842   7.008   0.977   6.512
 3981SOL    HW212843   0.127   0.961   6.421
 3982SOL     OW12844   2.037   2.979   4.641
 3982SOL    HW112845   2.110   2.944   4.699
 3982SOL    HW212846   2.038   2.932   4.553
 3983SOL     OW12847   3.201   0.463   3.803
 3983SOL    HW112848   3.266   0.535   3.825
 3983SOL    HW212849   3.245   0.374   3.815
 3984SOL     OW12850   1.488   5.819   2.013
 3984SOL    HW112851   1.457   5.894   1.955
 3984SOL    HW212852   1.512   5.854   2.103
 3985SOL     OW12853   1.579   2.925   1.953
 3985SOL    HW112854   1.524   2.898   2.032
 3985SOL    HW212855   1.662   2.972   1.984
 3986SOL     OW12856   0.398   1.792   3.254
 3986SOL    HW112857   0.324   1.806   3.190
 3986SOL    HW212858   0.481   1.765   3.205
 3987SOL     OW12859   0.588   3.991   5.483
 3987SOL    HW112860   0.595   3.951   5.574
 3987SOL    HW212861   0.494   3.986   5.451
 3988SOL     OW12862   5.318   6.945   2.057
 3988SOL    HW112863   5.366   0.007   2.015
 3988SOL    HW212864   5.313   6.869   1.992
 3989SOL     OW12865   4.427   0.345   5.598
 3989SOL    HW112866   4.366   0.404   5.651
 3989SOL    HW212867   4.495   0.305   5.659
 3990SOL     OW12868   5.941   0.623   4.115
 3990SOL    HW112869   5.934   0.567   4.032
 3990SOL    HW212870   6.028   0.605   4.161
 3991SOL     OW12871   6.264   2.074   3.512
 3991SOL    HW112872   6.176   2.077   3.561
 3991SOL    HW212873   6.295   2.168   3.496
 3992SOL     OW12874   5.905   3.763   5.778
 3992SOL    HW112875   5.815   3.799   5.756
 3992SOL    HW212876   5.926   3.685   5.719
 3993SOL     OW12877   1.854   0.896   4.137
 3993SOL    HW112878   1.886   0.990   4.151
 3993SOL    HW212879   1.878   0.866   4.044
 3994SOL     OW12880   2.926   2.188   3.874
 3994SOL    HW112881   2.980   2.218   3.796
 3994SOL    HW212882   2.910   2.089   3.868
 3995SOL     OW12883   1.409   3.609   1.946
 3995SOL    HW112884   1.352   3.647   2.018
 3995SOL    HW212885   1.357   3.604   1.860
 3996SOL     OW12886   0.277   6.340   4.929
 3996SOL    HW112887   0.194   6.355   4.874
 3996SOL    HW212888   0.281   6.410   5.001
 3997SOL     OW12889   5.793   3.849   4.704
 3997SOL    HW112890   5.752   3.941   4.704
 3997SOL    HW212891   5.880   3.852   4.656
 3998SOL     OW12892   4.217   2.240   3.464
 3998SOL    HW112893   4.288   2.286   3.410
 3998SOL    HW212894   4.236   2.252   3.561
 3999SOL     OW12895   5.110   2.992   1.051
 3999SOL    HW112896   5.023   2.961   1.090
 3999SOL    HW212897   5.147   2.920   0.992
 4000SOL     OW12898   2.295   4.606   3.007
 4000SOL    HW112899   2.346   4.661   2.941
 4000SOL    HW212900   2.299   4.650   3.097
 4001SOL     OW12901   0.652   5.976   4.461
 4001SOL    HW112902   0.641   5.985   4.362
 4001SOL    HW212903   0.690   6.061   4.498
 4002SOL     OW12904   3.742   4.190   4.803
 4002SOL    HW112905   3.814   4.123   4.821
 4002SOL    HW212906   3.782   4.281   4.797
 4003SOL     OW12907   2.595   1.083   4.837
 4003SOL    HW112908   2.553   0.993   4.829
 4003SOL    HW212909   2.616   1.119   4.746
 4004SOL     OW12910   1.656   3.279   5.199
 4004SOL    HW112911   1.681   3.289   5.295
 4004SOL    HW212912   1.738   3.282   5.142
 4005SOL     OW12913   5.668   3.074   0.925
 4005SOL    HW112914   5.577   3.035   0.911
 4005SOL    HW212915   5.719   3.016   0.988
 4006SOL     OW12916   6.965   5.954   1.900
 4006SOL    HW112917   6.983   6.052   1.904
 4006SOL    HW212918   7.011   5.914   1.821
 4007SOL     OW12919   0.300   0.994   1.400
 4007SOL    HW112920   0.389   0.957   1.373
 4007SOL    HW212921   0.300   1.094   1.387
 4008SOL     OW12922   4.107   0.878   1.570
 4008SOL    HW112923   4.093   0.791   1.618
 4008SOL    HW212924   4.067   0.952   1.624
 4009SOL     OW12925   3.225   2.189   1.437
 4009SOL    HW112926   3.283   2.109   1.421
 4009SOL    HW212927   3.257   2.238   1.518
 4010SOL     OW12928   1.729   4.832   0.637
 4010SOL    HW112929   1.745   4.801   0.731
 4010SOL    HW212930   1.668   4.911   0.638
 4011SOL     OW12931   6.153   6.631   6.104
 4011SOL    HW112932   6.228   6.570   6.077
 4011SOL    HW212933   6.167   6.721   6.063
 4012SOL     OW12934   5.301   5.144   1.727
 4012SOL    HW112935   5.281   5.136   1.629
 4012SOL    HW212936   5.218   5.169   1.776
 4013SOL     OW12937   0.202   1.719   0.336
 4013SOL    HW112938   0.175   1.635   0.289
 4013SOL    HW212939   0.208   1.794   0.270
 4014SOL     OW12940   2.760   5.933   2.637
 4014SOL    HW112941   2.771   5.945   2.538
 4014SOL    HW212942   2.664   5.911   2.657
 4015SOL     OW12943   3.907   6.432   5.018
 4015SOL    HW112944   3.860   6.378   4.948
 4015SOL    HW212945   3.867   6.412   5.107
 4016SOL     OW12946   4.651   5.378   4.558
 4016SOL    HW112947   4.584   5.449   4.582
 4016SOL    HW212948   4.615   5.289   4.585
 4017SOL     OW12949   2.001   5.634   6.098
 4017SOL    HW112950   2.095   5.605   6.081
 4017SOL    HW212951   1.999   5.700   6.174
 4018SOL     OW12952   5.012   5.263   0.845
 4018SOL    HW112953   4.978   5.311   0.764
 4018SOL    HW212954   4.963   5.177   0.856
 4019SOL     OW12955   0.371   2.344   3.275
 4019SOL    HW112956   0.301   2.276   3.253
 4019SOL    HW212957   0.383   2.405   3.197
 4020SOL     OW12958   6.704   5.940   4.501
 4020SOL    HW112959   6.700   6.019   4.440
 4020SOL    HW212960   6.726   5.971   4.594
 4021SOL     OW12961   5.057   5.419   6.015
 4021SOL    HW112962   5.116   5.382   6.086
 4021SOL    HW212963   4.964   5.384   6.027
 4022SOL     OW12964   3.414   6.973   1.432
 4022SOL    HW112965   3.479   6.975   1.356
 4022SOL    HW212966   3.349   6.898   1.419
 4023SOL     OW12967   1.018   1.664   4.040
 4023SOL    HW112968   0.947   1.733   4.027
 4023SOL    HW212969   1.105   1.698   4.004
 4024SOL     OW12970   1.032   6.601   6.232
 4024SOL    HW112971   1.009   6.537   6.160
 4024SOL    HW212972   0.955   6.610   6.295
 4025SOL     OW12973   0.281   4.507   4.623
 4025SOL    HW112974   0.349   4.562   4.577
 4025SOL    HW212975   0.268   4.421   4.573
 4026SOL     OW12976   0.607   6.502   4.102
 4026SOL    HW112977   0.703   6.531   4.105
 4026SOL    HW212978   0.599   6.409   4.139
 4027SOL     OW12979   2.820   5.488   5.121
 4027SOL    HW112980   2.881   5.469   5.198
 4027SOL    HW212981   2.775   5.576   5.135
 4028SOL     OW12982   5.062   2.020   4.541
 4028SOL    HW112983   4.973   2.065   4.536
 4028SOL    HW212984   5.061   1.937   4.486
 4029SOL     OW12985   1.489   6.799   0.676
 4029SOL    HW112986   1.464   6.889   0.711
 4029SOL    HW212987   1.407   6.753   0.641
 4030SOL     OW12988   1.014   1.416   1.865
 4030SOL    HW112989   1.045   1.324   1.844
 4030SOL    HW212990   0.966   1.455   1.786
 4031SOL     OW12991   5.424   5.957   0.563
 4031SOL    HW112992   5.453   5.921   0.474
 4031SOL    HW212993   5.378   5.885   0.615
 4032SOL     OW12994   5.092   2.152   2.368
 4032SOL    HW112995   5.111   2.123   2.274
 4032SOL    HW212996   5.015   2.099   2.404
 4033SOL     OW12997   1.535   3.095   2.900
 4033SOL    HW112998   1.606   3.057   2.841
 4033SOL    HW212999   1.573   3.110   2.991
 4034SOL     OW13000   2.040   2.260   4.508
 4034SOL    HW113001   2.021   2.335   4.443
 4034SOL    HW213002   2.123   2.213   4.479
 4035SOL     OW13003   3.748   2.118   1.689
 4035SOL    HW113004   3.699   2.181   1.748
 4035SOL    HW213005   3.837   2.097   1.729
 4036SOL     OW13006   4.141   6.065   3.527
 4036SOL    HW113007   4.068   6.107   3.582
 4036SOL    HW213008   4.114   5.974   3.499
 4037SOL     OW13009   1.653   1.701   6.198
 4037SOL    HW113010   1.563   1.720   6.157
 4037SOL    HW213011   1.641   1.662   6.289
 4038SOL     OW13012   3.621   4.615   6.121
 4038SOL    HW113013   3.558   4.684   6.086
 4038SOL    HW213014   3.608   4.529   6.072
 4039SOL     OW13015   6.100   4.534   1.352
 4039SOL    HW113016   6.182   4.478   1.367
 4039SOL    HW213017   6.119   4.628   1.379
 4040SOL     OW13018   2.776   0.559   5.000
 4040SOL    HW113019   2.829   0.484   5.038
 4040SOL    HW213020   2.835   0.640   4.990
 4041SOL     OW13021   1.352   6.195   1.615
 4041SOL    HW113022   1.409   6.115   1.633
 4041SOL    HW213023   1.329   6.240   1.701
 4042SOL     OW13024   0.409   1.333   3.510
 4042SOL    HW113025   0.421   1.240   3.476
 4042SOL    HW213026   0.427   1.398   3.436
 4043SOL     OW13027   4.331   1.851   6.165
 4043SOL    HW113028   4.358   1.774   6.223
 4043SOL    HW213029   4.340   1.936   6.218
 4044SOL     OW13030   4.304   4.630   3.343
 4044SOL    HW113031   4.307   4.584   3.432
 4044SOL    HW213032   4.270   4.723   3.355
 4045SOL     OW13033   4.704   1.443   5.088
 4045SOL    HW113034   4.671   1.471   5.178
 4045SOL    HW213035   4.658   1.359   5.060
 4046SOL     OW13036   4.858   1.671   3.964
 4046SOL    HW113037   4.834   1.620   3.882
 4046SOL    HW213038   4.933   1.625   4.012
 4047SOL     OW13039   3.006   2.177   6.263
 4047SOL    HW113040   3.029   2.195   6.359
 4047SOL    HW213041   3.089   2.157   6.212
 4048SOL     OW13042   4.896   2.272   3.541
 4048SOL    HW113043   4.833   2.255   3.618
 4048SOL    HW213044   4.845   2.314   3.466
 4049SOL     OW13045   4.317   3.949   1.311
 4049SOL    HW113046   4.261   3.886   1.364
 4049SOL    HW213047   4.407   3.958   1.355
 4050SOL     OW13048   6.771   4.642   2.992
 4050SOL    HW113049   6.802   4.577   2.922
 4050SOL    HW213050   6.754   4.731   2.949
 4051SOL     OW13051   5.750   1.490   4.292
 4051SOL    HW113052   5.838   1.524   4.260
 4051SOL    HW213053   5.732   1.400   4.251
 4052SOL     OW13054   4.925   1.800   4.400
 4052SOL    HW113055   4.862   1.872   4.368
 4052SOL    HW213056   4.879   1.744   4.468
 4053SOL     OW13057   0.741   4.888   3.843
 4053SOL    HW113058   0.775   4.978   3.814
 4053SOL    HW213059   0.815   4.838   3.888
 4054SOL     OW13060   4.795   3.679   1.327
 4054SOL    HW113061   4.817   3.749   1.258
 4054SOL    HW213062   4.840   3.702   1.413
 4055SOL     OW13063   0.207   4.494   0.071
 4055SOL    HW113064   0.210   4.397   0.046
 4055SOL    HW213065   0.174   4.546   7.007
 4056SOL     OW13066   5.087   3.592   6.953
 4056SOL    HW113067   5.165   3.647   6.983
 4056SOL    HW213068   5.074   3.515   0.000
 4057SOL     OW13069   0.195   4.081   5.970
 4057SOL    HW113070   0.229   4.012   6.034
 4057SOL    HW213071   0.236   4.170   5.991
 4058SOL     OW13072   3.756   0.760   4.375
 4058SOL    HW113073   3.721   0.755   4.281
 4058SOL    HW213074   3.809   0.845   4.386
 4059SOL     OW13075   0.990   1.336   4.043
 4059SOL    HW113076   0.967   1.431   4.064
 4059SOL    HW213077   1.076   1.312   4.089
 4060SOL     OW13078   0.061   6.333   4.759
 4060SOL    HW113079   0.021   6.272   4.691
 4060SOL    HW213080   0.113   6.405   4.713
 4061SOL     OW13081   0.825   4.535   1.782
 4061SOL    HW113082   0.855   4.513   1.689
 4061SOL    HW213083   0.747   4.598   1.778
 4062SOL     OW13084   2.269   4.159   0.415
 4062SOL    HW113085   2.183   4.121   0.448
 4062SOL    HW213086   2.312   4.213   0.489
 4063SOL     OW13087   3.675   0.813   0.991
 4063SOL    HW113088   3.679   0.736   0.928
 4063SOL    HW213089   3.730   0.793   1.072
 4064SOL     OW13090   2.365   0.626   5.164
 4064SOL    HW113091   2.383   0.724   5.154
 4064SOL    HW213092   2.362   0.583   5.074
 4065SOL     OW13093   2.255   1.592   1.605
 4065SOL    HW113094   2.245   1.505   1.558
 4065SOL    HW213095   2.349   1.624   1.597
 4066SOL     OW13096   0.241   4.263   4.493
 4066SOL    HW113097   0.178   4.229   4.423
 4066SOL    HW213098   0.335   4.239   4.468
 4067SOL     OW13099   6.620   4.585   0.652
 4067SOL    HW113100   6.667   4.534   0.580
 4067SOL    HW213101   6.550   4.644   0.612
 4068SOL     OW13102   1.798   2.788   5.781
 4068SOL    HW113103   1.712   2.777   5.732
 4068SOL    HW213104   1.801   2.877   5.825
 4069SOL     OW13105   4.779   6.722   5.433
 4069SOL    HW113106   4.769   6.720   5.532
 4069SOL    HW213107   4.876   6.715   5.409
 4070SOL     OW13108   1.735   3.104   4.116
 4070SOL    HW113109   1.747   3.196   4.153
 4070SOL    HW213110   1.779   3.098   4.027
 4071SOL     OW13111   1.862   0.419   4.841
 4071SOL    HW113112   1.836   0.504   4.888
 4071SOL    HW213113   1.830   0.341   4.893
 4072SOL     OW13114   3.233   6.674   2.415
 4072SOL    HW113115   3.208   6.680   2.318
 4072SOL    HW213116   3.296   6.597   2.428
 4073SOL     OW13117   4.033   5.248   6.789
 4073SOL    HW113118   3.943   5.221   6.753
 4073SOL    HW213119   4.038   5.225   6.886
 4074SOL     OW13120   1.333   5.564   2.311
 4074SOL    HW113121   1.375   5.485   2.266
 4074SOL    HW213122   1.251   5.591   2.261
 4075SOL     OW13123   5.909   0.960   0.079
 4075SOL    HW113124   5.824   0.940   0.030
 4075SOL    HW213125   5.986   0.945   0.018
 4076SOL     OW13126   1.741   5.566   4.091
 4076SOL    HW113127   1.731   5.515   4.177
 4076SOL    HW213128   1.837   5.567   4.064
 4077SOL     OW13129   2.941   1.883   1.471
 4077SOL    HW113130   2.925   1.800   1.417
 4077SOL    HW213131   2.908   1.963   1.420
 4078SOL     OW13132   4.290   4.712   2.223
 4078SOL    HW113133   4.363   4.771   2.256
 4078SOL    HW213134   4.203   4.740   2.262
 4079SOL     OW13135   0.461   1.851   4.167
 4079SOL    HW113136   0.516   1.931   4.140
 4079SOL    HW213137   0.364   1.872   4.155
 4080SOL     OW13138   6.514   2.058   4.699
 4080SOL    HW113139   6.495   2.063   4.797
 4080SOL    HW213140   6.579   1.983   4.682
 4081SOL     OW13141   0.604   4.258   3.092
 4081SOL    HW113142   0.606   4.184   3.025
 4081SOL    HW213143   0.549   4.334   3.057
 4082SOL     OW13144   0.390   3.241   0.068
 4082SOL    HW113145   0.462   3.181   0.033
 4082SOL    HW213146   0.422   3.336   0.065
 4083SOL     OW13147   6.662   3.288   4.680
 4083SOL    HW113148   6.726   3.213   4.695
 4083SOL    HW213149   6.713   3.371   4.660
 4084SOL     OW13150   5.946   0.888   4.882
 4084SOL    HW113151   5.929   0.929   4.792
 4084SOL    HW213152   6.033   0.839   4.880
 4085SOL     OW13153   3.186   5.705   6.732
 4085SOL    HW113154   3.257   5.660   6.678
 4085SOL    HW213155   3.217   5.712   6.827
 4086SOL     OW13156   0.961   3.387   1.389
 4086SOL    HW113157   1.053   3.409   1.357
 4086SOL    HW213158   0.956   3.401   1.488
 4087SOL     OW13159   2.252   1.099   3.122
 4087SOL    HW113160   2.298   1.049   3.196
 4087SOL    HW213161   2.288   1.192   3.118
 4088SOL     OW13162   6.732   1.785   6.919
 4088SOL    HW113163   6.683   1.871   6.933
 4088SOL    HW213164   6.817   1.786   6.972
 4089SOL     OW13165   0.536   0.840   5.736
 4089SOL    HW113166   0.576   0.829   5.645
 4089SOL    HW213167   0.440   0.865   5.727
 4090SOL     OW13168   3.308   5.127   6.393
 4090SOL    HW113169   3.312   5.159   6.487
 4090SOL    HW213170   3.369   5.182   6.336
 4091SOL     OW13171   4.799   6.734   1.385
 4091SOL    HW113172   4.749   6.746   1.470
 4091SOL    HW213173   4.842   6.820   1.359
 4092SOL     OW13174   0.213   1.354   4.074
 4092SOL    HW113175   0.298   1.398   4.045
 4092SOL    HW213176   0.136   1.415   4.054
 4093SOL     OW13177   5.269   0.035   4.158
 4093SOL    HW113178   5.293   6.956   4.132
 4093SOL    HW213179   5.210   0.033   4.239
 4094SOL     OW13180   3.295   3.727   5.875
 4094SOL    HW113181   3.390   3.722   5.847
 4094SOL    HW213182   3.279   3.665   5.952
 4095SOL     OW13183   1.514   3.740   6.056
 4095SOL    HW113184   1.587   3.673   6.040
 4095SOL    HW213185   1.489   3.783   5.970
 4096SOL     OW13186   4.655   4.891   1.561
 4096SOL    HW113187   4.652   4.797   1.594
 4096SOL    HW213188   4.614   4.952   1.629
 4097SOL     OW13189   3.614   3.794   3.447
 4097SOL    HW113190   3.640   3.756   3.358
 4097SOL    HW213191   3.517   3.774   3.465
 4098SOL     OW13192   0.745   3.371   2.021
 4098SOL    HW113193   0.650   3.403   2.022
 4098SOL    HW213194   0.752   3.291   1.962
 4099SOL     OW13195   2.682   5.957   1.738
 4099SOL    HW113196   2.605   5.893   1.739
 4099SOL    HW213197   2.649   6.049   1.715
 4100SOL     OW13198   3.768   6.930   3.045
 4100SOL    HW113199   3.743   0.011   3.054
 4100SOL    HW213200   3.806   6.898   3.132
 4101SOL     OW13201   4.422   2.064   6.650
 4101SOL    HW113202   4.501   2.026   6.698
 4101SOL    HW213203   4.391   2.147   6.697
 4102SOL     OW13204   4.247   1.895   6.844
 4102SOL    HW113205   4.289   1.895   6.753
 4102SOL    HW213206   4.293   1.963   6.901
 4103SOL     OW13207   0.187   0.304   1.963
 4103SOL    HW113208   0.105   0.329   1.911
 4103SOL    HW213209   0.188   0.205   1.978
 4104SOL     OW13210   2.246   4.629   2.522
 4104SOL    HW113211   2.325   4.587   2.567
 4104SOL    HW213212   2.277   4.702   2.460
 4105SOL     OW13213   5.899   4.851   0.161
 4105SOL    HW113214   5.989   4.811   0.142
 4105SOL    HW213215   5.877   4.838   0.258
 4106SOL     OW13216   6.567   3.673   4.850
 4106SOL    HW113217   6.551   3.574   4.844
 4106SOL    HW213218   6.514   3.719   4.779
 4107SOL     OW13219   0.013   0.239   0.642
 4107SOL    HW113220   6.946   0.287   0.674
 4107SOL    HW213221   0.062   0.201   0.720
 4108SOL     OW13222   6.414   2.650   5.031
 4108SOL    HW113223   6.496   2.696   4.997
 4108SOL    HW213224   6.440   2.574   5.090
 4109SOL     OW13225   2.795   6.226   3.943
 4109SOL    HW113226   2.846   6.143   3.921
 4109SOL    HW213227   2.787   6.284   3.862
 4110SOL     OW13228   4.738   3.284   5.270
 4110SOL    HW113229   4.744   3.383   5.267
 4110SOL    HW213230   4.731   3.248   5.177
 4111SOL     OW13231   3.714   3.054   6.504
 4111SOL    HW113232   3.633   3.095   6.461
 4111SOL    HW213233   3.780   3.126   6.526
 4112SOL     OW13234   4.078   0.255   5.892
 4112SOL    HW113235   4.159   0.295   5.849
 4112SOL    HW213236   3.996   0.296   5.852
 4113SOL     OW13237   3.473   5.062   4.808
 4113SOL    HW113238   3.443   5.073   4.714
 4113SOL    HW213239   3.393   5.045   4.867
 4114SOL     OW13240   3.620   1.861   2.855
 4114SOL    HW113241   3.603   1.956   2.831
 4114SOL    HW213242   3.564   1.836   2.934
 4115SOL     OW13243   5.122   4.252   2.606
 4115SOL    HW113244   5.176   4.168   2.607
 4115SOL    HW213245   5.124   4.292   2.515
 4116SOL     OW13246   3.070   0.745   2.313
 4116SOL    HW113247   3.149   0.698   2.275
 4116SOL    HW213248   3.047   0.706   2.402
 4117SOL     OW13249   1.002   5.969   1.189
 4117SOL    HW113250   1.072   6.025   1.233
 4117SOL    HW213251   1.045   5.888   1.148
 4118SOL     OW13252   2.160   0.158   6.774
 4118SOL    HW113253   2.229   0.173   6.846
 4118SOL    HW213254   2.206   0.138   6.688
 4119SOL     OW13255   4.603   1.456   3.340
 4119SOL    HW113256   4.528   1.442   3.275
 4119SOL    HW213257   4.654   1.539   3.315
 4120SOL     OW13258   5.280   1.234   2.613
 4120SOL    HW113259   5.237   1.294   2.546
 4120SOL    HW213260   5.271   1.139   2.584
 4121SOL     OW13261   6.379   2.277   4.313
 4121SOL    HW113262   6.354   2.372   4.333
 4121SOL    HW213263   6.441   2.244   4.384
 4122SOL     OW13264   1.866   5.512   6.962
 4122SOL    HW113265   1.952   5.562   6.969
 4122SOL    HW213266   1.881   5.425   6.916
 4123SOL     OW13267   4.408   3.400   5.589
 4123SOL    HW113268   4.434   3.422   5.683
 4123SOL    HW213269   4.470   3.447   5.526
 4124SOL     OW13270   3.974   5.821   3.434
 4124SOL    HW113271   3.910   5.799   3.361
 4124SOL    HW213272   3.959   5.761   3.512
 4125SOL     OW13273   4.804   1.135   1.619
 4125SOL    HW113274   4.869   1.151   1.693
 4125SOL    HW213275   4.713   1.117   1.657
 4126SOL     OW13276   1.780   4.391   4.497
 4126SOL    HW113277   1.821   4.470   4.452
 4126SOL    HW213278   1.683   4.385   4.473
 4127SOL     OW13279   5.858   4.493   4.495
 4127SOL    HW113280   5.897   4.571   4.544
 4127SOL    HW213281   5.828   4.522   4.404
 4128SOL     OW13282   0.281   1.941   1.809
 4128SOL    HW113283   0.341   1.861   1.800
 4128SOL    HW213284   0.319   2.005   1.876
 4129SOL     OW13285   6.775   2.803   6.243
 4129SOL    HW113286   6.849   2.823   6.179
 4129SOL    HW213287   6.710   2.740   6.201
 4130SOL     OW13288   6.618   2.567   1.055
 4130SOL    HW113289   6.643   2.647   1.109
 4130SOL    HW213290   6.701   2.524   1.019
 4131SOL     OW13291   6.913   3.602   2.972
 4131SOL    HW113292   6.817   3.627   2.983
 4131SOL    HW213293   6.965   3.635   3.052
 4132SOL     OW13294   4.706   1.904   4.848
 4132SOL    HW113295   4.804   1.921   4.863
 4132SOL    HW213296   4.686   1.807   4.861
 4133SOL     OW13297   2.467   2.553   1.252
 4133SOL    HW113298   2.381   2.525   1.294
 4133SOL    HW213299   2.519   2.472   1.224
 4134SOL     OW13300   1.934   1.306   0.427
 4134SOL    HW113301   1.884   1.224   0.452
 4134SOL    HW213302   1.970   1.297   0.335
 4135SOL     OW13303   1.802   0.442   0.879
 4135SOL    HW113304   1.739   0.520   0.888
 4135SOL    HW213305   1.793   0.384   0.959
 4136SOL     OW13306   0.679   1.618   3.676
 4136SOL    HW113307   0.651   1.530   3.638
 4136SOL    HW213308   0.646   1.626   3.770
 4137SOL     OW13309   3.873   3.063   5.697
 4137SOL    HW113310   3.801   3.027   5.638
 4137SOL    HW213311   3.958   3.013   5.680
 4138SOL     OW13312   4.364   5.559   1.949
 4138SOL    HW113313   4.298   5.505   1.897
 4138SOL    HW213314   4.335   5.654   1.951
 4139SOL     OW13315   2.808   1.765   0.907
 4139SOL    HW113316   2.795   1.666   0.900
 4139SOL    HW213317   2.720   1.811   0.896
 4140SOL     OW13318   4.249   1.793   5.577
 4140SOL    HW113319   4.173   1.729   5.585
 4140SOL    HW213320   4.220   1.883   5.611
 4141SOL     OW13321   5.533   5.542   0.590
 4141SOL    HW113322   5.500   5.593   0.511
 4141SOL    HW213323   5.602   5.476   0.560
 4142SOL     OW13324   6.096   3.113   1.692
 4142SOL    HW113325   6.005   3.108   1.733
 4142SOL    HW213326   6.117   3.027   1.647
 4143SOL     OW13327   0.557   2.787   1.931
 4143SOL    HW113328   0.486   2.782   2.001
 4143SOL    HW213329   0.514   2.794   1.841
 4144SOL     OW13330   4.167   0.757   2.125
 4144SOL    HW113331   4.139   0.853   2.133
 4144SOL    HW213332   4.250   0.743   2.179
 4145SOL     OW13333   3.288   6.532   3.194
 4145SOL    HW113334   3.215   6.599   3.179
 4145SOL    HW213335   3.375   6.580   3.205
 4146SOL     OW13336   4.582   4.542   0.311
 4146SOL    HW113337   4.612   4.634   0.287
 4146SOL    HW213338   4.656   4.495   0.359
 4147SOL     OW13339   2.715   1.805   6.104
 4147SOL    HW113340   2.620   1.784   6.128
 4147SOL    HW213341   2.774   1.731   6.137
 4148SOL     OW13342   7.000   0.067   2.306
 4148SOL    HW113343   6.972   6.986   2.316
 4148SOL    HW213344   0.052   0.089   2.377
 4149SOL     OW13345   4.692   4.285   2.292
 4149SOL    HW113346   4.680   4.315   2.197
 4149SOL    HW213347   4.621   4.327   2.349
 4150SOL     OW13348   4.401   0.458   5.304
 4150SOL    HW113349   4.431   0.415   5.389
 4150SOL    HW213350   4.355   0.391   5.247
 4151SOL     OW13351   0.249   5.660   0.736
 4151SOL    HW113352   0.198   5.582   0.774
 4151SOL    HW213353   0.260   5.730   0.806
 4152SOL     OW13354   3.238   3.983   1.438
 4152SOL    HW113355   3.262   4.077   1.463
 4152SOL    HW213356   3.263   3.967   1.342
 4153SOL     OW13357   6.087   5.694   6.195
 4153SOL    HW113358   6.154   5.728   6.260
 4153SOL    HW213359   6.133   5.645   6.121
 4154SOL     OW13360   4.617   2.548   5.102
 4154SOL    HW113361   4.647   2.625   5.047
 4154SOL    HW213362   4.542   2.577   5.163
 4155SOL     OW13363   1.715   2.845   0.602
 4155SOL    HW113364   1.755   2.936   0.614
 4155SOL    HW213365   1.725   2.817   0.507
 4156SOL     OW13366   5.747   0.882   5.085
 4156SOL    HW113367   5.793   0.880   4.996
 4156SOL    HW213368   5.661   0.832   5.079
 4157SOL     OW13369   3.094   0.758   3.067
 4157SOL    HW113370   3.120   0.834   3.126
 4157SOL    HW213371   3.006   0.777   3.025
 4158SOL     OW13372   1.095   0.462   3.838
 4158SOL    HW113373   1.049   0.408   3.767
 4158SOL    HW213374   1.033   0.477   3.914
 4159SOL     OW13375   0.277   4.003   5.421
 4159SOL    HW113376   0.260   4.058   5.503
 4159SOL    HW213377   0.282   4.062   5.341
 4160SOL     OW13378   0.271   0.532   0.694
 4160SOL    HW113379   0.339   0.606   0.693
 4160SOL    HW213380   0.187   0.563   0.650
 4161SOL     OW13381   6.391   1.676   1.149
 4161SOL    HW113382   6.370   1.754   1.091
 4161SOL    HW213383   6.312   1.653   1.206
 4162SOL     OW13384   0.859   6.818   5.347
 4162SOL    HW113385   0.942   6.764   5.359
 4162SOL    HW213386   0.839   6.827   5.250
 4163SOL     OW13387   6.651   1.531   5.218
 4163SOL    HW113388   6.554   1.551   5.234
 4163SOL    HW213389   6.693   1.497   5.302
 4164SOL     OW13390   2.721   6.647   5.806
 4164SOL    HW113391   2.753   6.735   5.842
 4164SOL    HW213392   2.636   6.622   5.853
 4165SOL     OW13393   2.436   6.239   2.063
 4165SOL    HW113394   2.386   6.321   2.092
 4165SOL    HW213395   2.379   6.185   2.001
 4166SOL     OW13396   6.225   1.737   1.572
 4166SOL    HW113397   6.246   1.703   1.664
 4166SOL    HW213398   6.132   1.774   1.571
 4167SOL     OW13399   1.812   2.651   1.276
 4167SOL    HW113400   1.805   2.712   1.198
 4167SOL    HW213401   1.738   2.671   1.341
 4168SOL     OW13402   1.977   5.288   1.257
 4168SOL    HW113403   1.924   5.274   1.173
 4168SOL    HW213404   1.927   5.249   1.334
 4169SOL     OW13405   6.323   3.471   6.321
 4169SOL    HW113406   6.297   3.548   6.262
 4169SOL    HW213407   6.422   3.456   6.316
 4170SOL     OW13408   3.571   1.164   5.258
 4170SOL    HW113409   3.507   1.170   5.182
 4170SOL    HW213410   3.542   1.227   5.331
 4171SOL     OW13411   5.974   3.403   1.364
 4171SOL    HW113412   5.960   3.381   1.460
 4171SOL    HW213413   5.914   3.347   1.307
 4172SOL     OW13414   2.717   0.688   0.618
 4172SOL    HW113415   2.813   0.691   0.588
 4172SOL    HW213416   2.710   0.730   0.709
 4173SOL     OW13417   4.981   3.230   5.560
 4173SOL    HW113418   5.011   3.310   5.507
 4173SOL    HW213419   4.893   3.250   5.603
 4174SOL     OW13420   5.191   0.694   3.258
 4174SOL    HW113421   5.149   0.612   3.297
 4174SOL    HW213422   5.186   0.769   3.324
 4175SOL     OW13423   2.393   1.479   2.588
 4175SOL    HW113424   2.294   1.493   2.584
 4175SOL    HW213425   2.418   1.397   2.537
 4176SOL     OW13426   5.869   4.587   2.840
 4176SOL    HW113427   5.770   4.595   2.843
 4176SOL    HW213428   5.901   4.532   2.918
 4177SOL     OW13429   6.651   5.476   2.929
 4177SOL    HW113430   6.595   5.498   3.008
 4177SOL    HW213431   6.612   5.396   2.882
 4178SOL     OW13432   4.276   2.457   5.539
 4178SOL    HW113433   4.203   2.434   5.604
 4178SOL    HW213434   4.324   2.538   5.571
 4179SOL     OW13435   6.649   2.314   0.189
 4179SOL    HW113436   6.702   2.349   0.266
 4179SOL    HW213437   6.571   2.374   0.171
 4180SOL     OW13438   4.950   3.722   1.533
 4180SOL    HW113439   5.021   3.766   1.589
 4180SOL    HW213440   4.949   3.624   1.552
 4181SOL     OW13441   6.798   0.561   0.572
 4181SOL    HW113442   6.744   0.616   0.636
 4181SOL    HW213443   6.783   0.594   0.479
 4182SOL     OW13444   5.855   0.944   3.391
 4182SOL    HW113445   5.847   0.932   3.292
 4182SOL    HW213446   5.764   0.961   3.430
 4183SOL     OW13447   1.410   0.904   1.815
 4183SOL    HW113448   1.456   0.969   1.875
 4183SOL    HW213449   1.359   0.954   1.745
 4184SOL     OW13450   4.290   4.822   6.481
 4184SOL    HW113451   4.390   4.831   6.488
 4184SOL    HW213452   4.267   4.728   6.459
 4185SOL     OW13453   0.090   0.281   3.894
 4185SOL    HW113454   0.107   0.291   3.796
 4185SOL    HW213455   0.144   0.349   3.944
 4186SOL     OW13456   3.712   4.174   1.863
 4186SOL    HW113457   3.724   4.141   1.956
 4186SOL    HW213458   3.720   4.097   1.799
 4187SOL     OW13459   3.956   5.114   6.295
 4187SOL    HW113460   4.017   5.126   6.374
 4187SOL    HW213461   3.960   5.196   6.237
 4188SOL     OW13462   4.965   6.299   3.468
 4188SOL    HW113463   4.937   6.270   3.559
 4188SOL    HW213464   4.985   6.397   3.468
 4189SOL     OW13465   1.585   3.487   3.246
 4189SOL    HW113466   1.626   3.536   3.170
 4189SOL    HW213467   1.627   3.397   3.255
 4190SOL     OW13468   2.463   7.004   1.560
 4190SOL    HW113469   2.554   0.025   1.539
 4190SOL    HW213470   2.432   0.024   1.648
 4191SOL     OW13471   0.704   2.053   3.108
 4191SOL    HW113472   0.676   2.127   3.046
 4191SOL    HW213473   0.712   1.968   3.056
 4192SOL     OW13474   6.022   0.414   3.490
 4192SOL    HW113475   6.011   0.446   3.584
 4192SOL    HW213476   6.047   0.490   3.430
 4193SOL     OW13477   1.501   6.513   3.748
 4193SOL    HW113478   1.529   6.596   3.701
 4193SOL    HW213479   1.426   6.469   3.698
 4194SOL     OW13480   5.871   6.956   3.115
 4194SOL    HW113481   5.934   0.017   3.130
 4194SOL    HW213482   5.843   6.955   3.019
 4195SOL     OW13483   5.202   0.899   3.424
 4195SOL    HW113484   5.162   0.874   3.512
 4195SOL    HW213485   5.165   0.988   3.395
 4196SOL     OW13486   4.825   2.999   3.474
 4196SOL    HW113487   4.831   3.016   3.376
 4196SOL    HW213488   4.849   3.083   3.524
 4197SOL     OW13489   5.327   4.242   4.570
 4197SOL    HW113490   5.377   4.319   4.608
 4197SOL    HW213491   5.353   4.157   4.617
 4198SOL     OW13492   6.500   3.690   5.898
 4198SOL    HW113493   6.592   3.685   5.860
 4198SOL    HW213494   6.441   3.625   5.851
 4199SOL     OW13495   2.763   4.176   6.545
 4199SOL    HW113496   2.818   4.097   6.518
 4199SOL    HW213497   2.788   4.254   6.488
 4200SOL     OW13498   2.965   0.390   0.055
 4200SOL    HW113499   3.051   0.442   0.054
 4200SOL    HW213500   2.948   0.350   6.980
 4201SOL     OW13501   6.195   0.024   5.003
 4201SOL    HW113502   6.239   6.961   4.959
 4201SOL    HW213503   6.180   0.096   4.936
 4202SOL     OW13504   5.474   3.608   5.384
 4202SOL    HW113505   5.506   3.699   5.408
 4202SOL    HW213506   5.510   3.542   5.450
 4203SOL     OW13507   3.740   5.616   4.391
 4203SOL    HW113508   3.799   5.552   4.340
 4203SOL    HW213509   3.735   5.587   4.486
 4204SOL     OW13510   1.725   4.048   0.267
 4204SOL    HW113511   1.794   3.977   0.286
 4204SOL    HW213512   1.672   4.022   0.186
 4205SOL     OW13513   2.693   5.969   3.214
 4205SOL    HW113514   2.735   6.050   3.172
 4205SOL    HW213515   2.630   5.927   3.149
 4206SOL     OW13516   5.331   6.744   4.049
 4206SOL    HW113517   5.412   6.754   3.992
 4206SOL    HW213518   5.256   6.705   3.995
 4207SOL     OW13519   1.055   6.507   0.082
 4207SOL    HW113520   1.060   6.408   0.068
 4207SOL    HW213521   1.004   6.527   0.165
 4208SOL     OW13522   0.368   2.832   1.329
 4208SOL    HW113523   0.464   2.803   1.336
 4208SOL    HW213524   0.325   2.785   1.252
 4209SOL     OW13525   2.780   0.381   5.369
 4209SOL    HW113526   2.870   0.393   5.327
 4209SOL    HW213527   2.723   0.461   5.351
 4210SOL     OW13528   3.637   2.842   0.279
 4210SOL    HW113529   3.627   2.788   0.195
 4210SOL    HW213530   3.724   2.819   0.323
 4211SOL     OW13531   5.165   3.719   4.324
 4211SOL    HW113532   5.136   3.796   4.267
 4211SOL    HW213533   5.218   3.752   4.402
 4212SOL     OW13534   6.161   6.934   1.969
 4212SOL    HW113535   6.249   6.974   1.996
 4212SOL    HW213536   6.176   6.840   1.939
 4213SOL     OW13537   0.621   6.955   1.404
 4213SOL    HW113538   0.555   6.879   1.399
 4213SOL    HW213539   0.714   6.918   1.402
 4214SOL     OW13540   2.896   5.467   3.878
 4214SOL    HW113541   2.804   5.435   3.898
 4214SOL    HW213542   2.958   5.442   3.952
 4215SOL     OW13543   1.488   6.093   6.967
 4215SOL    HW113544   1.453   6.046   6.886
 4215SOL    HW213545   1.424   6.165   6.994
 4216SOL     OW13546   2.721   3.100   5.339
 4216SOL    HW113547   2.634   3.096   5.289
 4216SOL    HW213548   2.746   3.008   5.368
 4217SOL     OW13549   6.471   0.935   4.481
 4217SOL    HW113550   6.386   0.983   4.459
 4217SOL    HW213551   6.525   0.991   4.545
 4218SOL     OW13552   3.130   5.545   2.082
 4218SOL    HW113553   3.180   5.621   2.041
 4218SOL    HW213554   3.131   5.554   2.181
 4219SOL     OW13555   5.775   6.977   2.856
 4219SOL    HW113556   5.691   0.015   2.847
 4219SOL    HW213557   5.792   6.926   2.772
 4220SOL     OW13558   0.270   4.225   3.162
 4220SOL    HW113559   0.264   4.297   3.232
 4220SOL    HW213560   0.259   4.136   3.206
 4221SOL     OW13561   5.409   6.388   5.800
 4221SOL    HW113562   5.486   6.328   5.778
 4221SOL    HW213563   5.340   6.381   5.728
 4222SOL     OW13564   2.655   2.906   0.153
 4222SOL    HW113565   2.629   2.977   0.088
 4222SOL    HW213566   2.577   2.846   0.171
 4223SOL     OW13567   3.449   3.863   2.988
 4223SOL    HW113568   3.458   3.959   2.960
 4223SOL    HW213569   3.401   3.860   3.076
 4224SOL     OW13570   3.461   1.782   5.731
 4224SOL    HW113571   3.554   1.790   5.695
 4224SOL    HW213572   3.443   1.860   5.792
 4225SOL     OW13573   5.072   0.005   4.378
 4225SOL    HW113574   5.110   6.927   4.379
 4225SOL    HW213575   4.975   0.001   4.404
 4226SOL     OW13576   2.061   1.681   2.415
 4226SOL    HW113577   2.096   1.715   2.328
 4226SOL    HW213578   1.966   1.651   2.403
 4227SOL     OW13579   5.307   3.876   6.538
 4227SOL    HW113580   5.242   3.801   6.550
 4227SOL    HW213581   5.338   3.879   6.443
 4228SOL     OW13582   4.354   5.164   2.856
 4228SOL    HW113583   4.440   5.137   2.815
 4228SOL    HW213584   4.371   5.204   2.946
 4229SOL     OW13585   3.966   5.173   5.321
 4229SOL    HW113586   3.984   5.078   5.345
 4229SOL    HW213587   3.913   5.178   5.237
 4230SOL     OW13588   2.669   1.592   6.348
 4230SOL    HW113589   2.745   1.596   6.283
 4230SOL    HW213590   2.685   1.656   6.422
 4231SOL     OW13591   3.745   6.436   6.338
 4231SOL    HW113592   3.799   6.498   6.281
 4231SOL    HW213593   3.805   6.390   6.403
 4232SOL     OW13594   1.630   3.889   1.307
 4232SOL    HW113595   1.656   3.792   1.303
 4232SOL    HW213596   1.673   3.938   1.231
 4233SOL     OW13597   5.647   5.377   1.224
 4233SOL    HW113598   5.627   5.309   1.295
 4233SOL    HW213599   5.564   5.427   1.202
 4234SOL     OW13600   3.573   3.707   5.462
 4234SOL    HW113601   3.569   3.611   5.490
 4234SOL    HW213602   3.612   3.714   5.370
 4235SOL     OW13603   0.251   4.166   4.760
 4235SOL    HW113604   0.274   4.242   4.820
 4235SOL    HW213605   0.280   4.187   4.667
 4236SOL     OW13606   0.835   3.652   4.783
 4236SOL    HW113607   0.917   3.595   4.789
 4236SOL    HW213608   0.856   3.744   4.816
 4237SOL     OW13609   6.217   3.763   5.355
 4237SOL    HW113610   6.149   3.717   5.299
 4237SOL    HW213611   6.242   3.850   5.312
 4238SOL     OW13612   4.463   4.992   4.986
 4238SOL    HW113613   4.485   5.072   4.930
 4238SOL    HW213614   4.389   5.015   5.049
 4239SOL     OW13615   5.015   5.904   5.635
 4239SOL    HW113616   4.947   5.845   5.678
 4239SOL    HW213617   4.982   5.999   5.636
 4240SOL     OW13618   2.776   4.634   6.119
 4240SOL    HW113619   2.774   4.668   6.025
 4240SOL    HW213620   2.865   4.657   6.160
 4241SOL     OW13621   3.030   2.338   1.297
 4241SOL    HW113622   3.095   2.283   1.350
 4241SOL    HW213623   3.058   2.433   1.297
 4242SOL     OW13624   2.488   0.424   2.275
 4242SOL    HW113625   2.544   0.380   2.346
 4242SOL    HW213626   2.411   0.365   2.252
 4243SOL     OW13627   1.464   2.462   2.761
 4243SOL    HW113628   1.485   2.379   2.814
 4243SOL    HW213629   1.491   2.542   2.814
 4244SOL     OW13630   3.094   0.478   0.984
 4244SOL    HW113631   3.166   0.421   0.943
 4244SOL    HW213632   3.119   0.499   1.079
 4245SOL     OW13633   0.256   1.611   1.241
 4245SOL    HW113634   0.201   1.569   1.169
 4245SOL    HW213635   0.316   1.542   1.281
 4246SOL     OW13636   4.772   2.597   3.847
 4246SOL    HW113637   4.788   2.656   3.926
 4246SOL    HW213638   4.801   2.643   3.763
 4247SOL     OW13639   2.588   5.663   6.963
 4247SOL    HW113640   2.584   5.655   0.047
 4247SOL    HW213641   2.669   5.716   6.937
 4248SOL     OW13642   2.656   0.312   2.916
 4248SOL    HW113643   2.574   0.319   2.973
 4248SOL    HW213644   2.733   0.281   2.972
 4249SOL     OW13645   6.034   1.124   5.509
 4249SOL    HW113646   5.991   1.198   5.458
 4249SOL    HW213647   5.970   1.086   5.575
 4250SOL     OW13648   0.934   5.689   4.744
 4250SOL    HW113649   0.960   5.676   4.648
 4250SOL    HW213650   0.885   5.608   4.776
 4251SOL     OW13651   4.670   1.992   5.163
 4251SOL    HW113652   4.733   1.926   5.202
 4251SOL    HW213653   4.706   2.026   5.076
 4252SOL     OW13654   0.926   6.972   6.442
 4252SOL    HW113655   1.007   6.913   6.439
 4252SOL    HW213656   0.939   0.028   6.511
 4253SOL     OW13657   4.158   0.041   3.091
 4253SOL    HW113658   4.174   6.967   3.050
 4253SOL    HW213659   4.143   0.031   3.189
 4254SOL     OW13660   1.104   2.005   5.503
 4254SOL    HW113661   1.174   2.061   5.459
 4254SOL    HW213662   1.143   1.917   5.530
 4255SOL     OW13663   1.093   3.052   3.988
 4255SOL    HW113664   1.138   2.964   4.001
 4255SOL    HW213665   1.154   3.113   3.936
 4256SOL     OW13666   6.247   6.191   0.557
 4256SOL    HW113667   6.294   6.142   0.483
 4256SOL    HW213668   6.236   6.130   0.635
 4257SOL     OW13669   6.950   0.740   2.571
 4257SOL    HW113670   6.989   0.656   2.532
 4257SOL    HW213671   0.006   0.809   2.580
 4258SOL     OW13672   2.653   5.561   0.851
 4258SOL    HW113673   2.627   5.658   0.850
 4258SOL    HW213674   2.608   5.516   0.928
 4259SOL     OW13675   0.526   6.337   0.069
 4259SOL    HW113676   0.599   6.270   0.058
 4259SOL    HW213677   0.509   6.383   6.997
 4260SOL     OW13678   0.135   0.306   5.247
 4260SOL    HW113679   0.192   0.382   5.279
 4260SOL    HW213680   0.194   0.234   5.211
 4261SOL     OW13681   2.776   6.411   3.452
 4261SOL    HW113682   2.870   6.431   3.480
 4261SOL    HW213683   2.765   6.430   3.355
 4262SOL     OW13684   1.506   3.988   5.041
 4262SOL    HW113685   1.421   3.951   5.079
 4262SOL    HW213686   1.548   3.920   4.981
 4263SOL     OW13687   3.451   1.019   2.272
 4263SOL    HW113688   3.519   1.089   2.250
 4263SOL    HW213689   3.498   0.933   2.294
 4264SOL     OW13690   4.837   2.234   6.450
 4264SOL    HW113691   4.824   2.140   6.418
 4264SOL    HW213692   4.902   2.234   6.526
 4265SOL     OW13693   3.434   6.677   6.811
 4265SOL    HW113694   3.510   6.733   6.843
 4265SOL    HW213695   3.405   6.708   6.720
 4266SOL     OW13696   1.397   4.354   1.948
 4266SOL    HW113697   1.368   4.399   1.864
 4266SOL    HW213698   1.322   4.354   2.014
 4267SOL     OW13699   1.697   3.432   4.088
 4267SOL    HW113700   1.608   3.389   4.071
 4267SOL    HW213701   1.683   3.526   4.117
 4268SOL     OW13702   1.313   4.366   6.044
 4268SOL    HW113703   1.323   4.446   6.103
 4268SOL    HW213704   1.386   4.301   6.064
 4269SOL     OW13705   2.558   1.483   4.009
 4269SOL    HW113706   2.646   1.486   4.056
 4269SOL    HW213707   2.501   1.559   4.041
 4270SOL     OW13708   4.243   4.185   1.163
 4270SOL    HW113709   4.162   4.240   1.144
 4270SOL    HW213710   4.229   4.133   1.247
 4271SOL     OW13711   6.384   0.425   0.718
 4271SOL    HW113712   6.413   0.355   0.784
 4271SOL    HW213713   6.426   0.406   0.629
 4272SOL     OW13714   6.297   1.855   5.510
 4272SOL    HW113715   6.206   1.843   5.551
 4272SOL    HW213716   6.288   1.873   5.412
 4273SOL     OW13717   3.665   5.359   3.543
 4273SOL    HW113718   3.745   5.411   3.513
 4273SOL    HW213719   3.682   5.321   3.634
 4274SOL     OW13720   6.922   0.482   1.285
 4274SOL    HW113721   6.991   0.505   1.354
 4274SOL    HW213722   6.902   0.563   1.230
 4275SOL     OW13723   6.441   1.870   4.130
 4275SOL    HW113724   6.379   1.805   4.174
 4275SOL    HW213725   6.531   1.865   4.175
 4276SOL     OW13726   1.718   0.149   3.183
 4276SOL    HW113727   1.717   0.139   3.282
 4276SOL    HW213728   1.810   0.129   3.148
 4277SOL     OW13729   6.129   5.542   2.924
 4277SOL    HW113730   6.078   5.503   3.001
 4277SOL    HW213731   6.106   5.492   2.841
 4278SOL     OW13732   0.415   0.150   1.302
 4278SOL    HW113733   0.338   0.094   1.332
 4278SOL    HW213734   0.419   0.233   1.358
 4279SOL     OW13735   0.961   3.462   3.332
 4279SOL    HW113736   0.977   3.413   3.246
 4279SOL    HW213737   0.888   3.416   3.383
 4280SOL     OW13738   3.027   6.552   6.629
 4280SOL    HW113739   2.945   6.505   6.662
 4280SOL    HW213740   3.108   6.498   6.650
 4281SOL     OW13741   0.085   6.350   2.308
 4281SOL    HW113742   0.090   6.397   2.396
 4281SOL    HW213743   0.167   6.368   2.255
 4282SOL     OW13744   5.103   4.717   1.646
 4282SOL    HW113745   5.170   4.755   1.581
 4282SOL    HW213746   5.028   4.674   1.595
 4283SOL     OW13747   5.997   1.160   5.023
 4283SOL    HW113748   5.922   1.136   4.962
 4283SOL    HW213749   6.047   1.238   4.985
 4284SOL     OW13750   4.813   6.288   0.048
 4284SOL    HW113751   4.863   6.223   0.104
 4284SOL    HW213752   4.841   6.279   6.967
 4285SOL     OW13753   3.135   1.604   6.267
 4285SOL    HW113754   3.090   1.628   6.353
 4285SOL    HW213755   3.228   1.573   6.286
 4286SOL     OW13756   5.505   6.303   6.815
 4286SOL    HW113757   5.527   6.207   6.798
 4286SOL    HW213758   5.544   6.359   6.742
 4287SOL     OW13759   4.214   0.587   1.268
 4287SOL    HW113760   4.269   0.563   1.188
 4287SOL    HW213761   4.168   0.674   1.253
 4288SOL     OW13762   0.335   6.433   2.099
 4288SOL    HW113763   0.372   6.521   2.069
 4288SOL    HW213764   0.410   6.369   2.117
 4289SOL     OW13765   0.378   4.290   6.008
 4289SOL    HW113766   0.421   4.311   5.921
 4289SOL    HW213767   0.345   4.374   6.050
 4290SOL     OW13768   0.273   1.022   2.916
 4290SOL    HW113769   0.268   1.082   2.837
 4290SOL    HW213770   0.291   1.075   2.998
 4291SOL     OW13771   4.254   5.010   6.270
 4291SOL    HW113772   4.308   5.091   6.291
 4291SOL    HW213773   4.269   4.940   6.341
 4292SOL     OW13774   6.851   0.031   0.520
 4292SOL    HW113775   6.924   6.978   0.511
 4292SOL    HW213776   6.890   0.121   0.535
 4293SOL     OW13777   3.829   3.392   6.235
 4293SOL    HW113778   3.811   3.490   6.234
 4293SOL    HW213779   3.773   3.347   6.166
 4294SOL     OW13780   3.362   2.060   0.296
 4294SOL    HW113781   3.352   2.029   0.391
 4294SOL    HW213782   3.427   2.001   0.249
 4295SOL     OW13783   4.260   6.501   2.556
 4295SOL    HW113784   4.354   6.470   2.550
 4295SOL    HW213785   4.219   6.469   2.641
 4296SOL     OW13786   1.980   5.568   2.215
 4296SOL    HW113787   1.894   5.559   2.265
 4296SOL    HW213788   1.981   5.503   2.139
 4297SOL     OW13789   5.017   4.732   0.246
 4297SOL    HW113790   5.027   4.822   0.204
 4297SOL    HW213791   5.067   4.664   0.193
 4298SOL     OW13792   1.888   6.873   0.858
 4298SOL    HW113793   1.984   6.862   0.882
 4298SOL    HW213794   1.831   6.812   0.913
 4299SOL     OW13795   0.189   3.158   5.906
 4299SOL    HW113796   0.223   3.121   5.820
 4299SOL    HW213797   0.259   3.218   5.947
 4300SOL     OW13798   3.548   0.660   1.545
 4300SOL    HW113799   3.581   0.588   1.484
 4300SOL    HW213800   3.607   0.741   1.536
 4301SOL     OW13801   1.956   6.151   5.172
 4301SOL    HW113802   1.963   6.062   5.127
 4301SOL    HW213803   1.958   6.224   5.103
 4302SOL     OW13804   4.246   5.263   0.051
 4302SOL    HW113805   4.222   5.173   0.016
 4302SOL    HW213806   4.228   5.332   6.995
 4303SOL     OW13807   4.201   5.180   3.273
 4303SOL    HW113808   4.285   5.205   3.320
 4303SOL    HW213809   4.217   5.173   3.175
 4304SOL     OW13810   3.090   4.289   1.726
 4304SOL    HW113811   3.008   4.330   1.765
 4304SOL    HW213812   3.164   4.356   1.728
 4305SOL     OW13813   1.253   6.533   6.121
 4305SOL    HW113814   1.328   6.600   6.125
 4305SOL    HW213815   1.177   6.566   6.176
 4306SOL     OW13816   5.625   3.626   5.152
 4306SOL    HW113817   5.554   3.602   5.218
 4306SOL    HW213818   5.655   3.720   5.167
 4307SOL     OW13819   6.865   1.683   5.083
 4307SOL    HW113820   6.795   1.613   5.071
 4307SOL    HW213821   6.874   1.705   5.180
 4308SOL     OW13822   4.508   5.696   5.698
 4308SOL    HW113823   4.510   5.717   5.601
 4308SOL    HW213824   4.584   5.634   5.720
 4309SOL     OW13825   3.168   1.964   1.109
 4309SOL    HW113826   3.159   2.049   1.057
 4309SOL    HW213827   3.264   1.949   1.132
 4310SOL     OW13828   6.739   1.698   3.894
 4310SOL    HW113829   6.801   1.677   3.818
 4310SOL    HW213830   6.784   1.761   3.957
 4311SOL     OW13831   0.688   6.636   1.144
 4311SOL    HW113832   0.671   6.663   1.049
 4311SOL    HW213833   0.691   6.717   1.202
 4312SOL     OW13834   0.250   3.633   2.806
 4312SOL    HW113835   0.218   3.709   2.750
 4312SOL    HW213836   0.322   3.584   2.756
 4313SOL     OW13837   0.814   3.178   0.632
 4313SOL    HW113838   0.735   3.210   0.580
 4313SOL    HW213839   0.835   3.244   0.704
 4314SOL     OW13840   2.354   1.395   6.045
 4314SOL    HW113841   2.396   1.479   6.010
 4314SOL    HW213842   2.325   1.410   6.140
 4315SOL     OW13843   2.503   2.470   5.466
 4315SOL    HW113844   2.489   2.416   5.549
 4315SOL    HW213845   2.486   2.413   5.385
 4316SOL     OW13846   4.757   4.611   1.180
 4316SOL    HW113847   4.681   4.555   1.214
 4316SOL    HW213848   4.773   4.591   1.084
 4317SOL     OW13849   5.042   0.626   4.538
 4317SOL    HW113850   4.963   0.677   4.571
 4317SOL    HW213851   5.082   0.673   4.459
 4318SOL     OW13852   1.557   6.196   3.850
 4318SOL    HW113853   1.578   6.291   3.825
 4318SOL    HW213854   1.496   6.195   3.929
 4319SOL     OW13855   2.057   4.573   1.765
 4319SOL    HW113856   2.045   4.477   1.739
 4319SOL    HW213857   2.144   4.607   1.730
 4320SOL     OW13858   3.782   1.264   1.639
 4320SOL    HW113859   3.742   1.356   1.649
 4320SOL    HW213860   3.780   1.237   1.543
 4321SOL     OW13861   6.783   5.830   3.053
 4321SOL    HW113862   6.816   5.790   3.138
 4321SOL    HW213863   6.686   5.807   3.041
 4322SOL     OW13864   2.741   1.982   4.806
 4322SOL    HW113865   2.686   1.930   4.740
 4322SOL    HW213866   2.739   2.079   4.782
 4323SOL     OW13867   5.642   4.022   1.445
 4323SOL    HW113868   5.554   4.054   1.411
 4323SOL    HW213869   5.676   3.949   1.385
 4324SOL     OW13870   6.577   3.868   5.178
 4324SOL    HW113871   6.645   3.863   5.105
 4324SOL    HW213872   6.540   3.961   5.181
 4325SOL     OW13873   1.392   0.677   1.384
 4325SOL    HW113874   1.470   0.740   1.382
 4325SOL    HW213875   1.345   0.679   1.297
 4326SOL     OW13876   4.929   2.692   2.987
 4326SOL    HW113877   5.025   2.683   2.960
 4326SOL    HW213878   4.880   2.743   2.917
 4327SOL     OW13879   3.087   6.877   3.821
 4327SOL    HW113880   2.990   6.855   3.827
 4327SOL    HW213881   3.141   6.793   3.833
 4328SOL     OW13882   6.079   0.148   2.328
 4328SOL    HW113883   6.027   0.168   2.411
 4328SOL    HW213884   6.120   0.232   2.293
 4329SOL     OW13885   5.949   4.147   0.545
 4329SOL    HW113886   5.929   4.114   0.452
 4329SOL    HW213887   6.029   4.098   0.581
 4330SOL     OW13888   2.620   5.699   5.471
 4330SOL    HW113889   2.639   5.628   5.403
 4330SOL    HW213890   2.521   5.707   5.485
 4331SOL     OW13891   5.988   1.552   3.025
 4331SOL    HW113892   5.895   1.578   3.000
 4331SOL    HW213893   5.988   1.460   3.066
 4332SOL     OW13894   6.967   5.656   1.229
 4332SOL    HW113895   6.952   5.622   1.136
 4332SOL    HW213896   6.878   5.675   1.272
 4333SOL     OW13897   3.416   2.900   6.188
 4333SOL    HW113898   3.504   2.858   6.166
 4333SOL    HW213899   3.407   2.986   6.138
 4334SOL     OW13900   0.493   2.372   3.949
 4334SOL    HW113901   0.415   2.327   3.992
 4334SOL    HW213902   0.522   2.318   3.870
 4335SOL     OW13903   2.235   3.606   1.472
 4335SOL    HW113904   2.150   3.581   1.519
 4335SOL    HW213905   2.273   3.688   1.514
 4336SOL     OW13906   2.227   5.050   5.359
 4336SOL    HW113907   2.326   5.043   5.354
 4336SOL    HW213908   2.191   4.976   5.415
 4337SOL     OW13909   6.923   4.519   4.187
 4337SOL    HW113910   6.899   4.597   4.130
 4337SOL    HW213911   6.973   4.452   4.132
 4338SOL     OW13912   3.347   2.992   5.496
 4338SOL    HW113913   3.308   3.069   5.446
 4338SOL    HW213914   3.389   2.928   5.431
 4339SOL     OW13915   4.238   3.955   5.464
 4339SOL    HW113916   4.262   3.872   5.412
 4339SOL    HW213917   4.206   4.025   5.400
 4340SOL     OW13918   0.039   3.963   0.163
 4340SOL    HW113919   7.012   3.881   0.122
 4340SOL    HW213920   0.007   3.973   0.257
 4341SOL     OW13921   6.256   6.007   1.250
 4341SOL    HW113922   6.207   6.042   1.170
 4341SOL    HW213923   6.279   5.911   1.236
 4342SOL     OW13924   4.902   3.727   2.321
 4342SOL    HW113925   4.931   3.632   2.335
 4342SOL    HW213926   4.879   3.768   2.409
 4343SOL     OW13927   4.805   0.341   6.327
 4343SOL    HW113928   4.769   0.383   6.243
 4343SOL    HW213929   4.827   0.245   6.309
 4344SOL     OW13930   1.461   3.973   1.725
 4344SOL    HW113931   1.497   3.880   1.719
 4344SOL    HW213932   1.396   3.979   1.800
 4345SOL     OW13933   3.718   2.913   3.003
 4345SOL    HW113934   3.656   2.987   3.029
 4345SOL    HW213935   3.698   2.883   2.910
 4346SOL     OW13936   1.033   3.922   2.780
 4346SOL    HW113937   0.940   3.892   2.799
 4346SOL    HW213938   1.097   3.872   2.839
 4347SOL     OW13939   6.359   5.830   0.973
 4347SOL    HW113940   6.395   5.760   0.912
 4347SOL    HW213941   6.395   5.920   0.947
 4348SOL     OW13942   6.354   4.227   5.931
 4348SOL    HW113943   6.436   4.257   5.883
 4348SOL    HW213944   6.359   4.253   6.027
 4349SOL     OW13945   0.946   4.136   4.098
 4349SOL    HW113946   0.846   4.130   4.089
 4349SOL    HW213947   0.978   4.058   4.152
 4350SOL     OW13948   5.304   0.296   4.177
 4350SOL    HW113949   5.322   0.361   4.104
 4350SOL    HW213950   5.292   0.204   4.138
 4351SOL     OW13951   0.591   5.846   0.986
 4351SOL    HW113952   0.493   5.865   0.977
 4351SOL    HW213953   0.642   5.898   0.918
 4352SOL     OW13954   3.405   4.313   1.336
 4352SOL    HW113955   3.447   4.260   1.409
 4352SOL    HW213956   3.446   4.404   1.332
 4353SOL     OW13957   2.210   3.983   0.206
 4353SOL    HW113958   2.252   4.062   0.252
 4353SOL    HW213959   2.245   3.977   0.113
 4354SOL     OW13960   5.146   5.438   1.896
 4354SOL    HW113961   5.223   5.395   1.943
 4354SOL    HW213962   5.085   5.368   1.861
 4355SOL     OW13963   1.892   4.839   3.373
 4355SOL    HW113964   1.945   4.756   3.389
 4355SOL    HW213965   1.930   4.887   3.294
 4356SOL     OW13966   5.843   1.870   5.719
 4356SOL    HW113967   5.832   1.897   5.815
 4356SOL    HW213968   5.791   1.786   5.702
 4357SOL     OW13969   5.265   5.975   2.827
 4357SOL    HW113970   5.317   5.905   2.777
 4357SOL    HW213971   5.316   6.001   2.909
 4358SOL     OW13972   2.786   0.526   1.196
 4358SOL    HW113973   2.702   0.556   1.242
 4358SOL    HW213974   2.792   0.427   1.200
 4359SOL     OW13975   2.584   2.288   1.150
 4359SOL    HW113976   2.584   2.307   1.052
 4359SOL    HW213977   2.650   2.347   1.196
 4360SOL     OW13978   3.238   6.013   3.693
 4360SOL    HW113979   3.309   5.968   3.639
 4360SOL    HW213980   3.262   6.110   3.706
 4361SOL     OW13981   1.833   1.254   6.552
 4361SOL    HW113982   1.799   1.304   6.630
 4361SOL    HW213983   1.765   1.187   6.522
 4362SOL     OW13984   0.185   5.877   2.786
 4362SOL    HW113985   0.235   5.916   2.863
 4362SOL    HW213986   0.087   5.891   2.800
 4363SOL     OW13987   3.705   0.306   2.263
 4363SOL    HW113988   3.779   0.337   2.322
 4363SOL    HW213989   3.621   0.355   2.287
 4364SOL     OW13990   3.107   4.067   3.440
 4364SOL    HW113991   3.187   4.105   3.392
 4364SOL    HW213992   3.067   3.994   3.384
 4365SOL     OW13993   2.771   1.400   1.137
 4365SOL    HW113994   2.702   1.375   1.070
 4365SOL    HW213995   2.854   1.431   1.089
 4366SOL     OW13996   4.660   5.287   4.860
 4366SOL    HW113997   4.570   5.277   4.818
 4366SOL    HW213998   4.725   5.227   4.815
 4367SOL     OW13999   2.186   6.816   1.698
 4367SOL    HW114000   2.134   6.746   1.649
 4367SOL    HW214001   2.284   6.803   1.681
 4368SOL     OW14002   4.790   4.419   4.508
 4368SOL    HW114003   4.882   4.452   4.486
 4368SOL    HW214004   4.787   4.320   4.496
 4369SOL     OW14005   6.011   4.468   3.694
 4369SOL    HW114006   6.107   4.482   3.719
 4369SOL    HW214007   6.003   4.461   3.595
 4370SOL     OW14008   4.603   4.647   0.680
 4370SOL    HW114009   4.666   4.634   0.603
 4370SOL    HW214010   4.562   4.559   0.704
 4371SOL     OW14011   3.734   1.441   3.350
 4371SOL    HW114012   3.642   1.434   3.312
 4371SOL    HW214013   3.732   1.413   3.446
 4372SOL     OW14014   1.688   4.497   4.824
 4372SOL    HW114015   1.743   4.525   4.745
 4372SOL    HW214016   1.591   4.512   4.803
 4373SOL     OW14017   4.373   0.401   0.407
 4373SOL    HW114018   4.458   0.402   0.458
 4373SOL    HW214019   4.369   0.482   0.348
 4374SOL     OW14020   2.135   6.161   0.575
 4374SOL    HW114021   2.152   6.253   0.541
 4374SOL    HW214022   2.212   6.132   0.632
 4375SOL     OW14023   4.844   1.178   5.834
 4375SOL    HW114024   4.805   1.239   5.765
 4375SOL    HW214025   4.770   1.136   5.887
 4376SOL     OW14026   3.291   4.942   6.923
 4376SOL    HW114027   3.219   5.005   6.894
 4376SOL    HW214028   3.251   4.872   6.982
 4377SOL     OW14029   5.328   5.896   6.450
 4377SOL    HW114030   5.264   5.906   6.373
 4377SOL    HW214031   5.368   5.985   6.471
 4378SOL     OW14032   3.375   4.971   1.407
 4378SOL    HW114033   3.298   4.921   1.446
 4378SOL    HW214034   3.379   5.062   1.449
 4379SOL     OW14035   6.847   6.120   0.366
 4379SOL    HW114036   6.790   6.097   0.287
 4379SOL    HW214037   6.911   6.192   0.341
 4380SOL     OW14038   2.024   5.484   4.974
 4380SOL    HW114039   2.038   5.463   4.877
 4380SOL    HW214040   1.985   5.576   4.982
 4381SOL     OW14041   3.439   6.222   4.577
 4381SOL    HW114042   3.515   6.168   4.539
 4381SOL    HW214043   3.416   6.297   4.515
 4382SOL     OW14044   5.055   4.187   3.000
 4382SOL    HW114045   4.985   4.248   3.037
 4382SOL    HW214046   5.022   4.146   2.915
 4383SOL     OW14047   1.507   0.604   0.686
 4383SOL    HW114048   1.531   0.690   0.641
 4383SOL    HW214049   1.408   0.592   0.684
 4384SOL     OW14050   3.791   6.840   2.049
 4384SOL    HW114051   3.787   6.904   1.972
 4384SOL    HW214052   3.883   6.839   2.087
 4385SOL     OW14053   6.254   2.554   4.194
 4385SOL    HW114054   6.260   2.494   4.114
 4385SOL    HW214055   6.209   2.640   4.167
 4386SOL     OW14056   2.180   5.158   6.801
 4386SOL    HW114057   2.105   5.114   6.752
 4386SOL    HW214058   2.264   5.149   6.748
 4387SOL     OW14059   5.842   2.029   1.070
 4387SOL    HW114060   5.879   2.103   1.015
 4387SOL    HW214061   5.888   2.026   1.159
 4388SOL     OW14062   4.103   1.156   6.004
 4388SOL    HW114063   4.072   1.062   5.987
 4388SOL    HW214064   4.135   1.196   5.918
 4389SOL     OW14065   0.277   2.616   2.725
 4389SOL    HW114066   0.326   2.530   2.723
 4389SOL    HW214067   0.338   2.689   2.754
 4390SOL     OW14068   4.204   3.916   1.061
 4390SOL    HW114069   4.181   4.013   1.058
 4390SOL    HW214070   4.268   3.899   1.135
 4391SOL     OW14071   0.537   5.852   0.378
 4391SOL    HW114072   0.540   5.802   0.464
 4391SOL    HW214073   0.484   5.799   0.311
 4392SOL     OW14074   5.268   5.126   5.329
 4392SOL    HW114075   5.179   5.112   5.285
 4392SOL    HW214076   5.316   5.038   5.337
 4393SOL     OW14077   5.168   6.820   3.160
 4393SOL    HW114078   5.153   6.900   3.101
 4393SOL    HW214079   5.265   6.813   3.183
 4394SOL     OW14080   4.370   0.478   2.150
 4394SOL    HW114081   4.369   0.554   2.214
 4394SOL    HW214082   4.366   0.392   2.200
 4395SOL     OW14083   4.485   2.419   0.855
 4395SOL    HW114084   4.524   2.486   0.918
 4395SOL    HW214085   4.556   2.353   0.829
 4396SOL     OW14086   1.470   1.652   3.266
 4396SOL    HW114087   1.433   1.740   3.237
 4396SOL    HW214088   1.469   1.646   3.365
 4397SOL     OW14089   4.484   0.864   6.757
 4397SOL    HW114090   4.394   0.847   6.797
 4397SOL    HW214091   4.516   0.781   6.711
 4398SOL     OW14092   0.626   5.266   4.378
 4398SOL    HW114093   0.594   5.175   4.352
 4398SOL    HW214094   0.555   5.312   4.432
 4399SOL     OW14095   2.906   0.545   2.074
 4399SOL    HW114096   2.959   0.518   1.993
 4399SOL    HW214097   2.857   0.629   2.055
 4400SOL     OW14098   3.334   4.885   2.612
 4400SOL    HW114099   3.306   4.879   2.708
 4400SOL    HW214100   3.252   4.884   2.555
 4401SOL     OW14101   5.487   6.153   4.855
 4401SOL    HW114102   5.500   6.249   4.879
 4401SOL    HW214103   5.574   6.104   4.868
 4402SOL     OW14104   6.795   6.505   1.591
 4402SOL    HW114105   6.778   6.517   1.689
 4402SOL    HW214106   6.842   6.418   1.576
 4403SOL     OW14107   6.416   1.278   3.019
 4403SOL    HW114108   6.376   1.210   3.080
 4403SOL    HW214109   6.344   1.327   2.970
 4404SOL     OW14110   1.982   4.219   2.251
 4404SOL    HW114111   1.954   4.286   2.319
 4404SOL    HW214112   2.010   4.135   2.296
 4405SOL     OW14113   2.512   3.754   6.198
 4405SOL    HW114114   2.550   3.665   6.172
 4405SOL    HW214115   2.519   3.817   6.120
 4406SOL     OW14116   6.217   2.598   2.121
 4406SOL    HW114117   6.205   2.573   2.217
 4406SOL    HW214118   6.282   2.535   2.078
 4407SOL     OW14119   1.146   0.956   0.405
 4407SOL    HW114120   1.231   1.004   0.385
 4407SOL    HW214121   1.103   0.927   0.319
 4408SOL     OW14122   3.974   6.242   1.362
 4408SOL    HW114123   4.023   6.318   1.403
 4408SOL    HW214124   4.018   6.156   1.387
 4409SOL     OW14125   3.490   2.112   2.537
 4409SOL    HW114126   3.533   2.110   2.447
 4409SOL    HW214127   3.393   2.092   2.529
 4410SOL     OW14128   2.206   5.755   0.795
 4410SOL    HW114129   2.259   5.720   0.717
 4410SOL    HW214130   2.149   5.682   0.832
 4411SOL     OW14131   3.822   3.459   2.316
 4411SOL    HW114132   3.793   3.443   2.411
 4411SOL    HW214133   3.747   3.435   2.254
 4412SOL     OW14134   4.124   1.178   6.499
 4412SOL    HW114135   4.096   1.205   6.406
 4412SOL    HW214136   4.222   1.194   6.509
 4413SOL     OW14137   4.053   5.489   4.023
 4413SOL    HW114138   4.084   5.465   3.931
 4413SOL    HW214139   4.026   5.585   4.024
 4414SOL     OW14140   3.407   4.979   2.118
 4414SOL    HW114141   3.386   5.062   2.066
 4414SOL    HW214142   3.481   4.930   2.073
 4415SOL     OW14143   4.624   1.688   1.833
 4415SOL    HW114144   4.707   1.656   1.878
 4415SOL    HW214145   4.545   1.670   1.892
 4416SOL     OW14146   2.379   2.303   4.419
 4416SOL    HW114147   2.310   2.238   4.451
 4416SOL    HW214148   2.339   2.395   4.416
 4417SOL     OW14149   5.860   0.032   0.917
 4417SOL    HW114150   5.810   0.111   0.952
 4417SOL    HW214151   5.819   6.963   0.952
 4418SOL     OW14152   5.077   0.476   3.345
 4418SOL    HW114153   5.103   0.380   3.339
 4418SOL    HW214154   4.983   0.483   3.379
 4419SOL     OW14155   6.016   5.427   6.309
 4419SOL    HW114156   6.001   5.364   6.233
 4419SOL    HW214157   6.042   5.517   6.273
 4420SOL     OW14158   5.113   1.073   0.909
 4420SOL    HW114159   5.080   1.167   0.897
 4420SOL    HW214160   5.060   1.011   0.852
 4421SOL     OW14161   0.058   1.182   3.251
 4421SOL    HW114162   6.983   1.170   3.211
 4421SOL    HW214163   0.062   1.270   3.299
 4422SOL     OW14164   1.680   3.802   5.774
 4422SOL    HW114165   1.732   3.886   5.761
 4422SOL    HW214166   1.709   3.757   5.858
 4423SOL     OW14167   6.893   1.894   6.088
 4423SOL    HW114168   6.938   1.896   5.999
 4423SOL    HW214169   6.931   1.967   6.146
 4424SOL     OW14170   1.655   5.452   3.564
 4424SOL    HW114171   1.563   5.454   3.603
 4424SOL    HW214172   1.679   5.357   3.542
 4425SOL     OW14173   4.843   3.999   1.834
 4425SOL    HW114174   4.935   4.015   1.869
 4425SOL    HW214175   4.817   3.903   1.852
 4426SOL     OW14176   0.174   6.965   6.820
 4426SOL    HW114177   0.083   6.941   6.786
 4426SOL    HW214178   0.211   6.889   6.874
 4427SOL     OW14179   0.926   5.470   3.266
 4427SOL    HW114180   1.016   5.465   3.310
 4427SOL    HW214181   0.903   5.382   3.226
 4428SOL     OW14182   1.152   6.978   2.757
 4428SOL    HW114183   1.072   7.013   2.805
 4428SOL    HW214184   1.181   6.892   2.799
 4429SOL     OW14185   2.928   0.504   2.832
 4429SOL    HW114186   2.925   0.452   2.917
 4429SOL    HW214187   2.835   0.519   2.798
 4430SOL     OW14188   1.954   0.676   1.922
 4430SOL    HW114189   1.858   0.689   1.944
 4430SOL    HW214190   1.999   0.627   1.996
 4431SOL     OW14191   2.168   2.164   3.237
 4431SOL    HW114192   2.261   2.178   3.271
 4431SOL    HW214193   2.167   2.174   3.137
 4432SOL     OW14194   2.875   3.601   4.445
 4432SOL    HW114195   2.890   3.503   4.435
 4432SOL    HW214196   2.849   3.640   4.356
 4433SOL     OW14197   6.671   0.350   2.317
 4433SOL    HW114198   6.736   0.382   2.386
 4433SOL    HW214199   6.687   0.400   2.231
 4434SOL     OW14200   5.970   2.095   5.352
 4434SOL    HW114201   5.897   2.058   5.410
 4434SOL    HW214202   5.930   2.134   5.269
 4435SOL     OW14203   3.683   2.964   1.764
 4435SOL    HW114204   3.782   2.958   1.767
 4435SOL    HW214205   3.651   3.029   1.834
 4436SOL     OW14206   5.561   0.359   0.033
 4436SOL    HW114207   5.637   0.412   0.071
 4436SOL    HW214208   5.538   0.395   6.958
 4437SOL     OW14209   3.351   0.081   5.798
 4437SOL    HW114210   3.260   0.114   5.822
 4437SOL    HW214211   3.410   0.158   5.776
 4438SOL     OW14212   3.843   2.419   6.608
 4438SOL    HW114213   3.772   2.395   6.541
 4438SOL    HW214214   3.842   2.518   6.623
 4439SOL     OW14215   1.578   4.168   2.945
 4439SOL    HW114216   1.527   4.238   2.996
 4439SOL    HW214217   1.584   4.195   2.849
 4440SOL     OW14218   6.427   0.949   0.676
 4440SOL    HW114219   6.423   0.850   0.690
 4440SOL    HW214220   6.334   0.984   0.666
 4441SOL     OW14221   6.634   0.060   4.042
 4441SOL    HW114222   6.687   0.130   4.089
 4441SOL    HW214223   6.691   6.994   4.028
 4442SOL     OW14224   1.700   5.563   2.329
 4442SOL    HW114225   1.670   5.586   2.422
 4442SOL    HW214226   1.672   5.469   2.308
 4443SOL     OW14227   2.617   1.153   0.955
 4443SOL    HW114228   2.588   1.083   0.890
 4443SOL    HW214229   2.699   1.123   1.003
 4444SOL     OW14230   4.993   1.484   3.163
 4444SOL    HW114231   5.054   1.541   3.107
 4444SOL    HW214232   4.945   1.419   3.105
 4445SOL     OW14233   0.704   1.455   6.356
 4445SOL    HW114234   0.800   1.481   6.350
 4445SOL    HW214235   0.654   1.493   6.278
 4446SOL     OW14236   6.081   5.307   4.163
 4446SOL    HW114237   6.004   5.296   4.225
 4446SOL    HW214238   6.105   5.404   4.156
 4447SOL     OW14239   4.855   3.915   5.061
 4447SOL    HW114240   4.853   3.822   5.096
 4447SOL    HW214241   4.803   3.920   4.976
 4448SOL     OW14242   2.437   3.355   6.753
 4448SOL    HW114243   2.478   3.379   6.665
 4448SOL    HW214244   2.368   3.285   6.739
 4449SOL     OW14245   0.070   0.932   5.498
 4449SOL    HW114246   0.021   0.984   5.428
 4449SOL    HW214247   0.004   0.884   5.556
 4450SOL     OW14248   3.742   3.585   3.204
 4450SOL    HW114249   3.804   3.560   3.129
 4450SOL    HW214250   3.796   3.608   3.285
 4451SOL     OW14251   0.278   4.635   1.085
 4451SOL    HW114252   0.275   4.535   1.089
 4451SOL    HW214253   0.331   4.670   1.161
 4452SOL     OW14254   6.918   3.389   6.465
 4452SOL    HW114255   6.972   3.417   6.385
 4452SOL    HW214256   6.955   3.304   6.503
 4453SOL     OW14257   5.662   0.704   0.725
 4453SOL    HW114258   5.620   0.795   0.725
 4453SOL    HW214259   5.634   0.655   0.807
 4454SOL     OW14260   5.478   2.836   1.649
 4454SOL    HW114261   5.508   2.833   1.553
 4454SOL    HW214262   5.498   2.926   1.687
 4455SOL     OW14263   4.383   2.443   2.827
 4455SOL    HW114264   4.291   2.449   2.866
 4455SOL    HW214265   4.376   2.425   2.729
 4456SOL     OW14266   0.307   5.652   2.267
 4456SOL    HW114267   0.241   5.692   2.331
 4456SOL    HW214268   0.378   5.719   2.247
 4457SOL     OW14269   4.331   2.358   6.514
 4457SOL    HW114270   4.241   2.333   6.547
 4457SOL    HW214271   4.326   2.382   6.417
 4458SOL     OW14272   3.933   1.589   1.119
 4458SOL    HW114273   3.858   1.627   1.173
 4458SOL    HW214274   4.016   1.643   1.134
 4459SOL     OW14275   5.937   5.998   5.793
 4459SOL    HW114276   5.884   6.034   5.870
 4459SOL    HW214277   5.962   6.072   5.731
 4460SOL     OW14278   1.346   1.724   0.401
 4460SOL    HW114279   1.253   1.687   0.409
 4460SOL    HW214280   1.374   1.721   0.305
 4461SOL     OW14281   1.981   0.090   3.028
 4461SOL    HW114282   1.928   0.051   2.952
 4461SOL    HW214283   2.017   0.179   3.000
 4462SOL     OW14284   6.918   3.986   0.433
 4462SOL    HW114285   6.886   3.922   0.504
 4462SOL    HW214286   6.966   4.062   0.477
 4463SOL     OW14287   0.748   4.354   6.883
 4463SOL    HW114288   0.709   4.333   6.793
 4463SOL    HW214289   0.677   4.391   6.942
 4464SOL     OW14290   6.608   2.580   6.899
 4464SOL    HW114291   6.661   2.506   6.939
 4464SOL    HW214292   6.568   2.636   6.971
 4465SOL     OW14293   6.160   5.109   1.038
 4465SOL    HW114294   6.146   5.013   1.064
 4465SOL    HW214295   6.121   5.168   1.109
 4466SOL     OW14296   0.194   2.946   3.477
 4466SOL    HW114297   0.245   2.863   3.454
 4466SOL    HW214298   0.250   3.026   3.457
 4467SOL     OW14299   1.374   0.616   4.118
 4467SOL    HW114300   1.405   0.527   4.152
 4467SOL    HW214301   1.330   0.604   4.029
 4468SOL     OW14302   1.319   1.945   0.837
 4468SOL    HW114303   1.308   1.933   0.739
 4468SOL    HW214304   1.415   1.937   0.862
 4469SOL     OW14305   4.764   6.630   0.721
 4469SOL    HW114306   4.792   6.658   0.812
 4469SOL    HW214307   4.798   6.538   0.702
 4470SOL     OW14308   4.797   4.650   1.742
 4470SOL    HW114309   4.762   4.571   1.793
 4470SOL    HW214310   4.812   4.624   1.646
 4471SOL     OW14311   5.931   2.493   1.901
 4471SOL    HW114312   5.867   2.515   1.828
 4471SOL    HW214313   5.881   2.455   1.979
 4472SOL     OW14314   2.348   5.081   1.469
 4472SOL    HW114315   2.389   5.125   1.388
 4472SOL    HW214316   2.419   5.033   1.521
 4473SOL     OW14317   5.975   0.656   0.308
 4473SOL    HW114318   5.903   0.699   0.362
 4473SOL    HW214319   6.025   0.726   0.257
 4474SOL     OW14320   5.992   1.006   4.624
 4474SOL    HW114321   6.040   0.919   4.611
 4474SOL    HW214322   5.965   1.043   4.535
 4475SOL     OW14323   1.498   3.303   0.401
 4475SOL    HW114324   1.508   3.368   0.476
 4475SOL    HW214325   1.427   3.236   0.424
 4476SOL     OW14326   4.177   6.447   2.814
 4476SOL    HW114327   4.271   6.449   2.848
 4476SOL    HW214328   4.114   6.432   2.890
 4477SOL     OW14329   2.050   1.997   1.054
 4477SOL    HW114330   2.121   2.061   1.085
 4477SOL    HW214331   2.041   2.003   0.955
 4478SOL     OW14332   1.411   5.003   1.122
 4478SOL    HW114333   1.353   5.001   1.041
 4478SOL    HW214334   1.417   4.911   1.161
 4479SOL     OW14335   1.796   0.153   5.968
 4479SOL    HW114336   1.738   0.071   5.973
 4479SOL    HW214337   1.869   0.138   5.901
 4480SOL     OW14338   0.062   4.070   3.393
 4480SOL    HW114339   0.087   4.011   3.316
 4480SOL    HW214340   7.013   4.021   3.452
 4481SOL     OW14341   0.566   1.170   4.119
 4481SOL    HW114342   0.658   1.135   4.101
 4481SOL    HW214343   0.570   1.268   4.136
 4482SOL     OW14344   1.003   4.192   2.982
 4482SOL    HW114345   1.039   4.105   3.014
 4482SOL    HW214346   0.917   4.212   3.030
 4483SOL     OW14347   5.467   3.460   0.336
 4483SOL    HW114348   5.496   3.380   0.389
 4483SOL    HW214349   5.406   3.431   0.262
 4484SOL     OW14350   3.229   3.583   6.688
 4484SOL    HW114351   3.133   3.608   6.700
 4484SOL    HW214352   3.241   3.487   6.710
 4485SOL     OW14353   4.804   6.917   6.336
 4485SOL    HW114354   4.726   6.902   6.396
 4485SOL    HW214355   4.782   6.990   6.271
 4486SOL     OW14356   6.184   3.331   4.139
 4486SOL    HW114357   6.259   3.321   4.204
 4486SOL    HW214358   6.097   3.340   4.189
 4487SOL     OW14359   3.196   3.243   5.822
 4487SOL    HW114360   3.129   3.306   5.861
 4487SOL    HW214361   3.277   3.293   5.794
 4488SOL     OW14362   6.849   2.175   6.513
 4488SOL    HW114363   6.761   2.136   6.486
 4488SOL    HW214364   6.919   2.104   6.513
 4489SOL     OW14365   0.990   0.866   2.460
 4489SOL    HW114366   0.920   0.854   2.390
 4489SOL    HW214367   0.962   0.938   2.524
 4490SOL     OW14368   6.642   1.840   4.317
 4490SOL    HW114369   6.661   1.883   4.405
 4490SOL    HW214370   6.729   1.818   4.271
 4491SOL     OW14371   1.614   4.295   2.393
 4491SOL    HW114372   1.665   4.244   2.324
 4491SOL    HW214373   1.545   4.236   2.435
 4492SOL     OW14374   5.217   3.937   6.065
 4492SOL    HW114375   5.262   3.861   6.111
 4492SOL    HW214376   5.119   3.918   6.057
 4493SOL     OW14377   5.941   4.576   3.341
 4493SOL    HW114378   6.007   4.507   3.372
 4493SOL    HW214379   5.984   4.635   3.273
 4494SOL     OW14380   5.572   1.838   1.817
 4494SOL    HW114381   5.645   1.840   1.885
 4494SOL    HW214382   5.540   1.931   1.800
 4495SOL     OW14383   5.462   5.494   1.665
 4495SOL    HW114384   5.470   5.434   1.745
 4495SOL    HW214385   5.375   5.543   1.669
 4496SOL     OW14386   6.174   3.426   6.059
 4496SOL    HW114387   6.148   3.441   6.155
 4496SOL    HW214388   6.174   3.514   6.011
 4497SOL     OW14389   6.736   5.866   0.877
 4497SOL    HW114390   6.797   5.919   0.818
 4497SOL    HW214391   6.707   5.923   0.954
 4498SOL     OW14392   1.072   4.069   6.136
 4498SOL    HW114393   1.116   4.119   6.210
 4498SOL    HW214394   1.002   4.009   6.174
 4499SOL     OW14395   5.246   3.733   0.191
 4499SOL    HW114396   5.213   3.804   0.130
 4499SOL    HW214397   5.334   3.699   0.159
 4500SOL     OW14398   4.045   3.778   2.564
 4500SOL    HW114399   4.040   3.764   2.465
 4500SOL    HW214400   4.065   3.691   2.609
 4501SOL     OW14401   1.455   4.719   4.929
 4501SOL    HW114402   1.411   4.689   4.845
 4501SOL    HW214403   1.441   4.650   5.001
 4502SOL     OW14404   5.473   2.489   0.088
 4502SOL    HW114405   5.419   2.569   0.060
 4502SOL    HW214406   5.568   2.516   0.103
 4503SOL     OW14407   1.238   3.296   2.500
 4503SOL    HW114408   1.314   3.242   2.463
 4503SOL    HW214409   1.273   3.383   2.535
 4504SOL     OW14410   4.457   2.488   4.441
 4504SOL    HW114411   4.368   2.477   4.397
 4504SOL    HW214412   4.452   2.457   4.536
 4505SOL     OW14413   2.154   4.982   0.742
 4505SOL    HW114414   2.241   5.016   0.705
 4505SOL    HW214415   2.081   5.047   0.721
 4506SOL     OW14416   3.507   0.325   5.811
 4506SOL    HW114417   3.492   0.342   5.713
 4506SOL    HW214418   3.600   0.353   5.835
 4507SOL     OW14419   6.190   3.557   2.138
 4507SOL    HW114420   6.195   3.515   2.048
 4507SOL    HW214421   6.094   3.577   2.160
 4508SOL     OW14422   2.023   4.065   0.481
 4508SOL    HW114423   1.944   4.097   0.534
 4508SOL    HW214424   1.995   3.988   0.424
 4509SOL     OW14425   0.550   2.734   2.695
 4509SOL    HW114426   0.508   2.804   2.751
 4509SOL    HW214427   0.639   2.766   2.662
 4510SOL     OW14428   2.865   6.625   6.088
 4510SOL    HW114429   2.883   6.636   6.186
 4510SOL    HW214430   2.931   6.561   6.049
 4511SOL     OW14431   6.888   1.992   0.260
 4511SOL    HW114432   6.806   1.995   0.204
 4511SOL    HW214433   6.864   2.010   0.356
 4512SOL     OW14434   2.533   3.944   6.913
 4512SOL    HW114435   2.624   3.963   6.949
 4512SOL    HW214436   2.527   3.975   6.818
 4513SOL     OW14437   6.148   1.190   2.986
 4513SOL    HW114438   6.141   1.223   2.892
 4513SOL    HW214439   6.167   1.092   2.986
 4514SOL     OW14440   2.313   0.425   5.346
 4514SOL    HW114441   2.296   0.463   5.437
 4514SOL    HW214442   2.324   0.500   5.280
 4515SOL     OW14443   6.982   4.992   0.158
 4515SOL    HW114444   6.934   5.008   0.072
 4515SOL    HW214445   0.037   4.922   0.144
 4516SOL     OW14446   0.631   0.019   3.490
 4516SOL    HW114447   0.645   6.939   3.462
 4516SOL    HW214448   0.618   0.022   3.589
 4517SOL     OW14449   2.700   1.115   6.732
 4517SOL    HW114450   2.713   1.124   6.831
 4517SOL    HW214451   2.694   1.018   6.708
 4518SOL     OW14452   1.533   6.771   3.642
 4518SOL    HW114453   1.455   6.762   3.580
 4518SOL    HW214454   1.510   6.836   3.715
 4519SOL     OW14455   6.821   2.234   4.901
 4519SOL    HW114456   6.903   2.282   4.870
 4519SOL    HW214457   6.740   2.272   4.855
 4520SOL     OW14458   6.997   3.506   2.734
 4520SOL    HW114459   6.933   3.556   2.793
 4520SOL    HW214460   0.075   3.514   2.772
 4521SOL     OW14461   5.277   1.538   6.527
 4521SOL    HW114462   5.273   1.549   6.428
 4521SOL    HW214463   5.244   1.622   6.571
 4522SOL     OW14464   5.709   6.750   3.275
 4522SOL    HW114465   5.697   6.785   3.182
 4522SOL    HW214466   5.619   6.739   3.318
 4523SOL     OW14467   4.670   2.319   5.585
 4523SOL    HW114468   4.675   2.377   5.667
 4523SOL    HW214469   4.579   2.280   5.577
 4524SOL     OW14470   5.905   0.449   5.042
 4524SOL    HW114471   5.939   0.542   5.028
 4524SOL    HW214472   5.904   0.428   5.139
 4525SOL     OW14473   6.465   1.204   4.296
 4525SOL    HW114474   6.467   1.286   4.238
 4525SOL    HW214475   6.539   1.210   4.363
 4526SOL     OW14476   3.169   1.554   1.491
 4526SOL    HW114477   3.231   1.482   1.525
 4526SOL    HW214478   3.120   1.519   1.411
 4527SOL     OW14479   4.308   6.175   4.274
 4527SOL    HW114480   4.235   6.154   4.209
 4527SOL    HW214481   4.397   6.156   4.232
 4528SOL     OW14482   4.736   0.090   6.134
 4528SOL    HW114483   4.655   0.142   6.107
 4528SOL    HW214484   4.819   0.139   6.105
 4529SOL     OW14485   3.226   0.034   3.994
 4529SOL    HW114486   3.185   0.003   4.080
 4529SOL    HW214487   3.190   6.994   3.918
 4530SOL     OW14488   0.231   2.399   4.128
 4530SOL    HW114489   0.175   2.381   4.047
 4530SOL    HW214490   0.228   2.496   4.149
 4531SOL     OW14491   0.678   4.024   4.070
 4531SOL    HW114492   0.704   3.944   4.015
 4531SOL    HW214493   0.645   4.096   4.010
 4532SOL     OW14494   0.631   2.134   0.314
 4532SOL    HW114495   0.679   2.067   0.258
 4532SOL    HW214496   0.691   2.166   0.387
 4533SOL     OW14497   3.433   6.241   2.276
 4533SOL    HW114498   3.458   6.334   2.248
 4533SOL    HW214499   3.375   6.246   2.357
 4534SOL     OW14500   6.618   4.290   5.817
 4534SOL    HW114501   6.584   4.383   5.805
 4534SOL    HW214502   6.635   4.273   5.914
 4535SOL     OW14503   5.350   2.427   2.954
 4535SOL    HW114504   5.424   2.361   2.966
 4535SOL    HW214505   5.269   2.396   3.003
 4536SOL     OW14506   6.802   6.953   3.726
 4536SOL    HW114507   6.806   0.038   3.722
 4536SOL    HW214508   6.893   6.916   3.708
 4537SOL     OW14509   4.975   3.173   6.069
 4537SOL    HW114510   4.904   3.236   6.036
 4537SOL    HW214511   5.016   3.125   5.990
 4538SOL     OW14512   3.376   2.152   1.841
 4538SOL    HW114513   3.394   2.078   1.776
 4538SOL    HW214514   3.463   2.193   1.870
 4539SOL     OW14515   2.247   2.780   2.002
 4539SOL    HW114516   2.324   2.765   1.940
 4539SOL    HW214517   2.213   2.692   2.035
 4540SOL     OW14518   3.438   2.904   5.243
 4540SOL    HW114519   3.398   2.812   5.236
 4540SOL    HW214520   3.411   2.958   5.164
 4541SOL     OW14521   6.036   1.243   1.728
 4541SOL    HW114522   5.984   1.203   1.653
 4541SOL    HW214523   6.109   1.300   1.692
 4542SOL     OW14524   5.071   6.523   3.388
 4542SOL    HW114525   5.112   6.529   3.297
 4542SOL    HW214526   5.064   6.615   3.428
 4543SOL     OW14527   5.940   2.827   2.296
 4543SOL    HW114528   5.937   2.735   2.258
 4543SOL    HW214529   5.884   2.830   2.379
 4544SOL     OW14530   5.375   5.240   6.458
 4544SOL    HW114531   5.342   5.294   6.380
 4544SOL    HW214532   5.442   5.173   6.426
 4545SOL     OW14533   3.693   4.113   6.227
 4545SOL    HW114534   3.623   4.182   6.245
 4545SOL    HW214535   3.748   4.099   6.308
 4546SOL     OW14536   0.532   6.143   6.704
 4546SOL    HW114537   0.609   6.099   6.658
 4546SOL    HW214538   0.461   6.075   6.721
 4547SOL     OW14539   4.744   1.575   2.329
 4547SOL    HW114540   4.789   1.487   2.314
 4547SOL    HW214541   4.810   1.640   2.368
 4548SOL     OW14542   0.891   3.509   4.306
 4548SOL    HW114543   0.927   3.572   4.238
 4548SOL    HW214544   0.798   3.481   4.280
 4549SOL     OW14545   5.668   1.637   2.524
 4549SOL    HW114546   5.673   1.712   2.590
 4549SOL    HW214547   5.689   1.671   2.432
 4550SOL     OW14548   2.382   5.544   4.356
 4550SOL    HW114549   2.371   5.447   4.378
 4550SOL    HW214550   2.338   5.563   4.268
 4551SOL     OW14551   6.521   3.509   0.620
 4551SOL    HW114552   6.613   3.499   0.658
 4551SOL    HW214553   6.456   3.459   0.678
 4552SOL     OW14554   7.001   2.867   4.376
 4552SOL    HW114555   0.076   2.907   4.357
 4552SOL    HW214556   7.013   2.786   4.433
 4553SOL     OW14557   5.165   4.983   6.425
 4553SOL    HW114558   5.219   5.036   6.491
 4553SOL    HW214559   5.213   4.898   6.405
 4554SOL     OW14560   6.517   6.673   3.901
 4554SOL    HW114561   6.551   6.705   3.813
 4554SOL    HW214562   6.420   6.695   3.910
 4555SOL     OW14563   3.723   3.156   0.152
 4555SOL    HW114564   3.760   3.228   0.093
 4555SOL    HW214565   3.726   3.187   0.247
 4556SOL     OW14566   4.681   0.342   5.138
 4556SOL    HW114567   4.713   0.423   5.089
 4556SOL    HW214568   4.663   0.365   5.233
 4557SOL     OW14569   5.526   1.305   4.625
 4557SOL    HW114570   5.502   1.326   4.530
 4557SOL    HW214571   5.616   1.342   4.646
 4558SOL     OW14572   6.632   2.964   6.396
 4558SOL    HW114573   6.667   3.056   6.377
 4558SOL    HW214574   6.686   2.897   6.346
 4559SOL     OW14575   1.408   6.328   1.391
 4559SOL    HW114576   1.376   6.264   1.461
 4559SOL    HW214577   1.499   6.362   1.416
 4560SOL     OW14578   5.582   2.949   2.431
 4560SOL    HW114579   5.506   2.887   2.410
 4560SOL    HW214580   5.668   2.899   2.426
 4561SOL     OW14581   3.554   6.648   6.438
 4561SOL    HW114582   3.498   6.689   6.365
 4561SOL    HW214583   3.614   6.579   6.398
 4562SOL     OW14584   2.326   4.469   5.756
 4562SOL    HW114585   2.353   4.506   5.667
 4562SOL    HW214586   2.289   4.377   5.744
 4563SOL     OW14587   5.913   2.277   6.831
 4563SOL    HW114588   5.988   2.249   6.770
 4563SOL    HW214589   5.840   2.318   6.777
 4564SOL     OW14590   0.920   4.817   6.918
 4564SOL    HW114591   0.927   4.882   6.993
 4564SOL    HW214592   0.853   4.746   6.942
 4565SOL     OW14593   2.795   1.118   3.937
 4565SOL    HW114594   2.860   1.187   3.969
 4565SOL    HW214595   2.776   1.132   3.839
 4566SOL     OW14596   1.586   0.871   1.028
 4566SOL    HW114597   1.643   0.944   0.991
 4566SOL    HW214598   1.566   0.891   1.124
 4567SOL     OW14599   5.620   1.747   0.703
 4567SOL    HW114600   5.583   1.836   0.730
 4567SOL    HW214601   5.694   1.761   0.637
 4568SOL     OW14602   4.344   4.776   3.973
 4568SOL    HW114603   4.275   4.847   3.992
 4568SOL    HW214604   4.361   4.724   4.056
 4569SOL     OW14605   0.868   1.775   3.325
 4569SOL    HW114606   0.822   1.789   3.413
 4569SOL    HW214607   0.849   1.683   3.292
 4570SOL     OW14608   5.570   5.670   4.625
 4570SOL    HW114609   5.526   5.582   4.637
 4570SOL    HW214610   5.501   5.742   4.623
 4571SOL     OW14611   3.862   3.317   3.984
 4571SOL    HW114612   3.895   3.400   4.028
 4571SOL    HW214613   3.821   3.257   4.053
 4572SOL     OW14614   2.451   5.414   1.269
 4572SOL    HW114615   2.359   5.405   1.232
 4572SOL    HW214616   2.484   5.324   1.298
 4573SOL     OW14617   5.359   0.357   1.273
 4573SOL    HW114618   5.409   0.427   1.325
 4573SOL    HW214619   5.267   0.390   1.252
 4574SOL     OW14620   0.128   4.423   1.572
 4574SOL    HW114621   0.194   4.347   1.572
 4574SOL    HW214622   0.157   4.492   1.506
 4575SOL     OW14623   6.708   6.500   1.835
 4575SOL    HW114624   6.656   6.580   1.866
 4575SOL    HW214625   6.713   6.432   1.908
 4576SOL     OW14626   3.350   6.255   3.699
 4576SOL    HW114627   3.432   6.208   3.665
 4576SOL    HW214628   3.376   6.322   3.768
 4577SOL     OW14629   1.923   3.406   3.781
 4577SOL    HW114630   1.953   3.497   3.811
 4577SOL    HW214631   1.847   3.415   3.717
 4578SOL     OW14632   6.653   5.948   3.967
 4578SOL    HW114633   6.687   6.030   4.013
 4578SOL    HW214634   6.570   5.970   3.916
 4579SOL     OW14635   4.828   1.987   3.740
 4579SOL    HW114636   4.922   2.007   3.765
 4579SOL    HW214637   4.773   2.070   3.745
 4580SOL     OW14638   0.747   5.269   6.847
 4580SOL    HW114639   0.674   5.337   6.842
 4580SOL    HW214640   0.827   5.309   6.891
 4581SOL     OW14641   3.262   5.916   5.241
 4581SOL    HW114642   3.276   5.939   5.337
 4581SOL    HW214643   3.327   5.846   5.213
 4582SOL     OW14644   5.027   6.773   3.502
 4582SOL    HW114645   5.071   6.814   3.583
 4582SOL    HW214646   5.058   6.821   3.420
 4583SOL     OW14647   3.634   0.445   5.333
 4583SOL    HW114648   3.702   0.390   5.382
 4583SOL    HW214649   3.550   0.452   5.388
 4584SOL     OW14650   0.298   5.017   5.382
 4584SOL    HW114651   0.276   5.110   5.355
 4584SOL    HW214652   0.307   5.013   5.482
 4585SOL     OW14653   3.147   6.157   2.182
 4585SOL    HW114654   3.152   6.084   2.115
 4585SOL    HW214655   3.239   6.182   2.213
 4586SOL     OW14656   2.862   5.888   1.272
 4586SOL    HW114657   2.887   5.796   1.243
 4586SOL    HW214658   2.937   5.951   1.252
 4587SOL     OW14659   3.102   5.007   0.695
 4587SOL    HW114660   3.105   4.936   0.765
 4587SOL    HW214661   3.022   5.065   0.709
 4588SOL     OW14662   3.124   4.020   4.965
 4588SOL    HW114663   3.184   4.066   4.900
 4588SOL    HW214664   3.091   4.086   5.033
 4589SOL     OW14665   1.370   1.942   3.281
 4589SOL    HW114666   1.359   1.913   3.376
 4589SOL    HW214667   1.461   1.981   3.268
 4590SOL     OW14668   4.204   6.557   3.291
 4590SOL    HW114669   4.150   6.473   3.286
 4590SOL    HW214670   4.157   6.625   3.347
 4591SOL     OW14671   5.623   6.006   5.222
 4591SOL    HW114672   5.671   6.064   5.287
 4591SOL    HW214673   5.612   5.914   5.261
 4592SOL     OW14674   3.510   1.280   5.779
 4592SOL    HW114675   3.558   1.244   5.859
 4592SOL    HW214676   3.476   1.372   5.799
 4593SOL     OW14677   4.982   6.709   1.931
 4593SOL    HW114678   5.049   6.736   2.000
 4593SOL    HW214679   4.903   6.771   1.938
 4594SOL     OW14680   3.888   2.178   2.688
 4594SOL    HW114681   3.857   2.154   2.596
 4594SOL    HW214682   3.814   2.163   2.753
 4595SOL     OW14683   4.574   3.317   5.879
 4595SOL    HW114684   4.523   3.398   5.907
 4595SOL    HW214685   4.669   3.325   5.910
 4596SOL     OW14686   4.720   0.401   2.594
 4596SOL    HW114687   4.757   0.397   2.687
 4596SOL    HW214688   4.796   0.400   2.528
 4597SOL     OW14689   6.303   3.994   5.578
 4597SOL    HW114690   6.360   4.041   5.511
 4597SOL    HW214691   6.306   3.896   5.562
 4598SOL     OW14692   2.718   4.224   0.137
 4598SOL    HW114693   2.745   4.204   0.043
 4598SOL    HW214694   2.775   4.297   0.174
 4599SOL     OW14695   3.297   5.338   0.193
 4599SOL    HW114696   3.312   5.319   0.291
 4599SOL    HW214697   3.366   5.290   0.139
 4600SOL     OW14698   3.022   3.774   0.979
 4600SOL    HW114699   3.067   3.853   0.938
 4600SOL    HW214700   3.035   3.776   1.078
 4601SOL     OW14701   2.003   5.095   3.991
 4601SOL    HW114702   1.928   5.122   3.931
 4601SOL    HW214703   1.966   5.055   4.075
 4602SOL     OW14704   1.573   0.470   1.364
 4602SOL    HW114705   1.502   0.405   1.338
 4602SOL    HW214706   1.531   0.554   1.398
 4603SOL     OW14707   2.804   1.212   2.046
 4603SOL    HW114708   2.802   1.265   1.961
 4603SOL    HW214709   2.862   1.131   2.033
 4604SOL     OW14710   1.220   0.371   2.811
 4604SOL    HW114711   1.271   0.457   2.805
 4604SOL    HW214712   1.282   0.298   2.839
 4605SOL     OW14713   5.293   6.066   5.719
 4605SOL    HW114714   5.362   6.080   5.648
 4605SOL    HW214715   5.334   6.014   5.795
 4606SOL     OW14716   6.489   6.266   4.775
 4606SOL    HW114717   6.484   6.277   4.676
 4606SOL    HW214718   6.400   6.237   4.810
 4607SOL     OW14719   2.864   3.167   1.002
 4607SOL    HW114720   2.800   3.093   0.979
 4607SOL    HW214721   2.857   3.240   0.934
 4608SOL     OW14722   0.737   3.274   5.637
 4608SOL    HW114723   0.825   3.228   5.638
 4608SOL    HW214724   0.723   3.317   5.547
 4609SOL     OW14725   3.281   0.371   0.817
 4609SOL    HW114726   3.380   0.359   0.828
 4609SOL    HW214727   3.248   0.309   0.746
 4610SOL     OW14728   6.558   3.704   6.386
 4610SOL    HW114729   6.532   3.798   6.367
 4610SOL    HW214730   6.553   3.649   6.303
 4611SOL     OW14731   1.733   4.517   6.841
 4611SOL    HW114732   1.691   4.488   6.926
 4611SOL    HW214733   1.666   4.567   6.785
 4612SOL     OW14734   2.011   0.370   6.277
 4612SOL    HW114735   2.035   0.369   6.374
 4612SOL    HW214736   1.956   0.451   6.257
 4613SOL     OW14737   3.405   4.769   1.683
 4613SOL    HW114738   3.481   4.715   1.720
 4613SOL    HW214739   3.436   4.862   1.664
 4614SOL     OW14740   2.371   5.113   6.632
 4614SOL    HW114741   2.328   5.049   6.569
 4614SOL    HW214742   2.437   5.064   6.689
 4615SOL     OW14743   6.441   3.197   6.179
 4615SOL    HW114744   6.392   3.233   6.100
 4615SOL    HW214745   6.383   3.132   6.227
 4616SOL     OW14746   5.645   1.231   6.380
 4616SOL    HW114747   5.658   1.132   6.388
 4616SOL    HW214748   5.629   1.255   6.284
 4617SOL     OW14749   6.744   3.675   1.774
 4617SOL    HW114750   6.677   3.621   1.824
 4617SOL    HW214751   6.723   3.674   1.676
 4618SOL     OW14752   0.622   3.082   6.676
 4618SOL    HW114753   0.561   3.109   6.750
 4618SOL    HW214754   0.695   3.024   6.712
 4619SOL     OW14755   4.412   0.630   3.890
 4619SOL    HW114756   4.429   0.632   3.989
 4619SOL    HW214757   4.318   0.600   3.873
 4620SOL     OW14758   2.387   5.930   0.173
 4620SOL    HW114759   2.371   5.909   0.076
 4620SOL    HW214760   2.299   5.937   0.220
 4621SOL     OW14761   6.910   0.508   6.218
 4621SOL    HW114762   6.849   0.431   6.236
 4621SOL    HW214763   6.910   0.569   6.298
 4622SOL     OW14764   1.790   4.082   0.623
 4622SOL    HW114765   1.742   4.163   0.657
 4622SOL    HW214766   1.835   4.036   0.700
 4623SOL     OW14767   5.346   3.796   3.098
 4623SOL    HW114768   5.434   3.832   3.066
 4623SOL    HW214769   5.305   3.742   3.024
 4624SOL     OW14770   4.658   6.873   5.930
 4624SOL    HW114771   4.608   6.863   6.017
 4624SOL    HW214772   4.699   6.964   5.926
 4625SOL     OW14773   1.131   3.759   6.220
 4625SOL    HW114774   1.219   3.802   6.238
 4625SOL    HW214775   1.145   3.676   6.165
 4626SOL     OW14776   5.585   4.580   1.943
 4626SOL    HW114777   5.500   4.606   1.897
 4626SOL    HW214778   5.565   4.559   2.039
 4627SOL     OW14779   1.685   6.726   5.471
 4627SOL    HW114780   1.759   6.733   5.537
 4627SOL    HW214781   1.661   6.630   5.457
 4628SOL     OW14782   6.500   2.794   1.833
 4628SOL    HW114783   6.534   2.845   1.753
 4628SOL    HW214784   6.412   2.752   1.811
 4629SOL     OW14785   4.401   5.410   4.361
 4629SOL    HW114786   4.449   5.470   4.426
 4629SOL    HW214787   4.307   5.398   4.391
 4630SOL     OW14788   2.253   6.322   2.650
 4630SOL    HW114789   2.211   6.333   2.740
 4630SOL    HW214790   2.216   6.240   2.606
 4631SOL     OW14791   2.102   0.717   3.200
 4631SOL    HW114792   2.056   0.704   3.288
 4631SOL    HW214793   2.200   0.701   3.211
 4632SOL     OW14794   5.459   6.133   4.123
 4632SOL    HW114795   5.522   6.196   4.169
 4632SOL    HW214796   5.415   6.179   4.047
 4633SOL     OW14797   4.990   2.593   5.388
 4633SOL    HW114798   5.070   2.535   5.404
 4633SOL    HW214799   4.928   2.547   5.325
 4634SOL     OW14800   2.952   4.507   0.060
 4634SOL    HW114801   2.899   4.465   0.134
 4634SOL    HW214802   3.049   4.486   0.072
 4635SOL     OW14803   4.947   3.467   1.605
 4635SOL    HW114804   4.869   3.423   1.651
 4635SOL    HW214805   5.031   3.443   1.652
 4636SOL     OW14806   0.573   5.655   1.693
 4636SOL    HW114807   0.669   5.661   1.664
 4636SOL    HW214808   0.567   5.595   1.773
 4637SOL     OW14809   1.434   0.702   4.971
 4637SOL    HW114810   1.388   0.694   5.059
 4637SOL    HW214811   1.377   0.755   4.908
 4638SOL     OW14812   4.288   4.892   5.802
 4638SOL    HW114813   4.193   4.867   5.819
 4638SOL    HW214814   4.292   4.986   5.766
 4639SOL     OW14815   6.557   1.846   4.973
 4639SOL    HW114816   6.470   1.896   4.970
 4639SOL    HW214817   6.612   1.880   5.049
 4640SOL     OW14818   5.909   5.156   2.866
 4640SOL    HW114819   5.865   5.076   2.907
 4640SOL    HW214820   5.919   5.141   2.767
 4641SOL     OW14821   2.827   3.491   5.256
 4641SOL    HW114822   2.823   3.406   5.203
 4641SOL    HW214823   2.801   3.568   5.198
 4642SOL     OW14824   5.684   5.892   3.982
 4642SOL    HW114825   5.585   5.905   3.984
 4642SOL    HW214826   5.729   5.980   3.970
 4643SOL     OW14827   4.308   3.539   1.218
 4643SOL    HW114828   4.335   3.507   1.127
 4643SOL    HW214829   4.342   3.475   1.287
 4644SOL     OW14830   3.542   4.250   5.708
 4644SOL    HW114831   3.477   4.262   5.633
 4644SOL    HW214832   3.550   4.153   5.731
 4645SOL     OW14833   1.857   6.118   4.780
 4645SOL    HW114834   1.759   6.118   4.761
 4645SOL    HW214835   1.895   6.028   4.761
 4646SOL     OW14836   3.589   0.411   0.776
 4646SOL    HW114837   3.570   0.341   0.707
 4646SOL    HW214838   3.609   0.498   0.732
 4647SOL     OW14839   0.030   0.499   5.080
 4647SOL    HW114840   0.065   0.418   5.127
 4647SOL    HW214841   6.978   0.471   5.011
 4648SOL     OW14842   1.966   6.229   3.455
 4648SOL    HW114843   1.882   6.185   3.424
 4648SOL    HW214844   2.039   6.161   3.460
 4649SOL     OW14845   6.116   6.570   5.746
 4649SOL    HW114846   6.173   6.646   5.777
 4649SOL    HW214847   6.027   6.605   5.717
 4650SOL     OW14848   6.654   4.272   1.334
 4650SOL    HW114849   6.633   4.354   1.281
 4650SOL    HW214850   6.637   4.288   1.431
 4651SOL     OW14851   6.271   2.211   1.735
 4651SOL    HW114852   6.173   2.215   1.720
 4651SOL    HW214853   6.300   2.116   1.747
 4652SOL     OW14854   0.474   6.485   5.229
 4652SOL    HW114855   0.555   6.517   5.279
 4652SOL    HW214856   0.452   6.392   5.258
 4653SOL     OW14857   0.702   4.712   0.006
 4653SOL    HW114858   0.687   4.794   0.061
 4653SOL    HW214859   0.642   4.716   6.941
 4654SOL     OW14860   1.303   2.017   6.751
 4654SOL    HW114861   1.228   2.083   6.752
 4654SOL    HW214862   1.270   1.929   6.716
 4655SOL     OW14863   0.238   4.901   3.842
 4655SOL    HW114864   0.254   4.858   3.754
 4655SOL    HW214865   0.314   4.962   3.864
 4656SOL     OW14866   2.524   6.667   3.430
 4656SOL    HW114867   2.479   6.581   3.406
 4656SOL    HW214868   2.547   6.718   3.347
 4657SOL     OW14869   6.047   0.979   5.826
 4657SOL    HW114870   6.095   0.945   5.745
 4657SOL    HW214871   5.997   0.903   5.869
 4658SOL     OW14872   5.108   0.693   4.166
 4658SOL    HW114873   5.153   0.695   4.077
 4658SOL    HW214874   5.177   0.696   4.239
 4659SOL     OW14875   1.928   2.965   4.280
 4659SOL    HW114876   2.026   2.982   4.292
 4659SOL    HW214877   1.887   3.042   4.232
 4660SOL     OW14878   6.358   1.292   5.279
 4660SOL    HW114879   6.270   1.324   5.315
 4660SOL    HW214880   6.358   1.300   5.179
 4661SOL     OW14881   3.345   2.988   3.142
 4661SOL    HW114882   3.431   3.039   3.141
 4661SOL    HW214883   3.347   2.921   3.217
 4662SOL     OW14884   5.901   6.749   4.066
 4662SOL    HW114885   5.914   6.750   4.165
 4662SOL    HW214886   5.941   6.831   4.026
 4663SOL     OW14887   0.239   3.074   2.177
 4663SOL    HW114888   0.266   3.011   2.249
 4663SOL    HW214889   0.291   3.054   2.094
 4664SOL     OW14890   3.256   4.340   0.370
 4664SOL    HW114891   3.237   4.338   0.272
 4664SOL    HW214892   3.314   4.262   0.395
 4665SOL     OW14893   5.687   0.262   6.025
 4665SOL    HW114894   5.719   0.315   5.947
 4665SOL    HW214895   5.684   0.320   6.107
 4666SOL     OW14896   1.467   1.644   0.682
 4666SOL    HW114897   1.375   1.656   0.719
 4666SOL    HW214898   1.478   1.702   0.600
 4667SOL     OW14899   0.627   5.994   4.138
 4667SOL    HW114900   0.541   5.943   4.135
 4667SOL    HW214901   0.682   5.970   4.058
 4668SOL     OW14902   5.313   0.387   5.246
 4668SOL    HW114903   5.365   0.369   5.162
 4668SOL    HW214904   5.305   0.486   5.259
 4669SOL     OW14905   2.121   1.908   2.596
 4669SOL    HW114906   2.110   1.822   2.547
 4669SOL    HW214907   2.184   1.968   2.545
 4670SOL     OW14908   2.285   1.244   4.168
 4670SOL    HW114909   2.249   1.334   4.191
 4670SOL    HW214910   2.354   1.253   4.096
 4671SOL     OW14911   5.840   2.202   2.504
 4671SOL    HW114912   5.905   2.155   2.445
 4671SOL    HW214913   5.862   2.183   2.600
 4672SOL     OW14914   2.889   2.598   5.308
 4672SOL    HW114915   2.815   2.573   5.245
 4672SOL    HW214916   2.922   2.517   5.355
 4673SOL     OW14917   4.972   0.683   2.235
 4673SOL    HW114918   4.912   0.689   2.155
 4673SOL    HW214919   5.063   0.652   2.208
 4674SOL     OW14920   4.764   6.472   4.900
 4674SOL    HW114921   4.810   6.523   4.973
 4674SOL    HW214922   4.743   6.379   4.932
 4675SOL     OW14923   1.149   4.691   0.057
 4675SOL    HW114924   1.089   4.726   7.000
 4675SOL    HW214925   1.243   4.687   0.024
 4676SOL     OW14926   1.145   4.485   4.477
 4676SOL    HW114927   1.054   4.455   4.505
 4676SOL    HW214928   1.184   4.545   4.547
 4677SOL     OW14929   1.474   3.650   0.663
 4677SOL    HW114930   1.402   3.702   0.616
 4677SOL    HW214931   1.509   3.703   0.740
 4678SOL     OW14932   0.975   3.369   1.673
 4678SOL    HW114933   0.964   3.409   1.764
 4678SOL    HW214934   0.906   3.297   1.660
 4679SOL     OW14935   4.556   0.192   2.082
 4679SOL    HW114936   4.519   0.239   2.162
 4679SOL    HW214937   4.508   0.222   2.000
 4680SOL     OW14938   1.798   0.818   6.427
 4680SOL    HW114939   1.717   0.762   6.413
 4680SOL    HW214940   1.835   0.801   6.519
 4681SOL     OW14941   4.781   5.777   2.480
 4681SOL    HW114942   4.818   5.734   2.562
 4681SOL    HW214943   4.685   5.753   2.470
 4682SOL     OW14944   3.577   3.830   6.111
 4682SOL    HW114945   3.564   3.759   6.181
 4682SOL    HW214946   3.626   3.907   6.150
 4683SOL     OW14947   6.272   4.744   3.972
 4683SOL    HW114948   6.310   4.808   3.905
 4683SOL    HW214949   6.224   4.795   4.044
 4684SOL     OW14950   5.365   6.952   5.813
 4684SOL    HW114951   5.312   6.872   5.784
 4684SOL    HW214952   5.452   6.922   5.852
 4685SOL     OW14953   3.047   3.498   4.686
 4685SOL    HW114954   3.080   3.544   4.768
 4685SOL    HW214955   3.004   3.565   4.625
 4686SOL     OW14956   1.675   0.012   6.918
 4686SOL    HW114957   1.638   0.011   6.824
 4686SOL    HW214958   1.625   6.961   6.973
 4687SOL     OW14959   1.768   0.466   2.763
 4687SOL    HW114960   1.817   0.504   2.841
 4687SOL    HW214961   1.726   0.379   2.789
 4688SOL     OW14962   4.695   2.760   4.966
 4688SOL    HW114963   4.731   2.778   4.874
 4688SOL    HW214964   4.755   2.803   5.034
 4689SOL     OW14965   6.692   1.334   1.352
 4689SOL    HW114966   6.779   1.367   1.316
 4689SOL    HW214967   6.617   1.393   1.320
 4690SOL     OW14968   3.124   2.731   0.858
 4690SOL    HW114969   3.144   2.827   0.875
 4690SOL    HW214970   3.191   2.674   0.906
 4691SOL     OW14971   6.500   3.437   1.509
 4691SOL    HW114972   6.492   3.437   1.609
 4691SOL    HW214973   6.542   3.523   1.479
 4692SOL     OW14974   4.823   3.111   2.569
 4692SOL    HW114975   4.726   3.123   2.545
 4692SOL    HW214976   4.842   3.014   2.585
 4693SOL     OW14977   0.437   0.053   2.857
 4693SOL    HW114978   0.409   6.972   2.855
 4693SOL    HW214979   0.382   0.106   2.793
 4694SOL     OW14980   2.138   6.836   6.172
 4694SOL    HW114981   2.048   6.854   6.212
 4694SOL    HW214982   2.187   6.922   6.158
 4695SOL     OW14983   2.097   4.802   2.175
 4695SOL    HW114984   2.017   4.861   2.174
 4695SOL    HW214985   2.076   4.716   2.127
 4696SOL     OW14986   1.794   6.394   6.253
 4696SOL    HW114987   1.701   6.378   6.221
 4696SOL    HW214988   1.851   6.314   6.232
 4697SOL     OW14989   4.265   5.427   1.344
 4697SOL    HW114990   4.236   5.392   1.255
 4697SOL    HW214991   4.235   5.364   1.416
 4698SOL     OW14992   5.801   1.137   4.823
 4698SOL    HW114993   5.739   1.078   4.771
 4698SOL    HW214994   5.868   1.178   4.762
 4699SOL     OW14995   0.805   1.225   2.412
 4699SOL    HW114996   0.839   1.170   2.489
 4699SOL    HW214997   0.720   1.185   2.379
 4700SOL     OW14998   6.504   1.496   3.118
 4700SOL    HW114999   6.410   1.530   3.126
 4700SOL    HW215000   6.503   1.405   3.077
 4701SOL     OW15001   2.964   2.699   1.748
 4701SOL    HW115002   2.960   2.605   1.783
 4701SOL    HW215003   3.028   2.703   1.671
 4702SOL     OW15004   6.222   5.017   0.749
 4702SOL    HW115005   6.134   4.996   0.707
 4702SOL    HW215006   6.208   5.047   0.843
 4703SOL     OW15007   0.359   5.352   4.003
 4703SOL    HW115008   0.268   5.355   3.962
 4703SOL    HW215009   0.351   5.338   4.102
 4704SOL     OW15010   2.000   4.762   4.381
 4704SOL    HW115011   2.060   4.696   4.427
 4704SOL    HW215012   1.926   4.713   4.335
 4705SOL     OW15013   3.230   2.120   2.082
 4705SOL    HW115014   3.316   2.170   2.085
 4705SOL    HW215015   3.213   2.087   1.989
 4706SOL     OW15016   2.357   1.136   0.990
 4706SOL    HW115017   2.449   1.175   0.989
 4706SOL    HW215018   2.362   1.041   1.021
 4707SOL     OW15019   1.471   5.419   2.090
 4707SOL    HW115020   1.567   5.447   2.084
 4707SOL    HW215021   1.465   5.320   2.101
 4708SOL     OW15022   1.918   2.981   6.146
 4708SOL    HW115023   1.945   2.911   6.213
 4708SOL    HW215024   1.962   2.961   6.058
 4709SOL     OW15025   5.538   4.390   5.290
 4709SOL    HW115026   5.556   4.301   5.332
 4709SOL    HW215027   5.491   4.448   5.357
 4710SOL     OW15028   6.116   5.807   5.093
 4710SOL    HW115029   6.142   5.895   5.133
 4710SOL    HW215030   6.096   5.741   5.166
 4711SOL     OW15031   5.152   4.337   2.350
 4711SOL    HW115032   5.166   4.257   2.291
 4711SOL    HW215033   5.231   4.397   2.344
 4712SOL     OW15034   3.633   4.359   6.002
 4712SOL    HW115035   3.729   4.342   6.025
 4712SOL    HW215036   3.619   4.344   5.905
 4713SOL     OW15037   5.640   4.365   0.894
 4713SOL    HW115038   5.711   4.296   0.885
 4713SOL    HW215039   5.658   4.423   0.973
 4714SOL     OW15040   4.055   1.941   6.517
 4714SOL    HW115041   3.975   2.001   6.520
 4714SOL    HW215042   4.139   1.996   6.523
 4715SOL     OW15043   6.475   1.783   2.268
 4715SOL    HW115044   6.466   1.817   2.174
 4715SOL    HW215045   6.481   1.683   2.266
 4716SOL     OW15046   3.007   4.288   5.652
 4716SOL    HW115047   3.014   4.235   5.568
 4716SOL    HW215048   2.921   4.339   5.653
 4717SOL     OW15049   2.207   4.976   5.784
 4717SOL    HW115050   2.206   4.876   5.793
 4717SOL    HW215051   2.290   5.005   5.737
 4718SOL     OW15052   4.760   4.254   1.892
 4718SOL    HW115053   4.768   4.157   1.868
 4718SOL    HW215054   4.666   4.273   1.920
 4719SOL     OW15055   5.689   4.518   3.930
 4719SOL    HW115056   5.602   4.555   3.961
 4719SOL    HW215057   5.673   4.442   3.868
 4720SOL     OW15058   1.498   2.117   6.607
 4720SOL    HW115059   1.462   2.191   6.552
 4720SOL    HW215060   1.425   2.076   6.661
 4721SOL     OW15061   0.786   2.844   2.592
 4721SOL    HW115062   0.825   2.861   2.502
 4721SOL    HW215063   0.849   2.789   2.646
 4722SOL     OW15064   1.366   5.036   6.271
 4722SOL    HW115065   1.312   4.987   6.340
 4722SOL    HW215066   1.328   5.127   6.257
 4723SOL     OW15067   2.879   4.829   6.593
 4723SOL    HW115068   2.814   4.803   6.663
 4723SOL    HW215069   2.837   4.819   6.503
 4724SOL     OW15070   0.455   6.940   3.971
 4724SOL    HW115071   0.408   0.008   4.001
 4724SOL    HW215072   0.523   6.915   4.040
 4725SOL     OW15073   6.418   4.761   0.975
 4725SOL    HW115074   6.430   4.731   1.070
 4725SOL    HW215075   6.498   4.813   0.946
 4726SOL     OW15076   1.514   2.945   5.796
 4726SOL    HW115077   1.487   2.892   5.876
 4726SOL    HW215078   1.590   3.005   5.820
 4727SOL     OW15079   6.557   5.157   1.246
 4727SOL    HW115080   6.518   5.191   1.160
 4727SOL    HW215081   6.657   5.164   1.242
 4728SOL     OW15082   5.026   1.137   3.457
 4728SOL    HW115083   4.971   1.142   3.541
 4728SOL    HW215084   5.039   1.229   3.421
 4729SOL     OW15085   6.363   1.317   2.663
 4729SOL    HW115086   6.418   1.335   2.581
 4729SOL    HW215087   6.316   1.401   2.690
 4730SOL     OW15088   3.475   0.657   3.458
 4730SOL    HW115089   3.496   0.681   3.363
 4730SOL    HW215090   3.426   0.732   3.502
 4731SOL     OW15091   3.522   6.938   1.844
 4731SOL    HW115092   3.605   6.889   1.820
 4731SOL    HW215093   3.545   0.011   1.887
 4732SOL     OW15094   0.283   5.074   4.867
 4732SOL    HW115095   0.370   5.101   4.827
 4732SOL    HW215096   0.270   4.975   4.856
 4733SOL     OW15097   1.287   4.185   2.259
 4733SOL    HW115098   1.271   4.278   2.227
 4733SOL    HW215099   1.343   4.188   2.341
 4734SOL     OW15100   4.715   3.938   6.551
 4734SOL    HW115101   4.699   4.030   6.517
 4734SOL    HW215102   4.642   3.877   6.518
 4735SOL     OW15103   0.090   0.770   4.934
 4735SOL    HW115104   0.016   0.753   5.000
 4735SOL    HW215105   0.050   0.796   4.846
 4736SOL     OW15106   6.331   1.008   3.861
 4736SOL    HW115107   6.406   0.943   3.847
 4736SOL    HW215108   6.247   0.970   3.823
 4737SOL     OW15109   2.354   5.197   0.247
 4737SOL    HW115110   2.289   5.271   0.231
 4737SOL    HW215111   2.339   5.124   0.180
 4738SOL     OW15112   0.778   5.511   3.868
 4738SOL    HW115113   0.816   5.572   3.937
 4738SOL    HW215114   0.688   5.545   3.840
 4739SOL     OW15115   5.965   3.279   3.348
 4739SOL    HW115116   6.030   3.301   3.420
 4739SOL    HW215117   5.886   3.232   3.388
 4740SOL     OW15118   1.901   6.561   0.867
 4740SOL    HW115119   1.901   6.599   0.959
 4740SOL    HW215120   1.807   6.557   0.832
 4741SOL     OW15121   5.996   4.615   1.010
 4741SOL    HW115122   5.947   4.644   1.092
 4741SOL    HW215123   5.958   4.661   0.930
 4742SOL     OW15124   2.102   5.714   1.969
 4742SOL    HW115125   2.094   5.812   1.983
 4742SOL    HW215126   2.078   5.666   2.053
 4743SOL     OW15127   2.490   3.805   0.241
 4743SOL    HW115128   2.445   3.793   0.329
 4743SOL    HW215129   2.504   3.903   0.224
 4744SOL     OW15130   2.731   2.268   5.411
 4744SOL    HW115131   2.649   2.211   5.412
 4744SOL    HW215132   2.778   2.258   5.323
 4745SOL     OW15133   4.472   5.604   4.578
 4745SOL    HW115134   4.382   5.580   4.615
 4745SOL    HW215135   4.534   5.628   4.653
 4746SOL     OW15136   5.991   1.384   1.293
 4746SOL    HW115137   5.947   1.429   1.371
 4746SOL    HW215138   5.995   1.285   1.310
 4747SOL     OW15139   0.845   2.915   2.271
 4747SOL    HW115140   0.903   2.961   2.339
 4747SOL    HW215141   0.877   2.938   2.179
 4748SOL     OW15142   2.335   0.132   0.668
 4748SOL    HW115143   2.317   0.189   0.748
 4748SOL    HW215144   2.278   0.050   0.672
 4749SOL     OW15145   3.409   0.888   0.140
 4749SOL    HW115146   3.497   0.858   0.103
 4749SOL    HW215147   3.369   0.814   0.196
 4750SOL     OW15148   0.703   1.887   4.733
 4750SOL    HW115149   0.786   1.934   4.764
 4750SOL    HW215150   0.728   1.806   4.681
 4751SOL     OW15151   1.323   3.872   6.710
 4751SOL    HW115152   1.258   3.797   6.698
 4751SOL    HW215153   1.279   3.958   6.683
 4752SOL     OW15154   2.498   5.905   1.048
 4752SOL    HW115155   2.501   5.805   1.046
 4752SOL    HW215156   2.589   5.942   1.032
 4753SOL     OW15157   0.828   0.378   6.302
 4753SOL    HW115158   0.759   0.315   6.339
 4753SOL    HW215159   0.888   0.328   6.240
 4754SOL     OW15160   1.476   1.384   6.287
 4754SOL    HW115161   1.575   1.381   6.277
 4754SOL    HW215162   1.434   1.409   6.200
 4755SOL     OW15163   3.029   0.043   2.573
 4755SOL    HW115164   2.939   0.043   2.531
 4755SOL    HW215165   3.064   0.137   2.577
 4756SOL     OW15166   5.588   1.946   1.426
 4756SOL    HW115167   5.535   2.020   1.466
 4756SOL    HW215168   5.539   1.908   1.347
 4757SOL     OW15169   2.546   2.120   0.917
 4757SOL    HW115170   2.635   2.095   0.955
 4757SOL    HW215171   2.474   2.068   0.963
 4758SOL     OW15172   5.856   3.593   6.054
 4758SOL    HW115173   5.889   3.601   6.148
 4758SOL    HW215174   5.916   3.646   5.993
 4759SOL     OW15175   6.835   4.283   6.747
 4759SOL    HW115176   6.791   4.369   6.773
 4759SOL    HW215177   6.891   4.297   6.666
 4760SOL     OW15178   1.735   2.490   0.223
 4760SOL    HW115179   1.807   2.496   0.154
 4760SOL    HW215180   1.664   2.428   0.191
 4761SOL     OW15181   2.256   5.857   6.494
 4761SOL    HW115182   2.302   5.863   6.582
 4761SOL    HW215183   2.312   5.804   6.430
 4762SOL     OW15184   3.848   6.723   2.412
 4762SOL    HW115185   3.814   6.628   2.413
 4762SOL    HW215186   3.772   6.785   2.394
 4763SOL     OW15187   5.298   5.851   5.526
 4763SOL    HW115188   5.342   5.766   5.555
 4763SOL    HW215189   5.216   5.865   5.581
 4764SOL     OW15190   4.048   3.508   3.837
 4764SOL    HW115191   3.957   3.543   3.816
 4764SOL    HW215192   4.092   3.477   3.752
 4765SOL     OW15193   5.800   5.073   6.393
 4765SOL    HW115194   5.878   5.100   6.450
 4765SOL    HW215195   5.830   5.006   6.325
 4766SOL     OW15196   2.905   0.998   3.178
 4766SOL    HW115197   2.980   1.063   3.168
 4766SOL    HW215198   2.859   0.986   3.091
 4767SOL     OW15199   4.656   0.423   6.902
 4767SOL    HW115200   4.715   0.376   6.837
 4767SOL    HW215201   4.561   0.420   6.869
 4768SOL     OW15202   1.539   1.072   5.168
 4768SOL    HW115203   1.570   0.998   5.227
 4768SOL    HW215204   1.615   1.103   5.111
 4769SOL     OW15205   4.984   1.023   1.849
 4769SOL    HW115206   5.083   1.012   1.835
 4769SOL    HW215207   4.965   1.031   1.947
 4770SOL     OW15208   2.374   0.634   4.226
 4770SOL    HW115209   2.279   0.667   4.229
 4770SOL    HW215210   2.432   0.704   4.185
 4771SOL     OW15211   4.028   4.232   5.688
 4771SOL    HW115212   4.077   4.208   5.604
 4771SOL    HW215213   3.963   4.159   5.711
 4772SOL     OW15214   3.185   2.258   6.823
 4772SOL    HW115215   3.215   2.202   6.747
 4772SOL    HW215216   3.241   2.237   6.904
 4773SOL     OW15217   0.033   4.855   4.755
 4773SOL    HW115218   0.126   4.888   4.769
 4773SOL    HW215219   0.028   4.758   4.777
 4774SOL     OW15220   1.182   4.397   6.992
 4774SOL    HW115221   1.164   4.317   0.035
 4774SOL    HW215222   1.137   4.477   0.016
 4775SOL     OW15223   1.878   2.367   2.636
 4775SOL    HW115224   1.853   2.455   2.676
 4775SOL    HW215225   1.843   2.293   2.694
 4776SOL     OW15226   4.226   5.018   2.038
 4776SOL    HW115227   4.165   5.007   2.117
 4776SOL    HW215228   4.233   5.114   2.014
 4777SOL     OW15229   2.451   3.609   1.673
 4777SOL    HW115230   2.408   3.698   1.685
 4777SOL    HW215231   2.402   3.540   1.726
 4778SOL     OW15232   5.168   3.348   2.778
 4778SOL    HW115233   5.200   3.434   2.818
 4778SOL    HW215234   5.116   3.366   2.695
 4779SOL     OW15235   4.835   1.275   2.729
 4779SOL    HW115236   4.839   1.176   2.741
 4779SOL    HW215237   4.752   1.300   2.679
 4780SOL     OW15238   2.240   1.734   5.400
 4780SOL    HW115239   2.316   1.697   5.346
 4780SOL    HW215240   2.184   1.792   5.342
 4781SOL     OW15241   1.844   5.725   2.781
 4781SOL    HW115242   1.937   5.734   2.747
 4781SOL    HW215243   1.835   5.774   2.868
 4782SOL     OW15244   6.143   5.790   0.065
 4782SOL    HW115245   6.054   5.836   0.069
 4782SOL    HW215246   6.175   5.790   6.985
 4783SOL     OW15247   6.412   3.641   2.673
 4783SOL    HW115248   6.360   3.724   2.692
 4783SOL    HW215249   6.372   3.593   2.595
 4784SOL     OW15250   5.104   4.866   5.199
 4784SOL    HW115251   5.157   4.812   5.133
 4784SOL    HW215252   5.097   4.814   5.285
 4785SOL     OW15253   5.858   6.660   0.467
 4785SOL    HW115254   5.927   6.732   0.481
 4785SOL    HW215255   5.896   6.587   0.411
 4786SOL     OW15256   1.264   3.676   2.144
 4786SOL    HW115257   1.232   3.581   2.151
 4786SOL    HW215258   1.190   3.734   2.109
 4787SOL     OW15259   4.416   2.329   3.305
 4787SOL    HW115260   4.479   2.269   3.255
 4787SOL    HW215261   4.468   2.388   3.367
 4788SOL     OW15262   2.225   0.082   5.082
 4788SOL    HW115263   2.189   0.168   5.046
 4788SOL    HW215264   2.286   0.040   5.015
 4789SOL     OW15265   5.237   6.253   0.310
 4789SOL    HW115266   5.332   6.276   0.333
 4789SOL    HW215267   5.175   6.309   0.365
 4790SOL     OW15268   5.433   0.080   6.589
 4790SOL    HW115269   5.359   0.117   6.533
 4790SOL    HW215270   5.400   0.001   6.641
 4791SOL     OW15271   4.393   1.828   3.542
 4791SOL    HW115272   4.417   1.828   3.445
 4791SOL    HW215273   4.318   1.764   3.559
 4792SOL     OW15274   2.875   2.659   0.993
 4792SOL    HW115275   2.858   2.737   1.053
 4792SOL    HW215276   2.966   2.667   0.953
 4793SOL     OW15277   0.741   0.165   6.849
 4793SOL    HW115278   0.661   0.150   6.791
 4793SOL    HW215279   0.758   0.084   6.905
 4794SOL     OW15280   5.177   1.369   2.165
 4794SOL    HW115281   5.210   1.395   2.074
 4794SOL    HW215282   5.231   1.293   2.201
 4795SOL     OW15283   5.934   2.662   4.203
 4795SOL    HW115284   5.971   2.746   4.163
 4795SOL    HW215285   5.845   2.681   4.244
 4796SOL     OW15286   5.636   3.173   0.368
 4796SOL    HW115287   5.625   3.136   0.275
 4796SOL    HW215288   5.691   3.256   0.365
 4797SOL     OW15289   1.046   5.664   4.978
 4797SOL    HW115290   1.006   5.708   4.898
 4797SOL    HW215291   1.120   5.603   4.949
 4798SOL     OW15292   6.696   4.866   5.983
 4798SOL    HW115293   6.695   4.767   5.995
 4798SOL    HW215294   6.789   4.901   5.999
 4799SOL     OW15295   4.860   1.466   4.270
 4799SOL    HW115296   4.792   1.514   4.325
 4799SOL    HW215297   4.853   1.367   4.286
 4800SOL     OW15298   1.878   3.027   3.863
 4800SOL    HW115299   1.968   3.044   3.822
 4800SOL    HW215300   1.808   3.039   3.793
 4801SOL     OW15301   0.150   2.285   0.871
 4801SOL    HW115302   0.143   2.186   0.878
 4801SOL    HW215303   0.245   2.313   0.882
 4802SOL     OW15304   1.666   0.254   2.191
 4802SOL    HW115305   1.758   0.253   2.230
 4802SOL    HW215306   1.629   0.347   2.195
 4803SOL     OW15307   1.698   0.382   0.618
 4803SOL    HW115308   1.636   0.459   0.611
 4803SOL    HW215309   1.747   0.387   0.705
 4804SOL     OW15310   4.822   5.996   0.076
 4804SOL    HW115311   4.845   5.982   6.994
 4804SOL    HW215312   4.902   5.978   0.132
 4805SOL     OW15313   6.964   0.095   1.510
 4805SOL    HW115314   6.912   0.169   1.467
 4805SOL    HW215315   0.029   0.074   1.454
 4806SOL     OW15316   0.105   2.411   3.876
 4806SOL    HW115317   0.152   2.342   3.819
 4806SOL    HW215318   0.014   2.376   3.901
 4807SOL     OW15319   1.123   6.851   2.535
 4807SOL    HW115320   1.124   6.903   2.620
 4807SOL    HW215321   1.048   6.883   2.477
 4808SOL     OW15322   6.211   2.656   0.578
 4808SOL    HW115323   6.206   2.592   0.654
 4808SOL    HW215324   6.125   2.706   0.570
 4809SOL     OW15325   4.787   0.064   0.615
 4809SOL    HW115326   4.691   0.050   0.635
 4809SOL    HW215327   4.816   0.001   0.543
 4810SOL     OW15328   1.885   6.599   0.488
 4810SOL    HW115329   1.823   6.522   0.475
 4810SOL    HW215330   1.840   6.671   0.540
 4811SOL     OW15331   5.241   3.638   3.649
 4811SOL    HW115332   5.174   3.644   3.722
 4811SOL    HW215333   5.334   3.638   3.688
 4812SOL     OW15334   6.084   5.183   3.914
 4812SOL    HW115335   6.054   5.090   3.933
 4812SOL    HW215336   6.114   5.227   3.999
 4813SOL     OW15337   5.531   3.274   2.862
 4813SOL    HW115338   5.481   3.316   2.786
 4813SOL    HW215339   5.466   3.228   2.923
 4814SOL     OW15340   6.634   3.171   0.811
 4814SOL    HW115341   6.610   3.264   0.838
 4814SOL    HW215342   6.559   3.109   0.835
 4815SOL     OW15343   4.966   0.885   3.188
 4815SOL    HW115344   4.969   0.913   3.092
 4815SOL    HW215345   5.037   0.817   3.204
 4816SOL     OW15346   5.208   5.059   3.493
 4816SOL    HW115347   5.177   5.142   3.446
 4816SOL    HW215348   5.298   5.033   3.458
 4817SOL     OW15349   6.094   1.447   7.004
 4817SOL    HW115350   6.097   1.472   6.907
 4817SOL    HW215351   6.011   1.483   0.031
 4818SOL     OW15352   0.240   5.585   3.436
 4818SOL    HW115353   0.265   5.597   3.532
 4818SOL    HW215354   0.189   5.500   3.426
 4819SOL     OW15355   2.226   2.780   0.560
 4819SOL    HW115356   2.207   2.728   0.643
 4819SOL    HW215357   2.282   2.860   0.583
 4820SOL     OW15358   6.672   3.393   2.377
 4820SOL    HW115359   6.664   3.463   2.306
 4820SOL    HW215360   6.742   3.326   2.351
 4821SOL     OW15361   0.575   5.619   3.718
 4821SOL    HW115362   0.479   5.638   3.739
 4821SOL    HW215363   0.625   5.706   3.708
 4822SOL     OW15364   2.238   4.597   4.187
 4822SOL    HW115365   2.303   4.673   4.194
 4822SOL    HW215366   2.184   4.592   4.271
 4823SOL     OW15367   1.354   2.244   0.649
 4823SOL    HW115368   1.315   2.152   0.639
 4823SOL    HW215369   1.353   2.290   0.560
 4824SOL     OW15370   6.304   1.865   0.081
 4824SOL    HW115371   6.382   1.928   0.079
 4824SOL    HW215372   6.297   1.824   0.172
 4825SOL     OW15373   1.114   6.600   3.883
 4825SOL    HW115374   1.016   6.593   3.902
 4825SOL    HW215375   1.166   6.580   3.966
 4826SOL     OW15376   4.549   6.059   0.729
 4826SOL    HW115377   4.476   6.054   0.798
 4826SOL    HW215378   4.572   5.966   0.698
 4827SOL     OW15379   5.800   1.346   0.846
 4827SOL    HW115380   5.864   1.317   0.775
 4827SOL    HW215381   5.716   1.291   0.839
 4828SOL     OW15382   5.233   1.068   6.553
 4828SOL    HW115383   5.196   1.149   6.598
 4828SOL    HW215384   5.187   1.055   6.465
 4829SOL     OW15385   3.946   6.234   5.398
 4829SOL    HW115386   3.863   6.238   5.341
 4829SOL    HW215387   4.006   6.310   5.373
 4830SOL     OW15388   1.510   6.553   4.021
 4830SOL    HW115389   1.439   6.609   4.066
 4830SOL    HW215390   1.509   6.571   3.923
 4831SOL     OW15391   3.491   4.809   5.767
 4831SOL    HW115392   3.404   4.843   5.803
 4831SOL    HW215393   3.476   4.726   5.715
 4832SOL     OW15394   4.080   3.761   4.905
 4832SOL    HW115395   4.102   3.666   4.880
 4832SOL    HW215396   4.099   3.775   5.002
 4833SOL     OW15397   6.082   2.434   5.098
 4833SOL    HW115398   6.066   2.505   5.030
 4833SOL    HW215399   6.071   2.473   5.190
 4834SOL     OW15400   0.516   5.273   1.228
 4834SOL    HW115401   0.495   5.370   1.209
 4834SOL    HW215402   0.549   5.264   1.321
 4835SOL     OW15403   6.972   3.281   5.785
 4835SOL    HW115404   6.891   3.238   5.826
 4835SOL    HW215405   0.040   3.239   5.821
 4836SOL     OW15406   4.737   1.457   5.750
 4836SOL    HW115407   4.651   1.415   5.720
 4836SOL    HW215408   4.718   1.547   5.788
 4837SOL     OW15409   1.549   3.533   4.826
 4837SOL    HW115410   1.609   3.461   4.791
 4837SOL    HW215411   1.463   3.532   4.775
 4838SOL     OW15412   1.722   3.983   5.971
 4838SOL    HW115413   1.798   3.931   6.010
 4838SOL    HW215414   1.753   4.029   5.888
 4839SOL     OW15415   2.971   1.242   2.452
 4839SOL    HW115416   3.052   1.299   2.443
 4839SOL    HW215417   2.992   1.149   2.421
 4840SOL     OW15418   4.784   2.967   4.315
 4840SOL    HW115419   4.880   2.969   4.345
 4840SOL    HW215420   4.776   3.013   4.227
 4841SOL     OW15421   3.046   5.655   3.111
 4841SOL    HW115422   3.105   5.736   3.107
 4841SOL    HW215423   2.972   5.664   3.044
 4842SOL     OW15424   4.423   5.688   3.510
 4842SOL    HW115425   4.508   5.641   3.533
 4842SOL    HW215426   4.357   5.622   3.473
 4843SOL     OW15427   5.500   1.599   1.223
 4843SOL    HW115428   5.469   1.556   1.138
 4843SOL    HW215429   5.593   1.567   1.244
 4844SOL     OW15430   1.552   5.178   6.578
 4844SOL    HW115431   1.587   5.098   6.529
 4844SOL    HW215432   1.618   5.207   6.646
 4845SOL     OW15433   4.912   3.994   4.768
 4845SOL    HW115434   4.939   3.902   4.738
 4845SOL    HW215435   4.958   4.015   4.854
 4846SOL     OW15436   6.329   4.089   4.777
 4846SOL    HW115437   6.374   4.155   4.836
 4846SOL    HW215438   6.389   4.065   4.700
 4847SOL     OW15439   3.415   0.136   0.275
 4847SOL    HW115440   3.452   0.067   0.212
 4847SOL    HW215441   3.345   0.093   0.333
 4848SOL     OW15442   4.772   1.554   3.741
 4848SOL    HW115443   4.732   1.638   3.702
 4848SOL    HW215444   4.750   1.477   3.682
 4849SOL     OW15445   1.277   5.644   2.036
 4849SOL    HW115446   1.352   5.707   2.017
 4849SOL    HW215447   1.314   5.551   2.045
 4850SOL     OW15448   3.443   6.489   2.168
 4850SOL    HW115449   3.374   6.543   2.216
 4850SOL    HW215450   3.405   6.455   2.082
 4851SOL     OW15451   4.311   4.781   6.869
 4851SOL    HW115452   4.363   4.837   6.933
 4851SOL    HW215453   4.322   4.684   6.892
 4852SOL     OW15454   4.739   4.686   5.862
 4852SOL    HW115455   4.760   4.779   5.891
 4852SOL    HW215456   4.646   4.682   5.825
 4853SOL     OW15457   4.009   0.360   2.664
 4853SOL    HW115458   3.999   0.327   2.758
 4853SOL    HW215459   4.076   0.435   2.663
 4854SOL     OW15460   4.488   6.435   2.311
 4854SOL    HW115461   4.500   6.454   2.409
 4854SOL    HW215462   4.461   6.340   2.299
 4855SOL     OW15463   4.074   4.688   5.822
 4855SOL    HW115464   4.072   4.591   5.845
 4855SOL    HW215465   4.100   4.699   5.726
 4856SOL     OW15466   0.519   2.593   2.467
 4856SOL    HW115467   0.526   2.647   2.551
 4856SOL    HW215468   0.521   2.654   2.388
 4857SOL     OW15469   2.008   2.578   6.039
 4857SOL    HW115470   1.952   2.561   5.958
 4857SOL    HW215471   2.089   2.519   6.038
 4858SOL     OW15472   1.484   5.181   4.462
 4858SOL    HW115473   1.441   5.242   4.528
 4858SOL    HW215474   1.583   5.182   4.475
 4859SOL     OW15475   6.473   5.295   3.860
 4859SOL    HW115476   6.446   5.237   3.936
 4859SOL    HW215477   6.520   5.240   3.791
 4860SOL     OW15478   3.975   5.447   1.022
 4860SOL    HW115479   3.965   5.356   0.983
 4860SOL    HW215480   3.885   5.484   1.044
 4861SOL     OW15481   5.850   5.016   4.915
 4861SOL    HW115482   5.832   4.927   4.874
 4861SOL    HW215483   5.768   5.050   4.960
 4862SOL     OW15484   2.336   5.612   4.645
 4862SOL    HW115485   2.315   5.707   4.670
 4862SOL    HW215486   2.322   5.599   4.547
 4863SOL     OW15487   5.502   1.489   2.291
 4863SOL    HW115488   5.463   1.555   2.227
 4863SOL    HW215489   5.600   1.504   2.301
 4864SOL     OW15490   2.211   3.203   1.663
 4864SOL    HW115491   2.292   3.261   1.653
 4864SOL    HW215492   2.208   3.136   1.589
 4865SOL     OW15493   3.826   6.713   5.051
 4865SOL    HW115494   3.744   6.733   5.106
 4865SOL    HW215495   3.842   6.614   5.050
 4866SOL     OW15496   6.913   5.286   1.656
 4866SOL    HW115497   6.967   5.259   1.736
 4866SOL    HW215498   6.911   5.210   1.590
 4867SOL     OW15499   5.341   4.853   5.676
 4867SOL    HW115500   5.316   4.791   5.601
 4867SOL    HW215501   5.381   4.937   5.638
 4868SOL     OW15502   1.716   6.091   1.756
 4868SOL    HW115503   1.636   6.032   1.743
 4868SOL    HW215504   1.790   6.039   1.798
 4869SOL     OW15505   0.059   1.644   2.164
 4869SOL    HW115506   0.058   1.610   2.070
 4869SOL    HW215507   0.154   1.664   2.191
 4870SOL     OW15508   5.957   0.718   0.779
 4870SOL    HW115509   6.003   0.726   0.690
 4870SOL    HW215510   5.858   0.719   0.766
 4871SOL     OW15511   1.868   2.660   5.487
 4871SOL    HW115512   1.893   2.568   5.519
 4871SOL    HW215513   1.936   2.726   5.518
 4872SOL     OW15514   1.748   2.183   2.802
 4872SOL    HW115515   1.661   2.192   2.755
 4872SOL    HW215516   1.732   2.179   2.901
 4873SOL     OW15517   1.230   6.983   5.280
 4873SOL    HW115518   1.267   0.048   5.233
 4873SOL    HW215519   1.305   6.930   5.320
 4874SOL     OW15520   6.071   1.953   4.033
 4874SOL    HW115521   6.064   2.017   4.109
 4874SOL    HW215522   6.030   1.866   4.059
 4875SOL     OW15523   0.199   3.079   6.979
 4875SOL    HW115524   0.138   3.030   0.026
 4875SOL    HW215525   0.257   3.141   0.017
 4876SOL     OW15526   6.811   0.991   6.906
 4876SOL    HW115527   6.754   0.942   6.840
 4876SOL    HW215528   6.821   1.086   6.876
 4877SOL     OW15529   4.381   2.021   1.393
 4877SOL    HW115530   4.335   1.933   1.403
 4877SOL    HW215531   4.324   2.094   1.431
 4878SOL     OW15532   1.077   2.765   2.025
 4878SOL    HW115533   0.982   2.746   2.000
 4878SOL    HW215534   1.133   2.684   2.006
 4879SOL     OW15535   3.524   6.211   4.015
 4879SOL    HW115536   3.497   6.126   4.059
 4879SOL    HW215537   3.540   6.195   3.918
 4880SOL     OW15538   6.644   1.780   5.731
 4880SOL    HW115539   6.548   1.778   5.758
 4880SOL    HW215540   6.695   1.712   5.783
 4881SOL     OW15541   2.855   6.143   6.237
 4881SOL    HW115542   2.849   6.178   6.144
 4881SOL    HW215543   2.886   6.048   6.236
 4882SOL     OW15544   5.522   5.419   6.949
 4882SOL    HW115545   5.493   5.433   6.855
 4882SOL    HW215546   5.566   5.330   6.957
 4883SOL     OW15547   6.174   5.494   0.152
 4883SOL    HW115548   6.140   5.580   0.113
 4883SOL    HW215549   6.263   5.510   0.194
 4884SOL     OW15550   3.739   6.562   2.078
 4884SOL    HW115551   3.783   6.651   2.063
 4884SOL    HW215552   3.648   6.577   2.117
 4885SOL     OW15553   1.851   0.611   2.293
 4885SOL    HW115554   1.915   0.593   2.368
 4885SOL    HW215555   1.863   0.705   2.261
 4886SOL     OW15556   6.135   0.554   5.289
 4886SOL    HW115557   6.086   0.642   5.281
 4886SOL    HW215558   6.125   0.519   5.382
 4887SOL     OW15559   0.434   1.658   5.204
 4887SOL    HW115560   0.514   1.718   5.213
 4887SOL    HW215561   0.439   1.586   5.274
 4888SOL     OW15562   4.273   5.776   1.632
 4888SOL    HW115563   4.321   5.760   1.545
 4888SOL    HW215564   4.188   5.724   1.633
 4889SOL     OW15565   1.673   3.433   6.553
 4889SOL    HW115566   1.607   3.478   6.613
 4889SOL    HW215567   1.683   3.485   6.468
 4890SOL     OW15568   0.440   0.354   4.399
 4890SOL    HW115569   0.465   0.280   4.335
 4890SOL    HW215570   0.394   0.315   4.478
 4891SOL     OW15571   1.009   4.885   0.759
 4891SOL    HW115572   0.921   4.904   0.802
 4891SOL    HW215573   0.993   4.844   0.669
 4892SOL     OW15574   1.824   5.988   2.021
 4892SOL    HW115575   1.787   5.898   2.042
 4892SOL    HW215576   1.753   6.058   2.032
 4893SOL     OW15577   0.221   4.186   6.367
 4893SOL    HW115578   0.292   4.208   6.435
 4893SOL    HW215579   0.173   4.103   6.395
 4894SOL     OW15580   0.749   6.774   2.891
 4894SOL    HW115581   0.780   6.811   2.803
 4894SOL    HW215582   0.822   6.718   2.931
 4895SOL     OW15583   6.241   3.854   6.867
 4895SOL    HW115584   6.339   3.838   6.853
 4895SOL    HW215585   6.212   3.931   6.810
 4896SOL     OW15586   4.236   0.305   4.166
 4896SOL    HW115587   4.239   0.333   4.262
 4896SOL    HW215588   4.153   0.340   4.124
 4897SOL     OW15589   2.617   5.801   6.420
 4897SOL    HW115590   2.662   5.802   6.331
 4897SOL    HW215591   2.630   5.889   6.465
 4898SOL     OW15592   5.284   2.288   4.534
 4898SOL    HW115593   5.277   2.387   4.532
 4898SOL    HW215594   5.318   2.259   4.623
 4899SOL     OW15595   5.987   4.069   4.311
 4899SOL    HW115596   5.947   3.979   4.295
 4899SOL    HW215597   5.923   4.126   4.362
 4900SOL     OW15598   1.180   6.862   5.019
 4900SOL    HW115599   1.097   6.902   4.979
 4900SOL    HW215600   1.185   6.886   5.116
 4901SOL     OW15601   6.281   6.156   3.317
 4901SOL    HW115602   6.301   6.249   3.350
 4901SOL    HW215603   6.196   6.157   3.263
 4902SOL     OW15604   3.582   5.313   0.920
 4902SOL    HW115605   3.648   5.261   0.975
 4902SOL    HW215606   3.556   5.259   0.840
 4903SOL     OW15607   6.120   4.923   6.048
 4903SOL    HW115608   6.059   4.932   6.127
 4903SOL    HW215609   6.117   5.007   5.994
 4904SOL     OW15610   3.119   0.544   3.535
 4904SOL    HW115611   3.142   0.485   3.458
 4904SOL    HW215612   3.114   0.489   3.619
 4905SOL     OW15613   6.300   3.439   2.811
 4905SOL    HW115614   6.240   3.398   2.743
 4905SOL    HW215615   6.348   3.517   2.769
 4906SOL     OW15616   4.801   0.297   1.414
 4906SOL    HW115617   4.717   0.349   1.399
 4906SOL    HW215618   4.830   0.309   1.509
 4907SOL     OW15619   2.262   2.309   1.583
 4907SOL    HW115620   2.322   2.232   1.607
 4907SOL    HW215621   2.251   2.368   1.662
 4908SOL     OW15622   5.080   5.404   6.493
 4908SOL    HW115623   5.130   5.367   6.572
 4908SOL    HW215624   5.011   5.468   6.525
 4909SOL     OW15625   6.423   6.751   5.628
 4909SOL    HW115626   6.342   6.721   5.577
 4909SOL    HW215627   6.480   6.809   5.569
 4910SOL     OW15628   4.894   6.498   5.692
 4910SOL    HW115629   4.894   6.581   5.748
 4910SOL    HW215630   4.816   6.441   5.718
 4911SOL     OW15631   0.141   4.023   6.564
 4911SOL    HW115632   0.199   3.942   6.562
 4911SOL    HW215633   0.129   4.054   6.658
 4912SOL     OW15634   2.167   2.983   1.460
 4912SOL    HW115635   2.233   3.007   1.388
 4912SOL    HW215636   2.111   2.906   1.429
 4913SOL     OW15637   2.868   3.134   1.927
 4913SOL    HW115638   2.916   3.176   2.004
 4913SOL    HW215639   2.917   3.155   1.842
 4914SOL     OW15640   1.493   6.597   2.853
 4914SOL    HW115641   1.508   6.594   2.952
 4914SOL    HW215642   1.509   6.506   2.814
 4915SOL     OW15643   3.665   6.500   3.814
 4915SOL    HW115644   3.727   6.457   3.747
 4915SOL    HW215645   3.715   6.515   3.900
 4916SOL     OW15646   1.018   1.821   1.802
 4916SOL    HW115647   1.048   1.917   1.809
 4916SOL    HW215648   1.032   1.789   1.709
 4917SOL     OW15649   1.437   4.097   6.880
 4917SOL    HW115650   1.408   4.193   6.878
 4917SOL    HW215651   1.382   4.044   6.816
 4918SOL     OW15652   2.602   6.631   3.860
 4918SOL    HW115653   2.561   6.629   3.951
 4918SOL    HW215654   2.530   6.638   3.791
 4919SOL     OW15655   2.369   3.086   1.293
 4919SOL    HW115656   2.457   3.057   1.255
 4919SOL    HW215657   2.381   3.175   1.338
 4920SOL     OW15658   3.365   1.475   0.109
 4920SOL    HW115659   3.290   1.539   0.095
 4920SOL    HW215660   3.414   1.460   0.023
 4921SOL     OW15661   6.358   5.298   2.391
 4921SOL    HW115662   6.335   5.379   2.337
 4921SOL    HW215663   6.354   5.216   2.333
 4922SOL     OW15664   0.967   2.654   5.981
 4922SOL    HW115665   1.025   2.729   5.952
 4922SOL    HW215666   1.000   2.618   6.069
 4923SOL     OW15667   3.010   2.037   6.665
 4923SOL    HW115668   2.939   2.059   6.731
 4923SOL    HW215669   3.037   2.119   6.615
 4924SOL     OW15670   0.524   3.168   4.182
 4924SOL    HW115671   0.577   3.243   4.222
 4924SOL    HW215672   0.558   3.080   4.218
 4925SOL     OW15673   4.337   5.107   5.312
 4925SOL    HW115674   4.273   5.132   5.240
 4925SOL    HW215675   4.313   5.017   5.349
 4926SOL     OW15676   4.074   3.265   0.311
 4926SOL    HW115677   4.122   3.265   0.223
 4926SOL    HW215678   4.137   3.238   0.383
 4927SOL     OW15679   3.097   3.788   2.083
 4927SOL    HW115680   3.087   3.888   2.081
 4927SOL    HW215681   3.149   3.762   2.164
 4928SOL     OW15682   0.069   1.214   6.985
 4928SOL    HW115683   0.107   1.161   0.046
 4928SOL    HW215684   0.127   1.203   6.904
 4929SOL     OW15685   0.421   4.454   4.315
 4929SOL    HW115686   0.388   4.406   4.234
 4929SOL    HW215687   0.453   4.387   4.382
 4930SOL     OW15688   0.359   3.635   0.250
 4930SOL    HW115689   0.394   3.597   0.335
 4930SOL    HW215690   0.407   3.593   0.173
 4931SOL     OW15691   5.474   6.630   1.024
 4931SOL    HW115692   5.470   6.672   1.114
 4931SOL    HW215693   5.540   6.680   0.967
 4932SOL     OW15694   3.496   1.302   1.132
 4932SOL    HW115695   3.556   1.373   1.168
 4932SOL    HW215696   3.469   1.326   1.038
 4933SOL     OW15697   2.905   0.307   5.056
 4933SOL    HW115698   2.840   0.235   5.080
 4933SOL    HW215699   2.998   0.270   5.054
 4934SOL     OW15700   1.878   5.748   4.896
 4934SOL    HW115701   1.809   5.691   4.940
 4934SOL    HW215702   1.905   5.822   4.958
 4935SOL     OW15703   2.360   2.381   0.798
 4935SOL    HW115704   2.314   2.470   0.797
 4935SOL    HW215705   2.344   2.336   0.886
 4936SOL     OW15706   6.366   4.101   1.501
 4936SOL    HW115707   6.352   4.008   1.467
 4936SOL    HW215708   6.446   4.103   1.561
 4937SOL     OW15709   0.641   3.452   4.756
 4937SOL    HW115710   0.662   3.548   4.740
 4937SOL    HW215711   0.575   3.444   4.831
 4938SOL     OW15712   3.460   4.279   1.073
 4938SOL    HW115713   3.557   4.280   1.047
 4938SOL    HW215714   3.452   4.289   1.172
 4939SOL     OW15715   1.106   1.348   1.446
 4939SOL    HW115716   1.082   1.253   1.465
 4939SOL    HW215717   1.114   1.362   1.348
 4940SOL     OW15718   1.223   1.750   5.540
 4940SOL    HW115719   1.285   1.687   5.587
 4940SOL    HW215720   1.236   1.742   5.441
 4941SOL     OW15721   4.168   2.037   5.672
 4941SOL    HW115722   4.186   2.009   5.766
 4941SOL    HW215723   4.073   2.067   5.663
 4942SOL     OW15724   6.845   1.033   2.309
 4942SOL    HW115725   6.841   1.005   2.405
 4942SOL    HW215726   6.937   1.065   2.288
 4943SOL     OW15727   5.112   2.265   6.192
 4943SOL    HW115728   5.088   2.323   6.115
 4943SOL    HW215729   5.076   2.304   6.277
 4944SOL     OW15730   0.939   4.783   0.512
 4944SOL    HW115731   0.882   4.863   0.491
 4944SOL    HW215732   1.004   4.768   0.437
 4945SOL     OW15733   2.521   0.069   6.017
 4945SOL    HW115734   2.501   0.167   6.024
 4945SOL    HW215735   2.441   0.022   5.981
 4946SOL     OW15736   2.508   5.863   0.432
 4946SOL    HW115737   2.487   5.898   0.341
 4946SOL    HW215738   2.452   5.781   0.450
 4947SOL     OW15739   1.033   0.017   1.240
 4947SOL    HW115740   1.055   0.059   1.328
 4947SOL    HW215741   1.012   0.089   1.173
 4948SOL     OW15742   1.417   2.681   2.138
 4948SOL    HW115743   1.503   2.629   2.134
 4948SOL    HW215744   1.379   2.689   2.046
 4949SOL     OW15745   6.191   4.423   6.273
 4949SOL    HW115746   6.273   4.366   6.263
 4949SOL    HW215747   6.215   4.511   6.313
 4950SOL     OW15748   4.105   4.428   5.866
 4950SOL    HW115749   4.059   4.380   5.791
 4950SOL    HW215750   4.204   4.418   5.857
 4951SOL     OW15751   5.193   5.609   3.004
 4951SOL    HW115752   5.245   5.527   2.977
 4951SOL    HW215753   5.136   5.588   3.083
 4952SOL     OW15754   0.982   0.903   6.478
 4952SOL    HW115755   1.064   0.885   6.533
 4952SOL    HW215756   0.901   0.897   6.537
 4953SOL     OW15757   1.525   1.581   5.914
 4953SOL    HW115758   1.606   1.525   5.902
 4953SOL    HW215759   1.463   1.537   5.979
 4954SOL     OW15760   3.405   3.671   5.089
 4954SOL    HW115761   3.339   3.746   5.084
 4954SOL    HW215762   3.383   3.613   5.168
 4955SOL     OW15763   4.148   6.000   0.245
 4955SOL    HW115764   4.144   5.913   0.195
 4955SOL    HW215765   4.209   5.990   0.323
 4956SOL     OW15766   2.228   0.385   4.545
 4956SOL    HW115767   2.137   0.414   4.516
 4956SOL    HW215768   2.297   0.449   4.511
 4957SOL     OW15769   5.883   5.398   0.182
 4957SOL    HW115770   5.944   5.383   0.105
 4957SOL    HW215771   5.932   5.447   0.255
 4958SOL     OW15772   3.496   5.540   0.079
 4958SOL    HW115773   3.559   5.468   0.051
 4958SOL    HW215774   3.546   5.610   0.130
 4959SOL     OW15775   0.123   2.352   3.033
 4959SOL    HW115776   0.090   2.376   2.941
 4959SOL    HW215777   0.132   2.436   3.087
 4960SOL     OW15778   4.664   4.286   3.905
 4960SOL    HW115779   4.570   4.305   3.933
 4960SOL    HW215780   4.715   4.372   3.901
 4961SOL     OW15781   3.682   3.097   2.145
 4961SOL    HW115782   3.758   3.041   2.111
 4961SOL    HW215783   3.608   3.097   2.077
 4962SOL     OW15784   1.670   2.417   0.488
 4962SOL    HW115785   1.686   2.473   0.407
 4962SOL    HW215786   1.606   2.343   0.465
 4963SOL     OW15787   0.439   4.144   6.997
 4963SOL    HW115788   0.352   4.107   6.965
 4963SOL    HW215789   0.502   4.069   0.001
 4964SOL     OW15790   1.577   4.561   4.057
 4964SOL    HW115791   1.639   4.482   4.061
 4964SOL    HW215792   1.557   4.582   3.961
 4965SOL     OW15793   2.342   0.211   3.498
 4965SOL    HW115794   2.289   0.261   3.566
 4965SOL    HW215795   2.372   0.273   3.425
 4966SOL     OW15796   4.356   0.028   5.250
 4966SOL    HW115797   4.352   0.072   5.340
 4966SOL    HW215798   4.303   0.081   5.185
 4967SOL     OW15799   4.481   4.505   3.950
 4967SOL    HW115800   4.400   4.516   4.007
 4967SOL    HW215801   4.480   4.573   3.877
 4968SOL     OW15802   6.476   2.925   4.012
 4968SOL    HW115803   6.548   2.886   4.070
 4968SOL    HW215804   6.491   2.897   3.917
 4969SOL     OW15805   0.382   5.793   4.248
 4969SOL    HW115806   0.304   5.735   4.224
 4969SOL    HW215807   0.354   5.889   4.247
 4970SOL     OW15808   2.257   1.336   1.509
 4970SOL    HW115809   2.205   1.276   1.570
 4970SOL    HW215810   2.340   1.290   1.480
 4971SOL     OW15811   0.099   5.793   1.707
 4971SOL    HW115812   0.076   5.700   1.677
 4971SOL    HW215813   0.197   5.798   1.727
 4972SOL     OW15814   0.221   3.995   6.936
 4972SOL    HW115815   0.175   3.983   0.008
 4972SOL    HW215816   0.153   4.005   6.863
 4973SOL     OW15817   5.504   2.622   6.511
 4973SOL    HW115818   5.564   2.610   6.591
 4973SOL    HW215819   5.483   2.532   6.473
 4974SOL     OW15820   3.286   6.823   5.730
 4974SOL    HW115821   3.205   6.804   5.786
 4974SOL    HW215822   3.328   6.909   5.759
 4975SOL     OW15823   5.999   3.866   1.522
 4975SOL    HW115824   6.077   3.825   1.568
 4975SOL    HW215825   5.934   3.899   1.590
 4976SOL     OW15826   0.765   0.260   3.870
 4976SOL    HW115827   0.763   0.293   3.964
 4976SOL    HW215828   0.696   0.189   3.857
 4977SOL     OW15829   1.547   3.507   5.099
 4977SOL    HW115830   1.553   3.411   5.129
 4977SOL    HW215831   1.592   3.516   5.011
 4978SOL     OW15832   6.390   5.154   4.609
 4978SOL    HW115833   6.342   5.152   4.522
 4978SOL    HW215834   6.330   5.116   4.680
 4979SOL     OW15835   3.048   6.815   6.530
 4979SOL    HW115836   3.048   6.717   6.549
 4979SOL    HW215837   2.997   6.832   6.445
 4980SOL     OW15838   5.640   2.908   3.890
 4980SOL    HW115839   5.680   2.911   3.799
 4980SOL    HW215840   5.580   2.987   3.903
 4981SOL     OW15841   3.817   6.152   3.377
 4981SOL    HW115842   3.872   6.184   3.300
 4981SOL    HW215843   3.807   6.053   3.373
 4982SOL     OW15844   4.287   1.854   4.700
 4982SOL    HW115845   4.227   1.807   4.635
 4982SOL    HW215846   4.344   1.919   4.650
 4983SOL     OW15847   5.833   3.476   2.955
 4983SOL    HW115848   5.830   3.415   2.875
 4983SOL    HW215849   5.766   3.445   3.022
 4984SOL     OW15850   4.942   3.712   4.744
 4984SOL    HW115851   4.912   3.637   4.686
 4984SOL    HW215852   4.904   3.701   4.836
 4985SOL     OW15853   5.490   0.493   1.995
 4985SOL    HW115854   5.521   0.578   2.040
 4985SOL    HW215855   5.408   0.512   1.942
 4986SOL     OW15856   1.832   5.428   1.049
 4986SOL    HW115857   1.754   5.440   0.987
 4986SOL    HW215858   1.804   5.453   1.142
 4987SOL     OW15859   2.038   3.525   2.437
 4987SOL    HW115860   2.034   3.461   2.360
 4987SOL    HW215861   1.990   3.609   2.414
 4988SOL     OW15862   6.100   5.603   4.160
 4988SOL    HW115863   6.151   5.569   4.082
 4988SOL    HW215864   6.102   5.703   4.161
 4989SOL     OW15865   6.707   6.656   3.421
 4989SOL    HW115866   6.716   6.690   3.515
 4989SOL    HW215867   6.624   6.694   3.379
 4990SOL     OW15868   5.003   1.917   5.894
 4990SOL    HW115869   5.044   1.901   5.983
 4990SOL    HW215870   5.014   1.836   5.837
 4991SOL     OW15871   1.995   5.440   5.785
 4991SOL    HW115872   1.938   5.521   5.778
 4991SOL    HW215873   1.963   5.371   5.720
 4992SOL     OW15874   1.859   3.183   4.993
 4992SOL    HW115875   1.868   3.088   4.963
 4992SOL    HW215876   1.945   3.231   4.979
 4993SOL     OW15877   2.136   5.808   4.027
 4993SOL    HW115878   2.236   5.813   4.029
 4993SOL    HW215879   2.098   5.899   4.043
 4994SOL     OW15880   3.197   5.391   5.757
 4994SOL    HW115881   3.128   5.319   5.769
 4994SOL    HW215882   3.281   5.351   5.721
 4995SOL     OW15883   0.179   1.397   5.737
 4995SOL    HW115884   0.227   1.317   5.700
 4995SOL    HW215885   0.144   1.452   5.661
 4996SOL     OW15886   0.060   0.912   4.306
 4996SOL    HW115887   0.116   0.968   4.245
 4996SOL    HW215888   6.994   0.962   4.333
 4997SOL     OW15889   4.190   1.495   0.494
 4997SOL    HW115890   4.104   1.465   0.454
 4997SOL    HW215891   4.256   1.420   0.494
 4998SOL     OW15892   0.796   3.843   3.884
 4998SOL    HW115893   0.837   3.782   3.815
 4998SOL    HW215894   0.856   3.848   3.964
 4999SOL     OW15895   0.494   3.055   3.676
 4999SOL    HW115896   0.573   2.995   3.685
 4999SOL    HW215897   0.486   3.112   3.758
 5000SOL     OW15898   3.418   6.304   3.313
 5000SOL    HW115899   3.328   6.344   3.331
 5000SOL    HW215900   3.466   6.359   3.244
 5001SOL     OW15901   0.408   5.633   3.190
 5001SOL    HW115902   0.376   5.661   3.281
 5001SOL    HW215903   0.343   5.663   3.121
 5002SOL     OW15904   1.009   4.758   3.916
 5002SOL    HW115905   1.100   4.719   3.913
 5002SOL    HW215906   1.016   4.858   3.908
 5003SOL     OW15907   3.333   0.834   1.604
 5003SOL    HW115908   3.397   0.757   1.607
 5003SOL    HW215909   3.360   0.897   1.532
 5004SOL     OW15910   4.320   5.933   0.427
 5004SOL    HW115911   4.406   5.881   0.429
 5004SOL    HW215912   4.304   5.973   0.517
 5005SOL     OW15913   3.775   3.249   0.984
 5005SOL    HW115914   3.829   3.282   0.906
 5005SOL    HW215915   3.797   3.154   1.002
 5006SOL     OW15916   5.395   0.403   2.817
 5006SOL    HW115917   5.413   0.496   2.785
 5006SOL    HW215918   5.452   0.338   2.766
 5007SOL     OW15919   5.935   5.070   2.595
 5007SOL    HW115920   6.034   5.057   2.592
 5007SOL    HW215921   5.914   5.166   2.576
 5008SOL     OW15922   5.167   6.935   3.676
 5008SOL    HW115923   5.205   0.009   3.652
 5008SOL    HW215924   5.157   6.928   3.775
 5009SOL     OW15925   0.204   1.472   7.014
 5009SOL    HW115926   0.162   1.382   7.014
 5009SOL    HW215927   0.303   1.462   7.003
 5010SOL     OW15928   5.006   3.911   0.887
 5010SOL    HW115929   5.096   3.955   0.896
 5010SOL    HW215930   5.010   3.820   0.928
 5011SOL     OW15931   1.722   2.752   6.484
 5011SOL    HW115932   1.743   2.730   6.580
 5011SOL    HW215933   1.725   2.851   6.471
 5012SOL     OW15934   6.481   1.967   6.084
 5012SOL    HW115935   6.420   1.968   6.005
 5012SOL    HW215936   6.431   1.940   6.166
 5013SOL     OW15937   5.452   0.039   5.545
 5013SOL    HW115938   5.514   0.021   5.621
 5013SOL    HW215939   5.465   6.985   5.474
 5014SOL     OW15940   6.133   3.725   0.708
 5014SOL    HW115941   6.223   3.719   0.664
 5014SOL    HW215942   6.104   3.634   0.736
 5015SOL     OW15943   6.323   5.268   4.345
 5015SOL    HW115944   6.248   5.240   4.285
 5015SOL    HW215945   6.363   5.353   4.310
 5016SOL     OW15946   1.494   2.379   6.490
 5016SOL    HW115947   1.419   2.445   6.478
 5016SOL    HW215948   1.532   2.390   6.582
 5017SOL     OW15949   0.969   2.279   1.995
 5017SOL    HW115950   0.880   2.294   1.952
 5017SOL    HW215951   1.028   2.358   1.979
 5018SOL     OW15952   1.057   0.910   0.170
 5018SOL    HW115953   0.962   0.879   0.176
 5018SOL    HW215954   1.081   0.925   0.074
 5019SOL     OW15955   1.624   4.073   4.138
 5019SOL    HW115956   1.635   4.073   4.237
 5019SOL    HW215957   1.684   4.004   4.098
 5020SOL     OW15958   1.538   6.951   3.882
 5020SOL    HW115959   1.588   0.018   3.909
 5020SOL    HW215960   1.440   6.970   3.882
 5021SOL     OW15961   2.078   0.392   1.688
 5021SOL    HW115962   2.146   0.322   1.667
 5021SOL    HW215963   1.996   0.349   1.726
 5022SOL     OW15964   6.783   2.720   0.833
 5022SOL    HW115965   6.845   2.691   0.759
 5022SOL    HW215966   6.831   2.784   0.893
 5023SOL     OW15967   0.141   3.179   2.893
 5023SOL    HW115968   0.105   3.212   2.806
 5023SOL    HW215969   0.124   3.080   2.901
 5024SOL     OW15970   4.698   4.341   7.013
 5024SOL    HW115971   4.610   4.378   0.030
 5024SOL    HW215972   4.681   4.272   6.943
 5025SOL     OW15973   4.994   1.936   4.872
 5025SOL    HW115974   5.039   1.847   4.887
 5025SOL    HW215975   5.033   1.979   4.790
 5026SOL     OW15976   5.210   6.023   4.985
 5026SOL    HW115977   5.114   6.024   4.957
 5026SOL    HW215978   5.251   5.935   4.962
 5027SOL     OW15979   5.190   6.452   0.772
 5027SOL    HW115980   5.132   6.456   0.853
 5027SOL    HW215981   5.232   6.362   0.764
 5028SOL     OW15982   6.303   1.532   2.843
 5028SOL    HW115983   6.403   1.536   2.852
 5028SOL    HW215984   6.261   1.574   2.924
 5029SOL     OW15985   5.533   2.532   2.338
 5029SOL    HW115986   5.467   2.463   2.307
 5029SOL    HW215987   5.558   2.590   2.260
 5030SOL     OW15988   0.313   3.508   0.860
 5030SOL    HW115989   0.252   3.561   0.801
 5030SOL    HW215990   0.408   3.526   0.834
 5031SOL     OW15991   6.404   0.206   6.035
 5031SOL    HW115992   6.339   0.203   5.959
 5031SOL    HW215993   6.356   0.192   6.121
 5032SOL     OW15994   2.398   4.198   6.073
 5032SOL    HW115995   2.431   4.245   5.991
 5032SOL    HW215996   2.430   4.246   6.154
 5033SOL     OW15997   1.942   6.473   5.564
 5033SOL    HW115998   2.019   6.507   5.618
 5033SOL    HW215999   1.937   6.373   5.572
 5034SOL     OW16000   4.076   6.030   4.146
 5034SOL    HW116001   4.063   5.932   4.127
 5034SOL    HW216002   4.093   6.078   4.060
 5035SOL     OW16003   1.983   3.823   3.127
 5035SOL    HW116004   1.887   3.812   3.151
 5035SOL    HW216005   2.040   3.778   3.195
 5036SOL     OW16006   1.109   3.573   4.790
 5036SOL    HW116007   1.165   3.493   4.768
 5036SOL    HW216008   1.110   3.637   4.713
 5037SOL     OW16009   5.092   4.686   1.061
 5037SOL    HW116010   5.062   4.651   0.972
 5037SOL    HW216011   5.061   4.781   1.072
 5038SOL     OW16012   3.030   3.909   4.010
 5038SOL    HW116013   2.984   3.897   3.922
 5038SOL    HW216014   3.117   3.955   3.995
 5039SOL     OW16015   0.528   3.693   6.853
 5039SOL    HW116016   0.556   3.778   6.898
 5039SOL    HW216017   0.472   3.715   6.774
 5040SOL     OW16018   0.433   1.537   5.478
 5040SOL    HW116019   0.493   1.567   5.552
 5040SOL    HW216020   0.458   1.445   5.450
 5041SOL     OW16021   6.896   2.021   2.011
 5041SOL    HW116022   6.873   1.982   1.922
 5041SOL    HW216023   6.828   2.091   2.034
 5042SOL     OW16024   1.037   2.122   5.872
 5042SOL    HW116025   1.099   2.196   5.898
 5042SOL    HW216026   0.984   2.094   5.951
 5043SOL     OW16027   2.994   6.728   1.909
 5043SOL    HW116028   3.071   6.690   1.859
 5043SOL    HW216029   2.976   6.821   1.875
 5044SOL     OW16030   0.016   5.905   0.104
 5044SOL    HW116031   0.109   5.933   0.079
 5044SOL    HW216032   6.965   5.952   0.045
 5045SOL     OW16033   5.848   2.575   1.017
 5045SOL    HW116034   5.764   2.520   1.017
 5045SOL    HW216035   5.825   2.671   1.032
 5046SOL     OW16036   3.938   3.174   2.297
 5046SOL    HW116037   3.956   3.150   2.201
 5046SOL    HW216038   3.949   3.273   2.309
 5047SOL     OW16039   1.871   4.125   3.161
 5047SOL    HW116040   1.804   4.064   3.118
 5047SOL    HW216041   1.964   4.093   3.139
 5048SOL     OW16042   2.519   0.522   5.845
 5048SOL    HW116043   2.601   0.579   5.839
 5048SOL    HW216044   2.522   0.451   5.775
 5049SOL     OW16045   3.998   1.590   6.586
 5049SOL    HW116046   3.923   1.649   6.615
 5049SOL    HW216047   4.044   1.631   6.507
 5050SOL     OW16048   1.684   0.692   0.874
 5050SOL    HW116049   1.615   0.669   0.805
 5050SOL    HW216050   1.651   0.768   0.930
 5051SOL     OW16051   4.544   4.833   1.105
 5051SOL    HW116052   4.488   4.845   1.187
 5051SOL    HW216053   4.549   4.735   1.083
 5052SOL     OW16054   2.101   3.251   4.239
 5052SOL    HW116055   2.113   3.303   4.324
 5052SOL    HW216056   2.038   3.299   4.179
 5053SOL     OW16057   6.357   0.691   0.717
 5053SOL    HW116058   6.377   0.593   0.718
 5053SOL    HW216059   6.313   0.717   0.803
 5054SOL     OW16060   4.081   5.188   3.667
 5054SOL    HW116061   4.023   5.180   3.586
 5054SOL    HW216062   4.172   5.153   3.646
 5055SOL     OW16063   0.118   3.565   5.345
 5055SOL    HW116064   0.105   3.511   5.428
 5055SOL    HW216065   0.062   3.527   5.271
 5056SOL     OW16066   6.109   4.360   3.438
 5056SOL    HW116067   6.160   4.397   3.360
 5056SOL    HW216068   6.168   4.295   3.487
 5057SOL     OW16069   6.736   5.970   2.311
 5057SOL    HW116070   6.769   6.062   2.330
 5057SOL    HW216071   6.810   5.914   2.274
 5058SOL     OW16072   2.281   5.558   6.068
 5058SOL    HW116073   2.272   5.575   5.970
 5058SOL    HW216074   2.328   5.471   6.083
 5059SOL     OW16075   6.723   0.544   2.082
 5059SOL    HW116076   6.727   0.621   2.146
 5059SOL    HW216077   6.812   0.499   2.078
 5060SOL     OW16078   0.217   2.060   6.707
 5060SOL    HW116079   0.261   2.009   6.634
 5060SOL    HW216080   0.162   1.998   6.763
 5061SOL     OW16081   5.580   3.395   0.696
 5061SOL    HW116082   5.659   3.373   0.639
 5061SOL    HW216083   5.588   3.488   0.731
 5062SOL     OW16084   6.838   0.110   0.227
 5062SOL    HW116085   6.934   0.082   0.223
 5062SOL    HW216086   6.833   0.208   0.249
 5063SOL     OW16087   1.492   6.333   2.780
 5063SOL    HW116088   1.570   6.293   2.733
 5063SOL    HW216089   1.412   6.331   2.720
 5064SOL     OW16090   4.955   4.042   6.714
 5064SOL    HW116091   4.943   3.944   6.732
 5064SOL    HW216092   4.877   4.076   6.662
 5065SOL     OW16093   3.152   6.710   6.209
 5065SOL    HW116094   3.101   6.650   6.148
 5065SOL    HW216095   3.110   6.801   6.210
 5066SOL     OW16096   4.489   4.941   0.846
 5066SOL    HW116097   4.557   4.913   0.778
 5066SOL    HW216098   4.519   4.912   0.937
 5067SOL     OW16099   4.998   1.238   6.827
 5067SOL    HW116100   5.087   1.280   6.808
 5067SOL    HW216101   4.942   1.236   6.744
 5068SOL     OW16102   3.648   4.940   1.093
 5068SOL    HW116103   3.651   4.958   0.995
 5068SOL    HW216104   3.556   4.913   1.119
 5069SOL     OW16105   6.706   5.137   3.064
 5069SOL    HW116106   6.667   5.172   3.149
 5069SOL    HW216107   6.655   5.175   2.987
 5070SOL     OW16108   5.106   2.757   3.669
 5070SOL    HW116109   5.136   2.740   3.575
 5070SOL    HW216110   5.011   2.726   3.679
 5071SOL     OW16111   4.707   0.970   0.744
 5071SOL    HW116112   4.607   0.974   0.735
 5071SOL    HW216113   4.735   1.030   0.819
 5072SOL     OW16114   0.765   3.726   1.302
 5072SOL    HW116115   0.749   3.808   1.357
 5072SOL    HW216116   0.863   3.707   1.297
 5073SOL     OW16117   3.924   2.182   3.358
 5073SOL    HW116118   3.912   2.243   3.435
 5073SOL    HW216119   3.982   2.104   3.385
 5074SOL     OW16120   4.157   4.487   5.351
 5074SOL    HW116121   4.143   4.585   5.336
 5074SOL    HW216122   4.209   4.448   5.275
 5075SOL     OW16123   0.107   6.870   3.744
 5075SOL    HW116124   0.127   6.937   3.815
 5075SOL    HW216125   0.050   6.797   3.782
 5076SOL     OW16126   4.504   0.089   0.932
 5076SOL    HW116127   4.454   0.006   0.957
 5076SOL    HW216128   4.527   0.085   0.835
 5077SOL     OW16129   6.846   2.542   2.553
 5077SOL    HW116130   6.850   2.551   2.652
 5077SOL    HW216131   6.766   2.591   2.517
 5078SOL     OW16132   6.836   1.108   4.206
 5078SOL    HW116133   6.801   1.150   4.290
 5078SOL    HW216134   6.861   1.180   4.142
 5079SOL     OW16135   4.589   4.828   4.763
 5079SOL    HW116136   4.626   4.906   4.713
 5079SOL    HW216137   4.657   4.755   4.766
 5080SOL     OW16138   5.820   0.862   6.065
 5080SOL    HW116139   5.764   0.887   5.986
 5080SOL    HW216140   5.902   0.814   6.034
 5081SOL     OW16141   2.873   3.497   3.068
 5081SOL    HW116142   2.864   3.563   2.994
 5081SOL    HW216143   2.900   3.408   3.029
 5082SOL     OW16144   0.336   1.200   5.603
 5082SOL    HW116145   0.324   1.198   5.504
 5082SOL    HW216146   0.317   1.109   5.641
 5083SOL     OW16147   0.954   4.336   2.183
 5083SOL    HW116148   0.856   4.340   2.200
 5083SOL    HW216149   0.984   4.241   2.176
 5084SOL     OW16150   0.909   5.789   2.339
 5084SOL    HW116151   0.946   5.879   2.315
 5084SOL    HW216152   0.934   5.723   2.269
 5085SOL     OW16153   6.661   3.273   6.313
 5085SOL    HW116154   6.584   3.237   6.261
 5085SOL    HW216155   6.682   3.366   6.283
 5086SOL     OW16156   6.141   5.472   4.728
 5086SOL    HW116157   6.237   5.448   4.714
 5086SOL    HW216158   6.099   5.406   4.790
 5087SOL     OW16159   5.659   5.196   5.374
 5087SOL    HW116160   5.740   5.184   5.317
 5087SOL    HW216161   5.686   5.243   5.459
 5088SOL     OW16162   6.624   0.844   6.753
 5088SOL    HW116163   6.674   0.758   6.764
 5088SOL    HW216164   6.526   0.825   6.746
 5089SOL     OW16165   5.684   2.748   4.320
 5089SOL    HW116166   5.621   2.767   4.244
 5089SOL    HW216167   5.651   2.669   4.372
 5090SOL     OW16168   1.510   5.363   0.430
 5090SOL    HW116169   1.516   5.458   0.399
 5090SOL    HW216170   1.419   5.326   0.408
 5091SOL     OW16171   0.910   6.200   3.044
 5091SOL    HW116172   0.877   6.127   3.104
 5091SOL    HW216173   0.988   6.167   2.991
 5092SOL     OW16174   3.334   2.780   1.433
 5092SOL    HW116175   3.422   2.800   1.477
 5092SOL    HW216176   3.334   2.820   1.341
 5093SOL     OW16177   0.847   1.534   1.664
 5093SOL    HW116178   0.833   1.435   1.666
 5093SOL    HW216179   0.766   1.579   1.626
 5094SOL     OW16180   0.269   6.892   6.569
 5094SOL    HW116181   0.265   6.932   6.660
 5094SOL    HW216182   0.250   6.794   6.574
 5095SOL     OW16183   3.206   0.272   5.268
 5095SOL    HW116184   3.171   0.365   5.273
 5095SOL    HW216185   3.294   0.271   5.220
 5096SOL     OW16186   3.822   6.007   3.095
 5096SOL    HW116187   3.803   5.974   3.187
 5096SOL    HW216188   3.832   5.930   3.033
 5097SOL     OW16189   1.000   1.929   6.539
 5097SOL    HW116190   0.914   1.892   6.504
 5097SOL    HW216191   0.996   2.028   6.537
 5098SOL     OW16192   0.043   2.638   3.115
 5098SOL    HW116193   0.051   2.700   3.037
 5098SOL    HW216194   6.961   2.616   3.130
 5099SOL     OW16195   0.369   1.050   4.284
 5099SOL    HW116196   0.316   1.004   4.213
 5099SOL    HW216197   0.453   1.087   4.244
 5100SOL     OW16198   4.367   5.163   5.720
 5100SOL    HW116199   4.375   5.237   5.787
 5100SOL    HW216200   4.456   5.120   5.706
 5101SOL     OW16201   5.661   5.999   0.712
 5101SOL    HW116202   5.723   5.964   0.642
 5101SOL    HW216203   5.567   5.999   0.677
 5102SOL     OW16204   3.525   5.488   4.043
 5102SOL    HW116205   3.542   5.520   4.136
 5102SOL    HW216206   3.508   5.389   4.044
 5103SOL     OW16207   1.086   1.474   3.814
 5103SOL    HW116208   1.052   1.503   3.904
 5103SOL    HW216209   1.030   1.517   3.742
 5104SOL     OW16210   0.764   0.883   0.553
 5104SOL    HW116211   0.842   0.944   0.566
 5104SOL    HW216212   0.763   0.814   0.625
 5105SOL     OW16213   1.063   3.216   6.565
 5105SOL    HW116214   0.996   3.189   6.496
 5105SOL    HW216215   1.053   3.314   6.584
 5106SOL     OW16216   2.127   6.693   2.329
 5106SOL    HW116217   2.071   6.639   2.391
 5106SOL    HW216218   2.105   6.670   2.234
 5107SOL     OW16219   2.340   6.723   6.571
 5107SOL    HW116220   2.247   6.697   6.545
 5107SOL    HW216221   2.338   6.769   6.660
 5108SOL     OW16222   3.292   4.092   4.753
 5108SOL    HW116223   3.303   3.993   4.760
 5108SOL    HW216224   3.244   4.115   4.668
 5109SOL     OW16225   6.735   2.102   2.633
 5109SOL    HW116226   6.689   2.016   2.613
 5109SOL    HW216227   6.783   2.135   2.552
 5110SOL     OW16228   2.403   6.235   5.211
 5110SOL    HW116229   2.376   6.156   5.266
 5110SOL    HW216230   2.361   6.318   5.248
 5111SOL     OW16231   1.751   0.387   6.755
 5111SOL    HW116232   1.789   0.479   6.763
 5111SOL    HW216233   1.811   0.322   6.802
 5112SOL     OW16234   0.031   6.812   2.646
 5112SOL    HW116235   0.130   6.821   2.656
 5112SOL    HW216236   7.001   6.892   2.685
 5113SOL     OW16237   0.776   0.607   6.149
 5113SOL    HW116238   0.834   0.685   6.172
 5113SOL    HW216239   0.809   0.525   6.196
 5114SOL     OW16240   4.446   5.821   6.732
 5114SOL    HW116241   4.491   5.743   6.690
 5114SOL    HW216242   4.459   5.902   6.674
 5115SOL     OW16243   2.552   3.861   5.337
 5115SOL    HW116244   2.646   3.895   5.331
 5115SOL    HW216245   2.492   3.920   5.282
 5116SOL     OW16246   6.697   4.032   1.197
 5116SOL    HW116247   6.694   4.128   1.224
 5116SOL    HW216248   6.754   4.021   1.115
 5117SOL     OW16249   2.149   4.885   2.783
 5117SOL    HW116250   2.109   4.793   2.783
 5117SOL    HW216251   2.228   4.886   2.845
 5118SOL     OW16252   4.156   6.960   1.533
 5118SOL    HW116253   4.082   0.008   1.508
 5118SOL    HW216254   4.197   6.922   1.449
 5119SOL     OW16255   6.043   0.578   2.313
 5119SOL    HW116256   5.982   0.585   2.235
 5119SOL    HW216257   6.121   0.519   2.290
 5120SOL     OW16258   3.041   1.430   1.894
 5120SOL    HW116259   2.966   1.405   1.833
 5120SOL    HW216260   3.061   1.354   1.956
 5121SOL     OW16261   0.462   3.552   4.145
 5121SOL    HW116262   0.378   3.501   4.165
 5121SOL    HW216263   0.441   3.650   4.143
 5122SOL     OW16264   2.178   5.320   3.344
 5122SOL    HW116265   2.216   5.412   3.341
 5122SOL    HW216266   2.130   5.307   3.431
 5123SOL     OW16267   6.096   3.291   2.304
 5123SOL    HW116268   6.122   3.197   2.279
 5123SOL    HW216269   6.169   3.354   2.276
 5124SOL     OW16270   3.210   6.182   0.658
 5124SOL    HW116271   3.215   6.162   0.560
 5124SOL    HW216272   3.302   6.178   0.697
 5125SOL     OW16273   0.683   1.982   6.029
 5125SOL    HW116274   0.616   2.020   6.093
 5125SOL    HW216275   0.641   1.910   5.975
 5126SOL     OW16276   4.212   1.662   0.273
 5126SOL    HW116277   4.125   1.636   0.232
 5126SOL    HW216278   4.215   1.630   0.368
 5127SOL     OW16279   4.614   3.175   6.577
 5127SOL    HW116280   4.666   3.227   6.509
 5127SOL    HW216281   4.628   3.077   6.562
 5128SOL     OW16282   0.428   0.486   6.461
 5128SOL    HW116283   0.351   0.463   6.402
 5128SOL    HW216284   0.490   0.549   6.414
 5129SOL     OW16285   4.914   3.297   3.582
 5129SOL    HW116286   4.916   3.330   3.488
 5129SOL    HW216287   4.997   3.246   3.602
 5130SOL     OW16288   2.338   6.557   5.120
 5130SOL    HW116289   2.353   6.510   5.206
 5130SOL    HW216290   2.354   6.655   5.132
 5131SOL     OW16291   3.320   4.875   2.922
 5131SOL    HW116292   3.237   4.893   2.975
 5131SOL    HW216293   3.395   4.851   2.985
 5132SOL     OW16294   3.744   2.005   6.521
 5132SOL    HW116295   3.725   2.043   6.612
 5132SOL    HW216296   3.692   1.920   6.510
 5133SOL     OW16297   4.298   4.491   6.169
 5133SOL    HW116298   4.307   4.396   6.139
 5133SOL    HW216299   4.385   4.538   6.155
 5134SOL     OW16300   5.772   5.624   0.423
 5134SOL    HW116301   5.712   5.621   0.344
 5134SOL    HW216302   5.752   5.707   0.476
 5135SOL     OW16303   6.965   3.363   2.001
 5135SOL    HW116304   0.008   3.390   1.925
 5135SOL    HW216305   6.970   3.264   2.013
 5136SOL     OW16306   0.326   0.680   4.147
 5136SOL    HW116307   0.253   0.748   4.147
 5136SOL    HW216308   0.356   0.663   4.241
 5137SOL     OW16309   5.569   0.386   3.015
 5137SOL    HW116310   5.515   0.431   2.944
 5137SOL    HW216311   5.570   0.288   2.998
 5138SOL     OW16312   3.419   4.101   2.258
 5138SOL    HW116313   3.415   4.039   2.337
 5138SOL    HW216314   3.508   4.146   2.256
 5139SOL     OW16315   5.028   0.252   4.864
 5139SOL    HW116316   5.125   0.276   4.874
 5139SOL    HW216317   5.019   0.180   4.795
 5140SOL     OW16318   2.855   3.783   6.329
 5140SOL    HW116319   2.836   3.803   6.233
 5140SOL    HW216320   2.885   3.866   6.376
 5141SOL     OW16321   0.860   3.137   1.383
 5141SOL    HW116322   0.844   3.119   1.480
 5141SOL    HW216323   0.908   3.223   1.373
 5142SOL     OW16324   0.033   6.659   2.876
 5142SOL    HW116325   0.017   6.720   2.798
 5142SOL    HW216326   0.038   6.713   2.960
 5143SOL     OW16327   6.825   6.499   2.489
 5143SOL    HW116328   6.825   6.403   2.461
 5143SOL    HW216329   6.879   6.509   2.572
 5144SOL     OW16330   2.078   2.835   5.526
 5144SOL    HW116331   2.148   2.764   5.533
 5144SOL    HW216332   2.074   2.869   5.432
 5145SOL     OW16333   1.770   5.457   5.417
 5145SOL    HW116334   1.850   5.397   5.415
 5145SOL    HW216335   1.797   5.548   5.447
 5146SOL     OW16336   6.191   5.493   6.682
 5146SOL    HW116337   6.185   5.460   6.776
 5146SOL    HW216338   6.115   5.456   6.628
 5147SOL     OW16339   5.191   1.574   3.579
 5147SOL    HW116340   5.264   1.613   3.635
 5147SOL    HW216341   5.127   1.647   3.553
 5148SOL     OW16342   6.458   1.733   0.780
 5148SOL    HW116343   6.388   1.798   0.811
 5148SOL    HW216344   6.434   1.641   0.810
 5149SOL     OW16345   3.280   5.844   3.915
 5149SOL    HW116346   3.268   5.895   3.830
 5149SOL    HW216347   3.249   5.750   3.903
 5150SOL     OW16348   6.843   0.568   3.507
 5150SOL    HW116349   6.930   0.523   3.528
 5150SOL    HW216350   6.783   0.564   3.588
 5151SOL     OW16351   5.462   4.999   1.967
 5151SOL    HW116352   5.396   5.033   1.900
 5151SOL    HW216353   5.413   4.967   2.048
 5152SOL     OW16354   2.243   2.100   0.460
 5152SOL    HW116355   2.276   2.125   0.551
 5152SOL    HW216356   2.251   2.178   0.398
 5153SOL     OW16357   2.662   2.766   0.471
 5153SOL    HW116358   2.724   2.842   0.452
 5153SOL    HW216359   2.582   2.801   0.521
 5154SOL     OW16360   0.477   2.615   0.463
 5154SOL    HW116361   0.557   2.664   0.427
 5154SOL    HW216362   0.498   2.517   0.467
 5155SOL     OW16363   1.827   0.873   0.273
 5155SOL    HW116364   1.909   0.922   0.243
 5155SOL    HW216365   1.759   0.873   0.200
 5156SOL     OW16366   5.187   5.354   6.258
 5156SOL    HW116367   5.268   5.413   6.256
 5156SOL    HW216368   5.143   5.362   6.347
 5157SOL     OW16369   3.669   1.230   1.933
 5157SOL    HW116370   3.706   1.142   1.903
 5157SOL    HW216371   3.693   1.300   1.866
 5158SOL     OW16372   1.277   2.439   2.561
 5158SOL    HW116373   1.262   2.527   2.517
 5158SOL    HW216374   1.355   2.444   2.623
 5159SOL     OW16375   6.660   2.721   4.973
 5159SOL    HW116376   6.714   2.805   4.965
 5159SOL    HW216377   6.709   2.655   5.030
 5160SOL     OW16378   6.687   6.849   2.672
 5160SOL    HW116379   6.727   6.831   2.582
 5160SOL    HW216380   6.608   6.789   2.687
 5161SOL     OW16381   1.099   1.938   6.281
 5161SOL    HW116382   1.073   1.850   6.242
 5161SOL    HW216383   1.067   1.944   6.375
 5162SOL     OW16384   0.403   6.804   5.511
 5162SOL    HW116385   0.458   6.873   5.464
 5162SOL    HW216386   0.347   6.755   5.444
 5163SOL     OW16387   3.159   0.595   1.524
 5163SOL    HW116388   3.196   0.684   1.549
 5163SOL    HW216389   3.060   0.595   1.538
 5164SOL     OW16390   2.730   3.341   0.395
 5164SOL    HW116391   2.792   3.406   0.439
 5164SOL    HW216392   2.642   3.385   0.378
 5165SOL     OW16393   1.330   5.202   5.761
 5165SOL    HW116394   1.315   5.294   5.797
 5165SOL    HW216395   1.289   5.194   5.670
 5166SOL     OW16396   6.964   5.779   5.711
 5166SOL    HW116397   6.887   5.804   5.769
 5166SOL    HW216398   6.930   5.734   5.628
 5167SOL     OW16399   6.314   3.956   5.847
 5167SOL    HW116400   6.315   4.050   5.880
 5167SOL    HW216401   6.324   3.956   5.747
 5168SOL     OW16402   4.796   1.883   3.030
 5168SOL    HW116403   4.780   1.911   3.124
 5168SOL    HW216404   4.728   1.925   2.970
 5169SOL     OW16405   4.867   5.545   4.488
 5169SOL    HW116406   4.815   5.476   4.539
 5169SOL    HW216407   4.850   5.635   4.527
 5170SOL     OW16408   1.931   3.804   6.048
 5170SOL    HW116409   1.965   3.746   6.122
 5170SOL    HW216410   1.952   3.761   5.960
 5171SOL     OW16411   2.539   6.561   5.966
 5171SOL    HW116412   2.452   6.591   6.006
 5171SOL    HW216413   2.593   6.515   6.037
 5172SOL     OW16414   5.802   5.641   6.075
 5172SOL    HW116415   5.738   5.660   6.149
 5172SOL    HW216416   5.875   5.581   6.108
 5173SOL     OW16417   3.918   5.950   4.377
 5173SOL    HW116418   3.967   6.023   4.329
 5173SOL    HW216419   3.847   5.913   4.317
 5174SOL     OW16420   0.681   6.020   2.496
 5174SOL    HW116421   0.701   5.935   2.447
 5174SOL    HW216422   0.641   5.999   2.585
 5175SOL     OW16423   2.193   1.640   6.866
 5175SOL    HW116424   2.197   1.556   6.920
 5175SOL    HW216425   2.274   1.696   6.885
 5176SOL     OW16426   6.058   6.291   6.249
 5176SOL    HW116427   6.149   6.333   6.248
 5176SOL    HW216428   6.002   6.332   6.321
 5177SOL     OW16429   5.322   5.735   0.697
 5177SOL    HW116430   5.240   5.712   0.750
 5177SOL    HW216431   5.382   5.655   0.693
 5178SOL     OW16432   0.388   3.838   1.365
 5178SOL    HW116433   0.300   3.861   1.324
 5178SOL    HW216434   0.380   3.750   1.413
 5179SOL     OW16435   4.481   5.126   2.539
 5179SOL    HW116436   4.543   5.157   2.467
 5179SOL    HW216437   4.535   5.095   2.618
 5180SOL     OW16438   2.222   4.880   1.901
 5180SOL    HW116439   2.188   4.844   1.988
 5180SOL    HW216440   2.157   4.947   1.864
 5181SOL     OW16441   6.739   1.514   5.545
 5181SOL    HW116442   6.741   1.493   5.643
 5181SOL    HW216443   6.644   1.523   5.515
 5182SOL     OW16444   2.302   6.552   1.839
 5182SOL    HW116445   2.341   6.638   1.804
 5182SOL    HW216446   2.206   6.565   1.860
 5183SOL     OW16447   5.015   2.064   3.426
 5183SOL    HW116448   5.110   2.081   3.400
 5183SOL    HW216449   4.975   2.149   3.462
 5184SOL     OW16450   2.904   1.739   2.810
 5184SOL    HW116451   2.999   1.742   2.778
 5184SOL    HW216452   2.868   1.833   2.813
 5185SOL     OW16453   6.327   0.034   1.585
 5185SOL    HW116454   6.250   6.988   1.568
 5185SOL    HW216455   6.318   0.075   1.676
 5186SOL     OW16456   6.264   2.411   6.675
 5186SOL    HW116457   6.260   2.431   6.773
 5186SOL    HW216458   6.232   2.490   6.624
 5187SOL     OW16459   1.542   4.290   4.967
 5187SOL    HW116460   1.534   4.191   4.975
 5187SOL    HW216461   1.589   4.314   4.882
 5188SOL     OW16462   6.741   0.306   1.449
 5188SOL    HW116463   6.753   0.377   1.380
 5188SOL    HW216464   6.647   0.270   1.444
 5189SOL     OW16465   5.025   5.974   6.610
 5189SOL    HW116466   5.022   5.949   6.513
 5189SOL    HW216467   5.089   6.050   6.623
 5190SOL     OW16468   1.529   4.981   0.747
 5190SOL    HW116469   1.570   5.004   0.835
 5190SOL    HW216470   1.435   4.949   0.760
 5191SOL     OW16471   2.750   4.045   1.653
 5191SOL    HW116472   2.727   3.948   1.645
 5191SOL    HW216473   2.842   4.061   1.616
 5192SOL     OW16474   0.617   4.597   2.755
 5192SOL    HW116475   0.606   4.539   2.836
 5192SOL    HW216476   0.609   4.693   2.781
 5193SOL     OW16477   3.810   0.698   4.984
 5193SOL    HW116478   3.888   0.658   5.032
 5193SOL    HW216479   3.727   0.686   5.039
 5194SOL     OW16480   4.420   1.801   5.131
 5194SOL    HW116481   4.431   1.727   5.064
 5194SOL    HW216482   4.508   1.846   5.145
 5195SOL     OW16483   1.741   1.417   5.816
 5195SOL    HW116484   1.797   1.473   5.755
 5195SOL    HW216485   1.663   1.380   5.766
 5196SOL     OW16486   5.929   6.329   3.251
 5196SOL    HW116487   5.906   6.353   3.346
 5196SOL    HW216488   5.855   6.359   3.191
 5197SOL     OW16489   1.966   4.003   4.978
 5197SOL    HW116490   1.877   3.995   5.024
 5197SOL    HW216491   2.012   4.086   5.011
 5198SOL     OW16492   6.183   5.603   3.825
 5198SOL    HW116493   6.173   5.697   3.790
 5198SOL    HW216494   6.253   5.603   3.896
 5199SOL     OW16495   0.868   5.179   1.214
 5199SOL    HW116496   0.920   5.245   1.269
 5199SOL    HW216497   0.838   5.224   1.130
 5200SOL     OW16498   6.356   3.777   5.045
 5200SOL    HW116499   6.353   3.678   5.029
 5200SOL    HW216500   6.428   3.798   5.111
 5201SOL     OW16501   1.027   6.475   4.474
 5201SOL    HW116502   1.020   6.397   4.413
 5201SOL    HW216503   1.034   6.443   4.569
 5202SOL     OW16504   6.942   4.188   1.301
 5202SOL    HW116505   6.986   4.269   1.263
 5202SOL    HW216506   6.847   4.210   1.325
 5203SOL     OW16507   6.351   3.343   6.757
 5203SOL    HW116508   6.274   3.378   6.704
 5203SOL    HW216509   6.420   3.306   6.696
 5204SOL     OW16510   5.628   5.040   6.785
 5204SOL    HW116511   5.631   5.073   6.880
 5204SOL    HW216512   5.555   4.973   6.776
 5205SOL     OW16513   2.894   6.125   0.166
 5205SOL    HW116514   2.980   6.076   0.155
 5205SOL    HW216515   2.825   6.087   0.104
 5206SOL     OW16516   0.414   4.401   4.865
 5206SOL    HW116517   0.354   4.428   4.790
 5206SOL    HW216518   0.508   4.390   4.830
 5207SOL     OW16519   1.515   5.052   2.345
 5207SOL    HW116520   1.425   5.085   2.316
 5207SOL    HW216521   1.511   4.954   2.363
 5208SOL     OW16522   4.857   1.509   0.257
 5208SOL    HW116523   4.933   1.489   0.319
 5208SOL    HW216524   4.870   1.460   0.171
 5209SOL     OW16525   5.788   4.995   3.034
 5209SOL    HW116526   5.708   4.946   3.069
 5209SOL    HW216527   5.858   4.999   3.105
 5210SOL     OW16528   4.978   3.800   3.170
 5210SOL    HW116529   4.906   3.859   3.133
 5210SOL    HW216530   4.985   3.815   3.269
 5211SOL     OW16531   3.165   3.653   2.553
 5211SOL    HW116532   3.149   3.563   2.594
 5211SOL    HW216533   3.213   3.711   2.620
 5212SOL     OW16534   0.868   6.783   6.880
 5212SOL    HW116535   0.911   6.864   6.919
 5212SOL    HW216536   0.911   6.761   6.793
 5213SOL     OW16537   4.544   2.195   6.267
 5213SOL    HW116538   4.615   2.260   6.293
 5213SOL    HW216539   4.569   2.149   6.182
 5214SOL     OW16540   4.352   2.087   6.996
 5214SOL    HW116541   4.343   2.183   0.007
 5214SOL    HW216542   4.432   2.047   0.026
 5215SOL     OW16543   5.375   5.471   3.865
 5215SOL    HW116544   5.361   5.409   3.788
 5215SOL    HW216545   5.370   5.419   3.951
 5216SOL     OW16546   4.646   5.924   1.425
 5216SOL    HW116547   4.589   5.978   1.363
 5216SOL    HW216548   4.651   5.830   1.391
 5217SOL     OW16549   3.040   4.854   3.319
 5217SOL    HW116550   3.128   4.898   3.335
 5217SOL    HW216551   2.988   4.850   3.404
 5218SOL     OW16552   1.730   0.123   3.997
 5218SOL    HW116553   1.756   0.219   3.986
 5218SOL    HW216554   1.810   0.065   3.986
 5219SOL     OW16555   3.193   0.251   1.366
 5219SOL    HW116556   3.135   0.174   1.340
 5219SOL    HW216557   3.186   0.266   1.464
 5220SOL     OW16558   1.141   6.617   2.197
 5220SOL    HW116559   1.055   6.609   2.247
 5220SOL    HW216560   1.122   6.626   2.099
 5221SOL     OW16561   4.380   1.060   0.633
 5221SOL    HW116562   4.313   1.127   0.600
 5221SOL    HW216563   4.417   1.091   0.721
 5222SOL     OW16564   0.813   6.481   2.344
 5222SOL    HW116565   0.811   6.472   2.443
 5222SOL    HW216566   0.843   6.394   2.304
 5223SOL     OW16567   4.394   6.633   0.980
 5223SOL    HW116568   4.322   6.627   1.049
 5223SOL    HW216569   4.401   6.546   0.930
 5224SOL     OW16570   5.540   0.999   3.916
 5224SOL    HW116571   5.449   0.992   3.876
 5224SOL    HW216572   5.563   0.915   3.964
 5225SOL     OW16573   0.401   6.862   5.050
 5225SOL    HW116574   0.392   6.890   4.955
 5225SOL    HW216575   0.481   6.907   5.090
 5226SOL     OW16576   2.590   0.725   4.080
 5226SOL    HW116577   2.650   0.677   4.145
 5226SOL    HW216578   2.597   0.681   3.991
 5227SOL     OW16579   4.856   3.252   4.231
 5227SOL    HW116580   4.811   3.337   4.202
 5227SOL    HW216581   4.847   3.241   4.330
 5228SOL     OW16582   5.128   0.480   1.594
 5228SOL    HW116583   5.093   0.507   1.504
 5228SOL    HW216584   5.064   0.511   1.665
 5229SOL     OW16585   1.069   4.385   3.831
 5229SOL    HW116586   1.083   4.424   3.923
 5229SOL    HW216587   1.040   4.290   3.840
 5230SOL     OW16588   0.987   1.311   6.309
 5230SOL    HW116589   0.961   1.259   6.228
 5230SOL    HW216590   1.073   1.276   6.345
 5231SOL     OW16591   3.030   3.768   3.393
 5231SOL    HW116592   2.954   3.752   3.456
 5231SOL    HW216593   3.112   3.723   3.429
 5232SOL     OW16594   5.196   2.683   4.934
 5232SOL    HW116595   5.241   2.712   4.850
 5232SOL    HW216596   5.214   2.750   5.006
 5233SOL     OW16597   0.672   0.147   2.947
 5233SOL    HW116598   0.581   0.119   2.917
 5233SOL    HW216599   0.675   0.247   2.955
 5234SOL     OW16600   4.136   5.005   1.555
 5234SOL    HW116601   4.048   4.970   1.587
 5234SOL    HW216602   4.168   4.950   1.478
 5235SOL     OW16603   0.904   2.869   1.765
 5235SOL    HW116604   0.901   2.807   1.843
 5235SOL    HW216605   0.979   2.935   1.777
 5236SOL     OW16606   6.135   3.674   0.074
 5236SOL    HW116607   6.162   3.680   6.994
 5236SOL    HW216608   6.035   3.683   0.081
 5237SOL     OW16609   1.763   1.714   3.338
 5237SOL    HW116610   1.665   1.696   3.330
 5237SOL    HW216611   1.776   1.804   3.380
 5238SOL     OW16612   2.254   3.199   0.739
 5238SOL    HW116613   2.192   3.270   0.772
 5238SOL    HW216614   2.260   3.126   0.808
 5239SOL     OW16615   2.942   3.210   4.891
 5239SOL    HW116616   2.903   3.119   4.909
 5239SOL    HW216617   2.921   3.271   4.967
 5240SOL     OW16618   3.603   2.133   5.068
 5240SOL    HW116619   3.621   2.156   5.163
 5240SOL    HW216620   3.515   2.171   5.040
 5241SOL     OW16621   3.351   5.638   5.521
 5241SOL    HW116622   3.413   5.575   5.568
 5241SOL    HW216623   3.306   5.697   5.589
 5242SOL     OW16624   4.043   6.769   5.617
 5242SOL    HW116625   4.007   6.826   5.543
 5242SOL    HW216626   3.967   6.734   5.672
 5243SOL     OW16627   0.835   4.092   0.801
 5243SOL    HW116628   0.841   4.179   0.754
 5243SOL    HW216629   0.918   4.076   0.854
 5244SOL     OW16630   5.521   3.430   6.745
 5244SOL    HW116631   5.581   3.501   6.710
 5244SOL    HW216632   5.443   3.418   6.683
 5245SOL     OW16633   4.857   4.588   6.084
 5245SOL    HW116634   4.955   4.578   6.065
 5245SOL    HW216635   4.809   4.613   6.000
 5246SOL     OW16636   1.339   3.414   3.336
 5246SOL    HW116637   1.332   3.315   3.330
 5246SOL    HW216638   1.429   3.443   3.303
 5247SOL     OW16639   0.243   4.725   0.436
 5247SOL    HW116640   0.266   4.637   0.393
 5247SOL    HW216641   0.219   4.791   0.365
 5248SOL     OW16642   4.980   0.989   0.349
 5248SOL    HW116643   5.071   0.955   0.324
 5248SOL    HW216644   4.938   1.032   0.269
 5249SOL     OW16645   1.060   5.684   0.072
 5249SOL    HW116646   0.966   5.705   0.098
 5249SOL    HW216647   1.117   5.765   0.084
 5250SOL     OW16648   1.353   1.544   5.665
 5250SOL    HW116649   1.363   1.457   5.615
 5250SOL    HW216650   1.404   1.539   5.750
 5251SOL     OW16651   0.165   3.032   0.935
 5251SOL    HW116652   0.222   2.963   0.890
 5251SOL    HW216653   0.220   3.113   0.955
 5252SOL     OW16654   5.074   6.458   1.043
 5252SOL    HW116655   4.987   6.500   1.066
 5252SOL    HW216656   5.069   6.359   1.059
 5253SOL     OW16657   5.763   2.921   3.648
 5253SOL    HW116658   5.708   2.980   3.589
 5253SOL    HW216659   5.859   2.949   3.644
 5254SOL     OW16660   5.469   0.500   4.633
 5254SOL    HW116661   5.510   0.590   4.646
 5254SOL    HW216662   5.484   0.469   4.540
 5255SOL     OW16663   2.948   5.519   3.390
 5255SOL    HW116664   2.860   5.561   3.411
 5255SOL    HW216665   2.979   5.550   3.300
 5256SOL     OW16666   5.044   6.289   1.983
 5256SOL    HW116667   5.100   6.331   2.054
 5256SOL    HW216668   4.952   6.272   2.018
 5257SOL     OW16669   3.271   1.310   3.081
 5257SOL    HW116670   3.248   1.269   2.993
 5257SOL    HW216671   3.199   1.288   3.147
 5258SOL     OW16672   5.709   1.788   1.586
 5258SOL    HW116673   5.662   1.859   1.534
 5258SOL    HW216674   5.671   1.784   1.679
 5259SOL     OW16675   5.872   4.600   1.509
 5259SOL    HW116676   5.818   4.523   1.544
 5259SOL    HW216677   5.934   4.567   1.437
 5260SOL     OW16678   4.368   2.570   1.645
 5260SOL    HW116679   4.441   2.507   1.670
 5260SOL    HW216680   4.375   2.653   1.700
 5261SOL     OW16681   2.617   2.604   5.241
 5261SOL    HW116682   2.594   2.537   5.312
 5261SOL    HW216683   2.625   2.695   5.283
 5262SOL     OW16684   1.313   0.327   1.355
 5262SOL    HW116685   1.222   0.352   1.322
 5262SOL    HW216686   1.332   0.375   1.440
 5263SOL     OW16687   1.446   6.804   6.822
 5263SOL    HW116688   1.492   6.765   6.742
 5263SOL    HW216689   1.409   6.894   6.800
 5264SOL     OW16690   0.637   1.163   1.241
 5264SOL    HW116691   0.644   1.095   1.168
 5264SOL    HW216692   0.720   1.220   1.240
 5265SOL     OW16693   5.310   4.801   4.032
 5265SOL    HW116694   5.214   4.822   4.014
 5265SOL    HW216695   5.369   4.858   3.975
 5266SOL     OW16696   1.781   0.324   1.335
 5266SOL    HW116697   1.706   0.389   1.328
 5266SOL    HW216698   1.756   0.250   1.399
 5267SOL     OW16699   4.309   3.742   5.312
 5267SOL    HW116700   4.326   3.644   5.309
 5267SOL    HW216701   4.243   3.767   5.242
 5268SOL     OW16702   5.720   5.097   5.786
 5268SOL    HW116703   5.623   5.119   5.791
 5268SOL    HW216704   5.740   5.022   5.849
 5269SOL     OW16705   1.917   4.978   5.831
 5269SOL    HW116706   1.895   5.039   5.907
 5269SOL    HW216707   2.006   5.003   5.792
 5270SOL     OW16708   6.753   2.205   3.771
 5270SOL    HW116709   6.779   2.111   3.752
 5270SOL    HW216710   6.656   2.218   3.751
 5271SOL     OW16711   5.551   3.494   5.662
 5271SOL    HW116712   5.549   3.542   5.749
 5271SOL    HW216713   5.638   3.446   5.651
 5272SOL     OW16714   2.287   1.705   3.780
 5272SOL    HW116715   2.261   1.791   3.822
 5272SOL    HW216716   2.353   1.723   3.707
 5273SOL     OW16717   6.733   0.449   5.244
 5273SOL    HW116718   6.654   0.463   5.304
 5273SOL    HW216719   6.812   0.421   5.298
 5274SOL     OW16720   0.450   5.409   4.571
 5274SOL    HW116721   0.462   5.492   4.625
 5274SOL    HW216722   0.411   5.337   4.629
 5275SOL     OW16723   2.146   6.539   6.740
 5275SOL    HW116724   2.100   6.459   6.702
 5275SOL    HW216725   2.111   6.621   6.695
 5276SOL     OW16726   0.703   6.949   0.473
 5276SOL    HW116727   0.777   6.982   0.531
 5276SOL    HW216728   0.737   6.932   0.381
 5277SOL     OW16729   0.098   1.059   2.234
 5277SOL    HW116730   0.173   1.125   2.238
 5277SOL    HW216731   0.055   1.063   2.144
 5278SOL     OW16732   0.806   4.347   5.968
 5278SOL    HW116733   0.794   4.377   6.063
 5278SOL    HW216734   0.897   4.306   5.957
 5279SOL     OW16735   2.369   6.430   0.033
 5279SOL    HW116736   2.411   6.521   0.033
 5279SOL    HW216737   2.365   6.395   6.955
 5280SOL     OW16738   4.428   6.735   5.570
 5280SOL    HW116739   4.509   6.725   5.628
 5280SOL    HW216740   4.371   6.654   5.578
 5281SOL     OW16741   3.008   6.984   5.068
 5281SOL    HW116742   2.924   0.002   5.111
 5281SOL    HW216743   3.047   0.042   5.012
 5282SOL     OW16744   0.366   6.533   0.612
 5282SOL    HW116745   0.410   6.448   0.582
 5282SOL    HW216746   0.434   6.607   0.612
 5283SOL     OW16747   1.586   0.907   3.811
 5283SOL    HW116748   1.609   1.001   3.786
 5283SOL    HW216749   1.543   0.907   3.902
 5284SOL     OW16750   4.838   2.795   2.213
 5284SOL    HW116751   4.901   2.732   2.169
 5284SOL    HW216752   4.787   2.845   2.143
 5285SOL     OW16753   1.749   2.006   4.196
 5285SOL    HW116754   1.774   1.987   4.291
 5285SOL    HW216755   1.651   1.991   4.184
 5286SOL     OW16756   6.536   3.087   1.195
 5286SOL    HW116757   6.462   3.109   1.131
 5286SOL    HW216758   6.569   2.994   1.177
 5287SOL     OW16759   0.811   5.170   1.832
 5287SOL    HW116760   0.799   5.072   1.851
 5287SOL    HW216761   0.805   5.222   1.917
 5288SOL     OW16762   4.010   0.630   1.697
 5288SOL    HW116763   4.077   0.595   1.631
 5288SOL    HW216764   4.028   0.590   1.787
 5289SOL     OW16765   2.297   4.734   5.849
 5289SOL    HW116766   2.307   4.642   5.811
 5289SOL    HW216767   2.387   4.769   5.876
 5290SOL     OW16768   1.608   3.015   4.851
 5290SOL    HW116769   1.669   2.961   4.909
 5290SOL    HW216770   1.635   3.111   4.854
 5291SOL     OW16771   2.760   4.702   4.536
 5291SOL    HW116772   2.666   4.687   4.507
 5291SOL    HW216773   2.803   4.614   4.559
 5292SOL     OW16774   0.267   3.879   4.764
 5292SOL    HW116775   0.268   3.978   4.750
 5292SOL    HW216776   0.356   3.849   4.798
 5293SOL     OW16777   2.177   0.327   4.123
 5293SOL    HW116778   2.246   0.400   4.115
 5293SOL    HW216779   2.133   0.313   4.034
 5294SOL     OW16780   4.840   0.002   4.522
 5294SOL    HW116781   4.762   6.956   4.538
 5294SOL    HW216782   4.906   7.006   4.596
 5295SOL     OW16783   2.143   0.895   1.545
 5295SOL    HW116784   2.140   0.918   1.642
 5295SOL    HW216785   2.138   0.796   1.534
 5296SOL     OW16786   4.715   4.967   2.009
 5296SOL    HW116787   4.747   4.930   1.923
 5296SOL    HW216788   4.690   4.892   2.071
 5297SOL     OW16789   3.577   5.734   6.117
 5297SOL    HW116790   3.665   5.723   6.163
 5297SOL    HW216791   3.566   5.662   6.048
 5298SOL     OW16792   2.871   1.993   0.241
 5298SOL    HW116793   2.800   2.026   0.303
 5298SOL    HW216794   2.844   1.904   0.204
 5299SOL     OW16795   2.455   0.762   1.742
 5299SOL    HW116796   2.509   0.817   1.806
 5299SOL    HW216797   2.372   0.729   1.787
 5300SOL     OW16798   3.297   5.410   6.873
 5300SOL    HW116799   3.359   5.461   6.813
 5300SOL    HW216800   3.339   5.400   6.964
 5301SOL     OW16801   5.957   0.051   5.589
 5301SOL    HW116802   5.976   6.988   5.529
 5301SOL    HW216803   5.972   0.024   5.684
 5302SOL     OW16804   4.855   5.656   2.722
 5302SOL    HW116805   4.929   5.694   2.776
 5302SOL    HW216806   4.771   5.708   2.739
 5303SOL     OW16807   1.382   5.886   5.603
 5303SOL    HW116808   1.292   5.929   5.599
 5303SOL    HW216809   1.371   5.789   5.627
 5304SOL     OW16810   0.958   0.579   2.805
 5304SOL    HW116811   0.961   0.562   2.707
 5304SOL    HW216812   0.900   0.659   2.822
 5305SOL     OW16813   6.907   5.412   4.936
 5305SOL    HW116814   6.960   5.328   4.938
 5305SOL    HW216815   6.901   5.446   4.842
 5306SOL     OW16816   0.894   2.103   6.117
 5306SOL    HW116817   0.952   2.030   6.154
 5306SOL    HW216818   0.810   2.064   6.081
 5307SOL     OW16819   0.097   1.207   1.652
 5307SOL    HW116820   7.015   1.186   1.640
 5307SOL    HW216821   0.110   1.251   1.741
 5308SOL     OW16822   1.495   4.478   2.743
 5308SOL    HW116823   1.474   4.484   2.840
 5308SOL    HW216824   1.438   4.543   2.692
 5309SOL     OW16825   5.817   5.778   3.559
 5309SOL    HW116826   5.719   5.775   3.541
 5309SOL    HW216827   5.841   5.707   3.625
 5310SOL     OW16828   6.339   2.346   3.432
 5310SOL    HW116829   6.425   2.365   3.384
 5310SOL    HW216830   6.279   2.426   3.426
 5311SOL     OW16831   6.037   0.401   0.193
 5311SOL    HW116832   6.054   0.325   0.255
 5311SOL    HW216833   6.053   0.487   0.240
 5312SOL     OW16834   5.995   6.355   0.604
 5312SOL    HW116835   5.992   6.410   0.521
 5312SOL    HW216836   6.068   6.287   0.595
 5313SOL     OW16837   1.179   6.951   5.699
 5313SOL    HW116838   1.139   6.899   5.775
 5313SOL    HW216839   1.107   6.978   5.635
 5314SOL     OW16840   5.854   2.099   1.709
 5314SOL    HW116841   5.920   2.096   1.785
 5314SOL    HW216842   5.881   2.033   1.639
 5315SOL     OW16843   4.267   2.374   3.775
 5315SOL    HW116844   4.274   2.419   3.864
 5315SOL    HW216845   4.355   2.380   3.728
 5316SOL     OW16846   0.604   2.852   4.863
 5316SOL    HW116847   0.672   2.853   4.790
 5316SOL    HW216848   0.605   2.939   4.911
 5317SOL     OW16849   5.703   2.994   6.429
 5317SOL    HW116850   5.784   2.936   6.430
 5317SOL    HW216851   5.685   3.027   6.522
 5318SOL     OW16852   0.208   3.791   5.847
 5318SOL    HW116853   0.288   3.810   5.790
 5318SOL    HW216854   0.224   3.827   5.939
 5319SOL     OW16855   3.283   5.998   2.537
 5319SOL    HW116856   3.307   6.095   2.536
 5319SOL    HW216857   3.230   5.976   2.455
 5320SOL     OW16858   4.527   5.674   1.073
 5320SOL    HW116859   4.461   5.692   1.146
 5320SOL    HW216860   4.483   5.622   1.000
 5321SOL     OW16861   1.422   4.274   5.590
 5321SOL    HW116862   1.514   4.246   5.617
 5321SOL    HW216863   1.425   4.317   5.499
 5322SOL     OW16864   4.072   6.445   2.129
 5322SOL    HW116865   4.088   6.411   2.222
 5322SOL    HW216866   4.067   6.367   2.066
 5323SOL     OW16867   4.164   0.439   6.114
 5323SOL    HW116868   4.159   0.394   6.025
 5323SOL    HW216869   4.260   0.449   6.141
 5324SOL     OW16870   1.597   2.050   1.464
 5324SOL    HW116871   1.561   2.087   1.550
 5324SOL    HW216872   1.586   2.118   1.392
 5325SOL     OW16873   2.047   2.697   5.088
 5325SOL    HW116874   2.018   2.713   4.994
 5325SOL    HW216875   1.970   2.664   5.142
 5326SOL     OW16876   6.099   0.113   0.766
 5326SOL    HW116877   6.019   0.080   0.816
 5326SOL    HW216878   6.099   0.213   0.764
 5327SOL     OW16879   0.358   2.576   5.524
 5327SOL    HW116880   0.282   2.542   5.579
 5327SOL    HW216881   0.328   2.654   5.469
 5328SOL     OW16882   4.965   5.116   0.247
 5328SOL    HW116883   5.003   5.037   0.198
 5328SOL    HW216884   4.982   5.198   0.193
 5329SOL     OW16885   2.474   6.750   6.280
 5329SOL    HW116886   2.420   6.713   6.355
 5329SOL    HW216887   2.416   6.768   6.201
 5330SOL     OW16888   2.568   4.798   1.015
 5330SOL    HW116889   2.657   4.821   1.052
 5330SOL    HW216890   2.572   4.708   0.970
 5331SOL     OW16891   6.583   1.003   6.495
 5331SOL    HW116892   6.570   1.101   6.509
 5331SOL    HW216893   6.528   0.952   6.561
 5332SOL     OW16894   0.069   5.277   1.880
 5332SOL    HW116895   0.167   5.288   1.865
 5332SOL    HW216896   0.053   5.197   1.938
 5333SOL     OW16897   1.265   5.996   5.326
 5333SOL    HW116898   1.339   5.934   5.299
 5333SOL    HW216899   1.246   5.986   5.423
 5334SOL     OW16900   3.754   6.805   4.787
 5334SOL    HW116901   3.777   6.789   4.883
 5334SOL    HW216902   3.838   6.825   4.735
 5335SOL     OW16903   0.155   5.684   0.182
 5335SOL    HW116904   0.120   5.773   0.153
 5335SOL    HW216905   0.222   5.697   0.255
 5336SOL     OW16906   0.962   4.626   1.264
 5336SOL    HW116907   1.017   4.587   1.190
 5336SOL    HW216908   1.006   4.709   1.298
 5337SOL     OW16909   4.791   3.903   1.119
 5337SOL    HW116910   4.727   3.924   1.045
 5337SOL    HW216911   4.882   3.886   1.081
 5338SOL     OW16912   5.896   2.362   0.066
 5338SOL    HW116913   5.799   2.385   0.068
 5338SOL    HW216914   5.918   2.315   6.995
 5339SOL     OW16915   6.155   0.415   1.976
 5339SOL    HW116916   6.083   0.481   1.955
 5339SOL    HW216917   6.153   0.395   2.074
 5340SOL     OW16918   5.450   2.520   6.084
 5340SOL    HW116919   5.398   2.583   6.027
 5340SOL    HW216920   5.449   2.429   6.043
 5341SOL     OW16921   4.686   0.625   0.608
 5341SOL    HW116922   4.730   0.643   0.520
 5341SOL    HW216923   4.662   0.528   0.614
 5342SOL     OW16924   2.728   0.995   6.422
 5342SOL    HW116925   2.628   1.004   6.428
 5342SOL    HW216926   2.767   1.082   6.390
 5343SOL     OW16927   3.441   3.919   1.795
 5343SOL    HW116928   3.381   3.988   1.836
 5343SOL    HW216929   3.440   3.836   1.852
 5344SOL     OW16930   2.256   2.849   2.614
 5344SOL    HW116931   2.238   2.921   2.682
 5344SOL    HW216932   2.222   2.880   2.525
 5345SOL     OW16933   4.900   0.596   2.937
 5345SOL    HW116934   4.827   0.635   2.994
 5345SOL    HW216935   4.868   0.512   2.894
 5346SOL     OW16936   2.731   7.006   3.554
 5346SOL    HW116937   2.812   0.039   3.523
 5346SOL    HW216938   2.710   0.018   3.648
 5347SOL     OW16939   6.761   1.933   1.777
 5347SOL    HW116940   6.662   1.933   1.759
 5347SOL    HW216941   6.804   1.859   1.726
 5348SOL     OW16942   6.943   1.296   0.808
 5348SOL    HW116943   6.906   1.375   0.759
 5348SOL    HW216944   6.906   1.294   0.901
 5349SOL     OW16945   6.224   0.114   1.123
 5349SOL    HW116946   6.262   0.062   1.046
 5349SOL    HW216947   6.190   0.050   1.193
 5350SOL     OW16948   2.776   0.611   6.610
 5350SOL    HW116949   2.870   0.595   6.579
 5350SOL    HW216950   2.755   0.549   6.686
 5351SOL     OW16951   4.183   0.560   1.911
 5351SOL    HW116952   4.239   0.481   1.935
 5351SOL    HW216953   4.169   0.617   1.992
 5352SOL     OW16954   3.592   6.178   3.522
 5352SOL    HW116955   3.681   6.157   3.481
 5352SOL    HW216956   3.542   6.241   3.463
 5353SOL     OW16957   5.751   0.438   5.814
 5353SOL    HW116958   5.847   0.445   5.839
 5353SOL    HW216959   5.720   0.524   5.774
 5354SOL     OW16960   1.695   3.297   0.872
 5354SOL    HW116961   1.753   3.216   0.879
 5354SOL    HW216962   1.651   3.299   0.783
 5355SOL     OW16963   4.389   1.351   6.046
 5355SOL    HW116964   4.304   1.340   6.097
 5355SOL    HW216965   4.446   1.421   6.091
 5356SOL     OW16966   6.203   3.326   0.733
 5356SOL    HW116967   6.212   3.334   0.634
 5356SOL    HW216968   6.222   3.232   0.761
 5357SOL     OW16969   4.181   6.000   0.666
 5357SOL    HW116970   4.117   5.928   0.638
 5357SOL    HW216971   4.166   6.021   0.763
 5358SOL     OW16972   5.109   4.105   1.488
 5358SOL    HW116973   5.030   4.158   1.457
 5358SOL    HW216974   5.079   4.038   1.556
 5359SOL     OW16975   3.207   6.920   0.066
 5359SOL    HW116976   3.185   0.002   0.076
 5359SOL    HW216977   3.123   6.867   0.066
 5360SOL     OW16978   4.332   0.660   0.284
 5360SOL    HW116979   4.311   0.735   0.347
 5360SOL    HW216980   4.255   0.646   0.222
 5361SOL     OW16981   1.508   0.891   6.215
 5361SOL    HW116982   1.475   0.834   6.140
 5361SOL    HW216983   1.495   0.843   6.302
 5362SOL     OW16984   4.049   5.399   3.387
 5362SOL    HW116985   4.120   5.417   3.454
 5362SOL    HW216986   4.054   5.303   3.359
 5363SOL     OW16987   0.779   5.496   4.810
 5363SOL    HW116988   0.836   5.449   4.878
 5363SOL    HW216989   0.683   5.486   4.835
 5364SOL     OW16990   1.179   6.114   6.795
 5364SOL    HW116991   1.262   6.061   6.781
 5364SOL    HW216992   1.198   6.211   6.780
 5365SOL     OW16993   3.634   1.967   6.077
 5365SOL    HW116994   3.630   1.879   6.124
 5365SOL    HW216995   3.725   2.006   6.087
 5366SOL     OW16996   3.147   4.243   6.334
 5366SOL    HW116997   3.199   4.306   6.392
 5366SOL    HW216998   3.144   4.279   6.241
 5367SOL     OW16999   0.551   4.399   0.833
 5367SOL    HW117000   0.473   4.345   0.865
 5367SOL    HW217001   0.593   4.444   0.912
 5368SOL     OW17002   0.355   0.654   3.883
 5368SOL    HW117003   0.428   0.599   3.843
 5368SOL    HW217004   0.365   0.656   3.983
 5369SOL     OW17005   2.046   3.370   2.216
 5369SOL    HW117006   2.109   3.398   2.143
 5369SOL    HW217007   1.953   3.368   2.180
 5370SOL     OW17008   3.896   2.979   1.346
 5370SOL    HW117009   3.869   3.011   1.436
 5370SOL    HW217010   3.980   3.026   1.318
 5371SOL     OW17011   1.861   4.168   4.761
 5371SOL    HW117012   1.935   4.103   4.780
 5371SOL    HW217013   1.897   4.246   4.711
 5372SOL     OW17014   3.290   6.201   2.855
 5372SOL    HW117015   3.291   6.214   2.955
 5372SOL    HW217016   3.202   6.231   2.819
 5373SOL     OW17017   1.727   5.109   4.225
 5373SOL    HW117018   1.747   5.193   4.275
 5373SOL    HW217019   1.689   5.041   4.287
 5374SOL     OW17020   2.976   2.716   0.619
 5374SOL    HW117021   3.030   2.713   0.703
 5374SOL    HW217022   3.024   2.667   0.547
 5375SOL     OW17023   0.794   3.741   5.059
 5375SOL    HW117024   0.879   3.690   5.073
 5375SOL    HW217025   0.747   3.706   4.977
 5376SOL     OW17026   3.019   4.495   6.497
 5376SOL    HW117027   2.929   4.483   6.456
 5376SOL    HW217028   3.009   4.536   6.588
 5377SOL     OW17029   0.340   1.713   2.071
 5377SOL    HW117030   0.334   1.760   2.159
 5377SOL    HW217031   0.436   1.707   2.043
 5378SOL     OW17032   5.069   7.005   0.071
 5378SOL    HW117033   5.037   6.925   0.021
 5378SOL    HW217034   5.053   0.072   0.016
 5379SOL     OW17035   0.369   6.465   0.991
 5379SOL    HW117036   0.282   6.458   0.943
 5379SOL    HW217037   0.383   6.559   1.022
 5380SOL     OW17038   2.041   1.173   4.518
 5380SOL    HW117039   1.942   1.169   4.505
 5380SOL    HW217040   2.071   1.268   4.510
 5381SOL     OW17041   5.986   3.685   1.787
 5381SOL    HW117042   6.051   3.753   1.821
 5381SOL    HW217043   5.909   3.677   1.850
 5382SOL     OW17044   1.681   6.774   1.762
 5382SOL    HW117045   1.617   6.851   1.752
 5382SOL    HW217046   1.672   6.736   1.854
 5383SOL     OW17047   2.199   1.916   4.665
 5383SOL    HW117048   2.184   1.969   4.581
 5383SOL    HW217049   2.123   1.933   4.728
 5384SOL     OW17050   5.323   6.613   4.517
 5384SOL    HW117051   5.380   6.686   4.553
 5384SOL    HW217052   5.284   6.560   4.593
 5385SOL     OW17053   3.513   4.184   3.102
 5385SOL    HW117054   3.600   4.228   3.077
 5385SOL    HW217055   3.452   4.184   3.023
 5386SOL     OW17056   5.671   6.934   5.702
 5386SOL    HW117057   5.725   6.967   5.780
 5386SOL    HW217058   5.695   6.839   5.683
 5387SOL     OW17059   3.626   4.822   1.425
 5387SOL    HW117060   3.544   4.875   1.405
 5387SOL    HW217061   3.705   4.864   1.380
 5388SOL     OW17062   5.924   5.972   2.952
 5388SOL    HW117063   5.838   6.021   2.966
 5388SOL    HW217064   5.910   5.896   2.889
 5389SOL     OW17065   5.549   2.497   1.380
 5389SOL    HW117066   5.568   2.441   1.461
 5389SOL    HW217067   5.585   2.452   1.299
 5390SOL     OW17068   6.281   4.894   5.802
 5390SOL    HW117069   6.194   4.852   5.828
 5390SOL    HW217070   6.353   4.862   5.863
 5391SOL     OW17071   3.486   3.680   6.667
 5391SOL    HW117072   3.389   3.655   6.669
 5391SOL    HW217073   3.505   3.735   6.585
 5392SOL     OW17074   0.186   2.899   2.956
 5392SOL    HW117075   0.154   2.924   3.048
 5392SOL    HW217076   0.108   2.893   2.895
 5393SOL     OW17077   6.561   6.622   6.086
 5393SOL    HW117078   6.506   6.705   6.074
 5393SOL    HW217079   6.654   6.640   6.055
 5394SOL     OW17080   2.059   3.429   5.724
 5394SOL    HW117081   2.090   3.336   5.700
 5394SOL    HW217082   2.124   3.470   5.788
 5395SOL     OW17083   4.302   0.184   1.323
 5395SOL    HW117084   4.380   0.218   1.272
 5395SOL    HW217085   4.309   0.085   1.333
 5396SOL     OW17086   4.453   2.484   2.004
 5396SOL    HW117087   4.387   2.414   1.977
 5396SOL    HW217088   4.523   2.492   1.932
 5397SOL     OW17089   0.817   2.725   1.957
 5397SOL    HW117090   0.809   2.629   1.982
 5397SOL    HW217091   0.726   2.766   1.947
 5398SOL     OW17092   3.315   2.891   2.473
 5398SOL    HW117093   3.408   2.881   2.437
 5398SOL    HW217094   3.255   2.924   2.400
 5399SOL     OW17095   0.858   5.512   0.002
 5399SOL    HW117096   0.952   5.489   0.029
 5399SOL    HW217097   0.796   5.442   0.035
 5400SOL     OW17098   2.262   3.243   6.978
 5400SOL    HW117099   2.182   3.236   0.023
 5400SOL    HW217100   2.245   3.191   6.894
 5401SOL     OW17101   6.715   1.945   0.832
 5401SOL    HW117102   6.652   1.870   0.852
 5401SOL    HW217103   6.802   1.930   0.880
 5402SOL     OW17104   1.300   6.131   2.286
 5402SOL    HW117105   1.314   6.111   2.383
 5402SOL    HW217106   1.368   6.083   2.231
 5403SOL     OW17107   6.154   2.844   6.562
 5403SOL    HW117108   6.198   2.804   6.643
 5403SOL    HW217109   6.223   2.878   6.499
 5404SOL     OW17110   1.068   3.263   3.146
 5404SOL    HW117111   1.153   3.249   3.196
 5404SOL    HW217112   1.087   3.266   3.048
 5405SOL     OW17113   0.028   4.161   5.339
 5405SOL    HW117114   6.977   4.222   5.295
 5405SOL    HW217115   6.999   4.073   5.360
 5406SOL     OW17116   1.167   0.042   3.681
 5406SOL    HW117117   1.197   7.008   3.762
 5406SOL    HW217118   1.244   0.057   3.619
 5407SOL     OW17119   4.027   3.560   6.708
 5407SOL    HW117120   4.076   3.523   6.629
 5407SOL    HW217121   4.093   3.603   6.770
 5408SOL     OW17122   3.340   1.231   6.745
 5408SOL    HW117123   3.368   1.195   6.656
 5408SOL    HW217124   3.363   1.165   6.816
 5409SOL     OW17125   4.800   0.633   2.031
 5409SOL    HW117126   4.708   0.644   1.993
 5409SOL    HW217127   4.810   0.540   2.066
 5410SOL     OW17128   1.476   2.583   3.492
 5410SOL    HW117129   1.438   2.608   3.403
 5410SOL    HW217130   1.433   2.499   3.525
 5411SOL     OW17131   2.089   4.624   4.755
 5411SOL    HW117132   2.163   4.558   4.768
 5411SOL    HW217133   2.071   4.671   4.841
 5412SOL     OW17134   6.464   2.047   1.904
 5412SOL    HW117135   6.413   2.024   1.821
 5412SOL    HW217136   6.533   2.116   1.882
 5413SOL     OW17137   1.815   6.788   2.389
 5413SOL    HW117138   1.735   6.734   2.362
 5413SOL    HW217139   1.802   6.883   2.361
 5414SOL     OW17140   3.865   0.415   5.573
 5414SOL    HW117141   3.822   0.325   5.572
 5414SOL    HW217142   3.859   0.454   5.665
 5415SOL     OW17143   6.682   3.703   2.680
 5415SOL    HW117144   6.583   3.702   2.689
 5415SOL    HW217145   6.720   3.774   2.740
 5416SOL     OW17146   3.925   5.466   4.261
 5416SOL    HW117147   3.956   5.497   4.171
 5416SOL    HW217148   4.001   5.419   4.307
 5417SOL     OW17149   3.024   6.950   6.204
 5417SOL    HW117150   2.981   6.990   6.123
 5417SOL    HW217151   3.080   0.004   6.250
 5418SOL     OW17152   3.578   1.053   3.604
 5418SOL    HW117153   3.498   0.995   3.592
 5418SOL    HW217154   3.594   1.069   3.702
 5419SOL     OW17155   3.477   3.904   6.834
 5419SOL    HW117156   3.470   3.816   6.788
 5419SOL    HW217157   3.488   3.976   6.766
 5420SOL     OW17158   0.709   2.553   2.832
 5420SOL    HW117159   0.803   2.584   2.820
 5420SOL    HW217160   0.646   2.624   2.801
 5421SOL     OW17161   1.961   2.416   0.637
 5421SOL    HW117162   1.882   2.401   0.579
 5421SOL    HW217163   1.960   2.350   0.713
 5422SOL     OW17164   0.797   3.781   0.144
 5422SOL    HW117165   0.811   3.683   0.163
 5422SOL    HW217166   0.886   3.827   0.144
 5423SOL     OW17167   5.069   3.075   5.795
 5423SOL    HW117168   5.154   3.091   5.745
 5423SOL    HW217169   4.991   3.095   5.735
 5424SOL     OW17170   5.329   3.340   5.593
 5424SOL    HW117171   5.320   3.264   5.530
 5424SOL    HW217172   5.421   3.379   5.585
 5425SOL     OW17173   5.179   0.900   5.021
 5425SOL    HW117174   5.222   0.816   4.989
 5425SOL    HW217175   5.233   0.979   4.990
 5426SOL     OW17176   0.439   6.611   4.996
 5426SOL    HW117177   0.421   6.708   5.012
 5426SOL    HW217178   0.485   6.572   5.076
 5427SOL     OW17179   4.263   6.915   6.998
 5427SOL    HW117180   4.257   6.849   0.057
 5427SOL    HW217181   4.267   6.867   6.910
 5428SOL     OW17182   2.045   1.004   0.163
 5428SOL    HW117183   2.105   0.965   0.093
 5428SOL    HW217184   2.013   1.094   0.133
 5429SOL     OW17185   0.855   2.344   6.305
 5429SOL    HW117186   0.872   2.273   6.236
 5429SOL    HW217187   0.792   2.412   6.267
 5430SOL     OW17188   2.081   2.578   5.739
 5430SOL    HW117189   2.016   2.504   5.723
 5430SOL    HW217190   2.033   2.659   5.773
 5431SOL     OW17191   3.637   5.823   4.758
 5431SOL    HW117192   3.584   5.871   4.828
 5431SOL    HW217193   3.725   5.869   4.746
 5432SOL     OW17194   5.729   5.300   0.969
 5432SOL    HW117195   5.677   5.352   0.902
 5432SOL    HW217196   5.714   5.338   1.060
 5433SOL     OW17197   0.342   1.829   3.870
 5433SOL    HW117198   0.339   1.928   3.874
 5433SOL    HW217199   0.300   1.790   3.953
 5434SOL     OW17200   2.386   6.843   5.436
 5434SOL    HW117201   2.393   6.861   5.338
 5434SOL    HW217202   2.463   6.788   5.466
 5435SOL     OW17203   5.208   1.456   1.914
 5435SOL    HW117204   5.160   1.536   1.877
 5435SOL    HW217205   5.188   1.376   1.858
 5436SOL     OW17206   5.484   3.943   2.844
 5436SOL    HW117207   5.426   3.896   2.777
 5436SOL    HW217208   5.545   3.876   2.888
 5437SOL     OW17209   3.669   4.739   6.370
 5437SOL    HW117210   3.661   4.692   6.282
 5437SOL    HW217211   3.764   4.765   6.385
 5438SOL     OW17212   6.827   0.756   1.189
 5438SOL    HW117213   6.860   0.824   1.254
 5438SOL    HW217214   6.727   0.752   1.193
 5439SOL     OW17215   1.551   2.996   0.906
 5439SOL    HW117216   1.494   3.051   0.845
 5439SOL    HW217217   1.498   2.916   0.937
 5440SOL     OW17218   1.492   1.113   1.414
 5440SOL    HW117219   1.530   1.088   1.503
 5440SOL    HW217220   1.560   1.163   1.361
 5441SOL     OW17221   3.816   1.900   3.966
 5441SOL    HW117222   3.806   1.977   3.904
 5441SOL    HW217223   3.726   1.861   3.987
 5442SOL     OW17224   3.703   0.654   1.905
 5442SOL    HW117225   3.626   0.658   1.841
 5442SOL    HW217226   3.763   0.733   1.889
 5443SOL     OW17227   2.287   6.654   6.036
 5443SOL    HW117228   2.224   6.635   5.961
 5443SOL    HW217229   2.248   6.721   6.098
 5444SOL     OW17230   0.388   0.885   3.276
 5444SOL    HW117231   0.428   0.858   3.188
 5444SOL    HW217232   0.344   0.806   3.318
 5445SOL     OW17233   6.304   3.133   1.885
 5445SOL    HW117234   6.244   3.096   1.814
 5445SOL    HW217235   6.269   3.221   1.917
 5446SOL     OW17236   6.592   5.546   5.874
 5446SOL    HW117237   6.679   5.498   5.859
 5446SOL    HW217238   6.609   5.644   5.885
 5447SOL     OW17239   2.838   2.235   0.921
 5447SOL    HW117240   2.879   2.218   0.831
 5447SOL    HW217241   2.806   2.329   0.925
 5448SOL     OW17242   5.881   1.791   6.477
 5448SOL    HW117243   5.943   1.844   6.535
 5448SOL    HW217244   5.908   1.803   6.381
 5449SOL     OW17245   0.462   2.728   6.719
 5449SOL    HW117246   0.428   2.792   6.649
 5449SOL    HW217247   0.385   2.685   6.765
 5450SOL     OW17248   2.320   6.041   0.752
 5450SOL    HW117249   2.409   6.024   0.709
 5450SOL    HW217250   2.296   5.964   0.811
 5451SOL     OW17251   2.391   0.293   3.071
 5451SOL    HW117252   2.316   0.235   3.103
 5451SOL    HW217253   2.356   0.359   3.004
 5452SOL     OW17254   2.553   3.606   5.668
 5452SOL    HW117255   2.468   3.562   5.696
 5452SOL    HW217256   2.567   3.591   5.570
 5453SOL     OW17257   0.642   5.024   6.058
 5453SOL    HW117258   0.661   5.037   6.155
 5453SOL    HW217259   0.658   5.109   6.009
 5454SOL     OW17260   0.547   4.002   4.926
 5454SOL    HW117261   0.456   4.006   4.967
 5454SOL    HW217262   0.574   3.906   4.914
 5455SOL     OW17263   6.781   2.449   0.418
 5455SOL    HW117264   6.713   2.415   0.484
 5455SOL    HW217265   6.870   2.454   0.462
 5456SOL     OW17266   3.411   6.687   1.705
 5456SOL    HW117267   3.431   6.784   1.724
 5456SOL    HW217268   3.496   6.634   1.712
 5457SOL     OW17269   6.392   3.746   0.636
 5457SOL    HW117270   6.447   3.665   0.615
 5457SOL    HW217271   6.434   3.796   0.712
 5458SOL     OW17272   1.470   4.079   6.034
 5458SOL    HW117273   1.555   4.028   6.021
 5458SOL    HW217274   1.419   4.082   5.948
 5459SOL     OW17275   2.221   4.216   5.738
 5459SOL    HW117276   2.128   4.251   5.751
 5459SOL    HW217277   2.220   4.116   5.748
 5460SOL     OW17278   4.170   6.988   3.750
 5460SOL    HW117279   4.198   0.043   3.684
 5460SOL    HW217280   4.087   0.002   3.796
 5461SOL     OW17281   4.512   6.665   4.841
 5461SOL    HW117282   4.533   6.733   4.771
 5461SOL    HW217283   4.583   6.595   4.841
 5462SOL     OW17284   0.289   0.524   1.257
 5462SOL    HW117285   0.273   0.540   1.354
 5462SOL    HW217286   0.213   0.563   1.204
 5463SOL     OW17287   6.788   3.545   0.682
 5463SOL    HW117288   6.864   3.486   0.658
 5463SOL    HW217289   6.752   3.520   0.772
 5464SOL     OW17290   1.884   6.367   4.370
 5464SOL    HW117291   1.960   6.405   4.317
 5464SOL    HW217292   1.903   6.375   4.468
 5465SOL     OW17293   2.933   5.724   6.648
 5465SOL    HW117294   3.029   5.718   6.676
 5465SOL    HW217295   2.875   5.727   6.730
 5466SOL     OW17296   5.486   5.419   4.683
 5466SOL    HW117297   5.452   5.349   4.620
 5466SOL    HW217298   5.489   5.382   4.776
 5467SOL     OW17299   5.761   1.513   2.163
 5467SOL    HW117300   5.823   1.437   2.184
 5467SOL    HW217301   5.696   1.485   2.092
 5468SOL     OW17302   4.512   1.143   5.897
 5468SOL    HW117303   4.523   1.197   5.813
 5468SOL    HW217304   4.471   1.200   5.968
 5469SOL     OW17305   4.807   4.347   1.563
 5469SOL    HW117306   4.849   4.334   1.653
 5469SOL    HW217307   4.878   4.365   1.495
 5470SOL     OW17308   0.667   5.055   3.454
 5470SOL    HW117309   0.720   5.006   3.385
 5470SOL    HW217310   0.728   5.111   3.510
 5471SOL     OW17311   6.202   4.370   2.520
 5471SOL    HW117312   6.207   4.448   2.457
 5471SOL    HW217313   6.120   4.316   2.498
 5472SOL     OW17314   3.870   5.221   5.060
 5472SOL    HW117315   3.915   5.307   5.034
 5472SOL    HW217316   3.838   5.174   4.977
 5473SOL     OW17317   1.328   4.408   3.740
 5473SOL    HW117318   1.233   4.433   3.753
 5473SOL    HW217319   1.333   4.326   3.682
 5474SOL     OW17320   1.269   6.103   3.238
 5474SOL    HW117321   1.219   6.024   3.272
 5474SOL    HW217322   1.280   6.170   3.312
 5475SOL     OW17323   3.275   2.945   1.956
 5475SOL    HW117324   3.300   2.883   1.882
 5475SOL    HW217325   3.205   3.009   1.925
 5476SOL     OW17326   1.905   3.319   6.905
 5476SOL    HW117327   1.954   3.280   6.984
 5476SOL    HW217328   1.815   3.352   6.934
 5477SOL     OW17329   2.168   2.468   2.604
 5477SOL    HW117330   2.245   2.522   2.638
 5477SOL    HW217331   2.145   2.496   2.511
 5478SOL     OW17332   6.993   5.455   5.706
 5478SOL    HW117333   6.965   5.537   5.657
 5478SOL    HW217334   6.947   5.451   5.794
 5479SOL     OW17335   4.781   0.003   5.413
 5479SOL    HW117336   4.852   6.990   5.349
 5479SOL    HW217337   4.724   6.940   5.438
 5480SOL     OW17338   0.735   2.263   5.400
 5480SOL    HW117339   0.669   2.275   5.474
 5480SOL    HW217340   0.784   2.349   5.384
 5481SOL     OW17341   4.363   6.530   3.770
 5481SOL    HW117342   4.325   6.587   3.698
 5481SOL    HW217343   4.454   6.563   3.794
 5482SOL     OW17344   1.732   5.722   2.086
 5482SOL    HW117345   1.718   5.677   2.174
 5482SOL    HW217346   1.645   5.728   2.037
 5483SOL     OW17347   0.862   2.210   6.537
 5483SOL    HW117348   0.852   2.223   6.438
 5483SOL    HW217349   0.772   2.200   6.579
 5484SOL     OW17350   5.315   0.329   4.854
 5484SOL    HW117351   5.282   0.418   4.822
 5484SOL    HW217352   5.351   0.277   4.776
 5485SOL     OW17353   3.589   0.355   4.528
 5485SOL    HW117354   3.643   0.435   4.556
 5485SOL    HW217355   3.647   0.274   4.529
 5486SOL     OW17356   3.200   4.931   3.898
 5486SOL    HW117357   3.253   4.951   3.980
 5486SOL    HW217358   3.103   4.952   3.914
 5487SOL     OW17359   3.009   5.820   5.293
 5487SOL    HW117360   3.021   5.722   5.276
 5487SOL    HW217361   3.096   5.867   5.281
 5488SOL     OW17362   4.932   1.939   6.729
 5488SOL    HW117363   4.973   2.018   6.684
 5488SOL    HW217364   4.967   1.932   6.823
 5489SOL     OW17365   0.441   2.883   4.211
 5489SOL    HW117366   0.533   2.916   4.233
 5489SOL    HW217367   0.444   2.831   4.126
 5490SOL     OW17368   0.669   4.900   2.567
 5490SOL    HW117369   0.578   4.864   2.548
 5490SOL    HW217370   0.705   4.943   2.484
 5491SOL     OW17371   6.074   3.989   0.784
 5491SOL    HW117372   6.142   4.024   0.719
 5491SOL    HW217373   6.055   3.893   0.764
 5492SOL     OW17374   0.177   1.691   6.407
 5492SOL    HW117375   0.251   1.748   6.372
 5492SOL    HW217376   0.133   1.642   6.332
 5493SOL     OW17377   4.179   4.225   6.917
 5493SOL    HW117378   4.082   4.248   6.911
 5493SOL    HW217379   4.200   4.154   6.849
 5494SOL     OW17380   6.126   2.558   5.330
 5494SOL    HW117381   6.168   2.475   5.366
 5494SOL    HW217382   6.116   2.625   5.404
 5495SOL     OW17383   5.922   0.421   0.483
 5495SOL    HW117384   5.839   0.379   0.521
 5495SOL    HW217385   5.898   0.508   0.439
 5496SOL     OW17386   4.010   6.813   5.951
 5496SOL    HW117387   4.014   6.903   5.995
 5496SOL    HW217388   4.094   6.763   5.969
 5497SOL     OW17389   0.873   0.593   5.446
 5497SOL    HW117390   0.927   0.611   5.528
 5497SOL    HW217391   0.898   0.504   5.408
 5498SOL     OW17392   0.957   5.424   1.342
 5498SOL    HW117393   1.037   5.469   1.303
 5498SOL    HW217394   0.878   5.484   1.337
 5499SOL     OW17395   2.177   0.370   3.689
 5499SOL    HW117396   2.223   0.455   3.714
 5499SOL    HW217397   2.126   0.334   3.767
 5500SOL     OW17398   2.116   6.569   1.393
 5500SOL    HW117399   2.204   6.523   1.388
 5500SOL    HW217400   2.082   6.565   1.487
 5501SOL     OW17401   4.740   3.380   6.951
 5501SOL    HW117402   4.644   3.396   6.974
 5501SOL    HW217403   4.759   3.416   6.859
 5502SOL     OW17404   4.392   3.287   6.690
 5502SOL    HW117405   4.489   3.274   6.674
 5502SOL    HW217406   4.355   3.208   6.740
 5503SOL     OW17407   5.770   3.254   1.199
 5503SOL    HW117408   5.821   3.186   1.146
 5503SOL    HW217409   5.702   3.298   1.140
 5504SOL     OW17410   3.283   2.153   0.057
 5504SOL    HW117411   3.320   2.097   6.998
 5504SOL    HW217412   3.310   2.114   0.145
 5505SOL     OW17413   2.551   4.965   2.314
 5505SOL    HW117414   2.543   5.028   2.237
 5505SOL    HW217415   2.601   4.883   2.285
 5506SOL     OW17416   6.399   2.404   6.087
 5506SOL    HW117417   6.416   2.335   6.017
 5506SOL    HW217418   6.485   2.437   6.125
 5507SOL     OW17419   4.241   6.659   0.664
 5507SOL    HW117420   4.157   6.618   0.699
 5507SOL    HW217421   4.228   6.687   0.569
 5508SOL     OW17422   7.008   1.392   6.526
 5508SOL    HW117423   0.053   1.327   6.572
 5508SOL    HW217424   6.919   1.393   6.571
 5509SOL     OW17425   6.322   3.960   0.108
 5509SOL    HW117426   6.295   4.052   0.136
 5509SOL    HW217427   6.271   3.934   0.026
 5510SOL     OW17428   5.291   5.896   6.792
 5510SOL    HW117429   5.228   5.899   6.714
 5510SOL    HW217430   5.286   5.807   6.836
 5511SOL     OW17431   1.033   2.565   6.233
 5511SOL    HW117432   1.016   2.480   6.283
 5511SOL    HW217433   1.129   2.591   6.244
 5512SOL     OW17434   2.549   0.216   2.463
 5512SOL    HW117435   2.516   0.168   2.544
 5512SOL    HW217436   2.636   0.176   2.434
 5513SOL     OW17437   3.585   4.402   6.740
 5513SOL    HW117438   3.657   4.457   6.698
 5513SOL    HW217439   3.586   4.417   6.839
 5514SOL     OW17440   3.667   1.013   0.461
 5514SOL    HW117441   3.574   1.037   0.487
 5514SOL    HW217442   3.732   1.061   0.519
 5515SOL     OW17443   3.108   5.146   2.575
 5515SOL    HW117444   3.175   5.199   2.523
 5515SOL    HW217445   3.089   5.060   2.528
 5516SOL     OW17446   1.466   2.453   5.881
 5516SOL    HW117447   1.518   2.440   5.797
 5516SOL    HW217448   1.527   2.484   5.954
 5517SOL     OW17449   0.955   1.865   3.735
 5517SOL    HW117450   0.923   1.798   3.667
 5517SOL    HW217451   0.897   1.858   3.817
 5518SOL     OW17452   4.539   4.634   6.157
 5518SOL    HW117453   4.635   4.603   6.161
 5518SOL    HW217454   4.535   4.727   6.120
 5519SOL     OW17455   5.585   2.451   5.705
 5519SOL    HW117456   5.577   2.538   5.655
 5519SOL    HW217457   5.499   2.432   5.752
 5520SOL     OW17458   5.283   6.164   1.384
 5520SOL    HW117459   5.203   6.185   1.328
 5520SOL    HW217460   5.332   6.086   1.346
 5521SOL     OW17461   4.504   6.937   2.017
 5521SOL    HW117462   4.469   6.904   2.105
 5521SOL    HW217463   4.531   0.018   2.026
 5522SOL     OW17464   5.013   6.519   0.124
 5522SOL    HW117465   5.048   6.536   0.032
 5522SOL    HW217466   4.944   6.447   0.121
 5523SOL     OW17467   5.104   2.107   0.683
 5523SOL    HW117468   5.125   2.200   0.714
 5523SOL    HW217469   5.059   2.056   0.757
 5524SOL     OW17470   2.755   1.346   3.215
 5524SOL    HW117471   2.711   1.434   3.197
 5524SOL    HW217472   2.703   1.274   3.170
 5525SOL     OW17473   6.871   1.547   1.776
 5525SOL    HW117474   6.869   1.584   1.869
 5525SOL    HW217475   6.886   1.448   1.780
 5526SOL     OW17476   5.332   4.117   4.135
 5526SOL    HW117477   5.414   4.062   4.151
 5526SOL    HW217478   5.326   4.142   4.039
 5527SOL     OW17479   6.248   0.302   2.517
 5527SOL    HW117480   6.210   0.221   2.562
 5527SOL    HW217481   6.251   0.378   2.581
 5528SOL     OW17482   1.117   1.693   0.033
 5528SOL    HW117483   1.121   1.624   6.975
 5528SOL    HW217484   1.057   1.768   0.005
 5529SOL     OW17485   3.285   0.456   1.729
 5529SOL    HW117486   3.248   0.496   1.645
 5529SOL    HW217487   3.383   0.440   1.718
 5530SOL     OW17488   0.839   1.321   1.296
 5530SOL    HW117489   0.863   1.409   1.255
 5530SOL    HW217490   0.912   1.292   1.358
 5531SOL     OW17491   1.763   4.766   0.240
 5531SOL    HW117492   1.834   4.697   0.234
 5531SOL    HW217493   1.688   4.733   0.298
 5532SOL     OW17494   0.009   4.197   6.174
 5532SOL    HW117495   0.014   4.238   6.083
 5532SOL    HW217496   0.097   4.208   6.221
 5533SOL     OW17497   3.684   0.980   2.813
 5533SOL    HW117498   3.732   1.041   2.750
 5533SOL    HW217499   3.606   1.027   2.853
 5534SOL     OW17500   1.627   0.459   4.535
 5534SOL    HW117501   1.602   0.456   4.438
 5534SOL    HW217502   1.725   0.442   4.544
 5535SOL     OW17503   0.432   1.983   2.642
 5535SOL    HW117504   0.353   2.039   2.618
 5535SOL    HW217505   0.403   1.909   2.703
 5536SOL     OW17506   4.528   6.958   4.755
 5536SOL    HW117507   4.544   6.988   4.848
 5536SOL    HW217508   4.605   6.903   4.724
 5537SOL     OW17509   2.412   2.435   3.077
 5537SOL    HW117510   2.438   2.453   2.982
 5537SOL    HW217511   2.326   2.481   3.098
 5538SOL     OW17512   4.378   5.771   4.018
 5538SOL    HW117513   4.320   5.760   3.937
 5538SOL    HW217514   4.430   5.688   4.034
 5539SOL     OW17515   2.276   4.034   6.970
 5539SOL    HW117516   2.369   3.997   6.969
 5539SOL    HW217517   2.260   4.086   6.887
 5540SOL     OW17518   3.712   5.525   1.056
 5540SOL    HW117519   3.669   5.474   0.982
 5540SOL    HW217520   3.683   5.621   1.052
 5541SOL     OW17521   4.700   0.499   6.119
 5541SOL    HW117522   4.676   0.475   6.025
 5541SOL    HW217523   4.687   0.597   6.133
 5542SOL     OW17524   5.303   4.760   6.042
 5542SOL    HW117525   5.367   4.684   6.032
 5542SOL    HW217526   5.259   4.755   6.132
 5543SOL     OW17527   0.635   1.826   5.018
 5543SOL    HW117528   0.730   1.831   5.050
 5543SOL    HW217529   0.633   1.823   4.918
 5544SOL     OW17530   5.794   0.490   0.094
 5544SOL    HW117531   5.816   0.522   0.002
 5544SOL    HW217532   5.874   0.441   0.131
 5545SOL     OW17533   2.288   2.083   2.213
 5545SOL    HW117534   2.343   2.156   2.173
 5545SOL    HW217535   2.309   2.076   2.311
 5546SOL     OW17536   3.880   5.672   5.233
 5546SOL    HW117537   3.964   5.645   5.279
 5546SOL    HW217538   3.868   5.771   5.241
 5547SOL     OW17539   3.757   5.391   3.834
 5547SOL    HW117540   3.795   5.336   3.908
 5547SOL    HW217541   3.669   5.428   3.862
 5548SOL     OW17542   0.042   1.791   4.866
 5548SOL    HW117543   0.124   1.798   4.923
 5548SOL    HW217544   6.980   1.760   4.921
 5549SOL     OW17545   3.858   5.371   6.503
 5549SOL    HW117546   3.926   5.298   6.505
 5549SOL    HW217547   3.783   5.349   6.565
 5550SOL     OW17548   2.727   6.324   2.899
 5550SOL    HW117549   2.735   6.409   2.952
 5550SOL    HW217550   2.778   6.251   2.945
 5551SOL     OW17551   0.951   1.282   2.203
 5551SOL    HW117552   0.915   1.354   2.143
 5551SOL    HW217553   0.893   1.275   2.284
 5552SOL     OW17554   1.989   2.563   2.902
 5552SOL    HW117555   2.056   2.577   2.976
 5552SOL    HW217556   2.031   2.584   2.814
 5553SOL     OW17557   4.776   6.050   6.149
 5553SOL    HW117558   4.744   6.006   6.233
 5553SOL    HW217559   4.832   5.985   6.097
 5554SOL     OW17560   3.401   0.685   4.541
 5554SOL    HW117561   3.315   0.679   4.592
 5554SOL    HW217562   3.469   0.626   4.583
 5555SOL     OW17563   1.011   6.290   1.434
 5555SOL    HW117564   1.086   6.236   1.397
 5555SOL    HW217565   0.947   6.314   1.360
 5556SOL     OW17566   6.919   0.956   5.269
 5556SOL    HW117567   6.836   1.012   5.283
 5556SOL    HW217568   6.896   0.876   5.215
 5557SOL     OW17569   3.578   0.740   2.240
 5557SOL    HW117570   3.640   0.748   2.318
 5557SOL    HW217571   3.631   0.716   2.158
 5558SOL     OW17572   5.126   2.290   5.628
 5558SOL    HW117573   5.183   2.213   5.656
 5558SOL    HW217574   5.044   2.257   5.583
 5559SOL     OW17575   2.882   0.360   0.816
 5559SOL    HW117576   2.911   0.372   0.721
 5559SOL    HW217577   2.939   0.416   0.876
 5560SOL     OW17578   0.041   1.436   4.897
 5560SOL    HW117579   0.055   1.337   4.885
 5560SOL    HW217580   0.130   1.481   4.907
 5561SOL     OW17581   1.663   4.309   1.935
 5561SOL    HW117582   1.566   4.326   1.920
 5561SOL    HW217583   1.679   4.289   2.032
 5562SOL     OW17584   3.472   2.278   6.906
 5562SOL    HW117585   3.508   2.344   6.840
 5562SOL    HW217586   3.432   2.327   6.983
 5563SOL     OW17587   3.878   4.639   1.152
 5563SOL    HW117588   3.803   4.586   1.111
 5563SOL    HW217589   3.841   4.723   1.192
 5564SOL     OW17590   6.028   1.356   2.737
 5564SOL    HW117591   6.089   1.434   2.721
 5564SOL    HW217592   5.933   1.384   2.722
 5565SOL     OW17593   1.241   2.990   5.743
 5565SOL    HW117594   1.340   2.981   5.749
 5565SOL    HW217595   1.210   2.961   5.652
 5566SOL     OW17596   2.510   4.078   0.251
 5566SOL    HW117597   2.434   4.142   0.265
 5566SOL    HW217598   2.587   4.127   0.211
 5567SOL     OW17599   1.210   5.279   3.420
 5567SOL    HW117600   1.169   5.228   3.496
 5567SOL    HW217601   1.233   5.372   3.451
 5568SOL     OW17602   3.817   2.667   6.736
 5568SOL    HW117603   3.821   2.726   6.655
 5568SOL    HW217604   3.849   2.718   6.816
 5569SOL     OW17605   4.657   1.947   6.764
 5569SOL    HW117606   4.749   1.963   6.730
 5569SOL    HW217607   4.662   1.900   6.853
 5570SOL     OW17608   1.473   2.808   6.048
 5570SOL    HW117609   1.481   2.859   6.133
 5570SOL    HW217610   1.456   2.711   6.068
 5571SOL     OW17611   0.588   4.320   6.307
 5571SOL    HW117612   0.654   4.372   6.253
 5571SOL    HW217613   0.512   4.380   6.333
 5572SOL     OW17614   0.499   3.029   6.056
 5572SOL    HW117615   0.524   3.119   6.092
 5572SOL    HW217616   0.524   2.959   6.123
 5573SOL     OW17617   6.931   3.692   6.043
 5573SOL    HW117618   6.929   3.772   6.104
 5573SOL    HW217619   7.000   3.706   5.973
 5574SOL     OW17620   2.007   6.279   4.613
 5574SOL    HW117621   1.952   6.232   4.681
 5574SOL    HW217622   2.097   6.301   4.652
 5575SOL     OW17623   0.984   1.400   2.642
 5575SOL    HW117624   1.030   1.317   2.611
 5575SOL    HW217625   0.963   1.457   2.563
 5576SOL     OW17626   5.535   6.401   5.462
 5576SOL    HW117627   5.445   6.360   5.475
 5576SOL    HW217628   5.536   6.454   5.377
 5577SOL     OW17629   1.444   4.493   4.701
 5577SOL    HW117630   1.429   4.407   4.653
 5577SOL    HW217631   1.364   4.552   4.688
 5578SOL     OW17632   3.917   2.010   5.967
 5578SOL    HW117633   3.918   2.076   6.042
 5578SOL    HW217634   3.909   2.059   5.880
 5579SOL     OW17635   4.912   4.448   2.258
 5579SOL    HW117636   4.994   4.451   2.315
 5579SOL    HW217637   4.847   4.383   2.297
 5580SOL     OW17638   6.069   1.086   1.956
 5580SOL    HW117639   6.161   1.068   1.991
 5580SOL    HW217640   6.072   1.163   1.893
 5581SOL     OW17641   3.095   3.121   0.736
 5581SOL    HW117642   3.169   3.082   0.682
 5581SOL    HW217643   3.132   3.157   0.822
 5582SOL     OW17644   2.878   3.532   3.721
 5582SOL    HW117645   2.942   3.605   3.694
 5582SOL    HW217646   2.854   3.543   3.817
 5583SOL     OW17647   4.152   0.820   6.582
 5583SOL    HW117648   4.190   0.744   6.530
 5583SOL    HW217649   4.203   0.904   6.561
 5584SOL     OW17650   5.108   3.163   4.227
 5584SOL    HW117651   5.173   3.221   4.178
 5584SOL    HW217652   5.016   3.203   4.222
 5585SOL     OW17653   0.437   0.494   3.544
 5585SOL    HW117654   0.458   0.478   3.640
 5585SOL    HW217655   0.522   0.503   3.492
 5586SOL     OW17656   1.699   0.867   6.801
 5586SOL    HW117657   1.742   0.943   6.752
 5586SOL    HW217658   1.756   0.786   6.794
 5587SOL     OW17659   4.051   6.180   3.208
 5587SOL    HW117660   4.039   6.081   3.213
 5587SOL    HW217661   4.121   6.208   3.273
 5588SOL     OW17662   5.275   6.469   6.677
 5588SOL    HW117663   5.194   6.527   6.678
 5588SOL    HW217664   5.328   6.484   6.761
 5589SOL     OW17665   1.654   3.325   0.009
 5589SOL    HW117666   1.582   3.392   7.006
 5589SOL    HW217667   1.677   3.327   0.107
 5590SOL     OW17668   6.508   0.142   3.160
 5590SOL    HW117669   6.484   0.115   3.066
 5590SOL    HW217670   6.534   0.238   3.161
 5591SOL     OW17671   5.386   0.777   6.833
 5591SOL    HW117672   5.421   0.854   6.779
 5591SOL    HW217673   5.287   0.787   6.845
 5592SOL     OW17674   1.242   3.215   2.902
 5592SOL    HW117675   1.247   3.266   2.817
 5592SOL    HW217676   1.330   3.170   2.919
 5593SOL     OW17677   2.182   3.647   5.045
 5593SOL    HW117678   2.213   3.563   5.001
 5593SOL    HW217679   2.154   3.713   4.975
 5594SOL     OW17680   2.836   1.304   6.080
 5594SOL    HW117681   2.873   1.298   5.987
 5594SOL    HW217682   2.743   1.268   6.081
 5595SOL     OW17683   6.722   3.139   6.681
 5595SOL    HW117684   6.695   3.233   6.700
 5595SOL    HW217685   6.770   3.136   6.593
 5596SOL     OW17686   5.041   3.458   4.668
 5596SOL    HW117687   5.087   3.488   4.752
 5596SOL    HW217688   4.969   3.393   4.691
 5597SOL     OW17689   0.274   1.492   6.613
 5597SOL    HW117690   0.226   1.413   6.654
 5597SOL    HW217691   0.223   1.523   6.533
 5598SOL     OW17692   6.373   0.250   3.502
 5598SOL    HW117693   6.415   0.164   3.472
 5598SOL    HW217694   6.434   0.326   3.481
 5599SOL     OW17695   5.517   3.564   3.083
 5599SOL    HW117696   5.468   3.601   3.162
 5599SOL    HW217697   5.485   3.471   3.065
 5600SOL     OW17698   1.843   3.142   2.263
 5600SOL    HW117699   1.890   3.113   2.179
 5600SOL    HW217700   1.910   3.181   2.326
 5601SOL     OW17701   5.723   2.441   6.139
 5601SOL    HW117702   5.627   2.468   6.130
 5601SOL    HW217703   5.763   2.485   6.220
 5602SOL     OW17704   6.228   1.588   3.130
 5602SOL    HW117705   6.214   1.596   3.228
 5602SOL    HW217706   6.139   1.576   3.085
 5603SOL     OW17707   3.513   1.492   6.115
 5603SOL    HW117708   3.485   1.404   6.154
 5603SOL    HW217709   3.493   1.492   6.017
 5604SOL     OW17710   1.703   4.691   3.529
 5604SOL    HW117711   1.779   4.721   3.471
 5604SOL    HW217712   1.634   4.764   3.534
 5605SOL     OW17713   3.421   6.458   4.440
 5605SOL    HW117714   3.366   6.474   4.358
 5605SOL    HW217715   3.392   6.521   4.512
 5606SOL     OW17716   4.538   3.729   1.136
 5606SOL    HW117717   4.603   3.747   1.209
 5606SOL    HW217718   4.461   3.676   1.172
 5607SOL     OW17719   1.178   2.258   2.325
 5607SOL    HW117720   1.093   2.289   2.280
 5607SOL    HW217721   1.178   2.291   2.420
 5608SOL     OW17722   6.586   6.785   3.656
 5608SOL    HW117723   6.550   6.828   3.573
 5608SOL    HW217724   6.662   6.839   3.691
 5609SOL     OW17725   6.664   1.298   0.329
 5609SOL    HW117726   6.757   1.314   0.297
 5609SOL    HW217727   6.640   1.367   0.397
 5610SOL     OW17728   5.648   6.561   6.371
 5610SOL    HW117729   5.721   6.582   6.306
 5610SOL    HW217730   5.569   6.619   6.353
 5611SOL     OW17731   6.422   4.039   1.031
 5611SOL    HW117732   6.323   4.029   1.035
 5611SOL    HW217733   6.461   4.034   1.123
 5612SOL     OW17734   4.741   2.519   1.537
 5612SOL    HW117735   4.721   2.517   1.439
 5612SOL    HW217736   4.840   2.514   1.551
 5613SOL     OW17737   6.555   5.190   5.573
 5613SOL    HW117738   6.577   5.103   5.528
 5613SOL    HW217739   6.593   5.189   5.666
 5614SOL     OW17740   5.936   2.577   4.891
 5614SOL    HW117741   5.872   2.609   4.961
 5614SOL    HW217742   5.895   2.500   4.842
 5615SOL     OW17743   0.498   3.527   2.706
 5615SOL    HW117744   0.518   3.486   2.617
 5615SOL    HW217745   0.576   3.512   2.768
 5616SOL     OW17746   1.650   3.073   1.592
 5616SOL    HW117747   1.727   3.121   1.633
 5616SOL    HW217748   1.684   3.011   1.521
 5617SOL     OW17749   0.630   5.088   5.068
 5617SOL    HW117750   0.709   5.084   5.129
 5617SOL    HW217751   0.570   5.163   5.097
 5618SOL     OW17752   4.997   1.031   2.871
 5618SOL    HW117753   5.036   1.109   2.920
 5618SOL    HW217754   5.065   0.995   2.807
 5619SOL     OW17755   2.921   3.742   4.187
 5619SOL    HW117756   2.991   3.745   4.259
 5619SOL    HW217757   2.938   3.815   4.121
 5620SOL     OW17758   4.668   5.061   5.231
 5620SOL    HW117759   4.681   5.073   5.132
 5620SOL    HW217760   4.616   5.138   5.267
 5621SOL     OW17761   1.029   3.458   6.717
 5621SOL    HW117762   0.940   3.502   6.724
 5621SOL    HW217763   1.065   3.442   6.809
 5622SOL     OW17764   5.755   5.362   3.020
 5622SOL    HW117765   5.727   5.356   3.116
 5622SOL    HW217766   5.792   5.274   2.991
 5623SOL     OW17767   4.569   5.081   3.247
 5623SOL    HW117768   4.664   5.053   3.231
 5623SOL    HW217769   4.508   5.017   3.202
 5624SOL     OW17770   4.844   3.847   4.007
 5624SOL    HW117771   4.814   3.886   4.094
 5624SOL    HW217772   4.873   3.753   4.021
 5625SOL     OW17773   3.458   0.021   6.379
 5625SOL    HW117774   3.541   6.984   6.358
 5625SOL    HW217775   3.400   6.982   6.440
 5626SOL     OW17776   2.113   4.767   6.054
 5626SOL    HW117777   2.151   4.728   5.970
 5626SOL    HW217778   2.014   4.778   6.043
 5627SOL     OW17779   1.207   5.235   0.776
 5627SOL    HW117780   1.284   5.295   0.754
 5627SOL    HW217781   1.136   5.245   0.707
 5628SOL     OW17782   0.813   2.790   0.095
 5628SOL    HW117783   0.749   2.752   0.028
 5628SOL    HW217784   0.903   2.748   0.082
 5629SOL     OW17785   0.167   3.282   3.952
 5629SOL    HW117786   0.181   3.319   4.044
 5629SOL    HW217787   0.132   3.189   3.959
 5630SOL     OW17788   1.100   4.820   0.283
 5630SOL    HW117789   1.110   4.762   0.203
 5630SOL    HW217790   1.188   4.830   0.328
 5631SOL     OW17791   3.740   0.586   3.077
 5631SOL    HW117792   3.664   0.547   3.025
 5631SOL    HW217793   3.706   0.658   3.138
 5632SOL     OW17794   3.278   6.997   6.815
 5632SOL    HW117795   3.361   0.036   6.801
 5632SOL    HW217796   3.274   6.964   6.909
 5633SOL     OW17797   1.712   5.542   5.034
 5633SOL    HW117798   1.612   5.541   5.035
 5633SOL    HW217799   1.746   5.456   4.997
 5634SOL     OW17800   2.579   0.144   2.065
 5634SOL    HW117801   2.664   0.177   2.025
 5634SOL    HW217802   2.524   0.098   1.995
 5635SOL     OW17803   3.614   0.089   2.053
 5635SOL    HW117804   3.699   0.138   2.071
 5635SOL    HW217805   3.539   0.133   2.102
 5636SOL     OW17806   5.152   0.373   4.460
 5636SOL    HW117807   5.232   0.388   4.402
 5636SOL    HW217808   5.114   0.462   4.488
 5637SOL     OW17809   5.566   0.160   5.203
 5637SOL    HW117810   5.467   0.150   5.200
 5637SOL    HW217811   5.591   0.257   5.193
 5638SOL     OW17812   1.130   5.414   0.050
 5638SOL    HW117813   1.150   5.507   0.082
 5638SOL    HW217814   1.140   5.350   0.126
 5639SOL     OW17815   2.960   6.985   1.802
 5639SOL    HW117816   2.995   6.977   1.709
 5639SOL    HW217817   3.006   0.046   1.848
 5640SOL     OW17818   3.600   6.814   4.052
 5640SOL    HW117819   3.673   6.861   4.102
 5640SOL    HW217820   3.641   6.758   3.980
 5641SOL     OW17821   6.593   5.012   3.380
 5641SOL    HW117822   6.621   4.919   3.403
 5641SOL    HW217823   6.523   5.010   3.309
 5642SOL     OW17824   2.369   1.583   6.391
 5642SOL    HW117825   2.391   1.644   6.467
 5642SOL    HW217826   2.453   1.548   6.350
 5643SOL     OW17827   5.286   3.035   3.438
 5643SOL    HW117828   5.260   3.106   3.373
 5643SOL    HW217829   5.383   3.016   3.429
 5644SOL     OW17830   3.116   0.612   6.018
 5644SOL    HW117831   3.157   0.679   5.956
 5644SOL    HW217832   3.017   0.627   6.022
 5645SOL     OW17833   6.302   6.438   3.782
 5645SOL    HW117834   6.259   6.358   3.740
 5645SOL    HW217835   6.318   6.507   3.712
 5646SOL     OW17836   6.684   0.585   2.831
 5646SOL    HW117837   6.622   0.536   2.770
 5646SOL    HW217838   6.762   0.526   2.854
 5647SOL     OW17839   6.197   3.720   5.907
 5647SOL    HW117840   6.232   3.813   5.896
 5647SOL    HW217841   6.144   3.695   5.826
 5648SOL     OW17842   1.529   1.639   3.930
 5648SOL    HW117843   1.552   1.718   3.987
 5648SOL    HW217844   1.582   1.642   3.846
 5649SOL     OW17845   6.932   0.387   4.487
 5649SOL    HW117846   6.906   0.453   4.417
 5649SOL    HW217847   6.965   0.436   4.568
 5650SOL     OW17848   6.158   4.893   4.963
 5650SOL    HW117849   6.244   4.854   4.996
 5650SOL    HW217850   6.081   4.848   5.009
 5651SOL     OW17851   5.919   0.482   2.542
 5651SOL    HW117852   5.975   0.514   2.466
 5651SOL    HW217853   5.941   0.536   2.624
 5652SOL     OW17854   4.891   4.419   0.140
 5652SOL    HW117855   4.837   4.421   0.224
 5652SOL    HW217856   4.831   4.400   0.062
 5653SOL     OW17857   2.304   5.847   6.917
 5653SOL    HW117858   2.246   5.775   6.878
 5653SOL    HW217859   2.383   5.862   6.858
 5654SOL     OW17860   2.289   6.844   0.548
 5654SOL    HW117861   2.369   6.808   0.500
 5654SOL    HW217862   2.308   6.848   0.646
 5655SOL     OW17863   6.192   5.797   2.942
 5655SOL    HW117864   6.192   5.700   2.920
 5655SOL    HW217865   6.105   5.822   2.985
 5656SOL     OW17866   3.613   4.973   5.951
 5656SOL    HW117867   3.625   5.067   5.917
 5656SOL    HW217868   3.559   4.921   5.885
 5657SOL     OW17869   4.502   5.196   2.157
 5657SOL    HW117870   4.483   5.099   2.173
 5657SOL    HW217871   4.554   5.206   2.072
 5658SOL     OW17872   4.554   6.224   6.062
 5658SOL    HW117873   4.509   6.256   6.146
 5658SOL    HW217874   4.625   6.158   6.086
 5659SOL     OW17875   3.729   4.037   2.108
 5659SOL    HW117876   3.820   4.010   2.139
 5659SOL    HW217877   3.666   3.960   2.117
 5660SOL     OW17878   6.636   5.895   1.516
 5660SOL    HW117879   6.724   5.888   1.563
 5660SOL    HW217880   6.574   5.952   1.570
 5661SOL     OW17881   6.392   6.016   4.458
 5661SOL    HW117882   6.420   5.966   4.541
 5661SOL    HW217883   6.441   5.979   4.379
 5662SOL     OW17884   1.602   4.102   4.754
 5662SOL    HW117885   1.602   4.003   4.765
 5662SOL    HW217886   1.694   4.138   4.769
 5663SOL     OW17887   2.498   3.566   0.950
 5663SOL    HW117888   2.564   3.510   0.900
 5663SOL    HW217889   2.449   3.625   0.886
 5664SOL     OW17890   6.343   6.670   1.613
 5664SOL    HW117891   6.398   6.708   1.539
 5664SOL    HW217892   6.252   6.647   1.579
 5665SOL     OW17893   2.145   1.028   5.703
 5665SOL    HW117894   2.142   1.093   5.778
 5665SOL    HW217895   2.103   1.069   5.622
 5666SOL     OW17896   5.518   5.710   6.536
 5666SOL    HW117897   5.435   5.752   6.500
 5666SOL    HW217898   5.595   5.772   6.523
 5667SOL     OW17899   5.703   4.570   2.524
 5667SOL    HW117900   5.756   4.639   2.475
 5667SOL    HW217901   5.635   4.614   2.582
 5668SOL     OW17902   6.707   2.057   6.988
 5668SOL    HW117903   6.745   2.136   6.940
 5668SOL    HW217904   6.676   2.085   0.064
 5669SOL     OW17905   0.014   2.391   4.853
 5669SOL    HW117906   0.106   2.405   4.889
 5669SOL    HW217907   6.964   2.448   4.902
 5670SOL     OW17908   1.408   3.312   2.166
 5670SOL    HW117909   1.490   3.274   2.210
 5670SOL    HW217910   1.428   3.328   2.069
 5671SOL     OW17911   1.132   0.654   5.591
 5671SOL    HW117912   1.200   0.720   5.559
 5671SOL    HW217913   1.175   0.564   5.601
 5672SOL     OW17914   4.349   4.492   5.640
 5672SOL    HW117915   4.368   4.394   5.628
 5672SOL    HW217916   4.278   4.520   5.576
 5673SOL     OW17917   1.847   6.771   1.540
 5673SOL    HW117918   1.785   6.746   1.615
 5673SOL    HW217919   1.931   6.715   1.547
 5674SOL     OW17920   0.998   3.199   1.062
 5674SOL    HW117921   0.937   3.214   0.984
 5674SOL    HW217922   1.025   3.288   1.100
 5675SOL     OW17923   4.306   1.032   5.653
 5675SOL    HW117924   4.375   1.070   5.714
 5675SOL    HW217925   4.237   0.983   5.707
 5676SOL     OW17926   2.199   6.419   2.349
 5676SOL    HW117927   2.270   6.432   2.418
 5676SOL    HW217928   2.236   6.438   2.259
 5677SOL     OW17929   6.487   6.931   2.396
 5677SOL    HW117930   6.585   6.916   2.411
 5677SOL    HW217931   6.474   0.005   2.353
 5678SOL     OW17932   1.141   5.189   3.125
 5678SOL    HW117933   1.193   5.258   3.176
 5678SOL    HW217934   1.043   5.202   3.142
 5679SOL     OW17935   3.712   5.820   5.651
 5679SOL    HW117936   3.714   5.762   5.570
 5679SOL    HW217937   3.785   5.888   5.646
 5680SOL     OW17938   2.049   6.715   6.535
 5680SOL    HW117939   2.043   6.806   6.495
 5680SOL    HW217940   2.000   6.650   6.477
 5681SOL     OW17941   2.758   3.695   6.781
 5681SOL    HW117942   2.711   3.703   6.694
 5681SOL    HW217943   2.745   3.602   6.818
 5682SOL     OW17944   1.878   3.706   4.296
 5682SOL    HW117945   1.967   3.742   4.269
 5682SOL    HW217946   1.814   3.712   4.219
 5683SOL     OW17947   4.100   2.990   5.299
 5683SOL    HW117948   4.164   3.066   5.306
 5683SOL    HW217949   4.024   3.016   5.240
 5684SOL     OW17950   3.331   4.116   3.309
 5684SOL    HW117951   3.397   4.169   3.256
 5684SOL    HW217952   3.348   4.018   3.297
 5685SOL     OW17953   0.225   6.352   1.493
 5685SOL    HW117954   0.267   6.332   1.405
 5685SOL    HW217955   0.290   6.402   1.551
 5686SOL     OW17956   3.381   4.924   6.648
 5686SOL    HW117957   3.355   4.906   6.743
 5686SOL    HW217958   3.344   5.013   6.619
 5687SOL     OW17959   4.461   6.045   6.584
 5687SOL    HW117960   4.438   6.070   6.489
 5687SOL    HW217961   4.538   6.100   6.615
 5688SOL     OW17962   5.353   1.664   2.512
 5688SOL    HW117963   5.338   1.748   2.461
 5688SOL    HW217964   5.450   1.644   2.517
 5689SOL     OW17965   3.954   3.201   5.451
 5689SOL    HW117966   4.018   3.134   5.414
 5689SOL    HW217967   3.954   3.197   5.551
 5690SOL     OW17968   3.712   0.452   3.330
 5690SOL    HW117969   3.738   0.494   3.243
 5690SOL    HW217970   3.739   0.513   3.405
 5691SOL     OW17971   3.516   0.525   4.306
 5691SOL    HW117972   3.562   0.470   4.375
 5691SOL    HW217973   3.432   0.564   4.344
 5692SOL     OW17974   5.732   2.621   0.119
 5692SOL    HW117975   5.687   2.676   0.189
 5692SOL    HW217976   5.831   2.623   0.133
 5693SOL     OW17977   5.224   2.896   1.717
 5693SOL    HW117978   5.162   2.848   1.655
 5693SOL    HW217979   5.319   2.868   1.698
 5694SOL     OW17980   1.322   2.519   4.554
 5694SOL    HW117981   1.277   2.479   4.634
 5694SOL    HW217982   1.395   2.458   4.523
 5695SOL     OW17983   1.920   4.017   3.494
 5695SOL    HW117984   1.954   4.028   3.400
 5695SOL    HW217985   1.997   4.010   3.556
 5696SOL     OW17986   3.017   1.536   6.593
 5696SOL    HW117987   2.963   1.620   6.600
 5696SOL    HW217988   2.956   1.457   6.585
 5697SOL     OW17989   6.603   3.643   0.116
 5697SOL    HW117990   6.539   3.642   0.193
 5697SOL    HW217991   6.560   3.597   0.038
 5698SOL     OW17992   1.607   4.066   3.648
 5698SOL    HW117993   1.644   3.994   3.590
 5698SOL    HW217994   1.508   4.054   3.656
 5699SOL     OW17995   1.025   2.285   5.033
 5699SOL    HW117996   1.110   2.338   5.034
 5699SOL    HW217997   1.024   2.224   5.112
 5700SOL     OW17998   1.492   4.622   4.449
 5700SOL    HW117999   1.490   4.592   4.544
 5700SOL    HW218000   1.524   4.547   4.391
 5701SOL     OW18001   4.817   3.068   3.228
 5701SOL    HW118002   4.769   3.155   3.235
 5701SOL    HW218003   4.833   3.046   3.132
 5702SOL     OW18004   3.536   0.250   6.975
 5702SOL    HW118005   3.610   0.286   0.017
 5702SOL    HW218006   3.516   0.155   7.001
 5703SOL     OW18007   4.988   4.350   2.003
 5703SOL    HW118008   4.906   4.319   1.955
 5703SOL    HW218009   4.961   4.395   2.089
 5704SOL     OW18010   4.973   4.383   3.289
 5704SOL    HW118011   4.981   4.475   3.250
 5704SOL    HW218012   5.061   4.357   3.328
 5705SOL     OW18013   6.813   1.294   3.926
 5705SOL    HW118014   6.716   1.295   3.900
 5705SOL    HW218015   6.827   1.351   4.006
 5706SOL     OW18016   2.398   1.332   0.054
 5706SOL    HW118017   2.372   1.305   0.147
 5706SOL    HW218018   2.340   1.284   7.004
 5707SOL     OW18019   3.905   1.608   0.709
 5707SOL    HW118020   3.842   1.683   0.728
 5707SOL    HW218021   3.923   1.603   0.611
 5708SOL     OW18022   0.876   6.882   0.973
 5708SOL    HW118023   0.826   6.962   1.006
 5708SOL    HW218024   0.859   6.870   0.875
 5709SOL     OW18025   1.028   2.743   1.199
 5709SOL    HW118026   1.100   2.780   1.258
 5709SOL    HW218027   1.025   2.794   1.114
 5710SOL     OW18028   3.717   4.935   0.011
 5710SOL    HW118029   3.633   4.920   0.064
 5710SOL    HW218030   3.692   4.949   6.930
 5711SOL     OW18031   5.397   1.417   5.105
 5711SOL    HW118032   5.422   1.514   5.098
 5711SOL    HW218033   5.464   1.362   5.055
 5712SOL     OW18034   6.182   6.755   6.573
 5712SOL    HW118035   6.090   6.783   6.545
 5712SOL    HW218036   6.203   6.793   6.663
 5713SOL     OW18037   0.556   3.204   2.610
 5713SOL    HW118038   0.528   3.300   2.623
 5713SOL    HW218039   0.475   3.145   2.617
 5714SOL     OW18040   2.192   0.735   6.859
 5714SOL    HW118041   2.167   0.683   6.941
 5714SOL    HW218042   2.146   0.695   6.779
 5715SOL     OW18043   0.876   6.629   3.516
 5715SOL    HW118044   0.801   6.610   3.453
 5715SOL    HW218045   0.880   6.727   3.534
 5716SOL     OW18046   2.140   2.420   5.397
 5716SOL    HW118047   2.147   2.439   5.299
 5716SOL    HW218048   2.212   2.356   5.424
 5717SOL     OW18049   0.973   3.140   5.637
 5717SOL    HW118050   1.015   3.169   5.723
 5717SOL    HW218051   0.980   3.041   5.627
 5718SOL     OW18052   3.125   5.617   5.973
 5718SOL    HW118053   3.155   5.673   6.050
 5718SOL    HW218054   3.181   5.534   5.969
 5719SOL     OW18055   2.463   1.009   0.256
 5719SOL    HW118056   2.528   1.020   0.181
 5719SOL    HW218057   2.483   0.925   0.306
 5720SOL     OW18058   1.894   5.754   3.801
 5720SOL    HW118059   1.972   5.785   3.855
 5720SOL    HW218060   1.828   5.828   3.790
 5721SOL     OW18061   0.038   4.608   6.900
 5721SOL    HW118062   0.023   4.658   6.815
 5721SOL    HW218063   6.975   4.622   6.962
 5722SOL     OW18064   5.321   1.128   4.935
 5722SOL    HW118065   5.325   1.146   4.837
 5722SOL    HW218066   5.400   1.170   4.980
 5723SOL     OW18067   0.019   4.416   1.190
 5723SOL    HW118068   6.985   4.499   1.214
 5723SOL    HW218069   0.018   4.404   1.090
 5724SOL     OW18070   5.145   2.870   6.024
 5724SOL    HW118071   5.133   2.831   6.116
 5724SOL    HW218072   5.056   2.894   5.986
 5725SOL     OW18073   5.548   6.689   5.545
 5725SOL    HW118074   5.509   6.604   5.509
 5725SOL    HW218075   5.546   6.687   5.645
 5726SOL     OW18076   3.789   4.684   5.732
 5726SOL    HW118077   3.765   4.587   5.736
 5726SOL    HW218078   3.711   4.739   5.758
 5727SOL     OW18079   5.941   2.228   3.916
 5727SOL    HW118080   5.946   2.320   3.956
 5727SOL    HW218081   5.925   2.161   3.989
 5728SOL     OW18082   4.022   0.810   4.605
 5728SOL    HW118083   4.049   0.836   4.512
 5728SOL    HW218084   3.927   0.836   4.621
 5729SOL     OW18085   2.059   2.128   4.189
 5729SOL    HW118086   2.021   2.220   4.181
 5729SOL    HW218087   1.990   2.061   4.162
 5730SOL     OW18088   4.026   4.715   6.831
 5730SOL    HW118089   3.987   4.748   6.917
 5730SOL    HW218090   4.122   4.744   6.825
 5731SOL     OW18091   4.370   1.515   5.229
 5731SOL    HW118092   4.436   1.533   5.302
 5731SOL    HW218093   4.292   1.577   5.239
 5732SOL     OW18094   5.491   4.694   4.279
 5732SOL    HW118095   5.415   4.759   4.281
 5732SOL    HW218096   5.482   4.636   4.198
 5733SOL     OW18097   2.455   6.745   1.640
 5733SOL    HW118098   2.518   6.701   1.705
 5733SOL    HW218099   2.488   6.836   1.618
 5734SOL     OW18100   1.626   6.952   5.980
 5734SOL    HW118101   1.592   6.862   6.009
 5734SOL    HW218102   1.551   0.002   5.977
 5735SOL     OW18103   5.430   1.394   0.774
 5735SOL    HW118104   5.415   1.336   0.854
 5735SOL    HW218105   5.437   1.489   0.803
 5736SOL     OW18106   5.156   3.674   6.671
 5736SOL    HW118107   5.141   3.595   6.730
 5736SOL    HW218108   5.069   3.708   6.637
 5737SOL     OW18109   5.065   6.194   2.357
 5737SOL    HW118110   5.032   6.122   2.418
 5737SOL    HW218111   4.992   6.259   2.339
 5738SOL     OW18112   3.075   0.956   1.383
 5738SOL    HW118113   3.032   1.036   1.342
 5738SOL    HW218114   3.146   0.985   1.447
 5739SOL     OW18115   1.954   1.160   5.523
 5739SOL    HW118116   1.957   1.083   5.459
 5739SOL    HW218117   1.951   1.246   5.471
 5740SOL     OW18118   4.927   3.591   2.776
 5740SOL    HW118119   4.929   3.689   2.757
 5740SOL    HW218120   4.931   3.541   2.690
 5741SOL     OW18121   1.450   3.303   4.061
 5741SOL    HW118122   1.471   3.222   4.006
 5741SOL    HW218123   1.390   3.277   4.137
 5742SOL     OW18124   5.923   5.150   1.964
 5742SOL    HW118125   5.868   5.155   2.047
 5742SOL    HW218126   5.928   5.240   1.922
 5743SOL     OW18127   4.280   6.335   6.907
 5743SOL    HW118128   4.372   6.311   6.937
 5743SOL    HW218129   4.214   6.301   6.975
 5744SOL     OW18130   5.367   6.236   3.257
 5744SOL    HW118131   5.397   6.298   3.330
 5744SOL    HW218132   5.269   6.219   3.266
 5745SOL     OW18133   0.661   3.743   2.585
 5745SOL    HW118134   0.660   3.719   2.488
 5745SOL    HW218135   0.598   3.683   2.635
 5746SOL     OW18136   5.535   0.411   3.297
 5746SOL    HW118137   5.629   0.387   3.322
 5746SOL    HW218138   5.524   0.400   3.198
 5747SOL     OW18139   2.398   6.738   1.378
 5747SOL    HW118140   2.419   6.752   1.475
 5747SOL    HW218141   2.314   6.684   1.370
 5748SOL     OW18142   6.525   6.401   6.911
 5748SOL    HW118143   6.595   6.453   6.959
 5748SOL    HW218144   6.499   6.321   6.965
 5749SOL     OW18145   2.037   6.301   6.646
 5749SOL    HW118146   2.080   6.248   6.719
 5749SOL    HW218147   1.939   6.281   6.642
 5750SOL     OW18148   6.706   2.294   4.171
 5750SOL    HW118149   6.691   2.362   4.243
 5750SOL    HW218150   6.622   2.241   4.158
 5751SOL     OW18151   0.280   3.515   3.830
 5751SOL    HW118152   0.371   3.526   3.870
 5751SOL    HW218153   0.240   3.430   3.863
 5752SOL     OW18154   5.995   1.075   6.812
 5752SOL    HW118155   5.925   1.119   6.867
 5752SOL    HW218156   6.086   1.101   6.845
 5753SOL     OW18157   3.734   3.780   4.376
 5753SOL    HW118158   3.682   3.856   4.336
 5753SOL    HW218159   3.673   3.721   4.429
 5754SOL     OW18160   6.266   6.688   0.753
 5754SOL    HW118161   6.181   6.706   0.703
 5754SOL    HW218162   6.279   6.589   0.762
 5755SOL     OW18163   0.826   3.159   6.425
 5755SOL    HW118164   0.760   3.165   6.500
 5755SOL    HW218165   0.798   3.220   6.350
 5756SOL     OW18166   6.520   6.420   1.631
 5756SOL    HW118167   6.587   6.451   1.698
 5756SOL    HW218168   6.448   6.489   1.621
 5757SOL     OW18169   0.934   1.600   3.583
 5757SOL    HW118170   0.947   1.562   3.491
 5757SOL    HW218171   0.840   1.585   3.612
 5758SOL     OW18172   6.430   6.679   2.778
 5758SOL    HW118173   6.363   6.729   2.833
 5758SOL    HW218174   6.391   6.593   2.746
 5759SOL     OW18175   1.908   6.395   3.174
 5759SOL    HW118176   1.811   6.390   3.201
 5759SOL    HW218177   1.949   6.304   3.181
 5760SOL     OW18178   0.349   2.142   0.405
 5760SOL    HW118179   0.436   2.150   0.357
 5760SOL    HW218180   0.275   2.129   0.339
 5761SOL     OW18181   6.530   6.464   5.226
 5761SOL    HW118182   6.544   6.560   5.249
 5761SOL    HW218183   6.618   6.416   5.226
 5762SOL     OW18184   0.681   5.809   5.538
 5762SOL    HW118185   0.618   5.812   5.616
 5762SOL    HW218186   0.630   5.801   5.453
 5763SOL     OW18187   4.989   0.658   0.232
 5763SOL    HW118188   4.973   0.571   0.279
 5763SOL    HW218189   5.063   0.707   0.277
 5764SOL     OW18190   4.078   6.442   4.024
 5764SOL    HW118191   4.113   6.355   3.988
 5764SOL    HW218192   4.106   6.451   4.119
 5765SOL     OW18193   6.908   5.979   2.767
 5765SOL    HW118194   6.894   5.881   2.752
 5765SOL    HW218195   6.822   6.022   2.794
 5766SOL     OW18196   0.747   0.996   4.286
 5766SOL    HW118197   0.788   0.994   4.195
 5766SOL    HW218198   0.803   1.053   4.346
 5767SOL     OW18199   5.668   6.589   0.102
 5767SOL    HW118200   5.759   6.558   0.075
 5767SOL    HW218201   5.674   6.636   0.190
 5768SOL     OW18202   1.351   1.021   4.970
 5768SOL    HW118203   1.422   1.014   5.041
 5768SOL    HW218204   1.394   1.015   4.880
 5769SOL     OW18205   0.670   2.476   5.905
 5769SOL    HW118206   0.674   2.381   5.873
 5769SOL    HW218207   0.760   2.502   5.941
 5770SOL     OW18208   1.682   4.543   2.423
 5770SOL    HW118209   1.643   4.453   2.407
 5770SOL    HW218210   1.704   4.554   2.520
 5771SOL     OW18211   2.823   5.646   2.953
 5771SOL    HW118212   2.768   5.673   3.032
 5771SOL    HW218213   2.763   5.612   2.881
 5772SOL     OW18214   2.780   0.671   3.256
 5772SOL    HW118215   2.831   0.610   3.195
 5772SOL    HW218216   2.841   0.704   3.329
 5773SOL     OW18217   5.861   0.873   4.203
 5773SOL    HW118218   5.858   0.785   4.250
 5773SOL    HW218219   5.793   0.874   4.130
 5774SOL     OW18220   0.961   6.385   3.272
 5774SOL    HW118221   0.961   6.334   3.186
 5774SOL    HW218222   0.869   6.420   3.290
 5775SOL     OW18223   5.540   5.066   2.364
 5775SOL    HW118224   5.547   5.165   2.351
 5775SOL    HW218225   5.449   5.043   2.399
 5776SOL     OW18226   3.575   0.713   4.109
 5776SOL    HW118227   3.660   0.686   4.065
 5776SOL    HW218228   3.560   0.657   4.191
 5777SOL     OW18229   0.952   0.558   1.508
 5777SOL    HW118230   0.876   0.500   1.536
 5777SOL    HW218231   1.013   0.574   1.585
 5778SOL     OW18232   0.209   0.906   0.207
 5778SOL    HW118233   0.208   1.006   0.215
 5778SOL    HW218234   0.291   0.877   0.156
 5779SOL     OW18235   5.962   1.787   0.954
 5779SOL    HW118236   5.929   1.699   0.989
 5779SOL    HW218237   5.914   1.861   1.000
 5780SOL     OW18238   5.090   5.258   4.477
 5780SOL    HW118239   5.043   5.316   4.545
 5780SOL    HW218240   5.186   5.283   4.473
 5781SOL     OW18241   1.777   5.908   6.085
 5781SOL    HW118242   1.781   5.994   6.134
 5781SOL    HW218243   1.739   5.837   6.144
 5782SOL     OW18244   6.138   0.732   0.554
 5782SOL    HW118245   6.137   0.721   0.455
 5782SOL    HW218246   6.232   0.740   0.586
 5783SOL     OW18247   2.678   2.612   6.465
 5783SOL    HW118248   2.763   2.576   6.424
 5783SOL    HW218249   2.701   2.688   6.525
 5784SOL     OW18250   0.012   6.549   0.142
 5784SOL    HW118251   0.075   6.527   0.068
 5784SOL    HW218252   0.015   6.647   0.160
 5785SOL     OW18253   1.669   1.749   1.744
 5785SOL    HW118254   1.733   1.677   1.719
 5785SOL    HW218255   1.591   1.747   1.681
 5786SOL     OW18256   6.027   5.738   1.735
 5786SOL    HW118257   6.029   5.700   1.642
 5786SOL    HW218258   6.120   5.742   1.771
 5787SOL     OW18259   1.904   3.525   6.273
 5787SOL    HW118260   1.965   3.523   6.352
 5787SOL    HW218261   1.821   3.576   6.297
 5788SOL     OW18262   3.561   0.292   3.894
 5788SOL    HW118263   3.537   0.346   3.814
 5788SOL    HW218264   3.507   0.322   3.973
 5789SOL     OW18265   3.215   5.015   5.754
 5789SOL    HW118266   3.187   4.955   5.679
 5789SOL    HW218267   3.179   5.107   5.738
 5790SOL     OW18268   1.344   4.153   4.147
 5790SOL    HW118269   1.442   4.172   4.153
 5790SOL    HW218270   1.292   4.228   4.189
 5791SOL     OW18271   1.731   0.510   3.370
 5791SOL    HW118272   1.788   0.585   3.405
 5791SOL    HW218273   1.785   0.426   3.368
 5792SOL     OW18274   0.045   2.486   2.795
 5792SOL    HW118275   0.133   2.533   2.801
 5792SOL    HW218276   0.043   2.429   2.713
 5793SOL     OW18277   6.366   0.787   4.855
 5793SOL    HW118278   6.460   0.798   4.822
 5793SOL    HW218279   6.332   0.875   4.889
 5794SOL     OW18280   6.655   4.066   6.637
 5794SOL    HW118281   6.707   3.994   6.591
 5794SOL    HW218282   6.715   4.141   6.662
 5795SOL     OW18283   6.522   4.701   6.676
 5795SOL    HW118284   6.612   4.737   6.650
 5795SOL    HW218285   6.453   4.772   6.665
 5796SOL     OW18286   2.700   2.470   0.864
 5796SOL    HW118287   2.760   2.537   0.908
 5796SOL    HW218288   2.722   2.464   0.767
 5797SOL     OW18289   3.109   2.770   5.293
 5797SOL    HW118290   3.035   2.706   5.312
 5797SOL    HW218291   3.193   2.719   5.274
 5798SOL     OW18292   6.461   5.472   4.246
 5798SOL    HW118293   6.446   5.571   4.251
 5798SOL    HW218294   6.536   5.447   4.306
 5799SOL     OW18295   5.544   1.149   4.277
 5799SOL    HW118296   5.607   1.190   4.211
 5799SOL    HW218297   5.492   1.221   4.324
 5800SOL     OW18298   5.915   5.683   6.697
 5800SOL    HW118299   5.958   5.597   6.668
 5800SOL    HW218300   5.836   5.663   6.755
 5801SOL     OW18301   1.708   0.959   2.797
 5801SOL    HW118302   1.614   0.956   2.831
 5801SOL    HW218303   1.756   0.875   2.821
 5802SOL     OW18304   0.396   2.604   4.856
 5802SOL    HW118305   0.447   2.686   4.879
 5802SOL    HW218306   0.351   2.616   4.767
 5803SOL     OW18307   1.658   5.037   0.970
 5803SOL    HW118308   1.746   5.083   0.980
 5803SOL    HW218309   1.593   5.075   1.036
 5804SOL     OW18310   0.312   2.276   6.389
 5804SOL    HW118311   0.396   2.325   6.410
 5804SOL    HW218312   0.233   2.330   6.420
 5805SOL     OW18313   5.669   3.216   6.812
 5805SOL    HW118314   5.603   3.289   6.797
 5805SOL    HW218315   5.759   3.245   6.780
 5806SOL     OW18316   6.600   6.979   6.585
 5806SOL    HW118317   6.596   0.007   6.675
 5806SOL    HW218318   6.608   6.880   6.595
 5807SOL     OW18319   2.801   3.642   1.419
 5807SOL    HW118320   2.794   3.687   1.508
 5807SOL    HW218321   2.715   3.596   1.397
 5808SOL     OW18322   6.374   1.506   3.634
 5808SOL    HW118323   6.316   1.533   3.558
 5808SOL    HW218324   6.351   1.413   3.662
 5809SOL     OW18325   0.513   2.637   3.482
 5809SOL    HW118326   0.575   2.575   3.433
 5809SOL    HW218327   0.419   2.605   3.471
 5810SOL     OW18328   2.666   2.320   2.653
 5810SOL    HW118329   2.727   2.318   2.731
 5810SOL    HW218330   2.719   2.326   2.568
 5811SOL     OW18331   3.197   0.076   2.319
 5811SOL    HW118332   3.165   0.171   2.323
 5811SOL    HW218333   3.119   0.015   2.331
 5812SOL     OW18334   4.256   0.627   4.907
 5812SOL    HW118335   4.184   0.607   4.974
 5812SOL    HW218336   4.345   0.622   4.952
 5813SOL     OW18337   1.669   1.334   5.251
 5813SOL    HW118338   1.598   1.402   5.267
 5813SOL    HW218339   1.628   1.243   5.246
 5814SOL     OW18340   0.249   5.268   1.494
 5814SOL    HW118341   0.340   5.301   1.467
 5814SOL    HW218342   0.204   5.336   1.552
 5815SOL     OW18343   3.985   0.083   3.962
 5815SOL    HW118344   3.996   0.173   4.003
 5815SOL    HW218345   4.012   0.012   4.027
 5816SOL     OW18346   5.150   6.585   0.339
 5816SOL    HW118347   5.102   6.544   0.261
 5816SOL    HW218348   5.146   6.685   0.333
 5817SOL     OW18349   6.129   2.794   6.173
 5817SOL    HW118350   6.229   2.798   6.175
 5817SOL    HW218351   6.096   2.821   6.082
 5818SOL     OW18352   6.578   6.091   5.519
 5818SOL    HW118353   6.550   6.182   5.551
 5818SOL    HW218354   6.525   6.067   5.437
 5819SOL     OW18355   6.043   0.161   0.503
 5819SOL    HW118356   6.014   0.257   0.502
 5819SOL    HW218357   6.077   0.138   0.594
 5820SOL     OW18358   5.676   4.834   1.902
 5820SOL    HW118359   5.654   4.740   1.931
 5820SOL    HW218360   5.602   4.895   1.930
 5821SOL     OW18361   3.139   0.305   2.619
 5821SOL    HW118362   3.106   0.400   2.623
 5821SOL    HW218363   3.231   0.300   2.657
 5822SOL     OW18364   0.585   1.047   2.240
 5822SOL    HW118365   0.508   1.050   2.304
 5822SOL    HW218366   0.601   1.138   2.202
 5823SOL     OW18367   2.028   2.823   3.967
 5823SOL    HW118368   2.098   2.889   3.996
 5823SOL    HW218369   1.944   2.872   3.942
 5824SOL     OW18370   4.682   0.628   4.202
 5824SOL    HW118371   4.592   0.661   4.173
 5824SOL    HW218372   4.748   0.703   4.197
 5825SOL     OW18373   3.706   1.500   1.833
 5825SOL    HW118374   3.735   1.592   1.807
 5825SOL    HW218375   3.607   1.491   1.818
 5826SOL     OW18376   0.400   6.729   3.791
 5826SOL    HW118377   0.318   6.754   3.741
 5826SOL    HW218378   0.418   6.797   3.862
 5827SOL     OW18379   2.163   4.643   5.587
 5827SOL    HW118380   2.169   4.711   5.661
 5827SOL    HW218381   2.234   4.661   5.519
 5828SOL     OW18382   6.331   2.259   1.111
 5828SOL    HW118383   6.321   2.356   1.092
 5828SOL    HW218384   6.429   2.236   1.112
 5829SOL     OW18385   1.612   2.092   1.902
 5829SOL    HW118386   1.669   2.042   1.837
 5829SOL    HW218387   1.561   2.028   1.959
 5830SOL     OW18388   2.350   0.895   5.457
 5830SOL    HW118389   2.439   0.867   5.495
 5830SOL    HW218390   2.279   0.831   5.487
 5831SOL     OW18391   5.407   5.737   2.800
 5831SOL    HW118392   5.479   5.678   2.764
 5831SOL    HW218393   5.333   5.681   2.837
 5832SOL     OW18394   3.654   3.313   4.341
 5832SOL    HW118395   3.753   3.308   4.330
 5832SOL    HW218396   3.632   3.371   4.419
 5833SOL     OW18397   3.591   3.387   5.038
 5833SOL    HW118398   3.658   3.353   4.972
 5833SOL    HW218399   3.532   3.454   4.993
 5834SOL     OW18400   6.247   0.724   0.106
 5834SOL    HW118401   6.249   0.823   0.090
 5834SOL    HW218402   6.229   0.678   0.019
 5835SOL     OW18403   5.186   2.999   4.673
 5835SOL    HW118404   5.172   3.060   4.595
 5835SOL    HW218405   5.268   3.027   4.723
 5836SOL     OW18406   3.316   6.922   3.019
 5836SOL    HW118407   3.244   6.931   2.950
 5836SOL    HW218408   3.403   6.901   2.973
 5837SOL     OW18409   4.389   4.302   5.944
 5837SOL    HW118410   4.454   4.268   6.011
 5837SOL    HW218411   4.439   4.331   5.862
 5838SOL     OW18412   1.044   0.964   5.685
 5838SOL    HW118413   1.003   0.967   5.593
 5838SOL    HW218414   1.143   0.954   5.677
 5839SOL     OW18415   6.936   2.381   2.088
 5839SOL    HW118416   6.858   2.318   2.096
 5839SOL    HW218417   0.004   2.334   2.117
 5840SOL     OW18418   3.379   5.346   0.446
 5840SOL    HW118419   3.323   5.413   0.494
 5840SOL    HW218420   3.460   5.390   0.408
 5841SOL     OW18421   5.854   2.424   3.408
 5841SOL    HW118422   5.764   2.464   3.419
 5841SOL    HW218423   5.877   2.419   3.310
 5842SOL     OW18424   3.850   2.626   1.072
 5842SOL    HW118425   3.881   2.720   1.058
 5842SOL    HW218426   3.894   2.589   1.154
 5843SOL     OW18427   1.190   3.108   1.383
 5843SOL    HW118428   1.208   3.052   1.302
 5843SOL    HW218429   1.181   3.204   1.355
 5844SOL     OW18430   1.779   6.518   6.769
 5844SOL    HW118431   1.766   6.493   6.674
 5844SOL    HW218432   1.691   6.514   6.817
 5845SOL     OW18433   2.036   2.699   4.504
 5845SOL    HW118434   1.956   2.696   4.444
 5845SOL    HW218435   2.084   2.612   4.500
 5846SOL     OW18436   6.897   3.652   6.632
 5846SOL    HW118437   6.986   3.669   6.674
 5846SOL    HW218438   6.908   3.584   6.559
 5847SOL     OW18439   1.195   2.237   4.035
 5847SOL    HW118440   1.148   2.296   3.969
 5847SOL    HW218441   1.287   2.216   4.002
 5848SOL     OW18442   1.079   4.624   3.521
 5848SOL    HW118443   1.007   4.685   3.488
 5848SOL    HW218444   1.116   4.659   3.607
 5849SOL     OW18445   3.056   6.764   5.868
 5849SOL    HW118446   2.977   6.807   5.910
 5849SOL    HW218447   3.060   6.668   5.894
 5850SOL     OW18448   0.815   4.487   2.976
 5850SOL    HW118449   0.851   4.566   3.026
 5850SOL    HW218450   0.795   4.413   3.040
 5851SOL     OW18451   5.641   3.135   1.898
 5851SOL    HW118452   5.663   3.122   1.801
 5851SOL    HW218453   5.544   3.120   1.912
 5852SOL     OW18454   3.781   6.533   2.989
 5852SOL    HW118455   3.829   6.446   2.996
 5852SOL    HW218456   3.832   6.596   2.930
 5853SOL     OW18457   5.061   4.081   5.134
 5853SOL    HW118458   5.133   4.083   5.064
 5853SOL    HW218459   4.988   4.021   5.104
 5854SOL     OW18460   0.855   1.297   6.584
 5854SOL    HW118461   0.771   1.337   6.620
 5854SOL    HW218462   0.856   1.304   6.484
 5855SOL     OW18463   1.687   1.598   4.695
 5855SOL    HW118464   1.672   1.652   4.777
 5855SOL    HW218465   1.709   1.503   4.720
 5856SOL     OW18466   1.232   5.555   3.438
 5856SOL    HW118467   1.318   5.599   3.412
 5856SOL    HW218468   1.163   5.625   3.457
 5857SOL     OW18469   0.593   2.715   5.463
 5857SOL    HW118470   0.524   2.645   5.480
 5857SOL    HW218471   0.557   2.804   5.491
 5858SOL     OW18472   2.993   6.563   3.522
 5858SOL    HW118473   3.077   6.612   3.545
 5858SOL    HW218474   2.918   6.628   3.510
 5859SOL     OW18475   5.736   5.328   1.610
 5859SOL    HW118476   5.721   5.263   1.685
 5859SOL    HW218477   5.662   5.395   1.609
 5860SOL     OW18478   0.118   3.980   0.829
 5860SOL    HW118479   0.154   3.974   0.736
 5860SOL    HW218480   0.182   3.938   0.893
 5861SOL     OW18481   6.249   1.293   3.739
 5861SOL    HW118482   6.176   1.324   3.799
 5861SOL    HW218483   6.221   1.210   3.691
 5862SOL     OW18484   5.130   5.143   3.926
 5862SOL    HW118485   5.046   5.196   3.937
 5862SOL    HW218486   5.140   5.081   4.003
 5863SOL     OW18487   2.227   1.608   0.680
 5863SOL    HW118488   2.253   1.613   0.776
 5863SOL    HW218489   2.265   1.687   0.631
 5864SOL     OW18490   4.484   5.226   0.881
 5864SOL    HW118491   4.482   5.126   0.881
 5864SOL    HW218492   4.408   5.261   0.826
 5865SOL     OW18493   4.282   0.908   3.086
 5865SOL    HW118494   4.215   0.858   3.031
 5865SOL    HW218495   4.375   0.883   3.057
 5866SOL     OW18496   3.388   1.467   6.858
 5866SOL    HW118497   3.364   1.384   6.807
 5866SOL    HW218498   3.318   1.537   6.842
 5867SOL     OW18499   6.581   2.913   1.608
 5867SOL    HW118500   6.540   2.972   1.538
 5867SOL    HW218501   6.599   2.822   1.569
 5868SOL     OW18502   0.947   6.671   4.830
 5868SOL    HW118503   0.946   6.762   4.789
 5868SOL    HW218504   0.854   6.634   4.834
 5869SOL     OW18505   2.500   4.757   4.008
 5869SOL    HW118506   2.539   4.762   4.100
 5869SOL    HW218507   2.406   4.793   4.010
 5870SOL     OW18508   4.758   5.791   4.193
 5870SOL    HW118509   4.696   5.796   4.272
 5870SOL    HW218510   4.831   5.726   4.214
 5871SOL     OW18511   3.029   3.539   0.680
 5871SOL    HW118512   3.051   3.528   0.777
 5871SOL    HW218513   3.074   3.621   0.645
 5872SOL     OW18514   4.392   5.386   3.846
 5872SOL    HW118515   4.295   5.404   3.829
 5872SOL    HW218516   4.419   5.425   3.934
 5873SOL     OW18517   1.933   2.776   6.955
 5873SOL    HW118518   1.983   2.720   0.006
 5873SOL    HW218519   1.905   2.861   6.999
 5874SOL     OW18520   0.812   4.479   6.202
 5874SOL    HW118521   0.874   4.455   6.277
 5874SOL    HW218522   0.820   4.577   6.182
 5875SOL     OW18523   3.342   2.647   0.980
 5875SOL    HW118524   3.409   2.621   0.911
 5875SOL    HW218525   3.356   2.593   1.063
 5876SOL     OW18526   4.404   3.963   6.256
 5876SOL    HW118527   4.369   3.875   6.225
 5876SOL    HW218528   4.329   4.030   6.259
 5877SOL     OW18529   5.496   0.156   2.604
 5877SOL    HW118530   5.428   0.159   2.530
 5877SOL    HW218531   5.557   0.235   2.596
 5878SOL     OW18532   5.223   3.687   2.831
 5878SOL    HW118533   5.218   3.683   2.731
 5878SOL    HW218534   5.172   3.766   2.865
 5879SOL     OW18535   3.071   4.679   5.270
 5879SOL    HW118536   2.997   4.623   5.230
 5879SOL    HW218537   3.107   4.632   5.351
 5880SOL     OW18538   5.967   2.467   0.323
 5880SOL    HW118539   6.058   2.428   0.330
 5880SOL    HW218540   5.936   2.465   0.228
 5881SOL     OW18541   1.521   5.973   2.236
 5881SOL    HW118542   1.504   5.908   2.310
 5881SOL    HW218543   1.614   6.009   2.245
 5882SOL     OW18544   1.814   5.067   5.492
 5882SOL    HW118545   1.852   5.001   5.427
 5882SOL    HW218546   1.730   5.106   5.454
 5883SOL     OW18547   0.193   5.467   6.896
 5883SOL    HW118548   0.126   5.537   6.922
 5883SOL    HW218549   0.156   5.377   6.916
 5884SOL     OW18550   6.694   0.790   2.651
 5884SOL    HW118551   6.669   0.741   2.734
 5884SOL    HW218552   6.784   0.759   2.619
 5885SOL     OW18553   0.103   5.501   1.634
 5885SOL    HW118554   0.030   5.435   1.615
 5885SOL    HW218555   0.124   5.501   1.732
 5886SOL     OW18556   2.267   4.642   3.652
 5886SOL    HW118557   2.366   4.650   3.649
 5886SOL    HW218558   2.241   4.564   3.709
 5887SOL     OW18559   3.036   3.558   0.213
 5887SOL    HW118560   2.997   3.519   0.130
 5887SOL    HW218561   2.971   3.546   0.289
 5888SOL     OW18562   2.587   5.835   1.345
 5888SOL    HW118563   2.682   5.858   1.322
 5888SOL    HW218564   2.580   5.821   1.444
 5889SOL     OW18565   4.853   2.005   2.441
 5889SOL    HW118566   4.761   2.030   2.411
 5889SOL    HW218567   4.878   1.917   2.401
 5890SOL     OW18568   2.631   4.728   3.539
 5890SOL    HW118569   2.613   4.664   3.464
 5890SOL    HW218570   2.710   4.785   3.517
 5891SOL     OW18571   2.271   3.112   6.743
 5891SOL    HW118572   2.245   3.035   6.801
 5891SOL    HW218573   2.286   3.079   6.649
 5892SOL     OW18574   1.078   2.526   0.275
 5892SOL    HW118575   1.129   2.547   0.358
 5892SOL    HW218576   0.982   2.509   0.298
 5893SOL     OW18577   0.746   6.044   1.581
 5893SOL    HW118578   0.760   5.945   1.584
 5893SOL    HW218579   0.652   6.064   1.556
 5894SOL     OW18580   2.671   5.347   6.716
 5894SOL    HW118581   2.640   5.276   6.652
 5894SOL    HW218582   2.755   5.388   6.682
 5895SOL     OW18583   6.222   3.519   3.922
 5895SOL    HW118584   6.267   3.444   3.874
 5895SOL    HW218585   6.203   3.491   4.016
 5896SOL     OW18586   5.753   2.551   1.694
 5896SOL    HW118587   5.751   2.458   1.657
 5896SOL    HW218588   5.796   2.613   1.629
 5897SOL     OW18589   3.471   2.826   0.485
 5897SOL    HW118590   3.427   2.739   0.462
 5897SOL    HW218591   3.549   2.841   0.425
 5898SOL     OW18592   3.064   1.082   6.906
 5898SOL    HW118593   3.011   0.998   6.913
 5898SOL    HW218594   3.159   1.063   6.932
 5899SOL     OW18595   0.362   6.799   6.942
 5899SOL    HW118596   0.314   6.712   6.954
 5899SOL    HW218597   0.431   6.790   6.870
 5900SOL     OW18598   5.687   6.615   2.475
 5900SOL    HW118599   5.603   6.661   2.447
 5900SOL    HW218600   5.764   6.652   2.423
 5901SOL     OW18601   2.044   0.744   4.983
 5901SOL    HW118602   2.090   0.831   4.966
 5901SOL    HW218603   1.959   0.740   4.929
 5902SOL     OW18604   3.855   3.992   6.030
 5902SOL    HW118605   3.865   4.008   5.931
 5902SOL    HW218606   3.784   4.051   6.066
 5903SOL     OW18607   6.399   2.174   4.930
 5903SOL    HW118608   6.392   2.225   5.016
 5903SOL    HW218609   6.332   2.100   4.929
 5904SOL     OW18610   6.813   4.875   2.000
 5904SOL    HW118611   6.796   4.787   1.954
 5904SOL    HW218612   6.726   4.923   2.012
 5905SOL     OW18613   6.797   2.545   4.760
 5905SOL    HW118614   6.707   2.506   4.779
 5905SOL    HW218615   6.798   2.640   4.790
 5906SOL     OW18616   4.667   1.016   5.634
 5906SOL    HW118617   4.744   1.043   5.577
 5906SOL    HW218618   4.622   0.936   5.594
 5907SOL     OW18619   0.986   3.368   6.287
 5907SOL    HW118620   1.045   3.311   6.231
 5907SOL    HW218621   0.906   3.396   6.233
 5908SOL     OW18622   4.483   3.731   6.705
 5908SOL    HW118623   4.536   3.795   6.759
 5908SOL    HW218624   4.511   3.736   6.609
 5909SOL     OW18625   5.922   5.591   3.716
 5909SOL    HW118626   6.008   5.545   3.738
 5909SOL    HW218627   5.866   5.597   3.799
 5910SOL     OW18628   2.803   4.522   1.436
 5910SOL    HW118629   2.864   4.572   1.497
 5910SOL    HW218630   2.761   4.446   1.485
 5911SOL     OW18631   6.086   0.478   5.837
 5911SOL    HW118632   6.111   0.403   5.898
 5911SOL    HW218633   6.163   0.499   5.777
 5912SOL     OW18634   0.722   3.408   5.873
 5912SOL    HW118635   0.821   3.392   5.867
 5912SOL    HW218636   0.675   3.348   5.809
 5913SOL     OW18637   2.047   2.424   4.279
 5913SOL    HW118638   1.993   2.456   4.201
 5913SOL    HW218639   2.138   2.466   4.276
 5914SOL     OW18640   1.178   5.622   0.431
 5914SOL    HW118641   1.095   5.570   0.450
 5914SOL    HW218642   1.166   5.717   0.461
 5915SOL     OW18643   5.764   3.886   3.839
 5915SOL    HW118644   5.740   3.804   3.789
 5915SOL    HW218645   5.768   3.866   3.937
 5916SOL     OW18646   3.379   0.750   6.811
 5916SOL    HW118647   3.432   0.666   6.822
 5916SOL    HW218648   3.288   0.728   6.775
 5917SOL     OW18649   3.940   3.956   2.239
 5917SOL    HW118650   3.979   4.024   2.301
 5917SOL    HW218651   3.966   3.864   2.270
 5918SOL     OW18652   2.815   2.294   4.262
 5918SOL    HW118653   2.910   2.287   4.233
 5918SOL    HW218654   2.795   2.223   4.329
 5919SOL     OW18655   1.877   2.000   6.746
 5919SOL    HW118656   1.876   1.997   6.846
 5919SOL    HW218657   1.892   2.094   6.716
 5920SOL     OW18658   2.996   5.134   6.957
 5920SOL    HW118659   2.904   5.147   6.994
 5920SOL    HW218660   3.020   5.212   6.900
 5921SOL     OW18661   3.950   5.556   5.000
 5921SOL    HW118662   3.973   5.627   4.933
 5921SOL    HW218663   3.895   5.596   5.073
 5922SOL     OW18664   6.295   5.226   1.957
 5922SOL    HW118665   6.305   5.152   1.890
 5922SOL    HW218666   6.386   5.261   1.980
 5923SOL     OW18667   0.725   1.152   2.976
 5923SOL    HW118668   0.808   1.205   2.958
 5923SOL    HW218669   0.714   1.139   3.075
 5924SOL     OW18670   5.724   1.739   4.574
 5924SOL    HW118671   5.713   1.813   4.509
 5924SOL    HW218672   5.818   1.738   4.608
 5925SOL     OW18673   6.679   5.724   0.661
 5925SOL    HW118674   6.699   5.781   0.581
 5925SOL    HW218675   6.673   5.782   0.742
 5926SOL     OW18676   3.520   6.173   1.992
 5926SOL    HW118677   3.527   6.195   2.089
 5926SOL    HW218678   3.588   6.226   1.941
 5927SOL     OW18679   2.075   4.972   1.525
 5927SOL    HW118680   2.003   5.025   1.481
 5927SOL    HW218681   2.160   5.026   1.527
 5928SOL     OW18682   0.737   6.018   0.791
 5928SOL    HW118683   0.774   6.028   0.699
 5928SOL    HW218684   0.786   6.077   0.854
 5929SOL     OW18685   0.519   6.637   5.690
 5929SOL    HW118686   0.589   6.581   5.646
 5929SOL    HW218687   0.471   6.690   5.621
 5930SOL     OW18688   5.872   1.264   5.290
 5930SOL    HW118689   5.889   1.363   5.287
 5930SOL    HW218690   5.925   1.219   5.219
 5931SOL     OW18691   5.288   5.208   0.799
 5931SOL    HW118692   5.198   5.235   0.765
 5931SOL    HW218693   5.284   5.197   0.898
 5932SOL     OW18694   2.348   0.182   6.992
 5932SOL    HW118695   2.445   0.205   6.982
 5932SOL    HW218696   2.306   0.241   0.046
 5933SOL     OW18697   5.974   3.061   2.991
 5933SOL    HW118698   6.028   3.053   2.908
 5933SOL    HW218699   6.035   3.072   3.070
 5934SOL     OW18700   4.162   3.362   2.368
 5934SOL    HW118701   4.217   3.282   2.396
 5934SOL    HW218702   4.154   3.425   2.445
 5935SOL     OW18703   3.607   2.889   3.257
 5935SOL    HW118704   3.644   2.982   3.265
 5935SOL    HW218705   3.643   2.845   3.175
 5936SOL     OW18706   6.841   5.969   6.934
 5936SOL    HW118707   6.801   6.043   6.879
 5936SOL    HW218708   6.783   5.888   6.926
 5937SOL     OW18709   0.901   4.235   0.125
 5937SOL    HW118710   0.926   4.332   0.131
 5937SOL    HW218711   0.811   4.221   0.168
 5938SOL     OW18712   2.708   4.589   0.357
 5938SOL    HW118713   2.616   4.617   0.329
 5938SOL    HW218714   2.775   4.649   0.315
 5939SOL     OW18715   1.301   0.748   2.209
 5939SOL    HW118716   1.314   0.695   2.293
 5939SOL    HW218717   1.288   0.844   2.233
 5940SOL     OW18718   3.794   4.889   3.475
 5940SOL    HW118719   3.695   4.876   3.468
 5940SOL    HW218720   3.835   4.878   3.384
 5941SOL     OW18721   6.173   2.564   3.442
 5941SOL    HW118722   6.116   2.594   3.518
 5941SOL    HW218723   6.219   2.643   3.401
 5942SOL     OW18724   6.668   1.043   4.673
 5942SOL    HW118725   6.695   0.957   4.716
 5942SOL    HW218726   6.749   1.101   4.661
 5943SOL     OW18727   1.637   5.464   0.852
 5943SOL    HW118728   1.573   5.394   0.820
 5943SOL    HW218729   1.689   5.500   0.774
 5944SOL     OW18730   5.716   2.517   2.536
 5944SOL    HW118731   5.643   2.513   2.468
 5944SOL    HW218732   5.676   2.527   2.627
 5945SOL     OW18733   6.808   5.623   6.495
 5945SOL    HW118734   6.841   5.574   6.576
 5945SOL    HW218735   6.722   5.669   6.516
 5946SOL     OW18736   3.707   2.794   5.244
 5946SOL    HW118737   3.691   2.698   5.265
 5946SOL    HW218738   3.624   2.833   5.204
 5947SOL     OW18739   4.910   4.052   2.290
 5947SOL    HW118740   4.881   3.961   2.261
 5947SOL    HW218741   4.830   4.111   2.300
 5948SOL     OW18742   3.574   5.149   3.104
 5948SOL    HW118743   3.517   5.214   3.154
 5948SOL    HW218744   3.621   5.197   3.029
 5949SOL     OW18745   4.590   4.719   3.320
 5949SOL    HW118746   4.670   4.693   3.375
 5949SOL    HW218747   4.514   4.659   3.342
 5950SOL     OW18748   6.405   2.510   4.522
 5950SOL    HW118749   6.416   2.447   4.599
 5950SOL    HW218750   6.376   2.600   4.556
 5951SOL     OW18751   1.986   0.440   4.279
 5951SOL    HW118752   1.991   0.538   4.295
 5951SOL    HW218753   2.074   0.407   4.243
 5952SOL     OW18754   0.456   5.904   4.922
 5952SOL    HW118755   0.511   5.823   4.946
 5952SOL    HW218756   0.491   5.943   4.837
 5953SOL     OW18757   0.501   3.284   6.189
 5953SOL    HW118758   0.455   3.334   6.115
 5953SOL    HW218759   0.598   3.307   6.189
 5954SOL     OW18760   1.542   4.699   6.365
 5954SOL    HW118761   1.501   4.692   6.456
 5954SOL    HW218762   1.487   4.647   6.299
 5955SOL     OW18763   4.606   5.101   2.789
 5955SOL    HW118764   4.660   5.023   2.821
 5955SOL    HW218765   4.641   5.185   2.830
 5956SOL     OW18766   0.103   2.153   0.250
 5956SOL    HW118767   0.042   2.204   0.190
 5956SOL    HW218768   0.050   2.093   0.309
 5957SOL     OW18769   4.277   6.924   5.695
 5957SOL    HW118770   4.351   6.877   5.647
 5957SOL    HW218771   4.195   6.866   5.696
 5958SOL     OW18772   0.974   5.105   2.544
 5958SOL    HW118773   0.983   5.173   2.471
 5958SOL    HW218774   0.902   5.134   2.607
 5959SOL     OW18775   1.645   1.092   6.468
 5959SOL    HW118776   1.678   1.000   6.447
 5959SOL    HW218777   1.545   1.089   6.480
 5960SOL     OW18778   3.578   6.357   5.626
 5960SOL    HW118779   3.588   6.280   5.562
 5960SOL    HW218780   3.532   6.325   5.709
 5961SOL     OW18781   2.572   1.138   5.430
 5961SOL    HW118782   2.623   1.109   5.511
 5961SOL    HW218783   2.498   1.200   5.459
 5962SOL     OW18784   5.385   4.120   1.919
 5962SOL    HW118785   5.435   4.040   1.951
 5962SOL    HW218786   5.434   4.162   1.842
 5963SOL     OW18787   4.118   4.210   1.647
 5963SOL    HW118788   4.106   4.224   1.549
 5963SOL    HW218789   4.191   4.144   1.663
 5964SOL     OW18790   1.290   3.586   5.856
 5964SOL    HW118791   1.349   3.522   5.808
 5964SOL    HW218792   1.335   3.675   5.863
 5965SOL     OW18793   2.174   1.918   3.913
 5965SOL    HW118794   2.128   1.928   3.825
 5965SOL    HW218795   2.208   2.007   3.943
 5966SOL     OW18796   1.686   5.673   4.454
 5966SOL    HW118797   1.627   5.597   4.482
 5966SOL    HW218798   1.632   5.757   4.449
 5967SOL     OW18799   4.627   5.641   2.082
 5967SOL    HW118800   4.551   5.672   2.025
 5967SOL    HW218801   4.679   5.721   2.114
 5968SOL     OW18802   0.636   1.468   4.071
 5968SOL    HW118803   0.552   1.487   4.121
 5968SOL    HW218804   0.714   1.503   4.123
 5969SOL     OW18805   6.264   1.836   2.775
 5969SOL    HW118806   6.353   1.792   2.759
 5969SOL    HW218807   6.277   1.919   2.829
 5970SOL     OW18808   2.141   3.626   3.698
 5970SOL    HW118809   2.085   3.708   3.687
 5970SOL    HW218810   2.197   3.634   3.780
 5971SOL     OW18811   3.246   5.879   3.341
 5971SOL    HW118812   3.160   5.930   3.333
 5971SOL    HW218813   3.304   5.898   3.261
 5972SOL     OW18814   5.638   0.677   1.622
 5972SOL    HW118815   5.699   0.611   1.667
 5972SOL    HW218816   5.674   0.700   1.532
 5973SOL     OW18817   2.129   4.426   3.232
 5973SOL    HW118818   2.200   4.497   3.235
 5973SOL    HW218819   2.112   4.400   3.137
 5974SOL     OW18820   0.971   4.068   6.473
 5974SOL    HW118821   0.923   4.032   6.394
 5974SOL    HW218822   1.008   3.993   6.528
 5975SOL     OW18823   2.234   2.393   5.957
 5975SOL    HW118824   2.315   2.361   6.006
 5975SOL    HW218825   2.259   2.468   5.895
 5976SOL     OW18826   3.532   3.090   4.847
 5976SOL    HW118827   3.457   3.064   4.909
 5976SOL    HW218828   3.619   3.064   4.888
 5977SOL     OW18829   0.625   3.567   3.062
 5977SOL    HW118830   0.655   3.490   3.007
 5977SOL    HW218831   0.693   3.587   3.133
 5978SOL     OW18832   4.746   5.414   2.210
 5978SOL    HW118833   4.696   5.493   2.175
 5978SOL    HW218834   4.758   5.347   2.136
 5979SOL     OW18835   0.802   1.256   1.691
 5979SOL    HW118836   0.809   1.225   1.786
 5979SOL    HW218837   0.851   1.192   1.632
 5980SOL     OW18838   5.527   2.953   5.843
 5980SOL    HW118839   5.463   3.011   5.793
 5980SOL    HW218840   5.550   2.996   5.930
 5981SOL     OW18841   3.621   2.055   0.565
 5981SOL    HW118842   3.620   2.153   0.583
 5981SOL    HW218843   3.527   2.021   0.561
 5982SOL     OW18844   6.234   2.488   6.935
 5982SOL    HW118845   6.157   2.548   6.959
 5982SOL    HW218846   6.312   2.509   6.994
 5983SOL     OW18847   1.098   0.617   4.987
 5983SOL    HW118848   1.110   0.714   4.967
 5983SOL    HW218849   1.102   0.603   5.086
 5984SOL     OW18850   0.715   0.180   6.087
 5984SOL    HW118851   0.659   0.178   6.170
 5984SOL    HW218852   0.657   0.204   6.009
 5985SOL     OW18853   5.793   3.512   3.982
 5985SOL    HW118854   5.863   3.507   4.054
 5985SOL    HW218855   5.704   3.526   4.024
 5986SOL     OW18856   2.940   3.608   2.825
 5986SOL    HW118857   2.986   3.695   2.805
 5986SOL    HW218858   2.907   3.567   2.740
 5987SOL     OW18859   4.602   0.244   5.794
 5987SOL    HW118860   4.660   0.181   5.742
 5987SOL    HW218861   4.651   0.331   5.807
 5988SOL     OW18862   3.704   0.034   5.808
 5988SOL    HW118863   3.673   6.972   5.752
 5988SOL    HW218864   3.657   0.033   5.896
 5989SOL     OW18865   2.984   1.499   0.075
 5989SOL    HW118866   2.986   1.460   6.998
 5989SOL    HW218867   3.074   1.538   0.097
 5990SOL     OW18868   3.753   5.203   2.895
 5990SOL    HW118869   3.833   5.151   2.925
 5990SOL    HW218870   3.680   5.140   2.868
 5991SOL     OW18871   3.275   4.989   3.255
 5991SOL    HW118872   3.301   5.085   3.262
 5991SOL    HW218873   3.334   4.934   3.315
 5992SOL     OW18874   4.385   2.059   3.938
 5992SOL    HW118875   4.470   2.009   3.953
 5992SOL    HW218876   4.354   2.043   3.844
 5993SOL     OW18877   2.464   5.367   3.764
 5993SOL    HW118878   2.472   5.399   3.670
 5993SOL    HW218879   2.382   5.310   3.773
 5994SOL     OW18880   5.919   2.248   0.934
 5994SOL    HW118881   5.865   2.332   0.935
 5994SOL    HW218882   5.990   2.255   0.864
 5995SOL     OW18883   0.744   3.982   1.433
 5995SOL    HW118884   0.756   3.979   1.532
 5995SOL    HW218885   0.673   4.049   1.410
 5996SOL     OW18886   1.395   5.795   6.136
 5996SOL    HW118887   1.470   5.819   6.198
 5996SOL    HW218888   1.395   5.697   6.121
 5997SOL     OW18889   0.082   0.837   1.379
 5997SOL    HW118890   0.171   0.881   1.391
 5997SOL    HW218891   0.078   0.794   1.288
 5998SOL     OW18892   4.912   2.706   3.268
 5998SOL    HW118893   4.947   2.789   3.310
 5998SOL    HW218894   4.881   2.726   3.175
 5999SOL     OW18895   2.182   2.596   3.134
 5999SOL    HW118896   2.151   2.690   3.121
 5999SOL    HW218897   2.107   2.540   3.168
 6000SOL     OW18898   4.948   0.856   3.619
 6000SOL    HW118899   4.861   0.821   3.583
 6000SOL    HW218900   4.937   0.952   3.643
 6001SOL     OW18901   6.556   1.489   0.519
 6001SOL    HW118902   6.512   1.578   0.505
 6001SOL    HW218903   6.505   1.438   0.588
 6002SOL     OW18904   1.682   7.012   2.308
 6002SOL    HW118905   1.688   0.087   2.265
 6002SOL    HW218906   1.599   6.966   2.278
 6003SOL     OW18907   5.084   4.338   4.093
 6003SOL    HW118908   5.094   4.261   4.030
 6003SOL    HW218909   5.095   4.305   4.187
 6004SOL     OW18910   6.974   3.474   1.729
 6004SOL    HW118911   6.930   3.406   1.670
 6004SOL    HW218912   6.910   3.505   1.798
 6005SOL     OW18913   1.656   6.189   2.105
 6005SOL    HW118914   1.589   6.263   2.102
 6005SOL    HW218915   1.687   6.176   2.199
 6006SOL     OW18916   2.994   5.595   7.009
 6006SOL    HW118917   2.977   5.519   6.945
 6006SOL    HW218918   2.986   5.562   0.088
 6007SOL     OW18919   5.415   3.465   4.477
 6007SOL    HW118920   5.363   3.441   4.559
 6007SOL    HW218921   5.463   3.551   4.492
 6008SOL     OW18922   4.811   4.079   1.560
 6008SOL    HW118923   4.769   4.164   1.592
 6008SOL    HW218924   4.807   4.011   1.633
 6009SOL     OW18925   4.795   1.749   5.140
 6009SOL    HW118926   4.737   1.711   5.067
 6009SOL    HW218927   4.890   1.723   5.125
 6010SOL     OW18928   2.079   4.345   2.972
 6010SOL    HW118929   1.981   4.360   2.960
 6010SOL    HW218930   2.115   4.297   2.892
 6011SOL     OW18931   6.356   1.958   1.684
 6011SOL    HW118932   6.309   1.873   1.663
 6011SOL    HW218933   6.422   1.978   1.612
 6012SOL     OW18934   0.495   2.998   1.661
 6012SOL    HW118935   0.585   2.978   1.623
 6012SOL    HW218936   0.444   2.913   1.672
 6013SOL     OW18937   5.524   0.104   2.869
 6013SOL    HW118938   5.476   0.100   2.781
 6013SOL    HW218939   5.466   0.067   2.941
 6014SOL     OW18940   6.233   0.594   1.182
 6014SOL    HW118941   6.273   0.505   1.204
 6014SOL    HW218942   6.234   0.608   1.083
 6015SOL     OW18943   5.686   0.254   4.058
 6015SOL    HW118944   5.609   0.274   3.998
 6015SOL    HW218945   5.760   0.212   4.005
 6016SOL     OW18946   2.208   0.172   5.354
 6016SOL    HW118947   2.234   0.268   5.344
 6016SOL    HW218948   2.221   0.124   5.268
 6017SOL     OW18949   0.387   3.917   2.667
 6017SOL    HW118950   0.289   3.934   2.666
 6017SOL    HW218951   0.415   3.874   2.581
 6018SOL     OW18952   2.737   5.023   1.381
 6018SOL    HW118953   2.733   4.961   1.459
 6018SOL    HW218954   2.832   5.041   1.357
 6019SOL     OW18955   6.526   6.275   3.243
 6019SOL    HW118956   6.494   6.313   3.156
 6019SOL    HW218957   6.470   6.196   3.268
 6020SOL     OW18958   1.977   6.642   2.802
 6020SOL    HW118959   1.985   6.726   2.747
 6020SOL    HW218960   2.045   6.645   2.876
 6021SOL     OW18961   4.044   0.483   3.583
 6021SOL    HW118962   3.960   0.479   3.637
 6021SOL    HW218963   4.032   0.429   3.499
 6022SOL     OW18964   4.122   0.914   5.167
 6022SOL    HW118965   4.214   0.951   5.154
 6022SOL    HW218966   4.125   0.815   5.157
 6023SOL     OW18967   0.079   2.220   2.243
 6023SOL    HW118968   0.161   2.265   2.276
 6023SOL    HW218969   0.101   2.127   2.214
 6024SOL     OW18970   6.460   5.873   3.033
 6024SOL    HW118971   6.426   5.837   3.120
 6024SOL    HW218972   6.404   5.838   2.958
 6025SOL     OW18973   4.127   2.268   2.546
 6025SOL    HW118974   4.120   2.235   2.452
 6025SOL    HW218975   4.038   2.264   2.590
 6026SOL     OW18976   0.566   4.308   5.481
 6026SOL    HW118977   0.590   4.211   5.480
 6026SOL    HW218978   0.627   4.357   5.544
 6027SOL     OW18979   4.015   3.652   0.520
 6027SOL    HW118980   3.916   3.640   0.514
 6027SOL    HW218981   4.036   3.723   0.587
 6028SOL     OW18982   0.930   4.510   0.158
 6028SOL    HW118983   0.933   4.604   0.123
 6028SOL    HW218984   0.849   4.499   0.216
 6029SOL     OW18985   1.156   5.347   1.759
 6029SOL    HW118986   1.179   5.302   1.673
 6029SOL    HW218987   1.065   5.388   1.751
 6030SOL     OW18988   2.030   6.558   1.651
 6030SOL    HW118989   1.971   6.478   1.641
 6030SOL    HW218990   2.030   6.588   1.746
 6031SOL     OW18991   4.868   1.196   4.370
 6031SOL    HW118992   4.920   1.228   4.449
 6031SOL    HW218993   4.794   1.135   4.402
 6032SOL     OW18994   0.457   3.262   2.175
 6032SOL    HW118995   0.373   3.227   2.216
 6032SOL    HW218996   0.534   3.241   2.235
 6033SOL     OW18997   0.434   0.017   4.519
 6033SOL    HW118998   0.513   0.078   4.509
 6033SOL    HW218999   0.453   6.945   4.472
 6034SOL     OW19000   2.330   4.422   4.840
 6034SOL    HW119001   2.381   4.400   4.923
 6034SOL    HW219002   2.318   4.339   4.785
 6035SOL     OW19003   5.445   0.106   3.678
 6035SOL    HW119004   5.376   0.112   3.749
 6035SOL    HW219005   5.409   0.145   3.593
 6036SOL     OW19006   6.770   0.563   4.850
 6036SOL    HW119007   6.845   0.561   4.784
 6036SOL    HW219008   6.683   0.553   4.803
 6037SOL     OW19009   0.427   5.660   4.702
 6037SOL    HW119010   0.410   5.654   4.800
 6037SOL    HW219011   0.408   5.754   4.671
 6038SOL     OW19012   6.402   4.118   6.735
 6038SOL    HW119013   6.498   4.095   6.722
 6038SOL    HW219014   6.395   4.203   6.788
 6039SOL     OW19015   4.017   3.343   4.586
 6039SOL    HW119016   4.038   3.323   4.490
 6039SOL    HW219017   4.057   3.272   4.644
 6040SOL     OW19018   1.202   0.939   1.341
 6040SOL    HW119019   1.191   1.001   1.263
 6040SOL    HW219020   1.252   0.857   1.312
 6041SOL     OW19021   0.689   2.771   0.345
 6041SOL    HW119022   0.645   2.853   0.383
 6041SOL    HW219023   0.743   2.797   0.265
 6042SOL     OW19024   5.059   5.573   5.121
 6042SOL    HW119025   5.146   5.554   5.075
 6042SOL    HW219026   5.051   5.516   5.202
 6043SOL     OW19027   0.314   4.254   4.188
 6043SOL    HW119028   0.229   4.205   4.210
 6043SOL    HW219029   0.310   4.285   4.093
 6044SOL     OW19030   1.768   0.400   1.604
 6044SOL    HW119031   1.727   0.309   1.616
 6044SOL    HW219032   1.807   0.406   1.512
 6045SOL     OW19033   6.575   3.900   0.455
 6045SOL    HW119034   6.541   3.811   0.425
 6045SOL    HW219035   6.636   3.888   0.534
 6046SOL     OW19036   1.954   3.851   0.293
 6046SOL    HW119037   1.926   3.766   0.247
 6046SOL    HW219038   2.043   3.879   0.259
 6047SOL     OW19039   0.740   6.176   4.897
 6047SOL    HW119040   0.817   6.118   4.925
 6047SOL    HW219041   0.740   6.259   4.953
 6048SOL     OW19042   4.220   6.052   4.498
 6048SOL    HW119043   4.132   6.099   4.507
 6048SOL    HW219044   4.264   6.082   4.414
 6049SOL     OW19045   6.764   5.356   0.146
 6049SOL    HW119046   6.725   5.295   0.215
 6049SOL    HW219047   6.806   5.435   0.191
 6050SOL     OW19048   5.312   4.646   5.328
 6050SOL    HW119049   5.282   4.586   5.254
 6050SOL    HW219050   5.372   4.595   5.390
 6051SOL     OW19051   3.401   2.130   3.783
 6051SOL    HW119052   3.441   2.113   3.693
 6051SOL    HW219053   3.309   2.167   3.772
 6052SOL     OW19054   6.954   1.275   0.285
 6052SOL    HW119055   6.947   1.232   0.375
 6052SOL    HW219056   6.921   1.212   0.215
 6053SOL     OW19057   1.567   0.485   6.196
 6053SOL    HW119058   1.476   0.526   6.196
 6053SOL    HW219059   1.559   0.385   6.197
 6054SOL     OW19060   1.455   4.115   6.479
 6054SOL    HW119061   1.516   4.194   6.482
 6054SOL    HW219062   1.507   4.032   6.460
 6055SOL     OW19063   5.667   0.118   3.223
 6055SOL    HW119064   5.725   0.043   3.191
 6055SOL    HW219065   5.724   0.192   3.258
 6056SOL     OW19066   5.559   3.445   6.350
 6056SOL    HW119067   5.541   3.358   6.303
 6056SOL    HW219068   5.479   3.469   6.405
 6057SOL     OW19069   3.908   0.852   6.239
 6057SOL    HW119070   4.000   0.813   6.244
 6057SOL    HW219071   3.886   0.898   6.325
 6058SOL     OW19072   5.517   1.622   4.705
 6058SOL    HW119073   5.604   1.648   4.663
 6058SOL    HW219074   5.526   1.624   4.805
 6059SOL     OW19075   0.031   6.102   6.448
 6059SOL    HW119076   0.048   6.083   6.544
 6059SOL    HW219077   0.016   6.200   6.435
 6060SOL     OW19078   3.382   6.131   6.477
 6060SOL    HW119079   3.393   6.045   6.428
 6060SOL    HW219080   3.309   6.185   6.434
 6061SOL     OW19081   1.947   1.659   0.150
 6061SOL    HW119082   2.025   1.706   0.191
 6061SOL    HW219083   1.887   1.625   0.223
 6062SOL     OW19084   1.275   0.073   4.162
 6062SOL    HW119085   1.203   0.144   4.167
 6062SOL    HW219086   1.364   0.117   4.171
 6063SOL     OW19087   5.754   5.938   7.009
 6063SOL    HW119088   5.658   5.930   0.018
 6063SOL    HW219089   5.807   5.963   0.076
 6064SOL     OW19090   1.150   4.782   2.644
 6064SOL    HW119091   1.127   4.832   2.561
 6064SOL    HW219092   1.067   4.769   2.699
 6065SOL     OW19093   5.705   6.921   1.787
 6065SOL    HW119094   5.705   6.848   1.718
 6065SOL    HW219095   5.741   6.885   1.873
 6066SOL     OW19096   4.074   1.521   5.995
 6066SOL    HW119097   3.983   1.486   5.971
 6066SOL    HW219098   4.142   1.483   5.932
 6067SOL     OW19099   5.052   2.344   6.889
 6067SOL    HW119100   4.998   2.342   6.973
 6067SOL    HW219101   5.150   2.341   6.912
 6068SOL     OW19102   5.359   1.636   5.483
 6068SOL    HW119103   5.403   1.667   5.568
 6068SOL    HW219104   5.372   1.538   5.472
 6069SOL     OW19105   6.298   5.407   3.677
 6069SOL    HW119106   6.383   5.379   3.722
 6069SOL    HW219107   6.244   5.464   3.740
 6070SOL     OW19108   4.817   2.959   0.359
 6070SOL    HW119109   4.757   2.905   0.418
 6070SOL    HW219110   4.905   2.971   0.405
 6071SOL     OW19111   5.140   6.952   5.463
 6071SOL    HW119112   5.095   6.906   5.387
 6071SOL    HW219113   5.158   0.032   5.439
 6072SOL     OW19114   6.435   1.432   1.298
 6072SOL    HW119115   6.435   1.532   1.291
 6072SOL    HW219116   6.423   1.392   1.208
 6073SOL     OW19117   6.128   0.888   1.365
 6073SOL    HW119118   6.225   0.883   1.386
 6073SOL    HW219119   6.089   0.796   1.361
 6074SOL     OW19120   0.976   0.331   5.340
 6074SOL    HW119121   0.967   0.320   5.241
 6074SOL    HW219122   0.977   0.241   5.384
 6075SOL     OW19123   4.504   3.566   6.192
 6075SOL    HW119124   4.476   3.470   6.190
 6075SOL    HW219125   4.426   3.624   6.171
 6076SOL     OW19126   2.571   0.471   3.670
 6076SOL    HW119127   2.638   0.433   3.734
 6076SOL    HW219128   2.484   0.484   3.718
 6077SOL     OW19129   4.841   4.906   3.114
 6077SOL    HW119130   4.915   4.971   3.134
 6077SOL    HW219131   4.838   4.836   3.186
 6078SOL     OW19132   2.039   4.313   3.591
 6078SOL    HW119133   2.075   4.293   3.501
 6078SOL    HW219134   2.072   4.245   3.657
 6079SOL     OW19135   3.111   1.775   0.840
 6079SOL    HW119136   3.016   1.755   0.866
 6079SOL    HW219137   3.122   1.874   0.827
 6080SOL     OW19138   5.977   2.856   3.304
 6080SOL    HW119139   6.076   2.872   3.300
 6080SOL    HW219140   5.957   2.790   3.376
 6081SOL     OW19141   0.618   4.040   2.919
 6081SOL    HW119142   0.675   3.972   2.874
 6081SOL    HW219143   0.592   4.111   2.853
 6082SOL     OW19144   3.526   1.690   4.857
 6082SOL    HW119145   3.623   1.671   4.843
 6082SOL    HW219146   3.492   1.744   4.780
 6083SOL     OW19147   1.897   6.506   0.172
 6083SOL    HW119148   1.940   6.463   0.092
 6083SOL    HW219149   1.968   6.534   0.237
 6084SOL     OW19150   0.310   5.100   6.122
 6084SOL    HW119151   0.255   5.158   6.063
 6084SOL    HW219152   0.398   5.144   6.141
 6085SOL     OW19153   4.875   4.924   1.714
 6085SOL    HW119154   4.934   4.922   1.633
 6085SOL    HW219155   4.846   4.830   1.735
 6086SOL     OW19156   3.286   1.582   2.476
 6086SOL    HW119157   3.193   1.606   2.450
 6086SOL    HW219158   3.347   1.660   2.460
 6087SOL     OW19159   3.622   0.184   0.616
 6087SOL    HW119160   3.712   0.189   0.659
 6087SOL    HW219161   3.633   0.186   0.516
 6088SOL     OW19162   0.173   0.049   4.950
 6088SOL    HW119163   0.194   0.055   4.853
 6088SOL    HW219164   0.256   0.067   5.003
 6089SOL     OW19165   6.155   3.975   1.049
 6089SOL    HW119166   6.124   4.001   0.958
 6089SOL    HW219167   6.087   4.003   1.117
 6090SOL     OW19168   6.787   5.727   4.354
 6090SOL    HW119169   6.760   5.636   4.386
 6090SOL    HW219170   6.746   5.796   4.413
 6091SOL     OW19171   6.842   2.249   1.598
 6091SOL    HW119172   6.889   2.168   1.564
 6091SOL    HW219173   6.906   2.305   1.652
 6092SOL     OW19174   1.366   3.338   1.014
 6092SOL    HW119175   1.463   3.359   1.021
 6092SOL    HW219176   1.353   3.258   0.955
 6093SOL     OW19177   1.380   4.363   0.744
 6093SOL    HW119178   1.329   4.445   0.768
 6093SOL    HW219179   1.317   4.288   0.726
 6094SOL     OW19180   0.606   1.150   0.721
 6094SOL    HW119181   0.614   1.070   0.662
 6094SOL    HW219182   0.555   1.221   0.674
 6095SOL     OW19183   6.290   4.018   5.246
 6095SOL    HW119184   6.280   4.006   5.148
 6095SOL    HW219185   6.340   4.103   5.265
 6096SOL     OW19186   4.941   2.270   2.882
 6096SOL    HW119187   4.899   2.193   2.834
 6096SOL    HW219188   4.959   2.344   2.817
 6097SOL     OW19189   3.089   2.122   2.708
 6097SOL    HW119190   3.027   2.058   2.662
 6097SOL    HW219191   3.150   2.163   2.641
 6098SOL     OW19192   1.070   0.304   6.669
 6098SOL    HW119193   1.065   0.209   6.700
 6098SOL    HW219194   1.150   0.348   6.709
 6099SOL     OW19195   5.870   4.451   4.818
 6099SOL    HW119196   5.943   4.456   4.750
 6099SOL    HW219197   5.785   4.424   4.774
 6100SOL     OW19198   0.040   2.872   0.086
 6100SOL    HW119199   6.996   2.903   0.161
 6100SOL    HW219200   0.003   2.790   0.045
 6101SOL     OW19201   6.483   6.842   3.406
 6101SOL    HW119202   6.388   6.872   3.396
 6101SOL    HW219203   6.542   6.896   3.346
 6102SOL     OW19204   2.693   6.856   5.007
 6102SOL    HW119205   2.739   6.768   5.013
 6102SOL    HW219206   2.700   6.892   4.914
 6103SOL     OW19207   5.482   1.674   5.076
 6103SOL    HW119208   5.512   1.742   5.008
 6103SOL    HW219209   5.453   1.722   5.159
 6104SOL     OW19210   1.544   2.996   1.179
 6104SOL    HW119211   1.524   3.016   1.083
 6104SOL    HW219212   1.541   3.080   1.233
 6105SOL     OW19213   2.989   5.042   4.883
 6105SOL    HW119214   2.954   5.124   4.927
 6105SOL    HW219215   2.914   4.978   4.865
 6106SOL     OW19216   2.346   4.851   4.376
 6106SOL    HW119217   2.283   4.909   4.428
 6106SOL    HW219218   2.389   4.786   4.438
 6107SOL     OW19219   2.489   5.353   5.905
 6107SOL    HW119220   2.449   5.281   5.850
 6107SOL    HW219221   2.459   5.344   6.000
 6108SOL     OW19222   5.298   1.916   4.640
 6108SOL    HW119223   5.270   1.820   4.643
 6108SOL    HW219224   5.225   1.970   4.599
 6109SOL     OW19225   6.873   3.920   1.730
 6109SOL    HW119226   6.836   3.832   1.760
 6109SOL    HW219227   6.837   3.942   1.640
 6110SOL     OW19228   3.308   2.026   3.379
 6110SOL    HW119229   3.287   1.934   3.345
 6110SOL    HW219230   3.399   2.027   3.420
 6111SOL     OW19231   0.361   4.490   3.747
 6111SOL    HW119232   0.438   4.528   3.798
 6111SOL    HW219233   0.396   4.437   3.669
 6112SOL     OW19234   1.513   2.006   1.050
 6112SOL    HW119235   1.558   2.003   1.140
 6112SOL    HW219236   1.576   1.975   0.980
 6113SOL     OW19237   1.837   4.725   5.110
 6113SOL    HW119238   1.799   4.746   5.200
 6113SOL    HW219239   1.844   4.626   5.100
 6114SOL     OW19240   4.560   4.350   0.729
 6114SOL    HW119241   4.596   4.266   0.690
 6114SOL    HW219242   4.468   4.333   0.766
 6115SOL     OW19243   6.304   4.944   1.841
 6115SOL    HW119244   6.308   4.944   1.741
 6115SOL    HW219245   6.323   4.852   1.875
 6116SOL     OW19246   3.438   2.536   1.213
 6116SOL    HW119247   3.511   2.593   1.249
 6116SOL    HW219248   3.448   2.443   1.249
 6117SOL     OW19249   5.603   6.329   3.916
 6117SOL    HW119250   5.511   6.326   3.877
 6117SOL    HW219251   5.606   6.395   3.990
 6118SOL     OW19252   6.820   0.079   3.008
 6118SOL    HW119253   6.887   0.083   3.082
 6118SOL    HW219254   6.759   0.001   3.023
 6119SOL     OW19255   5.227   5.748   4.515
 6119SOL    HW119256   5.267   5.818   4.456
 6119SOL    HW219257   5.210   5.787   4.605
 6120SOL     OW19258   2.298   1.813   3.276
 6120SOL    HW119259   2.294   1.896   3.332
 6120SOL    HW219260   2.324   1.836   3.183
 6121SOL     OW19261   6.701   1.903   4.605
 6121SOL    HW119262   6.686   1.806   4.626
 6121SOL    HW219263   6.794   1.929   4.631
 6122SOL     OW19264   3.622   6.020   4.430
 6122SOL    HW119265   3.590   6.102   4.382
 6122SOL    HW219266   3.720   6.028   4.448
 6123SOL     OW19267   5.750   1.391   2.652
 6123SOL    HW119268   5.726   1.460   2.583
 6123SOL    HW219269   5.672   1.376   2.712
 6124SOL     OW19270   2.966   0.443   4.788
 6124SOL    HW119271   2.912   0.392   4.856
 6124SOL    HW219272   2.917   0.527   4.765
 6125SOL     OW19273   1.185   4.462   2.132
 6125SOL    HW119274   1.215   4.481   2.226
 6125SOL    HW219275   1.099   4.412   2.134
 6126SOL     OW19276   3.635   6.086   2.596
 6126SOL    HW119277   3.578   6.156   2.641
 6126SOL    HW219278   3.699   6.131   2.534
 6127SOL     OW19279   1.751   5.435   2.001
 6127SOL    HW119280   1.842   5.396   2.014
 6127SOL    HW219281   1.756   5.535   2.007
 6128SOL     OW19282   5.133   3.703   1.257
 6128SOL    HW119283   5.155   3.792   1.219
 6128SOL    HW219284   5.082   3.714   1.343
 6129SOL     OW19285   6.288   3.789   3.406
 6129SOL    HW119286   6.224   3.856   3.370
 6129SOL    HW219287   6.367   3.837   3.447
 6130SOL     OW19288   5.617   3.526   2.711
 6130SOL    HW119289   5.632   3.429   2.692
 6130SOL    HW219290   5.617   3.541   2.810
 6131SOL     OW19291   6.594   0.713   5.172
 6131SOL    HW119292   6.646   0.750   5.248
 6131SOL    HW219293   6.560   0.622   5.195
 6132SOL     OW19294   0.020   2.617   0.736
 6132SOL    HW119295   0.099   2.677   0.751
 6132SOL    HW219296   0.027   2.575   0.646
 6133SOL     OW19297   1.343   4.855   0.391
 6133SOL    HW119298   1.357   4.940   0.442
 6133SOL    HW219299   1.431   4.811   0.375
 6134SOL     OW19300   4.644   4.201   6.797
 6134SOL    HW119301   4.675   4.238   6.710
 6134SOL    HW219302   4.679   4.108   6.809
 6135SOL     OW19303   5.963   6.690   2.836
 6135SOL    HW119304   5.889   6.755   2.818
 6135SOL    HW219305   6.011   6.669   2.751
 6136SOL     OW19306   1.566   1.675   2.412
 6136SOL    HW119307   1.476   1.689   2.371
 6136SOL    HW219308   1.572   1.727   2.497
 6137SOL     OW19309   3.442   0.382   6.579
 6137SOL    HW119310   3.413   0.478   6.573
 6137SOL    HW219311   3.448   0.355   6.675
 6138SOL     OW19312   5.140   0.692   2.811
 6138SOL    HW119313   5.203   0.716   2.886
 6138SOL    HW219314   5.053   0.661   2.849
 6139SOL     OW19315   2.979   6.143   3.549
 6139SOL    HW119316   3.021   6.073   3.608
 6139SOL    HW219317   3.046   6.214   3.530
 6140SOL     OW19318   2.233   5.597   1.248
 6140SOL    HW119319   2.214   5.521   1.186
 6140SOL    HW219320   2.332   5.608   1.258
 6141SOL     OW19321   0.468   5.856   5.310
 6141SOL    HW119322   0.499   5.940   5.266
 6141SOL    HW219323   0.521   5.779   5.276
 6142SOL     OW19324   0.364   3.905   3.467
 6142SOL    HW119325   0.333   3.972   3.535
 6142SOL    HW219326   0.327   3.930   3.377
 6143SOL     OW19327   6.184   4.799   6.428
 6143SOL    HW119328   6.219   4.874   6.371
 6143SOL    HW219329   6.224   4.805   6.519
 6144SOL     OW19330   0.328   5.391   4.286
 6144SOL    HW119331   0.289   5.307   4.323
 6144SOL    HW219332   0.384   5.436   4.355
 6145SOL     OW19333   5.693   5.328   3.268
 6145SOL    HW119334   5.686   5.427   3.262
 6145SOL    HW219335   5.765   5.303   3.333
 6146SOL     OW19336   5.723   1.943   3.760
 6146SOL    HW119337   5.731   1.947   3.860
 6146SOL    HW219338   5.691   2.031   3.726
 6147SOL     OW19339   1.265   3.771   3.643
 6147SOL    HW119340   1.194   3.702   3.655
 6147SOL    HW219341   1.238   3.855   3.691
 6148SOL     OW19342   6.255   5.957   2.669
 6148SOL    HW119343   6.247   5.947   2.768
 6148SOL    HW219344   6.175   5.917   2.625
 6149SOL     OW19345   1.258   5.516   4.926
 6149SOL    HW119346   1.270   5.461   4.843
 6149SOL    HW219347   1.347   5.551   4.955
 6150SOL     OW19348   4.248   6.679   5.877
 6150SOL    HW119349   4.236   6.642   5.784
 6150SOL    HW219350   4.303   6.763   5.872
 6151SOL     OW19351   4.770   0.054   5.686
 6151SOL    HW119352   4.820   7.004   5.743
 6151SOL    HW219353   4.810   0.056   5.595
 6152SOL     OW19354   6.491   4.244   5.552
 6152SOL    HW119355   6.429   4.255   5.630
 6152SOL    HW219356   6.583   4.221   5.585
 6153SOL     OW19357   3.928   5.268   5.861
 6153SOL    HW119358   4.007   5.276   5.799
 6153SOL    HW219359   3.854   5.220   5.815
 6154SOL     OW19360   5.312   3.210   3.209
 6154SOL    HW119361   5.268   3.299   3.222
 6154SOL    HW219362   5.261   3.157   3.142
 6155SOL     OW19363   2.513   4.588   4.393
 6155SOL    HW119364   2.543   4.496   4.367
 6155SOL    HW219365   2.454   4.582   4.474
 6156SOL     OW19366   5.623   0.351   4.820
 6156SOL    HW119367   5.717   0.329   4.793
 6156SOL    HW219368   5.575   0.394   4.743
 6157SOL     OW19369   0.882   1.450   4.504
 6157SOL    HW119370   0.806   1.506   4.536
 6157SOL    HW219371   0.967   1.481   4.547
 6158SOL     OW19372   5.582   6.758   6.678
 6158SOL    HW119373   5.612   6.826   6.744
 6158SOL    HW219374   5.483   6.764   6.666
 6159SOL     OW19375   4.878   3.123   6.731
 6159SOL    HW119376   4.781   3.134   6.712
 6159SOL    HW219377   4.931   3.160   6.655
 6160SOL     OW19378   6.500   4.709   0.011
 6160SOL    HW119379   6.530   4.616   0.029
 6160SOL    HW219380   6.575   4.762   6.986
 6161SOL     OW19381   6.163   0.091   6.254
 6161SOL    HW119382   6.162   0.030   6.175
 6161SOL    HW219383   6.213   0.047   6.329
 6162SOL     OW19384   5.178   5.485   4.127
 6162SOL    HW119385   5.124   5.404   4.148
 6162SOL    HW219386   5.245   5.501   4.199
 6163SOL     OW19387   6.703   3.918   2.847
 6163SOL    HW119388   6.642   3.991   2.878
 6163SOL    HW219389   6.741   3.870   2.926
 6164SOL     OW19390   4.430   3.184   1.310
 6164SOL    HW119391   4.364   3.131   1.363
 6164SOL    HW219392   4.478   3.247   1.370
 6165SOL     OW19393   4.070   0.302   1.207
 6165SOL    HW119394   4.069   0.402   1.202
 6165SOL    HW219395   4.164   0.269   1.205
 6166SOL     OW19396   3.613   0.705   0.414
 6166SOL    HW119397   3.655   0.776   0.358
 6166SOL    HW219398   3.619   0.732   0.511
 6167SOL     OW19399   6.824   5.286   3.512
 6167SOL    HW119400   6.860   5.218   3.448
 6167SOL    HW219401   6.754   5.243   3.569
 6168SOL     OW19402   0.017   3.166   1.149
 6168SOL    HW119403   0.090   3.118   1.100
 6168SOL    HW219404   6.946   3.152   1.101
 6169SOL     OW19405   1.905   3.954   1.157
 6169SOL    HW119406   1.940   4.020   1.223
 6169SOL    HW219407   1.956   3.868   1.166
 6170SOL     OW19408   6.340   1.958   3.249
 6170SOL    HW119409   6.398   1.899   3.305
 6170SOL    HW219410   6.282   2.014   3.308
 6171SOL     OW19411   6.135   1.782   6.110
 6171SOL    HW119412   6.074   1.846   6.157
 6171SOL    HW219413   6.167   1.713   6.174
 6172SOL     OW19414   0.317   4.739   3.621
 6172SOL    HW119415   0.416   4.754   3.615
 6172SOL    HW219416   0.299   4.650   3.661
 6173SOL     OW19417   5.489   6.362   3.061
 6173SOL    HW119418   5.440   6.449   3.069
 6173SOL    HW219419   5.455   6.298   3.130
 6174SOL     OW19420   6.883   2.294   3.487
 6174SOL    HW119421   6.964   2.353   3.483
 6174SOL    HW219422   6.822   2.325   3.560
 6175SOL     OW19423   3.990   1.630   0.100
 6175SOL    HW119424   3.956   1.723   0.087
 6175SOL    HW219425   4.041   1.601   0.020
 6176SOL     OW19426   2.654   4.401   6.078
 6176SOL    HW119427   2.634   4.406   5.980
 6176SOL    HW219428   2.693   4.488   6.109
 6177SOL     OW19429   5.697   5.141   1.821
 6177SOL    HW119430   5.771   5.106   1.878
 6177SOL    HW219431   5.624   5.175   1.879
 6178SOL     OW19432   4.078   4.655   1.817
 6178SOL    HW119433   4.132   4.579   1.780
 6178SOL    HW219434   3.984   4.647   1.785
 6179SOL     OW19435   5.279   5.501   4.932
 6179SOL    HW119436   5.347   5.428   4.939
 6179SOL    HW219437   5.245   5.507   4.839
 6180SOL     OW19438   2.119   3.819   6.862
 6180SOL    HW119439   2.170   3.791   6.781
 6180SOL    HW219440   2.174   3.884   6.915
 6181SOL     OW19441   6.738   6.251   6.824
 6181SOL    HW119442   6.696   6.334   6.862
 6181SOL    HW219443   6.678   6.211   6.755
 6182SOL     OW19444   3.049   2.273   6.521
 6182SOL    HW119445   3.017   2.324   6.601
 6182SOL    HW219446   3.139   2.305   6.495
 6183SOL     OW19447   0.381   0.523   0.220
 6183SOL    HW119448   0.392   0.518   0.319
 6183SOL    HW219449   0.435   0.451   0.177
 6184SOL     OW19450   3.316   6.711   5.481
 6184SOL    HW119451   3.244   6.752   5.425
 6184SOL    HW219452   3.321   6.761   5.568
 6185SOL     OW19453   3.836   3.132   4.219
 6185SOL    HW119454   3.784   3.081   4.150
 6185SOL    HW219455   3.803   3.107   4.310
 6186SOL     OW19456   0.904   2.097   2.207
 6186SOL    HW119457   0.868   2.151   2.283
 6186SOL    HW219458   0.934   2.159   2.134
 6187SOL     OW19459   3.395   1.977   5.930
 6187SOL    HW119460   3.351   1.913   5.993
 6187SOL    HW219461   3.490   1.990   5.957
 6188SOL     OW19462   1.543   1.797   5.549
 6188SOL    HW119463   1.600   1.815   5.629
 6188SOL    HW219464   1.556   1.703   5.519
 6189SOL     OW19465   6.641   5.496   0.422
 6189SOL    HW119466   6.635   5.405   0.464
 6189SOL    HW219467   6.714   5.548   0.467
 6190SOL     OW19468   0.757   2.966   3.637
 6190SOL    HW119469   0.749   2.956   3.537
 6190SOL    HW219470   0.788   3.059   3.658
 6191SOL     OW19471   2.866   4.392   0.283
 6191SOL    HW119472   2.901   4.316   0.338
 6191SOL    HW219473   2.805   4.448   0.339
 6192SOL     OW19474   3.367   1.563   1.276
 6192SOL    HW119475   3.327   1.576   1.185
 6192SOL    HW219476   3.304   1.597   1.345
 6193SOL     OW19477   4.200   5.812   6.611
 6193SOL    HW119478   4.284   5.806   6.664
 6193SOL    HW219479   4.122   5.826   6.673
 6194SOL     OW19480   5.057   0.179   5.788
 6194SOL    HW119481   5.154   0.181   5.764
 6194SOL    HW219482   5.002   0.196   5.706
 6195SOL     OW19483   4.453   5.771   5.442
 6195SOL    HW119484   4.384   5.764   5.370
 6195SOL    HW219485   4.544   5.761   5.401
 6196SOL     OW19486   6.704   3.766   3.306
 6196SOL    HW119487   6.726   3.836   3.374
 6196SOL    HW219488   6.767   3.690   3.315
 6197SOL     OW19489   0.974   5.461   0.742
 6197SOL    HW119490   1.072   5.478   0.746
 6197SOL    HW219491   0.933   5.481   0.831
 6198SOL     OW19492   6.302   1.388   6.280
 6198SOL    HW119493   6.344   1.460   6.225
 6198SOL    HW219494   6.364   1.310   6.287
 6199SOL     OW19495   2.731   0.099   6.344
 6199SOL    HW119496   2.747   0.030   6.274
 6199SOL    HW219497   2.738   0.190   6.304
 6200SOL     OW19498   1.794   6.911   0.307
 6200SOL    HW119499   1.795   6.883   0.403
 6200SOL    HW219500   1.716   6.867   0.261
 6201SOL     OW19501   0.612   4.793   3.588
 6201SOL    HW119502   0.598   4.885   3.551
 6201SOL    HW219503   0.648   4.800   3.682
 6202SOL     OW19504   5.606   1.175   2.069
 6202SOL    HW119505   5.684   1.236   2.053
 6202SOL    HW219506   5.584   1.176   2.167
 6203SOL     OW19507   6.622   1.177   2.649
 6203SOL    HW119508   6.540   1.125   2.671
 6203SOL    HW219509   6.597   1.266   2.611
 6204SOL     OW19510   1.036   6.073   4.710
 6204SOL    HW119511   1.010   6.017   4.788
 6204SOL    HW219512   1.040   6.016   4.627
 6205SOL     OW19513   6.261   4.452   3.241
 6205SOL    HW119514   6.260   4.440   3.142
 6205SOL    HW219515   6.283   4.546   3.264
 6206SOL     OW19516   4.791   1.972   3.287
 6206SOL    HW119517   4.889   1.991   3.297
 6206SOL    HW219518   4.765   1.898   3.349
 6207SOL     OW19519   1.745   6.095   3.386
 6207SOL    HW119520   1.723   6.116   3.291
 6207SOL    HW219521   1.684   6.145   3.446
 6208SOL     OW19522   3.556   4.337   6.323
 6208SOL    HW119523   3.485   4.326   6.393
 6208SOL    HW219524   3.588   4.432   6.322
 6209SOL     OW19525   3.652   1.199   2.240
 6209SOL    HW119526   3.635   1.290   2.279
 6209SOL    HW219527   3.685   1.209   2.146
 6210SOL     OW19528   5.681   1.312   4.094
 6210SOL    HW119529   5.602   1.287   4.039
 6210SOL    HW219530   5.754   1.347   4.035
 6211SOL     OW19531   5.419   2.769   5.209
 6211SOL    HW119532   5.518   2.769   5.194
 6211SOL    HW219533   5.383   2.677   5.191
 6212SOL     OW19534   5.497   4.145   4.790
 6212SOL    HW119535   5.586   4.160   4.747
 6212SOL    HW219536   5.503   4.067   4.852
 6213SOL     OW19537   5.078   6.066   0.193
 6213SOL    HW119538   5.159   6.119   0.216
 6213SOL    HW219539   5.104   5.970   0.179
 6214SOL     OW19540   6.729   6.909   6.119
 6214SOL    HW119541   6.813   6.859   6.096
 6214SOL    HW219542   6.745   6.964   6.201
 6215SOL     OW19543   5.966   1.963   4.651
 6215SOL    HW119544   5.885   2.000   4.606
 6215SOL    HW219545   5.973   1.865   4.631
 6216SOL     OW19546   5.580   2.522   5.313
 6216SOL    HW119547   5.505   2.502   5.377
 6216SOL    HW219548   5.568   2.467   5.230
 6217SOL     OW19549   6.778   4.051   2.540
 6217SOL    HW119550   6.742   4.103   2.463
 6217SOL    HW219551   6.765   3.953   2.522
 6218SOL     OW19552   4.813   6.593   1.120
 6218SOL    HW119553   4.820   6.622   1.216
 6218SOL    HW219554   4.763   6.662   1.068
 6219SOL     OW19555   2.554   0.727   0.376
 6219SOL    HW119556   2.627   0.707   0.441
 6219SOL    HW219557   2.491   0.649   0.371
 6220SOL     OW19558   3.479   0.400   2.339
 6220SOL    HW119559   3.451   0.310   2.303
 6220SOL    HW219560   3.405   0.466   2.324
 6221SOL     OW19561   4.377   5.490   5.110
 6221SOL    HW119562   4.345   5.568   5.056
 6221SOL    HW219563   4.305   5.462   5.174
 6222SOL     OW19564   6.137   1.846   2.232
 6222SOL    HW119565   6.083   1.804   2.305
 6222SOL    HW219566   6.227   1.802   2.227
 6223SOL     OW19567   6.585   5.141   4.302
 6223SOL    HW119568   6.491   5.139   4.335
 6223SOL    HW219569   6.631   5.223   4.338
 6224SOL     OW19570   4.293   6.688   0.144
 6224SOL    HW119571   4.386   6.699   0.179
 6224SOL    HW219572   4.294   6.636   0.059
 6225SOL     OW19573   5.165   6.189   6.702
 6225SOL    HW119574   5.225   6.195   6.782
 6225SOL    HW219575   5.181   6.268   6.643
 6226SOL     OW19576   0.900   1.060   4.073
 6226SOL    HW119577   0.937   1.152   4.062
 6226SOL    HW219578   0.970   0.993   4.051
 6227SOL     OW19579   2.184   4.401   6.314
 6227SOL    HW119580   2.118   4.337   6.275
 6227SOL    HW219581   2.158   4.495   6.291
 6228SOL     OW19582   0.442   3.215   3.902
 6228SOL    HW119583   0.345   3.213   3.927
 6228SOL    HW219584   0.498   3.200   3.983
 6229SOL     OW19585   7.000   4.142   4.897
 6229SOL    HW119586   0.069   4.138   4.843
 6229SOL    HW219587   7.009   4.080   4.975
 6230SOL     OW19588   0.831   0.972   1.593
 6230SOL    HW119589   0.750   0.927   1.555
 6230SOL    HW219590   0.841   0.947   1.689
 6231SOL     OW19591   2.225   5.578   5.786
 6231SOL    HW119592   2.149   5.513   5.792
 6231SOL    HW219593   2.192   5.664   5.747
 6232SOL     OW19594   4.279   0.195   6.601
 6232SOL    HW119595   4.239   0.286   6.598
 6232SOL    HW219596   4.207   0.127   6.617
 6233SOL     OW19597   6.895   4.298   1.592
 6233SOL    HW119598   6.815   4.357   1.605
 6233SOL    HW219599   6.978   4.352   1.599
 6234SOL     OW19600   4.732   5.755   3.599
 6234SOL    HW119601   4.715   5.717   3.690
 6234SOL    HW219602   4.817   5.717   3.563
 6235SOL     OW19603   6.965   0.471   1.839
 6235SOL    HW119604   0.034   0.525   1.837
 6235SOL    HW219605   6.887   0.533   1.852
 6236SOL     OW19606   6.736   6.106   1.397
 6236SOL    HW119607   6.686   6.191   1.413
 6236SOL    HW219608   6.675   6.028   1.412
 6237SOL     OW19609   4.394   1.280   2.773
 6237SOL    HW119610   4.351   1.250   2.857
 6237SOL    HW219611   4.376   1.378   2.759
 6238SOL     OW19612   2.792   0.695   3.712
 6238SOL    HW119613   2.706   0.742   3.693
 6238SOL    HW219614   2.774   0.600   3.739
 6239SOL     OW19615   3.893   1.435   3.930
 6239SOL    HW119616   3.951   1.362   3.893
 6239SOL    HW219617   3.939   1.523   3.915
 6240SOL     OW19618   4.154   3.417   4.084
 6240SOL    HW119619   4.092   3.424   4.006
 6240SOL    HW219620   4.247   3.404   4.052
 6241SOL     OW19621   3.874   6.912   3.307
 6241SOL    HW119622   3.812   6.947   3.378
 6241SOL    HW219623   3.965   6.950   3.321
 6242SOL     OW19624   3.226   2.122   4.585
 6242SOL    HW119625   3.192   2.169   4.666
 6242SOL    HW219626   3.320   2.090   4.602
 6243SOL     OW19627   3.658   1.263   0.346
 6243SOL    HW119628   3.746   1.246   0.302
 6243SOL    HW219629   3.628   1.180   0.393
 6244SOL     OW19630   4.415   2.466   2.292
 6244SOL    HW119631   4.441   2.546   2.347
 6244SOL    HW219632   4.405   2.492   2.196
 6245SOL     OW19633   6.816   4.642   1.842
 6245SOL    HW119634   6.817   4.664   1.745
 6245SOL    HW219635   6.899   4.590   1.865
 6246SOL     OW19636   0.709   5.791   4.937
 6246SOL    HW119637   0.773   5.867   4.947
 6246SOL    HW219638   0.745   5.725   4.871
 6247SOL     OW19639   5.475   5.148   2.856
 6247SOL    HW119640   5.539   5.085   2.811
 6247SOL    HW219641   5.517   5.185   2.939
 6248SOL     OW19642   4.752   2.954   5.597
 6248SOL    HW119643   4.699   3.009   5.533
 6248SOL    HW219644   4.753   2.999   5.686
 6249SOL     OW19645   5.584   2.729   3.271
 6249SOL    HW119646   5.504   2.740   3.211
 6249SOL    HW219647   5.667   2.732   3.215
 6250SOL     OW19648   5.301   0.435   5.850
 6250SOL    HW119649   5.218   0.466   5.804
 6250SOL    HW219650   5.319   0.339   5.826
 6251SOL     OW19651   2.765   0.982   4.438
 6251SOL    HW119652   2.842   0.969   4.376
 6251SOL    HW219653   2.740   0.894   4.480
 6252SOL     OW19654   3.354   5.018   0.596
 6252SOL    HW119655   3.271   5.033   0.649
 6252SOL    HW219656   3.333   5.025   0.498
 6253SOL     OW19657   5.287   6.389   3.491
 6253SOL    HW119658   5.213   6.442   3.450
 6253SOL    HW219659   5.374   6.434   3.473
 6254SOL     OW19660   0.225   0.063   1.677
 6254SOL    HW119661   0.131   0.045   1.706
 6254SOL    HW219662   0.287   0.008   1.733
 6255SOL     OW19663   2.035   0.639   1.002
 6255SOL    HW119664   2.065   0.645   0.907
 6255SOL    HW219665   1.966   0.567   1.010
 6256SOL     OW19666   6.388   5.047   2.300
 6256SOL    HW119667   6.460   4.983   2.277
 6256SOL    HW219668   6.322   5.052   2.224
 6257SOL     OW19669   3.821   4.088   0.703
 6257SOL    HW119670   3.907   4.070   0.655
 6257SOL    HW219671   3.814   4.027   0.782
 6258SOL     OW19672   3.904   4.892   4.867
 6258SOL    HW119673   3.885   4.858   4.959
 6258SOL    HW219674   4.001   4.916   4.860
 6259SOL     OW19675   4.377   1.468   4.973
 6259SOL    HW119676   4.373   1.493   5.070
 6259SOL    HW219677   4.299   1.409   4.952
 6260SOL     OW19678   3.683   2.187   0.197
 6260SOL    HW119679   3.618   2.113   0.180
 6260SOL    HW219680   3.634   2.266   0.235
 6261SOL     OW19681   4.128   6.847   0.879
 6261SOL    HW119682   4.120   6.824   0.976
 6261SOL    HW219683   4.178   6.774   0.832
 6262SOL     OW19684   6.313   0.920   2.970
 6262SOL    HW119685   6.343   0.873   3.054
 6262SOL    HW219686   6.392   0.932   2.909
 6263SOL     OW19687   6.287   5.797   6.353
 6263SOL    HW119688   6.245   5.878   6.393
 6263SOL    HW219689   6.318   5.736   6.425
 6264SOL     OW19690   0.916   6.203   0.957
 6264SOL    HW119691   1.013   6.213   0.983
 6264SOL    HW219692   0.863   6.179   1.038
 6265SOL     OW19693   3.707   6.706   6.645
 6265SOL    HW119694   3.667   6.685   6.556
 6265SOL    HW219695   3.727   6.804   6.650
 6266SOL     OW19696   3.143   5.093   2.844
 6266SOL    HW119697   3.124   5.120   2.750
 6266SOL    HW219698   3.118   4.997   2.857
 6267SOL     OW19699   0.335   6.326   4.517
 6267SOL    HW119700   0.279   6.406   4.538
 6267SOL    HW219701   0.277   6.244   4.514
 6268SOL     OW19702   3.284   1.273   1.621
 6268SOL    HW119703   3.201   1.222   1.642
 6268SOL    HW219704   3.315   1.249   1.528
 6269SOL     OW19705   0.027   6.338   0.350
 6269SOL    HW119706   0.054   6.303   0.260
 6269SOL    HW219707   6.995   6.426   0.339
 6270SOL     OW19708   1.095   6.507   0.849
 6270SOL    HW119709   1.154   6.479   0.925
 6270SOL    HW219710   1.013   6.551   0.885
 6271SOL     OW19711   6.759   3.401   5.400
 6271SOL    HW119712   6.718   3.327   5.454
 6271SOL    HW219713   6.691   3.440   5.339
 6272SOL     OW19714   0.946   1.151   0.341
 6272SOL    HW119715   0.930   1.199   0.428
 6272SOL    HW219716   0.986   1.061   0.360
 6273SOL     OW19717   0.904   6.604   3.020
 6273SOL    HW119718   0.986   6.550   3.038
 6273SOL    HW219719   0.828   6.542   2.999
 6274SOL     OW19720   2.913   5.756   3.992
 6274SOL    HW119721   2.946   5.733   4.083
 6274SOL    HW219722   2.893   5.672   3.941
 6275SOL     OW19723   2.745   5.395   1.109
 6275SOL    HW119724   2.744   5.390   1.209
 6275SOL    HW219725   2.657   5.363   1.074
 6276SOL     OW19726   1.862   5.298   2.804
 6276SOL    HW119727   1.833   5.206   2.827
 6276SOL    HW219728   1.909   5.339   2.882
 6277SOL     OW19729   4.443   2.837   1.696
 6277SOL    HW119730   4.414   2.931   1.677
 6277SOL    HW219731   4.488   2.833   1.785
 6278SOL     OW19732   3.098   2.884   0.285
 6278SOL    HW119733   3.135   2.958   0.342
 6278SOL    HW219734   3.027   2.835   0.335
 6279SOL     OW19735   1.729   6.506   2.121
 6279SOL    HW119736   1.724   6.605   2.110
 6279SOL    HW219737   1.823   6.479   2.141
 6280SOL     OW19738   5.142   1.036   7.014
 6280SOL    HW119739   5.097   1.077   6.935
 6280SOL    HW219740   5.139   1.099   0.076
 6281SOL     OW19741   5.508   4.179   5.439
 6281SOL    HW119742   5.413   4.188   5.411
 6281SOL    HW219743   5.524   4.234   5.521
 6282SOL     OW19744   0.528   3.605   5.525
 6282SOL    HW119745   0.445   3.655   5.499
 6282SOL    HW219746   0.595   3.611   5.451
 6283SOL     OW19747   2.435   0.548   4.466
 6283SOL    HW119748   2.402   0.574   4.375
 6283SOL    HW219749   2.526   0.506   4.458
 6284SOL     OW19750   1.782   3.887   6.442
 6284SOL    HW119751   1.792   3.986   6.443
 6284SOL    HW219752   1.688   3.863   6.469
 6285SOL     OW19753   1.491   4.117   3.323
 6285SOL    HW119754   1.579   4.159   3.345
 6285SOL    HW219755   1.481   4.031   3.373
 6286SOL     OW19756   0.891   3.076   6.783
 6286SOL    HW119757   0.921   3.139   6.854
 6286SOL    HW219758   0.935   3.099   6.696
 6287SOL     OW19759   4.558   5.137   4.381
 6287SOL    HW119760   4.519   5.228   4.397
 6287SOL    HW219761   4.491   5.080   4.333
 6288SOL     OW19762   3.166   3.470   5.494
 6288SOL    HW119763   3.212   3.557   5.507
 6288SOL    HW219764   3.068   3.480   5.513
 6289SOL     OW19765   2.578   4.652   5.097
 6289SOL    HW119766   2.574   4.653   5.197
 6289SOL    HW219767   2.669   4.622   5.067
 6290SOL     OW19768   6.605   6.606   2.973
 6290SOL    HW119769   6.552   6.608   2.888
 6290SOL    HW219770   6.596   6.516   3.016
 6291SOL     OW19771   3.010   3.334   2.394
 6291SOL    HW119772   3.100   3.300   2.423
 6291SOL    HW219773   3.022   3.400   2.320
 6292SOL     OW19774   1.224   4.060   4.966
 6292SOL    HW119775   1.308   4.114   4.958
 6292SOL    HW219776   1.145   4.122   4.965
 6293SOL     OW19777   3.124   1.199   0.606
 6293SOL    HW119778   3.152   1.198   0.510
 6293SOL    HW219779   3.088   1.109   0.630
 6294SOL     OW19780   2.211   0.597   2.324
 6294SOL    HW119781   2.175   0.641   2.406
 6294SOL    HW219782   2.230   0.501   2.343
 6295SOL     OW19783   4.453   2.697   5.842
 6295SOL    HW119784   4.467   2.629   5.913
 6295SOL    HW219785   4.495   2.666   5.757
 6296SOL     OW19786   0.220   2.557   0.342
 6296SOL    HW119787   0.305   2.604   0.366
 6296SOL    HW219788   0.235   2.500   0.261
 6297SOL     OW19789   6.539   0.992   4.147
 6297SOL    HW119790   6.638   0.993   4.163
 6297SOL    HW219791   6.497   1.068   4.196
 6298SOL     OW19792   6.877   0.243   6.709
 6298SOL    HW119793   6.795   0.282   6.752
 6298SOL    HW219794   6.872   0.258   6.610
 6299SOL     OW19795   3.377   1.915   3.941
 6299SOL    HW119796   3.359   2.008   3.909
 6299SOL    HW219797   3.352   1.850   3.869
 6300SOL     OW19798   2.421   1.930   1.351
 6300SOL    HW119799   2.381   1.885   1.431
 6300SOL    HW219800   2.483   2.003   1.381
 6301SOL     OW19801   4.378   6.433   0.779
 6301SOL    HW119802   4.353   6.512   0.723
 6301SOL    HW219803   4.305   6.365   0.775
 6302SOL     OW19804   1.433   3.531   0.189
 6302SOL    HW119805   1.497   3.594   0.232
 6302SOL    HW219806   1.421   3.451   0.247
 6303SOL     OW19807   6.648   5.199   4.622
 6303SOL    HW119808   6.681   5.105   4.613
 6303SOL    HW219809   6.548   5.200   4.618
 6304SOL     OW19810   2.464   1.891   4.027
 6304SOL    HW119811   2.393   1.936   4.081
 6304SOL    HW219812   2.457   1.918   3.932
 6305SOL     OW19813   0.282   5.563   5.456
 6305SOL    HW119814   0.359   5.509   5.491
 6305SOL    HW219815   0.260   5.635   5.521
 6306SOL     OW19816   0.815   4.293   4.278
 6306SOL    HW119817   0.886   4.230   4.248
 6306SOL    HW219818   0.757   4.318   4.200
 6307SOL     OW19819   3.121   3.587   3.142
 6307SOL    HW119820   3.026   3.555   3.144
 6307SOL    HW219821   3.170   3.552   3.222
 6308SOL     OW19822   0.897   1.596   1.232
 6308SOL    HW119823   0.962   1.611   1.158
 6308SOL    HW219824   0.881   1.682   1.281
 6309SOL     OW19825   1.949   5.262   5.147
 6309SOL    HW119826   1.985   5.341   5.098
 6309SOL    HW219827   1.958   5.277   5.246
 6310SOL     OW19828   0.642   6.949   3.114
 6310SOL    HW119829   0.628   6.877   3.045
 6310SOL    HW219830   0.664   0.020   3.068
 6311SOL     OW19831   6.551   1.115   6.200
 6311SOL    HW119832   6.480   1.046   6.209
 6311SOL    HW219833   6.632   1.085   6.250
 6312SOL     OW19834   3.608   5.759   1.031
 6312SOL    HW119835   3.569   5.772   1.123
 6312SOL    HW219836   3.665   5.838   1.008
 6313SOL     OW19837   5.236   4.901   2.876
 6313SOL    HW119838   5.239   4.833   2.948
 6313SOL    HW219839   5.289   4.981   2.903
 6314SOL     OW19840   1.873   6.597   3.783
 6314SOL    HW119841   1.924   6.683   3.775
 6314SOL    HW219842   1.876   6.549   3.696
 6315SOL     OW19843   2.014   2.374   3.291
 6315SOL    HW119844   1.927   2.388   3.243
 6315SOL    HW219845   2.054   2.288   3.262
 6316SOL     OW19846   4.054   0.504   5.060
 6316SOL    HW119847   4.019   0.418   5.023
 6316SOL    HW219848   4.077   0.491   5.156
 6317SOL     OW19849   4.522   4.467   2.895
 6317SOL    HW119850   4.493   4.428   2.982
 6317SOL    HW219851   4.536   4.565   2.905
 6318SOL     OW19852   6.119   6.988   0.072
 6318SOL    HW119853   6.157   0.049   0.125
 6318SOL    HW219854   6.026   7.009   0.045
 6319SOL     OW19855   4.975   2.650   4.569
 6319SOL    HW119856   4.985   2.640   4.668
 6319SOL    HW219857   4.879   2.639   4.545
 6320SOL     OW19858   6.181   1.805   6.450
 6320SOL    HW119859   6.134   1.726   6.410
 6320SOL    HW219860   6.275   1.808   6.416
 6321SOL     OW19861   0.945   3.854   0.430
 6321SOL    HW119862   0.845   3.853   0.424
 6321SOL    HW219863   0.980   3.761   0.427
 6322SOL     OW19864   2.126   1.504   2.634
 6322SOL    HW119865   2.104   1.586   2.581
 6322SOL    HW219866   2.085   1.424   2.589
 6323SOL     OW19867   2.068   5.911   1.052
 6323SOL    HW119868   2.059   5.835   0.987
 6323SOL    HW219869   2.123   5.984   1.010
 6324SOL     OW19870   4.972   3.685   1.016
 6324SOL    HW119871   5.023   3.666   1.100
 6324SOL    HW219872   4.929   3.601   0.983
 6325SOL     OW19873   1.037   3.241   4.170
 6325SOL    HW119874   1.062   3.171   4.103
 6325SOL    HW219875   1.093   3.323   4.155
 6326SOL     OW19876   4.645   5.380   5.119
 6326SOL    HW119877   4.668   5.355   5.025
 6326SOL    HW219878   4.555   5.425   5.121
 6327SOL     OW19879   0.777   0.839   2.275
 6327SOL    HW119880   0.716   0.760   2.284
 6327SOL    HW219881   0.724   0.920   2.253
 6328SOL     OW19882   4.114   3.857   5.174
 6328SOL    HW119883   4.017   3.872   5.188
 6328SOL    HW219884   4.156   3.938   5.134
 6329SOL     OW19885   6.798   2.977   4.970
 6329SOL    HW119886   6.822   3.035   5.048
 6329SOL    HW219887   6.875   2.917   4.948
 6330SOL     OW19888   4.231   1.987   3.727
 6330SOL    HW119889   4.249   1.964   3.631
 6330SOL    HW219890   4.170   1.918   3.767
 6331SOL     OW19891   1.864   3.672   3.723
 6331SOL    HW119892   1.819   3.717   3.800
 6331SOL    HW219893   1.830   3.712   3.637
 6332SOL     OW19894   4.282   1.509   0.036
 6332SOL    HW119895   4.223   1.537   6.976
 6332SOL    HW219896   4.244   1.541   0.123
 6333SOL     OW19897   5.831   0.929   0.348
 6333SOL    HW119898   5.870   0.956   0.260
 6333SOL    HW219899   5.770   0.851   0.334
 6334SOL     OW19900   2.009   1.304   1.964
 6334SOL    HW119901   1.925   1.253   1.980
 6334SOL    HW219902   2.085   1.240   1.950
 6335SOL     OW19903   6.089   2.846   5.420
 6335SOL    HW119904   5.991   2.827   5.416
 6335SOL    HW219905   6.118   2.854   5.515
 6336SOL     OW19906   0.585   4.824   5.869
 6336SOL    HW119907   0.667   4.815   5.812
 6336SOL    HW219908   0.590   4.909   5.921
 6337SOL     OW19909   6.043   6.727   5.229
 6337SOL    HW119910   6.119   6.744   5.291
 6337SOL    HW219911   6.068   6.655   5.164
 6338SOL     OW19912   0.696   0.287   2.326
 6338SOL    HW119913   0.795   0.283   2.333
 6338SOL    HW219914   0.668   0.379   2.298
 6339SOL     OW19915   0.326   3.933   2.980
 6339SOL    HW119916   0.421   3.962   2.991
 6339SOL    HW219917   0.306   3.922   2.882
 6340SOL     OW19918   2.598   5.552   6.487
 6340SOL    HW119919   2.625   5.648   6.480
 6340SOL    HW219920   2.580   5.530   6.583
 6341SOL     OW19921   0.284   4.384   2.537
 6341SOL    HW119922   0.279   4.326   2.619
 6341SOL    HW219923   0.203   4.442   2.533
 6342SOL     OW19924   2.239   0.587   1.826
 6342SOL    HW119925   2.168   0.523   1.796
 6342SOL    HW219926   2.218   0.679   1.793
 6343SOL     OW19927   1.793   4.901   6.781
 6343SOL    HW119928   1.805   4.849   6.696
 6343SOL    HW219929   1.829   4.849   6.858
 6344SOL     OW19930   1.189   1.159   4.184
 6344SOL    HW119931   1.152   1.069   4.209
 6344SOL    HW219932   1.237   1.152   4.097
 6345SOL     OW19933   6.979   3.076   3.100
 6345SOL    HW119934   6.883   3.058   3.081
 6345SOL    HW219935   6.998   3.173   3.090
 6346SOL     OW19936   0.720   4.646   4.376
 6346SOL    HW119937   0.622   4.658   4.363
 6346SOL    HW219938   0.765   4.632   4.288
 6347SOL     OW19939   1.794   2.334   3.514
 6347SOL    HW119940   1.857   2.339   3.436
 6347SOL    HW219941   1.700   2.333   3.480
 6348SOL     OW19942   1.372   2.832   0.160
 6348SOL    HW119943   1.370   2.902   0.089
 6348SOL    HW219944   1.388   2.742   0.118
 6349SOL     OW19945   6.341   1.500   0.853
 6349SOL    HW119946   6.310   1.458   0.938
 6349SOL    HW219947   6.362   1.428   0.786
 6350SOL     OW19948   0.722   6.089   1.259
 6350SOL    HW119949   0.801   6.050   1.306
 6350SOL    HW219950   0.645   6.097   1.323
 6351SOL     OW19951   6.373   2.416   1.931
 6351SOL    HW119952   6.468   2.414   1.962
 6351SOL    HW219953   6.364   2.359   1.849
 6352SOL     OW19954   4.338   0.621   4.503
 6352SOL    HW119955   4.290   0.600   4.588
 6352SOL    HW219956   4.408   0.551   4.486
 6353SOL     OW19957   3.774   6.420   5.792
 6353SOL    HW119958   3.754   6.369   5.875
 6353SOL    HW219959   3.706   6.399   5.722
 6354SOL     OW19960   5.617   4.819   2.325
 6354SOL    HW119961   5.592   4.915   2.335
 6354SOL    HW219962   5.710   4.805   2.357
 6355SOL     OW19963   5.500   6.015   0.077
 6355SOL    HW119964   5.532   6.106   0.101
 6355SOL    HW219965   5.408   6.021   0.038
 6356SOL     OW19966   0.652   6.554   6.215
 6356SOL    HW119967   0.725   6.547   6.284
 6356SOL    HW219968   0.641   6.650   6.188
 6357SOL     OW19969   4.876   2.049   2.731
 6357SOL    HW119970   4.882   2.025   2.634
 6357SOL    HW219971   4.799   2.001   2.773
 6358SOL     OW19972   1.436   1.634   4.636
 6358SOL    HW119973   1.391   1.590   4.714
 6358SOL    HW219974   1.529   1.596   4.627
 6359SOL     OW19975   5.846   4.683   0.679
 6359SOL    HW119976   5.849   4.592   0.639
 6359SOL    HW219977   5.863   4.752   0.609
 6360SOL     OW19978   2.565   2.715   0.857
 6360SOL    HW119979   2.522   2.752   0.939
 6360SOL    HW219980   2.555   2.615   0.856
 6361SOL     OW19981   0.445   2.388   2.722
 6361SOL    HW119982   0.383   2.310   2.715
 6361SOL    HW219983   0.540   2.355   2.718
 6362SOL     OW19984   2.081   5.166   0.489
 6362SOL    HW119985   2.179   5.147   0.489
 6362SOL    HW219986   2.054   5.204   0.400
 6363SOL     OW19987   0.717   2.422   1.884
 6363SOL    HW119988   0.668   2.423   1.971
 6363SOL    HW219989   0.660   2.465   1.814
 6364SOL     OW19990   2.467   1.289   4.533
 6364SOL    HW119991   2.439   1.214   4.473
 6364SOL    HW219992   2.504   1.364   4.477
 6365SOL     OW19993   6.723   6.734   2.200
 6365SOL    HW119994   6.759   6.796   2.270
 6365SOL    HW219995   6.790   6.661   2.183
 6366SOL     OW19996   5.773   1.477   4.891
 6366SOL    HW119997   5.705   1.416   4.931
 6366SOL    HW219998   5.768   1.473   4.791
 6367SOL     OW19999   1.183   2.823   4.571
 6367SOL    HW120000   1.242   2.899   4.543
 6367SOL    HW220001   1.238   2.741   4.585
 6368SOL     OW20002   4.890   3.295   4.852
 6368SOL    HW120003   4.918   3.366   4.916
 6368SOL    HW220004   4.917   3.205   4.887
 6369SOL     OW20005   3.210   4.413   1.041
 6369SOL    HW120006   3.283   4.347   1.058
 6369SOL    HW220007   3.138   4.400   1.110
 6370SOL     OW20008   6.032   3.884   4.592
 6370SOL    HW120009   6.118   3.872   4.643
 6370SOL    HW220010   6.038   3.966   4.535
 6371SOL     OW20011   6.011   4.331   1.010
 6371SOL    HW120012   5.979   4.426   1.002
 6371SOL    HW220013   6.091   4.318   0.951
 6372SOL     OW20014   6.550   1.108   1.251
 6372SOL    HW120015   6.558   1.188   1.309
 6372SOL    HW220016   6.633   1.097   1.196
 6373SOL     OW20017   5.214   2.013   1.279
 6373SOL    HW120018   5.280   1.944   1.249
 6373SOL    HW220019   5.248   2.104   1.257
 6374SOL     OW20020   4.022   3.135   6.689
 6374SOL    HW120021   3.992   3.042   6.668
 6374SOL    HW220022   3.959   3.201   6.649
 6375SOL     OW20023   5.264   1.124   2.246
 6375SOL    HW120024   5.361   1.148   2.241
 6375SOL    HW220025   5.254   1.026   2.231
 6376SOL     OW20026   2.754   6.640   0.841
 6376SOL    HW120027   2.790   6.550   0.865
 6376SOL    HW220028   2.655   6.633   0.826
 6377SOL     OW20029   0.177   0.627   0.061
 6377SOL    HW120030   0.172   0.722   0.092
 6377SOL    HW220031   0.244   0.577   0.116
 6378SOL     OW20032   5.870   4.039   3.212
 6378SOL    HW120033   5.912   4.086   3.290
 6378SOL    HW220034   5.930   4.050   3.132
 6379SOL     OW20035   3.025   5.380   6.848
 6379SOL    HW120036   2.996   5.410   6.757
 6379SOL    HW220037   3.122   5.403   6.861
 6380SOL     OW20038   2.257   2.893   4.804
 6380SOL    HW120039   2.259   2.793   4.803
 6380SOL    HW220040   2.298   2.927   4.889
 6381SOL     OW20041   3.139   3.989   0.860
 6381SOL    HW120042   3.223   4.031   0.895
 6381SOL    HW220043   3.107   4.040   0.780
 6382SOL     OW20044   2.201   1.010   1.293
 6382SOL    HW120045   2.295   1.007   1.326
 6382SOL    HW220046   2.138   0.988   1.368
 6383SOL     OW20047   2.708   1.990   2.562
 6383SOL    HW120048   2.779   1.920   2.562
 6383SOL    HW220049   2.678   2.008   2.469
 6384SOL     OW20050   6.652   1.843   2.555
 6384SOL    HW120051   6.728   1.832   2.491
 6384SOL    HW220052   6.566   1.821   2.509
 6385SOL     OW20053   6.989   3.822   1.431
 6385SOL    HW120054   0.059   3.871   1.449
 6385SOL    HW220055   6.912   3.886   1.439
 6386SOL     OW20056   3.034   4.074   0.235
 6386SOL    HW120057   3.103   4.026   0.289
 6386SOL    HW220058   2.962   4.109   0.296
 6387SOL     OW20059   6.455   1.074   5.903
 6387SOL    HW120060   6.361   1.084   5.937
 6387SOL    HW220061   6.519   1.097   5.975
 6388SOL     OW20062   6.043   5.124   1.626
 6388SOL    HW120063   6.107   5.052   1.596
 6388SOL    HW220064   6.008   5.102   1.717
 6389SOL     OW20065   6.606   6.541   0.667
 6389SOL    HW120066   6.643   6.629   0.639
 6389SOL    HW220067   6.672   6.469   0.646
 6390SOL     OW20068   5.042   6.596   6.602
 6390SOL    HW120069   5.020   6.620   6.508
 6390SOL    HW220070   4.966   6.621   6.661
 6391SOL     OW20071   1.796   2.312   5.150
 6391SOL    HW120072   1.700   2.318   5.120
 6391SOL    HW220073   1.835   2.404   5.151
 6392SOL     OW20074   5.142   6.563   3.932
 6392SOL    HW120075   5.056   6.523   3.963
 6392SOL    HW220076   5.214   6.493   3.932
 6393SOL     OW20077   2.591   5.303   0.309
 6393SOL    HW120078   2.501   5.266   0.286
 6393SOL    HW220079   2.605   5.389   0.259
 6394SOL     OW20080   1.439   5.461   1.793
 6394SOL    HW120081   1.371   5.392   1.770
 6394SOL    HW220082   1.519   5.417   1.833
 6395SOL     OW20083   1.263   3.893   5.161
 6395SOL    HW120084   1.236   3.911   5.255
 6395SOL    HW220085   1.212   3.954   5.099
 6396SOL     OW20086   1.108   3.016   4.948
 6396SOL    HW120087   1.192   3.010   4.894
 6396SOL    HW220088   1.029   3.016   4.887
 6397SOL     OW20089   6.838   3.110   4.727
 6397SOL    HW120090   6.916   3.116   4.666
 6397SOL    HW220091   6.867   3.074   4.816
 6398SOL     OW20092   1.107   0.355   2.560
 6398SOL    HW120093   1.163   0.287   2.513
 6398SOL    HW220094   1.141   0.369   2.653
 6399SOL     OW20095   2.791   0.062   6.849
 6399SOL    HW120096   2.818   6.981   6.854
 6399SOL    HW220097   2.791   0.091   6.753
 6400SOL     OW20098   1.084   5.955   2.626
 6400SOL    HW120099   1.010   6.006   2.583
 6400SOL    HW220100   1.081   5.970   2.725
 6401SOL     OW20101   3.895   4.891   1.592
 6401SOL    HW120102   3.893   4.894   1.492
 6401SOL    HW220103   3.868   4.800   1.623
 6402SOL     OW20104   4.338   3.997   5.725
 6402SOL    HW120105   4.263   4.017   5.789
 6402SOL    HW220106   4.303   3.997   5.632
 6403SOL     OW20107   4.216   5.729   5.588
 6403SOL    HW120108   4.314   5.737   5.573
 6403SOL    HW220109   4.200   5.679   5.673
 6404SOL     OW20110   4.741   5.692   6.146
 6404SOL    HW120111   4.812   5.737   6.091
 6404SOL    HW220112   4.721   5.747   6.227
 6405SOL     OW20113   4.357   0.932   2.782
 6405SOL    HW120114   4.361   0.894   2.690
 6405SOL    HW220115   4.261   0.953   2.805
 6406SOL     OW20116   0.229   3.976   2.099
 6406SOL    HW120117   0.139   3.952   2.062
 6406SOL    HW220118   0.221   3.998   2.196
 6407SOL     OW20119   0.459   6.884   1.736
 6407SOL    HW120120   0.371   6.838   1.735
 6407SOL    HW220121   0.533   6.817   1.733
 6408SOL     OW20122   6.542   1.294   2.014
 6408SOL    HW120123   6.591   1.313   1.928
 6408SOL    HW220124   6.583   1.215   2.059
 6409SOL     OW20125   5.835   4.737   3.774
 6409SOL    HW120126   5.849   4.657   3.833
 6409SOL    HW220127   5.861   4.715   3.680
 6410SOL     OW20128   1.602   0.430   0.238
 6410SOL    HW120129   1.642   0.384   0.317
 6410SOL    HW220130   1.610   0.370   0.158
 6411SOL     OW20131   1.222   2.443   4.286
 6411SOL    HW120132   1.135   2.470   4.245
 6411SOL    HW220133   1.239   2.500   4.367
 6412SOL     OW20134   4.275   0.190   6.988
 6412SOL    HW120135   4.373   0.200   6.970
 6412SOL    HW220136   4.250   0.093   6.980
 6413SOL     OW20137   4.340   5.954   3.130
 6413SOL    HW120138   4.252   5.920   3.098
 6413SOL    HW220139   4.340   5.958   3.230
 6414SOL     OW20140   3.398   0.398   0.235
 6414SOL    HW120141   3.395   0.299   0.248
 6414SOL    HW220142   3.492   0.428   0.224
 6415SOL     OW20143   0.076   2.083   3.895
 6415SOL    HW120144   0.011   2.076   3.970
 6415SOL    HW220145   0.057   2.012   3.827
 6416SOL     OW20146   2.964   4.729   0.340
 6416SOL    HW120147   3.053   4.683   0.347
 6416SOL    HW220148   2.931   4.723   0.246
 6417SOL     OW20149   4.144   3.594   6.318
 6417SOL    HW120150   4.049   3.569   6.306
 6417SOL    HW220151   4.150   3.687   6.354
 6418SOL     OW20152   5.011   5.423   0.258
 6418SOL    HW120153   5.039   5.506   0.306
 6418SOL    HW220154   4.918   5.435   0.222
 6419SOL     OW20155   1.575   6.691   6.590
 6419SOL    HW120156   1.559   6.751   6.512
 6419SOL    HW220157   1.528   6.604   6.575
 6420SOL     OW20158   2.338   4.955   3.406
 6420SOL    HW120159   2.239   4.957   3.392
 6420SOL    HW220160   2.363   5.024   3.474
 6421SOL     OW20161   5.489   6.834   1.251
 6421SOL    HW120162   5.586   6.839   1.276
 6421SOL    HW220163   5.454   6.927   1.239
 6422SOL     OW20164   0.889   1.796   4.424
 6422SOL    HW120165   0.871   1.874   4.364
 6422SOL    HW220166   0.803   1.761   4.460
 6423SOL     OW20167   1.466   3.841   4.616
 6423SOL    HW120168   1.381   3.845   4.669
 6423SOL    HW220169   1.526   3.771   4.655
 6424SOL     OW20170   6.628   3.719   5.386
 6424SOL    HW120171   6.612   3.786   5.313
 6424SOL    HW220172   6.725   3.696   5.390
 6425SOL     OW20173   1.088   6.661   5.427
 6425SOL    HW120174   1.154   6.625   5.361
 6425SOL    HW220175   1.116   6.635   5.519
 6426SOL     OW20176   4.041   5.683   3.719
 6426SOL    HW120177   4.124   5.733   3.744
 6426SOL    HW220178   3.963   5.721   3.768
 6427SOL     OW20179   3.513   3.377   3.510
 6427SOL    HW120180   3.581   3.393   3.581
 6427SOL    HW220181   3.423   3.362   3.552
 6428SOL     OW20182   6.352   2.181   0.518
 6428SOL    HW120183   6.424   2.136   0.466
 6428SOL    HW220184   6.289   2.113   0.554
 6429SOL     OW20185   2.494   1.948   4.626
 6429SOL    HW120186   2.439   1.923   4.706
 6429SOL    HW220187   2.440   1.933   4.543
 6430SOL     OW20188   6.017   1.297   4.656
 6430SOL    HW120189   6.045   1.223   4.595
 6430SOL    HW220190   6.075   1.297   4.737
 6431SOL     OW20191   3.043   4.850   3.027
 6431SOL    HW120192   2.951   4.823   2.999
 6431SOL    HW220193   3.065   4.809   3.115
 6432SOL     OW20194   4.289   3.058   6.769
 6432SOL    HW120195   4.320   2.963   6.776
 6432SOL    HW220196   4.199   3.060   6.725
 6433SOL     OW20197   3.744   5.300   6.130
 6433SOL    HW120198   3.787   5.293   6.041
 6433SOL    HW220199   3.812   5.327   6.198
 6434SOL     OW20200   6.669   4.597   6.041
 6434SOL    HW120201   6.747   4.564   5.988
 6434SOL    HW220202   6.584   4.574   5.993
 6435SOL     OW20203   4.143   1.746   1.159
 6435SOL    HW120204   4.139   1.777   1.064
 6435SOL    HW220205   4.237   1.721   1.182
 6436SOL     OW20206   0.583   2.703   3.764
 6436SOL    HW120207   0.547   2.665   3.678
 6436SOL    HW220208   0.512   2.700   3.834
 6437SOL     OW20209   1.704   3.049   6.390
 6437SOL    HW120210   1.750   3.121   6.339
 6437SOL    HW220211   1.687   3.079   6.484
 6438SOL     OW20212   0.230   5.331   1.053
 6438SOL    HW120213   0.291   5.273   0.999
 6438SOL    HW220214   0.167   5.273   1.105
 6439SOL     OW20215   4.725   6.290   2.964
 6439SOL    HW120216   4.647   6.264   3.021
 6439SOL    HW220217   4.808   6.252   3.004
 6440SOL     OW20218   2.572   2.011   5.717
 6440SOL    HW120219   2.477   2.036   5.701
 6440SOL    HW220220   2.609   1.966   5.636
 6441SOL     OW20221   1.249   2.196   1.594
 6441SOL    HW120222   1.349   2.187   1.586
 6441SOL    HW220223   1.220   2.162   1.683
 6442SOL     OW20224   2.789   1.982   4.338
 6442SOL    HW120225   2.838   2.029   4.412
 6442SOL    HW220226   2.786   1.884   4.358
 6443SOL     OW20227   2.627   2.620   5.765
 6443SOL    HW120228   2.641   2.699   5.705
 6443SOL    HW220229   2.530   2.614   5.790
 6444SOL     OW20230   7.002   3.963   5.092
 6444SOL    HW120231   6.943   3.945   5.171
 6444SOL    HW220232   0.004   3.877   5.044
 6445SOL     OW20233   3.220   2.964   3.407
 6445SOL    HW120234   3.126   2.994   3.421
 6445SOL    HW220235   3.268   2.961   3.495
 6446SOL     OW20236   1.319   0.515   1.585
 6446SOL    HW120237   1.232   0.527   1.632
 6446SOL    HW220238   1.342   0.599   1.535
 6447SOL     OW20239   6.148   3.699   1.078
 6447SOL    HW120240   6.156   3.680   1.176
 6447SOL    HW220241   6.177   3.793   1.060
 6448SOL     OW20242   4.047   4.251   1.381
 6448SOL    HW120243   4.048   4.298   1.293
 6448SOL    HW220244   3.970   4.187   1.384
 6449SOL     OW20245   4.366   5.030   0.542
 6449SOL    HW120246   4.432   5.104   0.531
 6449SOL    HW220247   4.403   4.946   0.502
 6450SOL     OW20248   4.474   3.642   0.029
 6450SOL    HW120249   4.408   3.708   0.063
 6450SOL    HW220250   4.441   3.604   6.957
 6451SOL     OW20251   4.206   2.745   1.284
 6451SOL    HW120252   4.200   2.661   1.338
 6451SOL    HW220253   4.284   2.741   1.223
 6452SOL     OW20254   4.437   2.107   4.530
 6452SOL    HW120255   4.454   2.095   4.627
 6452SOL    HW220256   4.491   2.184   4.495
 6453SOL     OW20257   2.730   1.035   2.929
 6453SOL    HW120258   2.659   0.980   2.886
 6453SOL    HW220259   2.690   1.120   2.964
 6454SOL     OW20260   5.222   3.777   4.811
 6454SOL    HW120261   5.271   3.718   4.876
 6454SOL    HW220262   5.131   3.738   4.793
 6455SOL     OW20263   0.263   2.671   4.649
 6455SOL    HW120264   0.309   2.709   4.569
 6455SOL    HW220265   0.184   2.728   4.673
 6456SOL     OW20266   5.988   1.892   3.351
 6456SOL    HW120267   5.904   1.854   3.389
 6456SOL    HW220268   5.989   1.991   3.363
 6457SOL     OW20269   1.563   6.117   3.588
 6457SOL    HW120270   1.536   6.022   3.578
 6457SOL    HW220271   1.580   6.136   3.685
 6458SOL     OW20272   1.304   0.524   4.811
 6458SOL    HW120273   1.211   0.531   4.846
 6458SOL    HW220274   1.367   0.565   4.877
 6459SOL     OW20275   0.913   3.565   2.821
 6459SOL    HW120276   0.928   3.511   2.738
 6459SOL    HW220277   0.875   3.507   2.893
 6460SOL     OW20278   1.691   5.152   5.716
 6460SOL    HW120279   1.604   5.104   5.710
 6460SOL    HW220280   1.757   5.108   5.655
 6461SOL     OW20281   0.178   6.990   1.371
 6461SOL    HW120282   0.203   6.953   1.460
 6461SOL    HW220283   0.164   6.916   1.306
 6462SOL     OW20284   2.417   3.824   5.769
 6462SOL    HW120285   2.428   3.887   5.692
 6462SOL    HW220286   2.460   3.736   5.745
 6463SOL     OW20287   4.516   3.323   1.515
 6463SOL    HW120288   4.479   3.396   1.573
 6463SOL    HW220289   4.561   3.254   1.572
 6464SOL     OW20290   1.339   3.150   3.226
 6464SOL    HW120291   1.406   3.141   3.151
 6464SOL    HW220292   1.300   3.061   3.247
 6465SOL     OW20293   2.449   1.686   2.908
 6465SOL    HW120294   2.368   1.636   2.878
 6465SOL    HW220295   2.425   1.782   2.925
 6466SOL     OW20296   6.610   5.029   6.820
 6466SOL    HW120297   6.697   5.009   6.865
 6466SOL    HW220298   6.543   5.056   6.889
 6467SOL     OW20299   2.504   3.412   5.956
 6467SOL    HW120300   2.490   3.331   5.900
 6467SOL    HW220301   2.600   3.439   5.955
 6468SOL     OW20302   0.930   0.705   1.149
 6468SOL    HW120303   0.877   0.719   1.233
 6468SOL    HW220304   0.938   0.791   1.099
 6469SOL     OW20305   2.474   0.833   0.876
 6469SOL    HW120306   2.505   0.738   0.880
 6469SOL    HW220307   2.406   0.849   0.947
 6470SOL     OW20308   5.626   1.459   6.757
 6470SOL    HW120309   5.576   1.395   6.699
 6470SOL    HW220310   5.580   1.468   6.845
 6471SOL     OW20311   1.263   6.402   5.862
 6471SOL    HW120312   1.342   6.346   5.835
 6471SOL    HW220313   1.272   6.428   5.958
 6472SOL     OW20314   0.828   6.418   1.194
 6472SOL    HW120315   0.794   6.327   1.168
 6472SOL    HW220316   0.762   6.487   1.165
 6473SOL     OW20317   2.894   1.919   3.881
 6473SOL    HW120318   2.830   1.892   3.953
 6473SOL    HW220319   2.894   1.850   3.809
 6474SOL     OW20320   3.770   6.990   4.185
 6474SOL    HW120321   3.862   6.955   4.197
 6474SOL    HW220322   3.768   0.073   4.203
 6475SOL     OW20323   5.389   5.965   3.343
 6475SOL    HW120324   5.351   5.897   3.281
 6475SOL    HW220325   5.407   6.049   3.292
 6476SOL     OW20326   5.210   4.026   4.925
 6476SOL    HW120327   5.303   4.061   4.936
 6476SOL    HW220328   5.211   3.944   4.868
 6477SOL     OW20329   0.900   6.805   0.678
 6477SOL    HW120330   0.983   6.791   0.622
 6477SOL    HW220331   0.866   6.716   0.709
 6478SOL     OW20332   1.718   6.393   0.512
 6478SOL    HW120333   1.629   6.383   0.557
 6478SOL    HW220334   1.773   6.311   0.527
 6479SOL     OW20335   4.532   5.996   3.987
 6479SOL    HW120336   4.577   6.030   4.070
 6479SOL    HW220337   4.474   5.917   4.010
 6480SOL     OW20338   3.416   1.532   5.053
 6480SOL    HW120339   3.320   1.552   5.033
 6480SOL    HW220340   3.474   1.574   4.983
 6481SOL     OW20341   4.184   3.207   1.866
 6481SOL    HW120342   4.258   3.162   1.816
 6481SOL    HW220343   4.155   3.149   1.942
 6482SOL     OW20344   5.357   3.126   4.873
 6482SOL    HW120345   5.449   3.116   4.910
 6482SOL    HW220346   5.301   3.179   4.936
 6483SOL     OW20347   1.816   5.679   5.558
 6483SOL    HW120348   1.861   5.706   5.643
 6483SOL    HW220349   1.738   5.739   5.541
 6484SOL     OW20350   4.113   0.895   3.473
 6484SOL    HW120351   4.167   0.965   3.426
 6484SOL    HW220352   4.060   0.843   3.406
 6485SOL     OW20353   2.129   4.988   4.478
 6485SOL    HW120354   2.064   4.919   4.448
 6485SOL    HW220355   2.098   5.029   4.564
 6486SOL     OW20356   6.910   4.365   2.464
 6486SOL    HW120357   6.906   4.400   2.557
 6486SOL    HW220358   6.825   4.316   2.443
 6487SOL     OW20359   5.828   5.541   4.245
 6487SOL    HW120360   5.925   5.564   4.251
 6487SOL    HW220361   5.791   5.575   4.159
 6488SOL     OW20362   3.728   5.198   4.053
 6488SOL    HW120363   3.671   5.117   4.041
 6488SOL    HW220364   3.723   5.228   4.148
 6489SOL     OW20365   6.562   3.483   5.233
 6489SOL    HW120366   6.488   3.481   5.166
 6489SOL    HW220367   6.588   3.578   5.252
 6490SOL     OW20368   1.851   3.572   0.262
 6490SOL    HW120369   1.756   3.602   0.269
 6490SOL    HW220370   1.856   3.473   0.272
 6491SOL     OW20371   1.478   0.443   1.822
 6491SOL    HW120372   1.482   0.515   1.891
 6491SOL    HW220373   1.442   0.480   1.737
 6492SOL     OW20374   4.001   3.111   3.578
 6492SOL    HW120375   4.028   3.122   3.674
 6492SOL    HW220376   3.901   3.110   3.572
 6493SOL     OW20377   1.269   4.389   4.272
 6493SOL    HW120378   1.199   4.396   4.201
 6493SOL    HW220379   1.235   4.429   4.357
 6494SOL     OW20380   6.317   1.170   1.636
 6494SOL    HW120381   6.313   1.249   1.574
 6494SOL    HW220382   6.328   1.086   1.583
 6495SOL     OW20383   6.230   6.372   2.335
 6495SOL    HW120384   6.283   6.310   2.393
 6495SOL    HW220385   6.265   6.465   2.346
 6496SOL     OW20386   2.540   2.389   1.467
 6496SOL    HW120387   2.453   2.434   1.449
 6496SOL    HW220388   2.522   2.296   1.500
 6497SOL     OW20389   0.669   2.559   0.819
 6497SOL    HW120390   0.728   2.569   0.739
 6497SOL    HW220391   0.713   2.501   0.887
 6498SOL     OW20392   2.649   4.785   4.252
 6498SOL    HW120393   2.680   4.857   4.313
 6498SOL    HW220394   2.609   4.710   4.305
 6499SOL     OW20395   5.920   2.524   2.326
 6499SOL    HW120396   6.008   2.518   2.373
 6499SOL    HW220397   5.845   2.513   2.392
 6500SOL     OW20398   1.722   3.842   2.559
 6500SOL    HW120399   1.750   3.746   2.563
 6500SOL    HW220400   1.623   3.848   2.556
 6501SOL     OW20401   6.654   1.155   2.988
 6501SOL    HW120402   6.561   1.190   2.982
 6501SOL    HW220403   6.696   1.155   2.897
 6502SOL     OW20404   1.051   2.702   2.280
 6502SOL    HW120405   1.052   2.729   2.184
 6502SOL    HW220406   1.117   2.758   2.331
 6503SOL     OW20407   0.233   2.309   5.777
 6503SOL    HW120408   0.305   2.244   5.750
 6503SOL    HW220409   0.206   2.291   5.871
 6504SOL     OW20410   3.780   6.761   6.105
 6504SOL    HW120411   3.853   6.799   6.047
 6504SOL    HW220412   3.814   6.678   6.150
 6505SOL     OW20413   0.684   6.653   0.101
 6505SOL    HW120414   0.654   6.746   0.080
 6505SOL    HW220415   0.638   6.621   0.184
 6506SOL     OW20416   0.127   4.076   1.747
 6506SOL    HW120417   0.137   4.088   1.648
 6506SOL    HW220418   0.060   4.004   1.765
 6507SOL     OW20419   4.701   5.449   0.847
 6507SOL    HW120420   4.705   5.486   0.754
 6507SOL    HW220421   4.641   5.369   0.849
 6508SOL     OW20422   6.944   0.713   4.427
 6508SOL    HW120423   6.986   0.783   4.370
 6508SOL    HW220424   6.846   0.727   4.431
 6509SOL     OW20425   2.340   1.840   0.505
 6509SOL    HW120426   2.425   1.826   0.453
 6509SOL    HW220427   2.294   1.922   0.471
 6510SOL     OW20428   3.192   4.923   4.623
 6510SOL    HW120429   3.187   5.010   4.573
 6510SOL    HW220430   3.145   4.933   4.711
 6511SOL     OW20431   3.486   3.094   0.023
 6511SOL    HW120432   3.418   3.097   0.096
 6511SOL    HW220433   3.577   3.086   0.063
 6512SOL     OW20434   4.903   1.006   1.355
 6512SOL    HW120435   4.937   1.091   1.395
 6512SOL    HW220436   4.927   0.929   1.415
 6513SOL     OW20437   2.842   5.273   2.099
 6513SOL    HW120438   2.792   5.335   2.038
 6513SOL    HW220439   2.863   5.322   2.184
 6514SOL     OW20440   4.945   5.869   6.043
 6514SOL    HW120441   4.906   5.851   5.953
 6514SOL    HW220442   5.045   5.863   6.038
 6515SOL     OW20443   1.085   4.882   2.390
 6515SOL    HW120444   1.024   4.826   2.334
 6515SOL    HW220445   1.032   4.953   2.436
 6516SOL     OW20446   5.698   0.807   3.670
 6516SOL    HW120447   5.720   0.888   3.725
 6516SOL    HW220448   5.602   0.812   3.642
 6517SOL     OW20449   6.765   4.171   0.272
 6517SOL    HW120450   6.826   4.121   0.334
 6517SOL    HW220451   6.714   4.107   0.216
 6518SOL     OW20452   1.339   1.757   2.295
 6518SOL    HW120453   1.296   1.814   2.225
 6518SOL    HW220454   1.277   1.684   2.322
 6519SOL     OW20455   1.197   1.667   3.611
 6519SOL    HW120456   1.110   1.618   3.612
 6519SOL    HW220457   1.181   1.764   3.589
 6520SOL     OW20458   5.905   6.429   6.440
 6520SOL    HW120459   5.947   6.407   6.528
 6520SOL    HW220460   5.837   6.501   6.453
 6521SOL     OW20461   1.448   4.232   4.564
 6521SOL    HW120462   1.498   4.160   4.612
 6521SOL    HW220463   1.499   4.258   4.482
 6522SOL     OW20464   2.425   2.949   5.445
 6522SOL    HW120465   2.329   2.936   5.469
 6522SOL    HW220466   2.433   3.017   5.372
 6523SOL     OW20467   5.088   6.868   0.323
 6523SOL    HW120468   5.094   6.916   0.235
 6523SOL    HW220469   5.179   6.860   0.362
 6524SOL     OW20470   3.082   2.516   1.553
 6524SOL    HW120471   3.002   2.456   1.557
 6524SOL    HW220472   3.162   2.466   1.585
 6525SOL     OW20473   2.062   4.845   3.766
 6525SOL    HW120474   2.136   4.779   3.752
 6525SOL    HW220475   2.039   4.889   3.680
 6526SOL     OW20476   6.789   6.335   0.600
 6526SOL    HW120477   6.880   6.323   0.640
 6526SOL    HW220478   6.792   6.310   0.503
 6527SOL     OW20479   5.083   2.433   1.045
 6527SOL    HW120480   5.061   2.359   1.108
 6527SOL    HW220481   5.007   2.445   0.980
 6528SOL     OW20482   4.732   6.429   0.433
 6528SOL    HW120483   4.713   6.392   0.343
 6528SOL    HW220484   4.686   6.373   0.502
 6529SOL     OW20485   4.357   0.098   1.663
 6529SOL    HW120486   4.288   0.044   1.614
 6529SOL    HW220487   4.356   0.192   1.629
 6530SOL     OW20488   0.365   2.206   4.264
 6530SOL    HW120489   0.314   2.281   4.221
 6530SOL    HW220490   0.316   2.177   4.346
 6531SOL     OW20491   3.808   3.627   3.809
 6531SOL    HW120492   3.721   3.642   3.856
 6531SOL    HW220493   3.861   3.712   3.810
 6532SOL     OW20494   0.939   5.988   0.248
 6532SOL    HW120495   0.925   5.933   0.166
 6532SOL    HW220496   0.850   6.014   0.287
 6533SOL     OW20497   4.878   5.304   1.302
 6533SOL    HW120498   4.783   5.275   1.287
 6533SOL    HW220499   4.900   5.298   1.399
 6534SOL     OW20500   6.607   2.670   4.158
 6534SOL    HW120501   6.647   2.615   4.232
 6534SOL    HW220502   6.507   2.666   4.165
 6535SOL     OW20503   5.347   3.487   6.518
 6535SOL    HW120504   5.287   3.418   6.560
 6535SOL    HW220505   5.300   3.575   6.516
 6536SOL     OW20506   0.365   4.975   5.663
 6536SOL    HW120507   0.369   5.053   5.725
 6536SOL    HW220508   0.422   4.901   5.700
 6537SOL     OW20509   6.475   5.673   4.529
 6537SOL    HW120510   6.387   5.628   4.523
 6537SOL    HW220511   6.497   5.717   4.441
 6538SOL     OW20512   1.598   3.199   3.423
 6538SOL    HW120513   1.670   3.130   3.419
 6538SOL    HW220514   1.515   3.163   3.379
 6539SOL     OW20515   5.328   0.197   5.753
 6539SOL    HW120516   5.343   0.118   5.812
 6539SOL    HW220517   5.365   0.179   5.662
 6540SOL     OW20518   1.317   2.631   5.052
 6540SOL    HW120519   1.411   2.657   5.070
 6540SOL    HW220520   1.257   2.672   5.121
 6541SOL     OW20521   4.001   1.271   5.680
 6541SOL    HW120522   3.951   1.222   5.752
 6541SOL    HW220523   4.095   1.288   5.710
 6542SOL     OW20524   2.047   4.576   2.048
 6542SOL    HW120525   1.972   4.596   1.985
 6542SOL    HW220526   2.060   4.477   2.053
 6543SOL     OW20527   4.021   1.597   3.713
 6543SOL    HW120528   3.959   1.675   3.707
 6543SOL    HW220529   4.012   1.541   3.631
 6544SOL     OW20530   0.765   0.494   1.091
 6544SOL    HW120531   0.704   0.530   1.162
 6544SOL    HW220532   0.833   0.563   1.068
 6545SOL     OW20533   5.828   5.610   0.833
 6545SOL    HW120534   5.728   5.609   0.829
 6545SOL    HW220535   5.862   5.700   0.808
 6546SOL     OW20536   4.202   5.131   5.101
 6546SOL    HW120537   4.157   5.103   5.017
 6546SOL    HW220538   4.170   5.223   5.126
 6547SOL     OW20539   1.168   6.269   5.510
 6547SOL    HW120540   1.261   6.305   5.520
 6547SOL    HW220541   1.161   6.182   5.558
 6548SOL     OW20542   1.476   2.109   5.860
 6548SOL    HW120543   1.520   2.100   5.770
 6548SOL    HW220544   1.482   2.204   5.891
 6549SOL     OW20545   3.943   0.907   2.980
 6549SOL    HW120546   3.940   0.846   2.901
 6549SOL    HW220547   3.852   0.941   3.000
 6550SOL     OW20548   5.819   0.202   1.881
 6550SOL    HW120549   5.914   0.180   1.857
 6550SOL    HW220550   5.762   0.120   1.868
 6551SOL     OW20551   2.589   5.015   1.666
 6551SOL    HW120552   2.541   4.935   1.703
 6551SOL    HW220553   2.685   5.013   1.694
 6552SOL     OW20554   2.154   3.534   6.900
 6552SOL    HW120555   2.082   3.467   6.882
 6552SOL    HW220556   2.114   3.617   6.940
 6553SOL     OW20557   0.431   1.555   3.358
 6553SOL    HW120558   0.403   1.648   3.338
 6553SOL    HW220559   0.470   1.513   3.276
 6554SOL     OW20560   1.238   1.687   3.894
 6554SOL    HW120561   1.204   1.660   3.804
 6554SOL    HW220562   1.328   1.648   3.908
 6555SOL     OW20563   1.568   3.523   2.485
 6555SOL    HW120564   1.645   3.509   2.547
 6555SOL    HW220565   1.484   3.490   2.528
 6556SOL     OW20566   4.931   3.378   3.327
 6556SOL    HW120567   4.948   3.445   3.255
 6556SOL    HW220568   4.915   3.288   3.285
 6557SOL     OW20569   2.103   6.847   2.685
 6557SOL    HW120570   2.151   6.871   2.770
 6557SOL    HW220571   2.051   6.926   2.653
 6558SOL     OW20572   5.451   5.513   1.116
 6558SOL    HW120573   5.361   5.550   1.140
 6558SOL    HW220574   5.494   5.573   1.049
 6559SOL     OW20575   0.545   1.660   6.150
 6559SOL    HW120576   0.609   1.649   6.075
 6559SOL    HW220577   0.466   1.600   6.136
 6560SOL     OW20578   6.890   4.642   5.882
 6560SOL    HW120579   6.948   4.564   5.905
 6560SOL    HW220580   6.947   4.722   5.863
 6561SOL     OW20581   2.732   5.766   0.335
 6561SOL    HW120582   2.816   5.751   0.389
 6561SOL    HW220583   2.661   5.802   0.395
 6562SOL     OW20584   4.643   2.463   1.781
 6562SOL    HW120585   4.692   2.393   1.832
 6562SOL    HW220586   4.687   2.477   1.692
 6563SOL     OW20587   6.310   5.254   5.269
 6563SOL    HW120588   6.258   5.170   5.286
 6563SOL    HW220589   6.311   5.274   5.171
 6564SOL     OW20590   5.264   3.718   2.104
 6564SOL    HW120591   5.170   3.728   2.071
 6564SOL    HW220592   5.292   3.802   2.150
 6565SOL     OW20593   5.153   6.033   2.150
 6565SOL    HW120594   5.120   6.098   2.218
 6565SOL    HW220595   5.078   5.973   2.122
 6566SOL     OW20596   5.084   5.588   3.856
 6566SOL    HW120597   5.106   5.582   3.953
 6566SOL    HW220598   5.164   5.619   3.805
 6567SOL     OW20599   3.016   0.878   2.750
 6567SOL    HW120600   2.925   0.895   2.713
 6567SOL    HW220601   3.085   0.904   2.682
 6568SOL     OW20602   5.070   1.591   0.697
 6568SOL    HW120603   5.117   1.551   0.775
 6568SOL    HW220604   4.985   1.541   0.680
 6569SOL     OW20605   1.737   4.271   3.343
 6569SOL    HW120606   1.798   4.291   3.419
 6569SOL    HW220607   1.781   4.204   3.282
 6570SOL     OW20608   4.483   0.011   2.969
 6570SOL    HW120609   4.446   6.961   2.903
 6570SOL    HW220610   4.458   6.997   3.062
 6571SOL     OW20611   3.259   6.532   2.896
 6571SOL    HW120612   3.169   6.510   2.934
 6571SOL    HW220613   3.329   6.521   2.968
 6572SOL     OW20614   1.229   6.346   3.695
 6572SOL    HW120615   1.206   6.443   3.692
 6572SOL    HW220616   1.196   6.306   3.781
 6573SOL     OW20617   1.218   2.147   3.304
 6573SOL    HW120618   1.275   2.066   3.289
 6573SOL    HW220619   1.131   2.135   3.256
 6574SOL     OW20620   0.653   4.992   1.290
 6574SOL    HW120621   0.577   5.033   1.240
 6574SOL    HW220622   0.735   5.048   1.278
 6575SOL     OW20623   0.390   0.852   3.662
 6575SOL    HW120624   0.301   0.814   3.638
 6575SOL    HW220625   0.422   0.810   3.747
 6576SOL     OW20626   4.192   6.908   2.138
 6576SOL    HW120627   4.158   6.815   2.145
 6576SOL    HW220628   4.198   6.935   2.042
 6577SOL     OW20629   3.520   0.905   5.307
 6577SOL    HW120630   3.437   0.930   5.357
 6577SOL    HW220631   3.559   0.987   5.264
 6578SOL     OW20632   0.803   5.800   0.101
 6578SOL    HW120633   0.728   5.847   0.147
 6578SOL    HW220634   0.768   5.751   0.022
 6579SOL     OW20635   1.479   1.384   3.381
 6579SOL    HW120636   1.436   1.401   3.469
 6579SOL    HW220637   1.434   1.439   3.310
 6580SOL     OW20638   3.046   3.014   0.037
 6580SOL    HW120639   3.041   2.958   0.120
 6580SOL    HW220640   3.117   2.976   6.991
 6581SOL     OW20641   0.292   2.429   2.327
 6581SOL    HW120642   0.360   2.397   2.393
 6581SOL    HW220643   0.260   2.520   2.354
 6582SOL     OW20644   3.952   0.320   3.398
 6582SOL    HW120645   3.878   0.342   3.335
 6582SOL    HW220646   3.924   0.243   3.456
 6583SOL     OW20647   2.571   4.052   1.436
 6583SOL    HW120648   2.479   4.078   1.410
 6583SOL    HW220649   2.595   4.095   1.523
 6584SOL     OW20650   4.187   3.412   6.521
 6584SOL    HW120651   4.217   3.488   6.462
 6584SOL    HW220652   4.261   3.389   6.584
 6585SOL     OW20653   5.860   0.496   1.700
 6585SOL    HW120654   5.891   0.518   1.793
 6585SOL    HW220655   5.838   0.398   1.695
 6586SOL     OW20656   6.825   1.465   0.618
 6586SOL    HW120657   6.728   1.471   0.597
 6586SOL    HW220658   6.877   1.526   0.557
 6587SOL     OW20659   2.653   4.848   5.495
 6587SOL    HW120660   2.683   4.916   5.562
 6587SOL    HW220661   2.565   4.875   5.458
 6588SOL     OW20662   1.184   1.615   0.776
 6588SOL    HW120663   1.148   1.695   0.728
 6588SOL    HW220664   1.120   1.588   0.849
 6589SOL     OW20665   5.590   6.921   0.739
 6589SOL    HW120666   5.543   6.853   0.683
 6589SOL    HW220667   5.627   6.993   0.680
 6590SOL     OW20668   1.584   6.109   4.661
 6590SOL    HW120669   1.502   6.065   4.700
 6590SOL    HW220670   1.608   6.063   4.575
 6591SOL     OW20671   6.547   3.165   3.890
 6591SOL    HW120672   6.477   3.203   3.830
 6591SOL    HW220673   6.527   3.068   3.908
 6592SOL     OW20674   0.226   0.923   4.052
 6592SOL    HW120675   0.164   1.001   4.042
 6592SOL    HW220676   0.302   0.933   3.988
 6593SOL     OW20677   1.252   0.451   3.136
 6593SOL    HW120678   1.178   0.418   3.077
 6593SOL    HW220679   1.214   0.477   3.224
 6594SOL     OW20680   5.548   6.877   6.391
 6594SOL    HW120681   5.551   6.954   6.455
 6594SOL    HW220682   5.469   6.820   6.412
 6595SOL     OW20683   1.535   1.470   4.960
 6595SOL    HW120684   1.553   1.469   5.058
 6595SOL    HW220685   1.613   1.430   4.912
 6596SOL     OW20686   5.312   0.769   3.027
 6596SOL    HW120687   5.401   0.808   3.050
 6596SOL    HW220688   5.264   0.744   3.111
 6597SOL     OW20689   1.066   5.090   1.428
 6597SOL    HW120690   0.978   5.136   1.440
 6597SOL    HW220691   1.111   5.125   1.346
 6598SOL     OW20692   1.100   5.163   2.057
 6598SOL    HW120693   1.166   5.100   2.098
 6598SOL    HW220694   1.145   5.212   1.982
 6599SOL     OW20695   1.063   5.757   6.293
 6599SOL    HW120696   1.099   5.837   6.342
 6599SOL    HW220697   1.112   5.746   6.207
 6600SOL     OW20698   4.734   6.801   4.703
 6600SOL    HW120699   4.774   6.725   4.653
 6600SOL    HW220700   4.797   6.831   4.774
 6601SOL     OW20701   1.087   2.871   2.521
 6601SOL    HW120702   1.070   2.816   2.603
 6601SOL    HW220703   1.185   2.886   2.511
 6602SOL     OW20704   5.958   6.013   0.180
 6602SOL    HW120705   6.036   6.064   0.144
 6602SOL    HW220706   5.966   6.005   0.280
 6603SOL     OW20707   0.244   4.779   2.699
 6603SOL    HW120708   0.314   4.802   2.632
 6603SOL    HW220709   0.180   4.713   2.660
 6604SOL     OW20710   1.647   5.328   2.635
 6604SOL    HW120711   1.740   5.298   2.659
 6604SOL    HW220712   1.581   5.279   2.693
 6605SOL     OW20713   6.885   5.069   1.454
 6605SOL    HW120714   6.958   5.001   1.454
 6605SOL    HW220715   6.868   5.100   1.360
 6606SOL     OW20716   1.547   4.434   3.110
 6606SOL    HW120717   1.562   4.531   3.092
 6606SOL    HW220718   1.583   4.410   3.200
 6607SOL     OW20719   6.557   3.324   4.130
 6607SOL    HW120720   6.513   3.244   4.088
 6607SOL    HW220721   6.655   3.320   4.113
 6608SOL     OW20722   1.738   0.571   5.235
 6608SOL    HW120723   1.812   0.624   5.277
 6608SOL    HW220724   1.658   0.573   5.294
 6609SOL     OW20725   2.757   2.255   0.190
 6609SOL    HW120726   2.796   2.230   0.101
 6609SOL    HW220727   2.671   2.206   0.203
 6610SOL     OW20728   3.311   6.358   1.183
 6610SOL    HW120729   3.352   6.286   1.237
 6610SOL    HW220730   3.246   6.410   1.239
 6611SOL     OW20731   3.135   1.629   4.689
 6611SOL    HW120732   3.114   1.579   4.606
 6611SOL    HW220733   3.070   1.704   4.700
 6612SOL     OW20734   6.713   0.315   6.948
 6612SOL    HW120735   6.638   0.311   0.000
 6612SOL    HW220736   6.797   0.345   6.993
 6613SOL     OW20737   4.310   6.915   1.296
 6613SOL    HW120738   4.379   6.846   1.318
 6613SOL    HW220739   4.260   6.886   1.214
 6614SOL     OW20740   3.962   4.358   0.878
 6614SOL    HW120741   4.028   4.330   0.809
 6614SOL    HW220742   3.902   4.429   0.841
 6615SOL     OW20743   3.531   6.241   6.203
 6615SOL    HW120744   3.540   6.143   6.182
 6615SOL    HW220745   3.570   6.259   6.293
 6616SOL     OW20746   4.095   2.221   6.303
 6616SOL    HW120747   4.166   2.152   6.313
 6616SOL    HW220748   4.131   2.300   6.253
 6617SOL     OW20749   3.589   1.815   4.069
 6617SOL    HW120750   3.560   1.734   4.120
 6617SOL    HW220751   3.510   1.858   4.025
 6618SOL     OW20752   6.388   3.290   3.680
 6618SOL    HW120753   6.309   3.230   3.672
 6618SOL    HW220754   6.468   3.247   3.638
 6619SOL     OW20755   4.683   5.056   3.988
 6619SOL    HW120756   4.724   5.020   4.072
 6619SOL    HW220757   4.606   5.116   4.012
 6620SOL     OW20758   1.255   2.875   3.303
 6620SOL    HW120759   1.180   2.853   3.365
 6620SOL    HW220760   1.224   2.863   3.208
 6621SOL     OW20761   3.356   3.699   3.725
 6621SOL    HW120762   3.431   3.761   3.749
 6621SOL    HW220763   3.322   3.654   3.807
 6622SOL     OW20764   0.159   4.910   1.753
 6622SOL    HW120765   0.115   4.945   1.835
 6622SOL    HW220766   0.138   4.813   1.742
 6623SOL     OW20767   3.271   3.371   3.689
 6623SOL    HW120768   3.260   3.418   3.776
 6623SOL    HW220769   3.227   3.282   3.693
 6624SOL     OW20770   2.448   2.431   2.810
 6624SOL    HW120771   2.379   2.362   2.789
 6624SOL    HW220772   2.535   2.404   2.769
 6625SOL     OW20773   0.371   4.356   5.704
 6625SOL    HW120774   0.443   4.331   5.638
 6625SOL    HW220775   0.301   4.285   5.703
 6626SOL     OW20776   3.281   5.990   5.507
 6626SOL    HW120777   3.294   6.079   5.551
 6626SOL    HW220778   3.230   5.930   5.570
 6627SOL     OW20779   2.497   6.778   4.747
 6627SOL    HW120780   2.496   6.695   4.803
 6627SOL    HW220781   2.450   6.852   4.795
 6628SOL     OW20782   3.834   0.145   3.568
 6628SOL    HW120783   3.735   0.157   3.568
 6628SOL    HW220784   3.864   0.114   3.658
 6629SOL     OW20785   4.691   5.998   4.719
 6629SOL    HW120786   4.613   5.956   4.766
 6629SOL    HW220787   4.657   6.061   4.649
 6630SOL     OW20788   2.152   6.984   0.388
 6630SOL    HW120789   2.206   6.935   0.456
 6630SOL    HW220790   2.064   6.938   0.376
 6631SOL     OW20791   1.624   1.825   5.847
 6631SOL    HW120792   1.546   1.887   5.853
 6631SOL    HW220793   1.606   1.742   5.900
 6632SOL     OW20794   1.281   0.480   6.231
 6632SOL    HW120795   1.251   0.434   6.148
 6632SOL    HW220796   1.301   0.412   6.302
 6633SOL     OW20797   4.699   6.484   6.453
 6633SOL    HW120798   4.727   6.571   6.412
 6633SOL    HW220799   4.759   6.411   6.420
 6634SOL     OW20800   2.641   2.407   4.469
 6634SOL    HW120801   2.561   2.347   4.466
 6634SOL    HW220802   2.685   2.409   4.379
 6635SOL     OW20803   5.280   5.307   5.850
 6635SOL    HW120804   5.226   5.254   5.785
 6635SOL    HW220805   5.219   5.367   5.902
 6636SOL     OW20806   3.718   1.420   1.023
 6636SOL    HW120807   3.719   1.335   1.076
 6636SOL    HW220808   3.802   1.471   1.040
 6637SOL     OW20809   0.271   2.436   0.115
 6637SOL    HW120810   0.202   2.365   0.124
 6637SOL    HW220811   0.343   2.405   0.053
 6638SOL     OW20812   3.096   3.744   3.681
 6638SOL    HW120813   3.145   3.663   3.713
 6638SOL    HW220814   3.143   3.826   3.713
 6639SOL     OW20815   4.791   2.950   1.458
 6639SOL    HW120816   4.714   2.888   1.471
 6639SOL    HW220817   4.805   2.966   1.361
 6640SOL     OW20818   0.963   3.444   4.568
 6640SOL    HW120819   0.995   3.531   4.605
 6640SOL    HW220820   0.923   3.459   4.478
 6641SOL     OW20821   5.277   2.655   6.987
 6641SOL    HW120822   5.257   2.652   6.889
 6641SOL    HW220823   5.195   2.684   0.022
 6642SOL     OW20824   1.446   4.617   6.119
 6642SOL    HW120825   1.522   4.597   6.058
 6642SOL    HW220826   1.406   4.705   6.096
 6643SOL     OW20827   4.710   5.549   5.798
 6643SOL    HW120828   4.768   5.506   5.730
 6643SOL    HW220829   4.723   5.505   5.887
 6644SOL     OW20830   1.957   6.986   3.924
 6644SOL    HW120831   1.906   6.901   3.934
 6644SOL    HW220832   2.041   6.968   3.873
 6645SOL     OW20833   4.818   2.417   5.267
 6645SOL    HW120834   4.795   2.335   5.319
 6645SOL    HW220835   4.738   2.446   5.214
 6646SOL     OW20836   5.200   0.161   6.450
 6646SOL    HW120837   5.126   0.149   6.516
 6646SOL    HW220838   5.166   0.212   6.371
 6647SOL     OW20839   3.730   5.010   0.828
 6647SOL    HW120840   3.659   5.065   0.784
 6647SOL    HW220841   3.750   4.930   0.772
 6648SOL     OW20842   3.248   5.470   5.347
 6648SOL    HW120843   3.322   5.403   5.345
 6648SOL    HW220844   3.271   5.544   5.409
 6649SOL     OW20845   5.373   2.651   5.621
 6649SOL    HW120846   5.380   2.740   5.577
 6649SOL    HW220847   5.365   2.663   5.720
 6650SOL     OW20848   2.922   1.270   4.792
 6650SOL    HW120849   2.942   1.210   4.870
 6650SOL    HW220850   2.835   1.242   4.750
 6651SOL     OW20851   0.039   0.994   3.724
 6651SOL    HW120852   0.074   1.047   3.646
 6651SOL    HW220853   0.096   0.913   3.737
 6652SOL     OW20854   0.124   5.003   6.781
 6652SOL    HW120855   0.203   5.064   6.776
 6652SOL    HW220856   0.155   4.909   6.789
 6653SOL     OW20857   5.336   4.120   6.688
 6653SOL    HW120858   5.285   4.121   6.774
 6653SOL    HW220859   5.311   4.038   6.636
 6654SOL     OW20860   6.884   2.046   3.364
 6654SOL    HW120861   6.815   2.043   3.291
 6654SOL    HW220862   6.886   2.138   3.403
 6655SOL     OW20863   6.857   5.789   1.611
 6655SOL    HW120864   6.812   5.730   1.679
 6655SOL    HW220865   6.942   5.824   1.649
 6656SOL     OW20866   4.832   1.122   2.332
 6656SOL    HW120867   4.868   1.215   2.338
 6656SOL    HW220868   4.741   1.119   2.374
 6657SOL     OW20869   4.776   1.997   4.305
 6657SOL    HW120870   4.689   2.024   4.263
 6657SOL    HW220871   4.787   2.045   4.392
 6658SOL     OW20872   6.788   5.718   4.917
 6658SOL    HW120873   6.761   5.665   4.998
 6658SOL    HW220874   6.740   5.806   4.918
 6659SOL     OW20875   0.482   6.102   0.727
 6659SOL    HW120876   0.574   6.073   0.753
 6659SOL    HW220877   0.433   6.135   0.808
 6660SOL     OW20878   1.059   0.251   4.107
 6660SOL    HW120879   1.023   0.191   4.036
 6660SOL    HW220880   1.146   0.290   4.077
 6661SOL     OW20881   4.259   6.784   3.606
 6661SOL    HW120882   4.262   6.871   3.654
 6661SOL    HW220883   4.168   6.744   3.614
 6662SOL     OW20884   3.705   6.930   2.303
 6662SOL    HW120885   3.750   0.002   2.283
 6662SOL    HW220886   3.683   6.884   2.217
 6663SOL     OW20887   1.273   4.020   5.676
 6663SOL    HW120888   1.332   4.089   5.634
 6663SOL    HW220889   1.248   3.951   5.608
 6664SOL     OW20890   3.056   0.236   1.912
 6664SOL    HW120891   3.044   0.310   1.846
 6664SOL    HW220892   3.085   0.274   2.000
 6665SOL     OW20893   2.767   0.381   6.774
 6665SOL    HW120894   2.715   0.326   6.708
 6665SOL    HW220895   2.859   0.344   6.784
 6666SOL     OW20896   2.934   5.822   5.937
 6666SOL    HW120897   2.981   5.736   5.954
 6666SOL    HW220898   2.857   5.807   5.875
 6667SOL     OW20899   1.963   5.792   0.053
 6667SOL    HW120900   2.008   5.870   0.096
 6667SOL    HW220901   1.931   5.729   0.124
 6668SOL     OW20902   0.378   3.371   5.936
 6668SOL    HW120903   0.294   3.412   5.901
 6668SOL    HW220904   0.451   3.383   5.869
 6669SOL     OW20905   0.671   3.229   3.374
 6669SOL    HW120906   0.732   3.269   3.442
 6669SOL    HW220907   0.720   3.159   3.322
 6670SOL     OW20908   2.625   4.102   0.515
 6670SOL    HW120909   2.577   4.075   0.599
 6670SOL    HW220910   2.559   4.107   0.440
 6671SOL     OW20911   4.547   4.854   0.436
 6671SOL    HW120912   4.579   4.842   0.342
 6671SOL    HW220913   4.602   4.798   0.498
 6672SOL     OW20914   1.982   2.419   1.281
 6672SOL    HW120915   1.920   2.497   1.280
 6672SOL    HW220916   1.946   2.350   1.344
 6673SOL     OW20917   5.795   3.821   4.105
 6673SOL    HW120918   5.885   3.798   4.141
 6673SOL    HW220919   5.727   3.813   4.178
 6674SOL     OW20920   0.128   0.838   0.459
 6674SOL    HW120921   0.169   0.878   0.376
 6674SOL    HW220922   0.099   0.744   0.440
 6675SOL     OW20923   4.829   1.266   0.517
 6675SOL    HW120924   4.755   1.205   0.490
 6675SOL    HW220925   4.916   1.231   0.482
 6676SOL     OW20926   1.159   3.858   5.412
 6676SOL    HW120927   1.227   3.793   5.445
 6676SOL    HW220928   1.068   3.832   5.444
 6677SOL     OW20929   0.384   2.146   6.959
 6677SOL    HW120930   0.376   2.130   6.861
 6677SOL    HW220931   0.292   2.156   6.998
 6678SOL     OW20932   2.481   4.178   6.713
 6678SOL    HW120933   2.385   4.154   6.701
 6678SOL    HW220934   2.534   4.147   6.634
 6679SOL     OW20935   1.561   0.420   4.264
 6679SOL    HW120936   1.646   0.472   4.251
 6679SOL    HW220937   1.583   0.323   4.271
 6680SOL     OW20938   5.980   5.412   1.863
 6680SOL    HW120939   5.919   5.406   1.783
 6680SOL    HW220940   6.065   5.456   1.837
 6681SOL     OW20941   3.111   5.764   0.775
 6681SOL    HW120942   3.034   5.700   0.771
 6681SOL    HW220943   3.171   5.739   0.851
 6682SOL     OW20944   2.636   5.131   6.460
 6682SOL    HW120945   2.618   5.034   6.473
 6682SOL    HW220946   2.550   5.179   6.443
 6683SOL     OW20947   6.542   5.701   6.209
 6683SOL    HW120948   6.553   5.602   6.205
 6683SOL    HW220949   6.467   5.723   6.272
 6684SOL     OW20950   2.763   6.216   5.985
 6684SOL    HW120951   2.793   6.260   5.901
 6684SOL    HW220952   2.716   6.130   5.963
 6685SOL     OW20953   3.856   2.830   0.457
 6685SOL    HW120954   3.824   2.905   0.515
 6685SOL    HW220955   3.953   2.843   0.436
 6686SOL     OW20956   4.556   4.325   5.215
 6686SOL    HW120957   4.463   4.362   5.203
 6686SOL    HW220958   4.601   4.374   5.290
 6687SOL     OW20959   0.441   2.436   0.794
 6687SOL    HW120960   0.527   2.479   0.821
 6687SOL    HW220961   0.367   2.503   0.798
 6688SOL     OW20962   5.519   5.357   0.793
 6688SOL    HW120963   5.431   5.310   0.792
 6688SOL    HW220964   5.522   5.424   0.719
 6689SOL     OW20965   3.500   5.266   6.267
 6689SOL    HW120966   3.464   5.359   6.281
 6689SOL    HW220967   3.582   5.271   6.210
 6690SOL     OW20968   1.204   0.428   0.598
 6690SOL    HW120969   1.249   0.381   0.523
 6690SOL    HW220970   1.224   0.526   0.594
 6691SOL     OW20971   2.776   1.749   2.120
 6691SOL    HW120972   2.738   1.829   2.165
 6691SOL    HW220973   2.769   1.670   2.180
 6692SOL     OW20974   4.378   6.628   2.103
 6692SOL    HW120975   4.322   6.568   2.161
 6692SOL    HW220976   4.454   6.576   2.064
 6693SOL     OW20977   3.063   1.101   5.699
 6693SOL    HW120978   2.995   1.068   5.634
 6693SOL    HW220979   3.149   1.121   5.651
 6694SOL     OW20980   4.551   3.949   1.450
 6694SOL    HW120981   4.507   4.033   1.482
 6694SOL    HW220982   4.645   3.970   1.422
 6695SOL     OW20983   2.912   2.269   0.430
 6695SOL    HW120984   2.865   2.336   0.487
 6695SOL    HW220985   2.853   2.242   0.354
 6696SOL     OW20986   3.855   3.019   5.193
 6696SOL    HW120987   3.802   2.943   5.230
 6696SOL    HW220988   3.827   3.104   5.239
 6697SOL     OW20989   4.617   2.612   2.806
 6697SOL    HW120990   4.532   2.562   2.821
 6697SOL    HW220991   4.694   2.558   2.841
 6698SOL     OW20992   2.704   3.738   1.670
 6698SOL    HW120993   2.776   3.734   1.738
 6698SOL    HW220994   2.633   3.670   1.693
 6699SOL     OW20995   1.625   3.171   6.613
 6699SOL    HW120996   1.627   3.171   6.713
 6699SOL    HW220997   1.648   3.263   6.579
 6700SOL     OW20998   5.022   0.836   1.552
 6700SOL    HW120999   4.958   0.846   1.628
 6700SOL    HW221000   5.010   0.746   1.510
 6701SOL     OW21001   5.751   0.180   1.372
 6701SOL    HW121002   5.672   0.225   1.414
 6701SOL    HW221003   5.826   0.246   1.363
 6702SOL     OW21004   4.189   2.634   1.030
 6702SOL    HW121005   4.127   2.627   1.108
 6702SOL    HW221006   4.203   2.543   0.991
 6703SOL     OW21007   0.672   1.494   0.186
 6703SOL    HW121008   0.722   1.420   0.140
 6703SOL    HW221009   0.684   1.485   0.285
 6704SOL     OW21010   2.739   0.101   5.697
 6704SOL    HW121011   2.826   0.060   5.671
 6704SOL    HW221012   2.665   0.036   5.681
 6705SOL     OW21013   0.289   4.644   2.205
 6705SOL    HW121014   0.338   4.663   2.120
 6705SOL    HW221015   0.246   4.554   2.199
 6706SOL     OW21016   0.270   5.989   0.098
 6706SOL    HW121017   0.289   6.000   0.196
 6706SOL    HW221018   0.352   5.953   0.052
 6707SOL     OW21019   4.621   1.220   3.086
 6707SOL    HW121020   4.676   1.286   3.035
 6707SOL    HW221021   4.605   1.140   3.030
 6708SOL     OW21022   0.575   3.290   0.374
 6708SOL    HW121023   0.500   3.225   0.388
 6708SOL    HW221024   0.542   3.383   0.389
 6709SOL     OW21025   2.095   4.324   2.024
 6709SOL    HW121026   2.121   4.252   1.960
 6709SOL    HW221027   2.060   4.283   2.109
 6710SOL     OW21028   4.404   1.870   1.083
 6710SOL    HW121029   4.400   1.795   1.149
 6710SOL    HW221030   4.459   1.945   1.121
 6711SOL     OW21031   4.241   5.538   6.189
 6711SOL    HW121032   4.204   5.608   6.250
 6711SOL    HW221033   4.329   5.569   6.153
 6712SOL     OW21034   5.531   3.696   1.145
 6712SOL    HW121035   5.595   3.764   1.183
 6712SOL    HW221036   5.502   3.725   1.053
 6713SOL     OW21037   1.701   4.332   4.122
 6713SOL    HW121038   1.790   4.345   4.165
 6713SOL    HW221039   1.696   4.239   4.085
 6714SOL     OW21040   5.819   1.297   1.939
 6714SOL    HW121041   5.899   1.237   1.936
 6714SOL    HW221042   5.805   1.337   1.848
 6715SOL     OW21043   1.201   0.446   5.957
 6715SOL    HW121044   1.288   0.434   5.909
 6715SOL    HW221045   1.125   0.439   5.892
 6716SOL     OW21046   1.121   5.001   1.689
 6716SOL    HW121047   1.081   4.989   1.599
 6716SOL    HW221048   1.070   5.071   1.739
 6717SOL     OW21049   6.465   2.449   5.439
 6717SOL    HW121050   6.417   2.488   5.518
 6717SOL    HW221051   6.495   2.356   5.461
 6718SOL     OW21052   4.701   2.225   0.797
 6718SOL    HW121053   4.788   2.274   0.809
 6718SOL    HW221054   4.666   2.243   0.705
 6719SOL     OW21055   1.600   1.146   0.648
 6719SOL    HW121056   1.663   1.145   0.571
 6719SOL    HW221057   1.536   1.222   0.638
 6720SOL     OW21058   1.503   1.630   5.202
 6720SOL    HW121059   1.441   1.696   5.245
 6720SOL    HW221060   1.514   1.653   5.106
 6721SOL     OW21061   6.942   6.596   0.503
 6721SOL    HW121062   0.025   6.591   0.486
 6721SOL    HW221063   6.926   6.591   0.602
 6722SOL     OW21064   6.180   4.827   1.047
 6722SOL    HW121065   6.273   4.806   1.018
 6722SOL    HW221066   6.124   4.744   1.040
 6723SOL     OW21067   1.628   3.253   4.368
 6723SOL    HW121068   1.718   3.220   4.394
 6723SOL    HW221069   1.572   3.267   4.450
 6724SOL     OW21070   1.860   3.588   4.953
 6724SOL    HW121071   1.930   3.518   4.968
 6724SOL    HW221072   1.872   3.627   4.862
 6725SOL     OW21073   4.803   3.068   4.052
 6725SOL    HW121074   4.845   3.081   3.962
 6725SOL    HW221075   4.823   3.148   4.109
 6726SOL     OW21076   6.694   1.513   6.936
 6726SOL    HW121077   6.605   1.470   6.943
 6726SOL    HW221078   6.683   1.613   6.938
 6727SOL     OW21079   0.690   5.181   5.657
 6727SOL    HW121080   0.683   5.140   5.566
 6727SOL    HW221081   0.739   5.268   5.650
 6728SOL     OW21082   3.754   1.430   5.009
 6728SOL    HW121083   3.676   1.379   4.973
 6728SOL    HW221084   3.827   1.366   5.033
 6729SOL     OW21085   4.363   0.871   2.513
 6729SOL    HW121086   4.345   0.822   2.427
 6729SOL    HW221087   4.411   0.956   2.493
 6730SOL     OW21088   0.507   2.032   1.082
 6730SOL    HW121089   0.584   1.968   1.080
 6730SOL    HW221090   0.421   1.980   1.074
 6731SOL     OW21091   4.109   0.598   6.408
 6731SOL    HW121092   4.031   0.550   6.367
 6731SOL    HW221093   4.144   0.666   6.344
 6732SOL     OW21094   6.115   5.147   5.609
 6732SOL    HW121095   6.169   5.075   5.565
 6732SOL    HW221096   6.100   5.221   5.544
 6733SOL     OW21097   4.930   5.298   5.517
 6733SOL    HW121098   4.905   5.339   5.429
 6733SOL    HW221099   4.850   5.294   5.576
 6734SOL     OW21100   5.901   2.193   5.086
 6734SOL    HW121101   5.812   2.240   5.092
 6734SOL    HW221102   5.973   2.260   5.066
 6735SOL     OW21103   5.871   3.147   4.609
 6735SOL    HW121104   5.969   3.163   4.617
 6735SOL    HW221105   5.855   3.051   4.583
 6736SOL     OW21106   3.653   4.119   0.492
 6736SOL    HW121107   3.705   4.108   0.576
 6736SOL    HW221108   3.700   4.074   0.416
 6737SOL     OW21109   5.909   3.630   0.569
 6737SOL    HW121110   5.843   3.702   0.547
 6737SOL    HW221111   5.998   3.671   0.588
 6738SOL     OW21112   2.355   6.618   4.548
 6738SOL    HW121113   2.406   6.683   4.604
 6738SOL    HW221114   2.265   6.656   4.526
 6739SOL     OW21115   0.171   0.136   5.813
 6739SOL    HW121116   0.167   0.196   5.733
 6739SOL    HW221117   0.219   0.183   5.887
 6740SOL     OW21118   0.437   6.697   2.008
 6740SOL    HW121119   0.523   6.701   2.060
 6740SOL    HW221120   0.362   6.730   2.065
 6741SOL     OW21121   3.220   2.256   0.452
 6741SOL    HW121122   3.125   2.278   0.431
 6741SOL    HW221123   3.266   2.224   0.369
 6742SOL     OW21124   6.632   4.549   2.534
 6742SOL    HW121125   6.622   4.647   2.521
 6742SOL    HW221126   6.625   4.503   2.445
 6743SOL     OW21127   3.771   3.711   6.937
 6743SOL    HW121128   3.726   3.794   6.905
 6743SOL    HW221129   3.703   3.639   6.948
 6744SOL     OW21130   6.792   6.530   5.932
 6744SOL    HW121131   6.713   6.544   5.872
 6744SOL    HW221132   6.830   6.439   5.917
 6745SOL     OW21133   5.579   3.870   5.417
 6745SOL    HW121134   5.539   3.962   5.419
 6745SOL    HW221135   5.676   3.877   5.394
 6746SOL     OW21136   0.941   2.236   2.952
 6746SOL    HW121137   0.901   2.323   2.983
 6746SOL    HW221138   0.993   2.252   2.868
 6747SOL     OW21139   1.340   6.015   4.761
 6747SOL    HW121140   1.347   5.949   4.836
 6747SOL    HW221141   1.252   6.063   4.767
 6748SOL     OW21142   1.670   1.619   4.395
 6748SOL    HW121143   1.588   1.665   4.362
 6748SOL    HW221144   1.694   1.655   4.486
 6749SOL     OW21145   4.028   4.784   2.078
 6749SOL    HW121146   4.027   4.765   2.176
 6749SOL    HW221147   3.937   4.811   2.048
 6750SOL     OW21148   3.900   0.942   5.925
 6750SOL    HW121149   3.826   0.965   5.988
 6750SOL    HW221150   3.867   0.949   5.831
 6751SOL     OW21151   4.209   1.153   4.612
 6751SOL    HW121152   4.141   1.220   4.579
 6751SOL    HW221153   4.181   1.119   4.702
 6752SOL     OW21154   1.860   4.794   2.956
 6752SOL    HW121155   1.923   4.721   2.932
 6752SOL    HW221156   1.767   4.757   2.962
 6753SOL     OW21157   3.414   4.117   0.340
 6753SOL    HW121158   3.492   4.127   0.403
 6753SOL    HW221159   3.447   4.082   0.253
 6754SOL     OW21160   6.321   1.300   0.641
 6754SOL    HW121161   6.346   1.284   0.546
 6754SOL    HW221162   6.225   1.279   0.655
 6755SOL     OW21163   3.865   6.065   5.676
 6755SOL    HW121164   3.956   6.040   5.642
 6755SOL    HW221165   3.808   6.095   5.599
 6756SOL     OW21166   4.212   3.329   6.047
 6756SOL    HW121167   4.165   3.322   6.135
 6756SOL    HW221168   4.153   3.374   5.981
 6757SOL     OW21169   4.377   6.840   1.809
 6757SOL    HW121170   4.399   6.891   1.726
 6757SOL    HW221171   4.429   6.876   1.886
 6758SOL     OW21172   5.228   3.476   3.227
 6758SOL    HW121173   5.249   3.555   3.284
 6758SOL    HW221174   5.159   3.501   3.160
 6759SOL     OW21175   1.573   1.849   2.627
 6759SOL    HW121176   1.520   1.901   2.694
 6759SOL    HW221177   1.661   1.895   2.611
 6760SOL     OW21178   5.766   2.041   5.527
 6760SOL    HW121179   5.778   2.127   5.578
 6760SOL    HW221180   5.785   1.964   5.587
 6761SOL     OW21181   3.002   0.734   5.003
 6761SOL    HW121182   3.014   0.791   4.922
 6761SOL    HW221183   3.073   0.664   5.005
 6762SOL     OW21184   5.897   4.972   4.237
 6762SOL    HW121185   5.991   4.939   4.249
 6762SOL    HW221186   5.894   5.070   4.254
 6763SOL     OW21187   5.629   6.594   4.044
 6763SOL    HW121188   5.580   6.571   4.127
 6763SOL    HW221189   5.722   6.624   4.067
 6764SOL     OW21190   0.612   4.888   1.552
 6764SOL    HW121191   0.632   4.928   1.463
 6764SOL    HW221192   0.518   4.908   1.578
 6765SOL     OW21193   0.015   4.064   2.872
 6765SOL    HW121194   6.946   4.099   2.830
 6765SOL    HW221195   0.017   4.089   2.969
 6766SOL     OW21196   5.688   0.251   1.102
 6766SOL    HW121197   5.657   0.222   1.193
 6766SOL    HW221198   5.781   0.288   1.109
 6767SOL     OW21199   3.076   0.531   1.242
 6767SOL    HW121200   2.977   0.530   1.254
 6767SOL    HW221201   3.120   0.536   1.332
 6768SOL     OW21202   2.194   6.855   6.785
 6768SOL    HW121203   2.201   6.871   6.884
 6768SOL    HW221204   2.111   6.897   6.750
 6769SOL     OW21205   5.147   3.261   1.087
 6769SOL    HW121206   5.140   3.162   1.078
 6769SOL    HW221207   5.088   3.292   1.162
 6770SOL     OW21208   6.995   1.323   1.872
 6770SOL    HW121209   0.045   1.383   1.918
 6770SOL    HW221210   6.987   1.238   1.923
 6771SOL     OW21211   5.046   1.817   3.543
 6771SOL    HW121212   5.032   1.907   3.500
 6771SOL    HW221213   5.030   1.824   3.642
 6772SOL     OW21214   3.294   1.869   4.773
 6772SOL    HW121215   3.201   1.907   4.767
 6772SOL    HW221216   3.303   1.817   4.858
 6773SOL     OW21217   0.446   3.769   1.720
 6773SOL    HW121218   0.420   3.853   1.766
 6773SOL    HW221219   0.538   3.778   1.681
 6774SOL     OW21220   1.203   2.262   6.481
 6774SOL    HW121221   1.107   2.282   6.502
 6774SOL    HW221222   1.262   2.318   6.538
 6775SOL     OW21223   0.612   3.911   6.984
 6775SOL    HW121224   0.670   3.893   0.048
 6775SOL    HW221225   0.670   3.925   6.903
 6776SOL     OW21226   5.964   6.061   6.863
 6776SOL    HW121227   5.912   6.139   6.830
 6776SOL    HW221228   5.908   6.008   6.927
 6777SOL     OW21229   4.708   4.887   6.766
 6777SOL    HW121230   4.792   4.935   6.742
 6777SOL    HW221231   4.720   4.843   6.855
 6778SOL     OW21232   6.491   5.661   3.549
 6778SOL    HW121233   6.495   5.643   3.647
 6778SOL    HW221234   6.399   5.641   3.514
 6779SOL     OW21235   5.719   3.841   6.381
 6779SOL    HW121236   5.690   3.756   6.338
 6779SOL    HW221237   5.677   3.849   6.471
 6780SOL     OW21238   0.503   3.276   1.570
 6780SOL    HW121239   0.557   3.313   1.494
 6780SOL    HW221240   0.481   3.180   1.552
 6781SOL     OW21241   5.446   5.104   5.613
 6781SOL    HW121242   5.513   5.098   5.539
 6781SOL    HW221243   5.401   5.194   5.609
 6782SOL     OW21244   5.571   0.894   3.099
 6782SOL    HW121245   5.654   0.875   3.150
 6782SOL    HW221246   5.524   0.973   3.139
 6783SOL     OW21247   1.433   5.631   6.548
 6783SOL    HW121248   1.347   5.643   6.597
 6783SOL    HW221249   1.488   5.714   6.556
 6784SOL     OW21250   3.770   3.384   0.012
 6784SOL    HW121251   3.823   3.362   6.945
 6784SOL    HW221252   3.676   3.407   7.001
 6785SOL     OW21253   5.750   5.586   2.116
 6785SOL    HW121254   5.765   5.665   2.176
 6785SOL    HW221255   5.755   5.617   2.021
 6786SOL     OW21256   1.667   3.387   5.656
 6786SOL    HW121257   1.625   3.476   5.639
 6786SOL    HW221258   1.745   3.375   5.596
 6787SOL     OW21259   1.198   4.013   1.352
 6787SOL    HW121260   1.197   3.993   1.254
 6787SOL    HW221261   1.107   4.039   1.382
 6788SOL     OW21262   2.479   3.820   1.296
 6788SOL    HW121263   2.501   3.883   1.370
 6788SOL    HW221264   2.515   3.729   1.318
 6789SOL     OW21265   1.082   4.951   3.261
 6789SOL    HW121266   1.112   5.031   3.209
 6789SOL    HW221267   1.094   4.968   3.358
 6790SOL     OW21268   1.459   2.470   1.051
 6790SOL    HW121269   1.556   2.489   1.038
 6790SOL    HW221270   1.446   2.377   1.084
 6791SOL     OW21271   3.378   3.985   6.000
 6791SOL    HW121272   3.283   3.963   6.019
 6791SOL    HW221273   3.438   3.923   6.052
 6792SOL     OW21274   0.393   4.767   0.677
 6792SOL    HW121275   0.437   4.681   0.705
 6792SOL    HW221276   0.339   4.751   0.594
 6793SOL     OW21277   5.749   1.514   1.199
 6793SOL    HW121278   5.769   1.539   1.104
 6793SOL    HW221279   5.790   1.425   1.219
 6794SOL     OW21280   3.861   1.344   4.699
 6794SOL    HW121281   3.929   1.335   4.627
 6794SOL    HW221282   3.781   1.393   4.664
 6795SOL     OW21283   3.495   6.269   0.131
 6795SOL    HW121284   3.585   6.228   0.148
 6795SOL    HW221285   3.507   6.358   0.087
 6796SOL     OW21286   4.069   1.969   2.619
 6796SOL    HW121287   4.147   1.958   2.680
 6796SOL    HW221288   4.010   2.042   2.653
 6797SOL     OW21289   6.734   2.211   2.098
 6797SOL    HW121290   6.685   2.183   2.181
 6797SOL    HW221291   6.672   2.207   2.020
 6798SOL     OW21292   6.794   0.072   2.146
 6798SOL    HW121293   6.798   0.136   2.069
 6798SOL    HW221294   6.878   0.080   2.200
 6799SOL     OW21295   5.316   5.799   1.669
 6799SOL    HW121296   5.331   5.897   1.685
 6799SOL    HW221297   5.277   5.757   1.751
 6800SOL     OW21298   3.490   4.138   6.674
 6800SOL    HW121299   3.439   4.128   6.588
 6800SOL    HW221300   3.507   4.235   6.690
 6801SOL     OW21301   1.016   2.768   2.767
 6801SOL    HW121302   1.017   2.691   2.831
 6801SOL    HW221303   1.025   2.853   2.819
 6802SOL     OW21304   2.832   4.759   2.468
 6802SOL    HW121305   2.837   4.833   2.401
 6802SOL    HW221306   2.802   4.675   2.422
 6803SOL     OW21307   3.700   2.489   0.836
 6803SOL    HW121308   3.746   2.518   0.920
 6803SOL    HW221309   3.648   2.565   0.798
 6804SOL     OW21310   1.154   6.638   3.602
 6804SOL    HW121311   1.124   6.654   3.697
 6804SOL    HW221312   1.074   6.638   3.542
 6805SOL     OW21313   5.435   1.362   5.463
 6805SOL    HW121314   5.427   1.271   5.422
 6805SOL    HW221315   5.450   1.353   5.561
 6806SOL     OW21316   5.499   6.541   5.230
 6806SOL    HW121317   5.481   6.639   5.226
 6806SOL    HW221318   5.418   6.490   5.203
 6807SOL     OW21319   3.023   3.689   6.862
 6807SOL    HW121320   2.939   3.674   6.810
 6807SOL    HW221321   3.001   3.738   6.947
 6808SOL     OW21322   2.097   3.615   4.057
 6808SOL    HW121323   2.141   3.621   4.146
 6808SOL    HW221324   2.050   3.527   4.048
 6809SOL     OW21325   1.528   3.965   0.101
 6809SOL    HW121326   1.503   3.995   0.009
 6809SOL    HW221327   1.465   4.004   0.167
 6810SOL     OW21328   5.564   1.297   3.411
 6810SOL    HW121329   5.647   1.334   3.453
 6810SOL    HW221330   5.545   1.347   3.327
 6811SOL     OW21331   4.956   5.951   1.848
 6811SOL    HW121332   5.016   6.006   1.789
 6811SOL    HW221333   4.908   5.884   1.792
 6812SOL     OW21334   3.696   3.213   2.621
 6812SOL    HW121335   3.648   3.218   2.709
 6812SOL    HW221336   3.760   3.135   2.623
 6813SOL     OW21337   5.304   3.484   1.059
 6813SOL    HW121338   5.300   3.538   0.975
 6813SOL    HW221339   5.249   3.401   1.048
 6814SOL     OW21340   2.420   3.240   0.538
 6814SOL    HW121341   2.347   3.225   0.604
 6814SOL    HW221342   2.503   3.195   0.569
 6815SOL     OW21343   1.479   0.419   0.891
 6815SOL    HW121344   1.478   0.477   0.809
 6815SOL    HW221345   1.390   0.424   0.936
 6816SOL     OW21346   6.432   4.316   1.096
 6816SOL    HW121347   6.417   4.376   1.017
 6816SOL    HW221348   6.411   4.222   1.071
 6817SOL     OW21349   0.567   2.562   6.142
 6817SOL    HW121350   0.486   2.616   6.162
 6817SOL    HW221351   0.552   2.507   6.060
 6818SOL     OW21352   3.919   5.212   1.265
 6818SOL    HW121353   3.856   5.258   1.329
 6818SOL    HW221354   4.012   5.218   1.300
 6819SOL     OW21355   2.766   1.608   4.162
 6819SOL    HW121356   2.753   1.696   4.116
 6819SOL    HW221357   2.855   1.607   4.208
 6820SOL     OW21358   1.738   5.211   4.550
 6820SOL    HW121359   1.749   5.174   4.642
 6820SOL    HW221360   1.815   5.185   4.493
 6821SOL     OW21361   2.226   3.019   4.047
 6821SOL    HW121362   2.182   3.095   4.095
 6821SOL    HW221363   2.289   2.973   4.109
 6822SOL     OW21364   4.636   2.045   6.065
 6822SOL    HW121365   4.585   1.971   6.022
 6822SOL    HW221366   4.727   2.051   6.024
 6823SOL     OW21367   3.864   3.329   1.994
 6823SOL    HW121368   3.929   3.381   2.050
 6823SOL    HW221369   3.771   3.345   2.028
 6824SOL     OW21370   1.094   5.130   5.264
 6824SOL    HW121371   1.116   5.190   5.187
 6824SOL    HW221372   1.157   5.052   5.265
 6825SOL     OW21373   5.685   0.255   3.721
 6825SOL    HW121374   5.686   0.342   3.671
 6825SOL    HW221375   5.594   0.214   3.714
 6826SOL     OW21376   0.879   3.080   3.153
 6826SOL    HW121377   0.888   3.044   3.060
 6826SOL    HW221378   0.943   3.157   3.165
 6827SOL     OW21379   5.340   5.761   5.265
 6827SOL    HW121380   5.383   5.673   5.286
 6827SOL    HW221381   5.339   5.818   5.346
 6828SOL     OW21382   2.090   1.646   1.375
 6828SOL    HW121383   1.991   1.658   1.386
 6828SOL    HW221384   2.131   1.622   1.463
 6829SOL     OW21385   5.618   5.184   3.619
 6829SOL    HW121386   5.528   5.222   3.642
 6829SOL    HW221387   5.609   5.125   3.538
 6830SOL     OW21388   4.918   1.977   4.067
 6830SOL    HW121389   4.872   1.978   4.156
 6830SOL    HW221390   4.873   1.912   4.006
 6831SOL     OW21391   0.016   1.455   5.944
 6831SOL    HW121392   0.041   1.490   6.034
 6831SOL    HW221393   0.098   1.451   5.886
 6832SOL     OW21394   3.132   4.852   1.480
 6832SOL    HW121395   3.136   4.763   1.526
 6832SOL    HW221396   3.038   4.884   1.476
 6833SOL     OW21397   4.414   5.941   6.999
 6833SOL    HW121398   4.409   5.929   6.900
 6833SOL    HW221399   4.324   5.924   0.024
 6834SOL     OW21400   3.206   5.437   2.361
 6834SOL    HW121401   3.252   5.523   2.381
 6834SOL    HW221402   3.118   5.434   2.409
 6835SOL     OW21403   4.009   0.125   4.743
 6835SOL    HW121404   4.023   0.042   4.797
 6835SOL    HW221405   4.094   0.147   4.693
 6836SOL     OW21406   3.871   5.767   0.125
 6836SOL    HW121407   3.941   5.755   0.055
 6836SOL    HW221408   3.874   5.691   0.190
 6837SOL     OW21409   0.324   3.300   3.084
 6837SOL    HW121410   0.330   3.395   3.052
 6837SOL    HW221411   0.263   3.249   3.023
 6838SOL     OW21412   2.570   1.468   1.320
 6838SOL    HW121413   2.532   1.560   1.314
 6838SOL    HW221414   2.628   1.452   1.240
 6839SOL     OW21415   4.559   0.881   1.776
 6839SOL    HW121416   4.567   0.890   1.875
 6839SOL    HW221417   4.468   0.909   1.747
 6840SOL     OW21418   1.110   1.249   6.704
 6840SOL    HW121419   1.190   1.270   6.648
 6840SOL    HW221420   1.029   1.242   6.646
 6841SOL     OW21421   0.290   2.854   5.475
 6841SOL    HW121422   0.320   2.947   5.454
 6841SOL    HW221423   0.262   2.848   5.571
 6842SOL     OW21424   2.548   4.562   2.280
 6842SOL    HW121425   2.592   4.641   2.237
 6842SOL    HW221426   2.482   4.522   2.216
 6843SOL     OW21427   4.500   0.264   1.153
 6843SOL    HW121428   4.482   0.241   1.057
 6843SOL    HW221429   4.593   0.239   1.177
 6844SOL     OW21430   5.426   0.535   5.633
 6844SOL    HW121431   5.365   0.500   5.705
 6844SOL    HW221432   5.477   0.459   5.593
 6845SOL     OW21433   5.398   2.076   2.637
 6845SOL    HW121434   5.474   2.136   2.612
 6845SOL    HW221435   5.328   2.130   2.683
 6846SOL     OW21436   2.125   3.626   0.322
 6846SOL    HW121437   2.196   3.574   0.276
 6846SOL    HW221438   2.035   3.600   0.285
 6847SOL     OW21439   6.917   2.408   4.561
 6847SOL    HW121440   6.919   2.451   4.652
 6847SOL    HW221441   6.948   2.314   4.568
 6848SOL     OW21442   0.226   4.987   3.475
 6848SOL    HW121443   0.255   4.900   3.515
 6848SOL    HW221444   0.135   4.976   3.436
 6849SOL     OW21445   2.591   4.426   5.812
 6849SOL    HW121446   2.492   4.416   5.797
 6849SOL    HW221447   2.638   4.420   5.724
 6850SOL     OW21448   5.014   0.212   4.196
 6850SOL    HW121449   5.056   0.174   4.278
 6850SOL    HW221450   5.082   0.266   4.146
 6851SOL     OW21451   1.826   3.979   2.792
 6851SOL    HW121452   1.813   4.076   2.774
 6851SOL    HW221453   1.796   3.925   2.713
 6852SOL     OW21454   4.144   3.632   0.299
 6852SOL    HW121455   4.092   3.567   0.244
 6852SOL    HW221456   4.098   3.644   0.387
 6853SOL     OW21457   3.878   4.834   6.001
 6853SOL    HW121458   3.793   4.886   5.992
 6853SOL    HW221459   3.889   4.774   5.922
 6854SOL     OW21460   4.869   6.129   5.875
 6854SOL    HW121461   4.888   6.143   5.972
 6854SOL    HW221462   4.778   6.089   5.864
 6855SOL     OW21463   4.353   4.922   3.126
 6855SOL    HW121464   4.409   4.851   3.082
 6855SOL    HW221465   4.265   4.883   3.152
 6856SOL     OW21466   6.486   2.921   0.340
 6856SOL    HW121467   6.584   2.940   0.345
 6856SOL    HW221468   6.458   2.918   0.244
 6857SOL     OW21469   1.034   4.321   5.653
 6857SOL    HW121470   1.051   4.264   5.733
 6857SOL    HW221471   1.026   4.263   5.572
 6858SOL     OW21472   1.393   3.439   1.459
 6858SOL    HW121473   1.372   3.426   1.555
 6858SOL    HW221474   1.450   3.362   1.427
 6859SOL     OW21475   1.978   1.735   0.980
 6859SOL    HW121476   1.980   1.817   1.036
 6859SOL    HW221477   1.883   1.707   0.965
 6860SOL     OW21478   0.229   6.515   6.965
 6860SOL    HW121479   0.271   6.494   0.038
 6860SOL    HW221480   0.272   6.461   6.893
 6861SOL     OW21481   6.215   3.468   6.561
 6861SOL    HW121482   6.120   3.499   6.558
 6861SOL    HW221483   6.253   3.470   6.468
 6862SOL     OW21484   0.594   4.582   3.889
 6862SOL    HW121485   0.624   4.603   3.982
 6862SOL    HW221486   0.669   4.598   3.825
 6863SOL     OW21487   4.916   1.484   4.896
 6863SOL    HW121488   4.856   1.495   4.975
 6863SOL    HW221489   4.988   1.418   4.917
 6864SOL     OW21490   2.127   3.564   6.479
 6864SOL    HW121491   2.197   3.514   6.429
 6864SOL    HW221492   2.074   3.500   6.535
 6865SOL     OW21493   2.148   7.009   4.464
 6865SOL    HW121494   2.120   6.954   4.385
 6865SOL    HW221495   2.098   6.979   4.545
 6866SOL     OW21496   2.023   4.526   6.937
 6866SOL    HW121497   2.036   4.435   6.976
 6866SOL    HW221498   1.925   4.549   6.937
 6867SOL     OW21499   1.976   2.444   6.258
 6867SOL    HW121500   1.988   2.489   6.170
 6867SOL    HW221501   1.903   2.490   6.309
 6868SOL     OW21502   3.574   4.867   3.059
 6868SOL    HW121503   3.565   4.959   3.096
 6868SOL    HW221504   3.580   4.802   3.135
 6869SOL     OW21505   1.557   0.817   5.617
 6869SOL    HW121506   1.572   0.720   5.601
 6869SOL    HW221507   1.580   0.839   5.711
 6870SOL     OW21508   5.782   2.600   6.400
 6870SOL    HW121509   5.827   2.686   6.378
 6870SOL    HW221510   5.700   2.618   6.454
 6871SOL     OW21511   6.583   2.580   2.753
 6871SOL    HW121512   6.546   2.491   2.728
 6871SOL    HW221513   6.658   2.567   2.818
 6872SOL     OW21514   1.260   4.015   1.068
 6872SOL    HW121515   1.300   3.927   1.095
 6872SOL    HW221516   1.329   4.072   1.024
 6873SOL     OW21517   0.456   4.170   2.720
 6873SOL    HW121518   0.364   4.187   2.756
 6873SOL    HW221519   0.464   4.075   2.691
 6874SOL     OW21520   4.694   6.623   2.294
 6874SOL    HW121521   4.620   6.556   2.294
 6874SOL    HW221522   4.672   6.698   2.356
 6875SOL     OW21523   2.769   1.037   6.991
 6875SOL    HW121524   2.741   1.046   0.072
 6875SOL    HW221525   2.825   0.955   6.981
 6876SOL     OW21526   5.482   5.239   3.141
 6876SOL    HW121527   5.564   5.245   3.199
 6876SOL    HW221528   5.415   5.307   3.171
 6877SOL     OW21529   0.462   4.760   1.263
 6877SOL    HW121530   0.552   4.725   1.290
 6877SOL    HW221531   0.473   4.829   1.191
 6878SOL     OW21532   2.225   0.693   4.617
 6878SOL    HW121533   2.188   0.604   4.640
 6878SOL    HW221534   2.308   0.681   4.562
 6879SOL     OW21535   1.449   1.704   1.608
 6879SOL    HW121536   1.465   1.754   1.522
 6879SOL    HW221537   1.397   1.621   1.589
 6880SOL     OW21538   2.069   6.495   0.672
 6880SOL    HW121539   2.014   6.522   0.593
 6880SOL    HW221540   2.032   6.537   0.755
 6881SOL     OW21541   0.093   3.594   0.312
 6881SOL    HW121542   0.092   3.509   0.261
 6881SOL    HW221543   0.176   3.645   0.292
 6882SOL     OW21544   2.815   6.576   0.188
 6882SOL    HW121545   2.839   6.593   0.284
 6882SOL    HW221546   2.720   6.603   0.172
 6883SOL     OW21547   4.910   0.705   1.125
 6883SOL    HW121548   4.827   0.705   1.181
 6883SOL    HW221549   4.889   0.670   1.034
 6884SOL     OW21550   1.874   4.807   3.969
 6884SOL    HW121551   1.805   4.879   3.979
 6884SOL    HW221552   1.939   4.832   3.897
 6885SOL     OW21553   5.657   5.093   4.653
 6885SOL    HW121554   5.725   5.047   4.711
 6885SOL    HW221555   5.569   5.096   4.701
 6886SOL     OW21556   5.114   3.192   0.048
 6886SOL    HW121557   5.044   3.243   0.097
 6886SOL    HW221558   5.141   3.112   0.103
 6887SOL     OW21559   5.755   6.459   5.640
 6887SOL    HW121560   5.690   6.453   5.565
 6887SOL    HW221561   5.743   6.382   5.702
 6888SOL     OW21562   6.721   4.143   7.006
 6888SOL    HW121563   6.750   4.180   6.917
 6888SOL    HW221564   6.687   4.050   6.994
 6889SOL     OW21565   6.994   2.279   5.540
 6889SOL    HW121566   6.948   2.200   5.499
 6889SOL    HW221567   6.960   2.291   5.634
 6890SOL     OW21568   4.847   4.861   4.155
 6890SOL    HW121569   4.809   4.817   4.237
 6890SOL    HW221570   4.851   4.794   4.081
 6891SOL     OW21571   1.822   1.454   0.891
 6891SOL    HW121572   1.900   1.485   0.945
 6891SOL    HW221573   1.845   1.456   0.794
 6892SOL     OW21574   2.362   0.886   5.101
 6892SOL    HW121575   2.447   0.874   5.152
 6892SOL    HW221576   2.303   0.951   5.149
 6893SOL     OW21577   6.113   2.840   0.229
 6893SOL    HW121578   6.201   2.794   0.242
 6893SOL    HW221579   6.054   2.822   0.307
 6894SOL     OW21580   5.411   4.777   0.271
 6894SOL    HW121581   5.436   4.715   0.197
 6894SOL    HW221582   5.391   4.867   0.234
 6895SOL     OW21583   0.923   5.362   2.076
 6895SOL    HW121584   0.973   5.444   2.104
 6895SOL    HW221585   0.987   5.288   2.056
 6896SOL     OW21586   5.596   1.242   6.099
 6896SOL    HW121587   5.683   1.194   6.087
 6896SOL    HW221588   5.522   1.186   6.062
 6897SOL     OW21589   4.420   2.687   5.220
 6897SOL    HW121590   4.322   2.683   5.203
 6897SOL    HW221591   4.440   2.763   5.282
 6898SOL     OW21592   1.803   6.965   1.364
 6898SOL    HW121593   1.807   6.890   1.430
 6898SOL    HW221594   1.894   7.005   1.353
 6899SOL     OW21595   5.021   5.400   2.253
 6899SOL    HW121596   5.080   5.479   2.236
 6899SOL    HW221597   4.925   5.427   2.240
 6900SOL     OW21598   6.721   3.863   4.321
 6900SOL    HW121599   6.647   3.898   4.264
 6900SOL    HW221600   6.726   3.915   4.406
 6901SOL     OW21601   4.778   4.944   5.933
 6901SOL    HW121602   4.823   5.019   5.884
 6901SOL    HW221603   4.680   4.962   5.939
 6902SOL     OW21604   0.110   5.196   5.956
 6902SOL    HW121605   0.116   5.296   5.949
 6902SOL    HW221606   0.049   5.162   5.885
 6903SOL     OW21607   1.695   6.111   5.647
 6903SOL    HW121608   1.748   6.134   5.566
 6903SOL    HW221609   1.598   6.112   5.625
 6904SOL     OW21610   0.502   0.540   5.861
 6904SOL    HW121611   0.589   0.569   5.821
 6904SOL    HW221612   0.472   0.609   5.927
 6905SOL     OW21613   4.699   6.405   5.410
 6905SOL    HW121614   4.733   6.498   5.398
 6905SOL    HW221615   4.772   6.340   5.391
 6906SOL     OW21616   2.994   1.397   3.479
 6906SOL    HW121617   3.008   1.299   3.478
 6906SOL    HW221618   2.896   1.417   3.465
 6907SOL     OW21619   5.639   2.279   0.742
 6907SOL    HW121620   5.584   2.331   0.677
 6907SOL    HW221621   5.735   2.283   0.716
 6908SOL     OW21622   3.837   6.015   0.557
 6908SOL    HW121623   3.889   5.930   0.565
 6908SOL    HW221624   3.873   6.070   0.482
 6909SOL     OW21625   5.844   4.008   1.729
 6909SOL    HW121626   5.751   4.043   1.719
 6909SOL    HW221627   5.876   4.027   1.822
 6910SOL     OW21628   0.840   2.546   2.333
 6910SOL    HW121629   0.912   2.614   2.313
 6910SOL    HW221630   0.775   2.585   2.398
 6911SOL     OW21631   2.694   6.458   5.337
 6911SOL    HW121632   2.750   6.398   5.395
 6911SOL    HW221633   2.687   6.548   5.379
 6912SOL     OW21634   3.459   4.207   6.955
 6912SOL    HW121635   3.432   4.194   6.860
 6912SOL    HW221636   3.453   4.120   7.004
 6913SOL     OW21637   4.054   5.888   5.926
 6913SOL    HW121638   3.963   5.925   5.944
 6913SOL    HW221639   4.103   5.876   6.012
 6914SOL     OW21640   6.897   2.188   2.888
 6914SOL    HW121641   6.820   2.166   2.828
 6914SOL    HW221642   6.862   2.231   2.972
 6915SOL     OW21643   0.028   3.573   3.743
 6915SOL    HW121644   6.983   3.514   3.798
 6915SOL    HW221645   0.117   3.582   3.788
 6916SOL     OW21646   4.493   6.302   5.573
 6916SOL    HW121647   4.568   6.330   5.513
 6916SOL    HW221648   4.489   6.202   5.579
 6917SOL     OW21649   3.811   6.308   1.965
 6917SOL    HW121650   3.823   6.250   2.046
 6917SOL    HW221651   3.793   6.402   1.993
 6918SOL     OW21652   1.618   3.723   0.257
 6918SOL    HW121653   1.576   3.793   0.198
 6918SOL    HW221654   1.622   3.757   0.351
 6919SOL     OW21655   6.318   5.753   3.231
 6919SOL    HW121656   6.221   5.759   3.208
 6919SOL    HW221657   6.329   5.698   3.314
 6920SOL     OW21658   0.018   2.549   5.587
 6920SOL    HW121659   0.015   2.455   5.553
 6920SOL    HW221660   6.941   2.577   5.616
 6921SOL     OW21661   3.010   0.398   4.334
 6921SOL    HW121662   3.047   0.373   4.244
 6921SOL    HW221663   2.978   0.316   4.381
 6922SOL     OW21664   3.068   5.084   6.588
 6922SOL    HW121665   3.035   5.138   6.511
 6922SOL    HW221666   3.013   5.001   6.597
 6923SOL     OW21667   4.973   0.046   3.428
 6923SOL    HW121668   4.943   0.141   3.431
 6923SOL    HW221669   4.895   7.001   3.411
 6924SOL     OW21670   3.142   5.043   1.824
 6924SOL    HW121671   3.166   5.124   1.877
 6924SOL    HW221672   3.181   4.962   1.868
 6925SOL     OW21673   6.335   6.498   5.031
 6925SOL    HW121674   6.404   6.496   5.102
 6925SOL    HW221675   6.302   6.405   5.014
 6926SOL     OW21676   2.853   2.136   0.674
 6926SOL    HW121677   2.756   2.160   0.680
 6926SOL    HW221678   2.888   2.164   0.585
 6927SOL     OW21679   3.382   0.647   6.531
 6927SOL    HW121680   3.425   0.735   6.547
 6927SOL    HW221681   3.334   0.648   6.443
 6928SOL     OW21682   3.605   5.826   0.256
 6928SOL    HW121683   3.679   5.875   0.211
 6928SOL    HW221684   3.553   5.888   0.314
 6929SOL     OW21685   4.758   5.327   2.893
 6929SOL    HW121686   4.693   5.403   2.893
 6929SOL    HW221687   4.788   5.309   2.987
 6930SOL     OW21688   1.018   6.345   1.951
 6930SOL    HW121689   1.102   6.364   2.003
 6930SOL    HW221690   1.017   6.400   1.868
 6931SOL     OW21691   3.214   3.207   0.982
 6931SOL    HW121692   3.286   3.276   0.987
 6931SOL    HW221693   3.229   3.139   1.053
 6932SOL     OW21694   4.377   0.484   6.813
 6932SOL    HW121695   4.291   0.450   6.773
 6932SOL    HW221696   4.356   0.544   6.890
 6933SOL     OW21697   2.985   6.091   5.818
 6933SOL    HW121698   2.900   6.117   5.863
 6933SOL    HW221699   3.016   6.003   5.852
 6934SOL     OW21700   5.368   4.991   0.130
 6934SOL    HW121701   5.423   4.966   0.051
 6934SOL    HW221702   5.409   5.069   0.176
 6935SOL     OW21703   4.349   5.998   1.777
 6935SOL    HW121704   4.314   5.918   1.728
 6935SOL    HW221705   4.343   6.078   1.718
 6936SOL     OW21706   0.933   1.926   6.986
 6936SOL    HW121707   0.903   1.903   0.063
 6936SOL    HW221708   0.858   1.968   6.935
 6937SOL     OW21709   5.636   4.828   0.446
 6937SOL    HW121710   5.564   4.806   0.379
 6937SOL    HW221711   5.600   4.814   0.538
 6938SOL     OW21712   3.567   0.583   4.734
 6938SOL    HW121713   3.635   0.650   4.705
 6938SOL    HW221714   3.614   0.505   4.777
 6939SOL     OW21715   5.485   2.803   3.544
 6939SOL    HW121716   5.543   2.780   3.465
 6939SOL    HW221717   5.543   2.835   3.619
 6940SOL     OW21718   2.344   6.354   1.661
 6940SOL    HW121719   2.359   6.408   1.578
 6940SOL    HW221720   2.319   6.416   1.736
 6941SOL     OW21721   3.618   2.927   2.744
 6941SOL    HW121722   3.534   2.943   2.795
 6941SOL    HW221723   3.596   2.918   2.647
 6942SOL     OW21724   6.388   4.771   3.154
 6942SOL    HW121725   6.361   4.769   3.250
 6942SOL    HW221726   6.461   4.705   3.138
 6943SOL     OW21727   3.671   5.161   5.740
 6943SOL    HW121728   3.696   5.122   5.652
 6943SOL    HW221729   3.573   5.177   5.743
 6944SOL     OW21730   0.537   5.185   4.820
 6944SOL    HW121731   0.610   5.184   4.752
 6944SOL    HW221732   0.565   5.132   4.900
 6945SOL     OW21733   4.553   1.472   0.648
 6945SOL    HW121734   4.532   1.384   0.691
 6945SOL    HW221735   4.562   1.460   0.550
 6946SOL     OW21736   5.646   5.933   2.316
 6946SOL    HW121737   5.643   6.018   2.264
 6946SOL    HW221738   5.734   5.887   2.301
 6947SOL     OW21739   6.029   4.170   5.307
 6947SOL    HW121740   6.065   4.113   5.381
 6947SOL    HW221741   6.104   4.196   5.246
 6948SOL     OW21742   6.991   4.318   6.536
 6948SOL    HW121743   0.063   4.334   6.582
 6948SOL    HW221744   7.002   4.246   6.467
 6949SOL     OW21745   2.945   1.222   2.891
 6949SOL    HW121746   2.892   1.138   2.879
 6949SOL    HW221747   2.903   1.295   2.838
 6950SOL     OW21748   1.945   1.094   3.815
 6950SOL    HW121749   1.860   1.142   3.794
 6950SOL    HW221750   1.981   1.125   3.903
 6951SOL     OW21751   1.360   3.758   0.010
 6951SOL    HW121752   1.334   3.780   6.931
 6951SOL    HW221753   1.449   3.799   0.030
 6952SOL     OW21754   4.171   5.640   3.312
 6952SOL    HW121755   4.088   5.595   3.280
 6952SOL    HW221756   4.147   5.727   3.355
 6953SOL     OW21757   0.040   1.044   1.981
 6953SOL    HW121758   6.977   0.980   1.983
 6953SOL    HW221759   0.115   1.002   1.931
 6954SOL     OW21760   6.421   4.502   5.758
 6954SOL    HW121761   6.498   4.562   5.736
 6954SOL    HW221762   6.364   4.491   5.677
 6955SOL     OW21763   4.518   5.644   2.470
 6955SOL    HW121764   4.440   5.619   2.527
 6955SOL    HW221765   4.529   5.576   2.397
 6956SOL     OW21766   5.341   4.718   1.453
 6956SOL    HW121767   5.327   4.771   1.370
 6956SOL    HW221768   5.439   4.702   1.468
 6957SOL     OW21769   6.113   4.402   4.959
 6957SOL    HW121770   6.044   4.336   4.929
 6957SOL    HW221771   6.123   4.398   5.058
 6958SOL     OW21772   3.238   3.657   2.293
 6958SOL    HW121773   3.278   3.566   2.281
 6958SOL    HW221774   3.214   3.671   2.389
 6959SOL     OW21775   1.261   4.500   2.390
 6959SOL    HW121776   1.337   4.550   2.432
 6959SOL    HW221777   1.225   4.433   2.454
 6960SOL     OW21778   4.891   4.651   1.470
 6960SOL    HW121779   4.930   4.563   1.441
 6960SOL    HW221780   4.878   4.709   1.390
 6961SOL     OW21781   5.357   2.351   4.787
 6961SOL    HW121782   5.300   2.332   4.868
 6961SOL    HW221783   5.428   2.417   4.811
 6962SOL     OW21784   2.635   6.291   0.674
 6962SOL    HW121785   2.603   6.342   0.594
 6962SOL    HW221786   2.645   6.195   0.651
 6963SOL     OW21787   0.832   6.534   6.438
 6963SOL    HW121788   0.813   6.455   6.496
 6963SOL    HW221789   0.790   6.616   6.479
 6964SOL     OW21790   2.056   1.756   5.034
 6964SOL    HW121791   2.010   1.731   5.119
 6964SOL    HW221792   2.137   1.699   5.023
 6965SOL     OW21793   1.920   1.221   0.069
 6965SOL    HW121794   1.844   1.267   0.116
 6965SOL    HW221795   1.988   1.288   0.041
 6966SOL     OW21796   1.613   6.536   0.940
 6966SOL    HW121797   1.515   6.535   0.922
 6966SOL    HW221798   1.628   6.549   1.038
 6967SOL     OW21799   3.746   0.526   6.614
 6967SOL    HW121800   3.802   0.609   6.619
 6967SOL    HW221801   3.696   0.526   6.528
 6968SOL     OW21802   3.323   0.621   2.493
 6968SOL    HW121803   3.415   0.607   2.528
 6968SOL    HW221804   3.327   0.641   2.395
 6969SOL     OW21805   1.516   3.169   2.580
 6969SOL    HW121806   1.518   3.070   2.595
 6969SOL    HW221807   1.529   3.216   2.668
 6970SOL     OW21808   3.205   6.261   5.762
 6970SOL    HW121809   3.216   6.326   5.687
 6970SOL    HW221810   3.116   6.216   5.755
 6971SOL     OW21811   6.082   3.956   6.586
 6971SOL    HW121812   6.152   3.885   6.573
 6971SOL    HW221813   6.038   3.975   6.498
 6972SOL     OW21814   5.726   3.705   1.620
 6972SOL    HW121815   5.816   3.699   1.663
 6972SOL    HW221816   5.736   3.713   1.521
 6973SOL     OW21817   0.901   1.642   2.830
 6973SOL    HW121818   0.823   1.703   2.814
 6973SOL    HW221819   0.900   1.568   2.763
 6974SOL     OW21820   4.103   3.210   2.645
 6974SOL    HW121821   4.156   3.183   2.726
 6974SOL    HW221822   4.040   3.136   2.621
 6975SOL     OW21823   2.635   5.562   4.655
 6975SOL    HW121824   2.693   5.608   4.588
 6975SOL    HW221825   2.542   5.598   4.648
 6976SOL     OW21826   4.551   5.228   6.113
 6976SOL    HW121827   4.595   5.139   6.124
 6976SOL    HW221828   4.494   5.247   6.192
 6977SOL     OW21829   4.877   4.730   2.700
 6977SOL    HW121830   4.921   4.643   2.724
 6977SOL    HW221831   4.820   4.717   2.619
 6978SOL     OW21832   0.853   3.735   1.020
 6978SOL    HW121833   0.779   3.708   1.082
 6978SOL    HW221834   0.815   3.755   0.930
 6979SOL     OW21835   1.078   3.936   3.165
 6979SOL    HW121836   0.996   3.905   3.116
 6979SOL    HW221837   1.134   3.857   3.188
 6980SOL     OW21838   2.063   4.643   2.850
 6980SOL    HW121839   2.133   4.594   2.903
 6980SOL    HW221840   2.029   4.583   2.778
 6981SOL     OW21841   4.112   2.636   6.857
 6981SOL    HW121842   4.019   2.662   6.828
 6981SOL    HW221843   4.119   2.536   6.859
 6982SOL     OW21844   6.423   0.406   1.821
 6982SOL    HW121845   6.324   0.399   1.834
 6982SOL    HW221846   6.462   0.314   1.808
 6983SOL     OW21847   6.981   0.028   4.205
 6983SOL    HW121848   6.894   7.011   4.243
 6983SOL    HW221849   6.987   0.128   4.216
 6984SOL     OW21850   2.066   4.594   3.462
 6984SOL    HW121851   2.127   4.596   3.541
 6984SOL    HW221852   2.098   4.523   3.398
 6985SOL     OW21853   5.305   3.316   0.694
 6985SOL    HW121854   5.290   3.332   0.596
 6985SOL    HW221855   5.399   3.341   0.717
 6986SOL     OW21856   3.431   5.712   5.259
 6986SOL    HW121857   3.448   5.627   5.210
 6986SOL    HW221858   3.407   5.692   5.354
 6987SOL     OW21859   0.007   0.837   6.823
 6987SOL    HW121860   0.089   0.893   6.836
 6987SOL    HW221861   6.943   0.886   6.861
 6988SOL     OW21862   2.344   0.825   5.923
 6988SOL    HW121863   2.285   0.759   5.968
 6988SOL    HW221864   2.328   0.823   5.825
 6989SOL     OW21865   0.714   3.741   2.305
 6989SOL    HW121866   0.724   3.830   2.262
 6989SOL    HW221867   0.804   3.702   2.323
 6990SOL     OW21868   3.727   4.039   6.934
 6990SOL    HW121869   3.628   4.052   6.946
 6990SOL    HW221870   3.767   4.123   6.898
 6991SOL     OW21871   5.480   4.121   3.416
 6991SOL    HW121872   5.496   4.219   3.421
 6991SOL    HW221873   5.387   4.104   3.382
 6992SOL     OW21874   2.028   5.089   6.344
 6992SOL    HW121875   1.957   5.047   6.287
 6992SOL    HW221876   2.045   5.182   6.313
 6993SOL     OW21877   4.236   2.336   1.934
 6993SOL    HW121878   4.175   2.333   1.855
 6993SOL    HW221879   4.262   2.242   1.959
 6994SOL     OW21880   2.460   1.290   2.794
 6994SOL    HW121881   2.547   1.340   2.786
 6994SOL    HW221882   2.387   1.345   2.754
 6995SOL     OW21883   0.152   4.083   0.549
 6995SOL    HW121884   0.219   4.081   0.474
 6995SOL    HW221885   0.176   4.157   0.613
 6996SOL     OW21886   0.952   1.625   6.391
 6996SOL    HW121887   1.001   1.539   6.375
 6996SOL    HW221888   0.949   1.678   6.306
 6997SOL     OW21889   6.099   6.206   5.988
 6997SOL    HW121890   6.142   6.116   5.985
 6997SOL    HW221891   6.072   6.227   6.082
 6998SOL     OW21892   0.725   0.361   0.086
 6998SOL    HW121893   0.800   0.358   0.020
 6998SOL    HW221894   0.746   0.429   0.156
 6999SOL     OW21895   6.978   2.636   6.922
 6999SOL    HW121896   6.925   2.552   6.940
 6999SOL    HW221897   6.938   2.684   6.844
 7000SOL     OW21898   0.543   5.350   3.779
 7000SOL    HW121899   0.480   5.348   3.857
 7000SOL    HW221900   0.545   5.442   3.739
 7001SOL     OW21901   0.670   1.368   3.598
 7001SOL    HW121902   0.574   1.353   3.575
 7001SOL    HW221903   0.725   1.293   3.560
 7002SOL     OW21904   1.388   4.664   2.586
 7002SOL    HW121905   1.473   4.717   2.591
 7002SOL    HW221906   1.313   4.718   2.623
 7003SOL     OW21907   0.704   5.380   6.365
 7003SOL    HW121908   0.767   5.343   6.433
 7003SOL    HW221909   0.736   5.470   6.335
 7004SOL     OW21910   1.567   0.665   6.402
 7004SOL    HW121911   1.547   0.639   6.497
 7004SOL    HW221912   1.572   0.583   6.345
 7005SOL     OW21913   1.870   5.661   0.269
 7005SOL    HW121914   1.907   5.572   0.295
 7005SOL    HW221915   1.837   5.708   0.350
 7006SOL     OW21916   0.755   0.653   3.675
 7006SOL    HW121917   0.845   0.637   3.634
 7006SOL    HW221918   0.761   0.726   3.742
 7007SOL     OW21919   1.863   0.151   6.210
 7007SOL    HW121920   1.872   0.143   6.111
 7007SOL    HW221921   1.911   0.233   6.241
 7008SOL     OW21922   5.154   2.923   2.629
 7008SOL    HW121923   5.125   2.897   2.537
 7008SOL    HW221924   5.246   2.962   2.625
 7009SOL     OW21925   5.425   6.013   1.997
 7009SOL    HW121926   5.341   6.018   2.051
 7009SOL    HW221927   5.492   6.078   2.032
 7010SOL     OW21928   5.219   3.495   2.406
 7010SOL    HW121929   5.157   3.427   2.446
 7010SOL    HW221930   5.214   3.490   2.306
 7011SOL     OW21931   2.441   6.334   6.183
 7011SOL    HW121932   2.527   6.371   6.218
 7011SOL    HW221933   2.366   6.394   6.209
 7012SOL     OW21934   0.465   3.942   0.768
 7012SOL    HW121935   0.406   3.878   0.718
 7012SOL    HW221936   0.456   3.926   0.866
 7013SOL     OW21937   3.326   2.748   0.187
 7013SOL    HW121938   3.288   2.822   0.242
 7013SOL    HW221939   3.257   2.675   0.177
 7014SOL     OW21940   6.241   3.466   0.244
 7014SOL    HW121941   6.211   3.556   0.211
 7014SOL    HW221942   6.255   3.405   0.166
 7015SOL     OW21943   5.878   6.556   0.766
 7015SOL    HW121944   5.932   6.494   0.710
 7015SOL    HW221945   5.913   6.649   0.757
 7016SOL     OW21946   3.342   5.428   1.063
 7016SOL    HW121947   3.276   5.367   1.021
 7016SOL    HW221948   3.434   5.401   1.037
 7017SOL     OW21949   6.087   4.389   6.554
 7017SOL    HW121950   6.186   4.397   6.571
 7017SOL    HW221951   6.071   4.356   6.461
 7018SOL     OW21952   5.823   3.447   5.220
 7018SOL    HW121953   5.784   3.386   5.288
 7018SOL    HW221954   5.753   3.510   5.187
 7019SOL     OW21955   3.959   5.540   1.964
 7019SOL    HW121956   3.995   5.554   2.056
 7019SOL    HW221957   3.943   5.629   1.921
 7020SOL     OW21958   0.413   1.611   0.823
 7020SOL    HW121959   0.490   1.559   0.858
 7020SOL    HW221960   0.425   1.708   0.846
 7021SOL     OW21961   0.774   1.523   4.971
 7021SOL    HW121962   0.817   1.576   5.044
 7021SOL    HW221963   0.705   1.578   4.925
 7022SOL     OW21964   1.973   3.696   1.101
 7022SOL    HW121965   1.913   3.657   1.031
 7022SOL    HW221966   1.988   3.629   1.174
 7023SOL     OW21967   0.247   1.877   1.123
 7023SOL    HW121968   0.239   1.906   1.219
 7023SOL    HW221969   0.226   1.780   1.116
 7024SOL     OW21970   3.722   3.956   5.507
 7024SOL    HW121971   3.820   3.937   5.500
 7024SOL    HW221972   3.673   3.871   5.525
 7025SOL     OW21973   3.058   0.865   0.961
 7025SOL    HW121974   3.148   0.857   1.004
 7025SOL    HW221975   3.004   0.783   0.981
 7026SOL     OW21976   2.819   2.009   1.058
 7026SOL    HW121977   2.837   2.093   1.007
 7026SOL    HW221978   2.819   1.931   0.995
 7027SOL     OW21979   3.019   4.699   1.212
 7027SOL    HW121980   3.098   4.753   1.240
 7027SOL    HW221981   3.048   4.627   1.149
 7028SOL     OW21982   3.529   0.238   3.471
 7028SOL    HW121983   3.546   0.322   3.420
 7028SOL    HW221984   3.470   0.258   3.549
 7029SOL     OW21985   3.452   4.110   3.577
 7029SOL    HW121986   3.546   4.102   3.542
 7029SOL    HW221987   3.389   4.124   3.501
 7030SOL     OW21988   6.454   6.764   5.161
 7030SOL    HW121989   6.399   6.791   5.082
 7030SOL    HW221990   6.541   6.813   5.159
 7031SOL     OW21991   5.139   5.674   0.892
 7031SOL    HW121992   5.062   5.695   0.831
 7031SOL    HW221993   5.104   5.636   0.977
 7032SOL     OW21994   4.147   5.314   4.340
 7032SOL    HW121995   4.132   5.231   4.394
 7032SOL    HW221996   4.167   5.288   4.245
 7033SOL     OW21997   2.328   2.048   5.646
 7033SOL    HW121998   2.311   1.950   5.659
 7033SOL    HW221999   2.258   2.087   5.587
 7034SOL     OW22000   6.781   1.874   2.256
 7034SOL    HW122001   6.685   1.845   2.248
 7034SOL    HW222002   6.799   1.946   2.189
 7035SOL     OW22003   2.601   2.106   1.384
 7035SOL    HW122004   2.692   2.104   1.343
 7035SOL    HW222005   2.546   2.177   1.340
 7036SOL     OW22006   6.463   1.761   1.434
 7036SOL    HW122007   6.464   1.860   1.426
 7036SOL    HW222008   6.372   1.731   1.465
 7037SOL     OW22009   1.390   0.715   6.031
 7037SOL    HW122010   1.342   0.641   6.080
 7037SOL    HW222011   1.340   0.736   5.947
 7038SOL     OW22012   0.583   4.882   0.463
 7038SOL    HW122013   0.586   4.809   0.531
 7038SOL    HW222014   0.492   4.925   0.464
 7039SOL     OW22015   6.536   0.079   1.410
 7039SOL    HW122016   6.446   0.043   1.434
 7039SOL    HW222017   6.583   0.014   1.350
 7040SOL     OW22018   5.168   2.882   5.142
 7040SOL    HW122019   5.126   2.919   5.225
 7040SOL    HW222020   5.267   2.877   5.154
 7041SOL     OW22021   0.990   0.119   3.888
 7041SOL    HW122022   1.019   0.072   3.805
 7041SOL    HW222023   0.901   0.162   3.873
 7042SOL     OW22024   5.702   6.021   4.958
 7042SOL    HW122025   5.693   5.932   4.915
 7042SOL    HW222026   5.668   6.017   5.052
 7043SOL     OW22027   1.885   6.043   0.759
 7043SOL    HW122028   1.871   6.043   0.660
 7043SOL    HW222029   1.837   5.965   0.799
 7044SOL     OW22030   4.366   6.236   5.192
 7044SOL    HW122031   4.286   6.194   5.235
 7044SOL    HW222032   4.382   6.326   5.232
 7045SOL     OW22033   5.826   6.761   1.551
 7045SOL    HW122034   5.841   6.664   1.529
 7045SOL    HW222035   5.783   6.807   1.473
 7046SOL     OW22036   2.736   1.221   2.580
 7046SOL    HW122037   2.813   1.265   2.534
 7046SOL    HW222038   2.712   1.273   2.662
 7047SOL     OW22039   1.599   6.979   1.199
 7047SOL    HW122040   1.685   6.969   1.249
 7047SOL    HW222041   1.601   0.049   1.147
 7048SOL     OW22042   0.346   6.072   3.855
 7048SOL    HW122043   0.308   5.982   3.879
 7048SOL    HW222044   0.398   6.064   3.770
 7049SOL     OW22045   3.150   1.543   4.965
 7049SOL    HW122046   3.135   1.559   4.867
 7049SOL    HW222047   3.117   1.622   5.017
 7050SOL     OW22048   4.073   4.412   1.138
 7050SOL    HW122049   4.034   4.385   1.050
 7050SOL    HW222050   4.079   4.511   1.143
 7051SOL     OW22051   1.735   1.359   2.194
 7051SOL    HW122052   1.663   1.408   2.146
 7051SOL    HW222053   1.761   1.278   2.142
 7052SOL     OW22054   5.403   2.741   3.057
 7052SOL    HW122055   5.386   2.645   3.036
 7052SOL    HW222056   5.442   2.786   2.976
 7053SOL     OW22057   1.269   4.646   3.882
 7053SOL    HW122058   1.321   4.718   3.836
 7053SOL    HW222059   1.325   4.564   3.891
 7054SOL     OW22060   5.186   0.237   0.130
 7054SOL    HW122061   5.281   0.248   0.159
 7054SOL    HW222062   5.159   0.141   0.141
 7055SOL     OW22063   2.214   0.354   0.159
 7055SOL    HW122064   2.130   0.316   0.122
 7055SOL    HW222065   2.222   0.329   0.256
 7056SOL     OW22066   6.817   5.223   0.701
 7056SOL    HW122067   6.849   5.209   0.795
 7056SOL    HW222068   6.842   5.315   0.671
 7057SOL     OW22069   3.029   5.587   4.634
 7057SOL    HW122070   3.101   5.559   4.570
 7057SOL    HW222071   2.973   5.507   4.657
 7058SOL     OW22072   6.276   2.324   6.389
 7058SOL    HW122073   6.241   2.309   6.481
 7058SOL    HW222074   6.234   2.406   6.350
 7059SOL     OW22075   1.787   1.029   5.037
 7059SOL    HW122076   1.788   0.958   4.967
 7059SOL    HW222077   1.845   1.002   5.114
 7060SOL     OW22078   3.010   2.229   1.738
 7060SOL    HW122079   3.108   2.213   1.722
 7060SOL    HW222080   2.998   2.318   1.782
 7061SOL     OW22081   2.147   0.608   1.530
 7061SOL    HW122082   2.097   0.542   1.587
 7061SOL    HW222083   2.127   0.591   1.433
 7062SOL     OW22084   3.894   0.976   5.031
 7062SOL    HW122085   3.829   0.900   5.031
 7062SOL    HW222086   3.974   0.952   5.086
 7063SOL     OW22087   0.249   1.009   1.764
 7063SOL    HW122088   0.257   1.078   1.691
 7063SOL    HW222089   0.323   1.021   1.830
 7064SOL     OW22090   3.020   1.404   5.290
 7064SOL    HW122091   3.105   1.421   5.339
 7064SOL    HW222092   3.036   1.335   5.218
 7065SOL     OW22093   3.491   6.736   4.389
 7065SOL    HW122094   3.534   6.826   4.395
 7065SOL    HW222095   3.400   6.744   4.349
 7066SOL     OW22096   3.824   0.778   1.240
 7066SOL    HW122097   3.789   0.825   1.321
 7066SOL    HW222098   3.922   0.797   1.231
 7067SOL     OW22099   2.414   4.634   6.708
 7067SOL    HW122100   2.383   4.588   6.791
 7067SOL    HW222101   2.336   4.671   6.658
 7068SOL     OW22102   4.948   4.566   3.939
 7068SOL    HW122103   4.864   4.591   3.986
 7068SOL    HW222104   4.988   4.485   3.982
 7069SOL     OW22105   4.487   0.581   5.064
 7069SOL    HW122106   4.579   0.587   5.024
 7069SOL    HW222107   4.493   0.543   5.156
 7070SOL     OW22108   0.084   0.940   5.915
 7070SOL    HW122109   0.047   1.030   5.939
 7070SOL    HW222110   0.023   0.895   5.850
 7071SOL     OW22111   4.204   5.431   6.495
 7071SOL    HW122112   4.234   5.442   6.590
 7071SOL    HW222113   4.204   5.520   6.450
 7072SOL     OW22114   0.801   3.968   6.233
 7072SOL    HW122115   0.704   3.994   6.235
 7072SOL    HW222116   0.817   3.905   6.157
 7073SOL     OW22117   4.460   0.805   3.696
 7073SOL    HW122118   4.461   0.733   3.766
 7073SOL    HW222119   4.406   0.774   3.617
 7074SOL     OW22120   6.380   3.561   1.766
 7074SOL    HW122121   6.297   3.514   1.735
 7074SOL    HW222122   6.380   3.654   1.731
 7075SOL     OW22123   2.323   5.456   2.003
 7075SOL    HW122124   2.282   5.459   2.094
 7075SOL    HW222125   2.255   5.423   1.937
 7076SOL     OW22126   5.624   2.445   0.956
 7076SOL    HW122127   5.531   2.463   0.987
 7076SOL    HW222128   5.623   2.366   0.895
 7077SOL     OW22129   3.614   6.018   1.636
 7077SOL    HW122130   3.671   5.983   1.711
 7077SOL    HW222131   3.663   6.091   1.589
 7078SOL     OW22132   6.899   1.686   6.502
 7078SOL    HW122133   6.996   1.660   6.501
 7078SOL    HW222134   6.856   1.656   6.417
 7079SOL     OW22135   2.267   5.579   5.359
 7079SOL    HW122136   2.312   5.631   5.431
 7079SOL    HW222137   2.301   5.486   5.358
 7080SOL     OW22138   3.969   1.735   6.105
 7080SOL    HW122139   3.931   1.802   6.040
 7080SOL    HW222140   4.022   1.667   6.055
 7081SOL     OW22141   2.248   6.398   0.470
 7081SOL    HW122142   2.229   6.448   0.385
 7081SOL    HW222143   2.194   6.437   0.544
 7082SOL     OW22144   1.020   4.622   1.982
 7082SOL    HW122145   0.964   4.563   1.924
 7082SOL    HW222146   1.099   4.571   2.015
 7083SOL     OW22147   5.612   3.225   2.394
 7083SOL    HW122148   5.611   3.273   2.306
 7083SOL    HW222149   5.565   3.138   2.385
 7084SOL     OW22150   1.052   5.200   0.515
 7084SOL    HW122151   0.999   5.117   0.532
 7084SOL    HW222152   0.991   5.279   0.514
 7085SOL     OW22153   0.425   3.965   2.387
 7085SOL    HW122154   0.501   3.994   2.445
 7085SOL    HW222155   0.447   3.877   2.346
 7086SOL     OW22156   4.719   0.735   3.572
 7086SOL    HW122157   4.740   0.645   3.611
 7086SOL    HW222158   4.640   0.775   3.618
 7087SOL     OW22159   5.232   3.005   3.784
 7087SOL    HW122160   5.322   3.001   3.742
 7087SOL    HW222161   5.177   2.927   3.752
 7088SOL     OW22162   6.142   2.738   5.120
 7088SOL    HW122163   6.136   2.697   5.211
 7088SOL    HW222164   6.235   2.772   5.105
 7089SOL     OW22165   3.283   6.039   1.074
 7089SOL    HW122166   3.288   6.079   0.982
 7089SOL    HW222167   3.220   5.961   1.072
 7090SOL     OW22168   4.753   3.453   1.081
 7090SOL    HW122169   4.719   3.472   1.173
 7090SOL    HW222170   4.725   3.527   1.020
 7091SOL     OW22171   6.344   0.722   6.673
 7091SOL    HW122172   6.398   0.720   6.589
 7091SOL    HW222173   6.326   0.629   6.704
 7092SOL     OW22174   4.053   0.038   6.066
 7092SOL    HW122175   4.063   0.122   6.014
 7092SOL    HW222176   4.037   0.059   6.162
 7093SOL     OW22177   3.992   3.015   0.773
 7093SOL    HW122178   4.065   3.069   0.732
 7093SOL    HW222179   4.029   2.928   0.806
 7094SOL     OW22180   4.296   0.843   4.755
 7094SOL    HW122181   4.214   0.901   4.756
 7094SOL    HW222182   4.278   0.758   4.803
 7095SOL     OW22183   2.570   4.594   3.784
 7095SOL    HW122184   2.599   4.643   3.701
 7095SOL    HW222185   2.539   4.660   3.852
 7096SOL     OW22186   6.925   5.590   0.256
 7096SOL    HW122187   6.863   5.667   0.272
 7096SOL    HW222188   7.014   5.625   0.225
 7097SOL     OW22189   4.323   2.088   2.841
 7097SOL    HW122190   4.270   2.173   2.846
 7097SOL    HW222191   4.382   2.090   2.761
 7098SOL     OW22192   0.889   1.494   2.410
 7098SOL    HW122193   0.822   1.569   2.413
 7098SOL    HW222194   0.841   1.407   2.413
 7099SOL     OW22195   3.482   2.078   4.664
 7099SOL    HW122196   3.452   2.045   4.754
 7099SOL    HW222197   3.576   2.049   4.647
 7100SOL     OW22198   0.360   4.259   1.718
 7100SOL    HW122199   0.312   4.179   1.754
 7100SOL    HW222200   0.355   4.334   1.784
 7101SOL     OW22201   2.277   5.060   4.156
 7101SOL    HW122202   2.217   5.113   4.097
 7101SOL    HW222203   2.263   4.962   4.139
 7102SOL     OW22204   5.287   1.627   2.777
 7102SOL    HW122205   5.207   1.568   2.766
 7102SOL    HW222206   5.309   1.671   2.689
 7103SOL     OW22207   6.059   3.872   3.874
 7103SOL    HW122208   5.968   3.845   3.844
 7103SOL    HW222209   6.052   3.949   3.938
 7104SOL     OW22210   5.234   2.578   4.474
 7104SOL    HW122211   5.145   2.595   4.518
 7104SOL    HW222212   5.237   2.624   4.385
 7105SOL     OW22213   3.151   4.065   2.146
 7105SOL    HW122214   3.238   4.094   2.185
 7105SOL    HW222215   3.079   4.126   2.179
 7106SOL     OW22216   2.847   2.272   2.429
 7106SOL    HW122217   2.820   2.176   2.425
 7106SOL    HW222218   2.945   2.278   2.447
 7107SOL     OW22219   3.983   0.752   0.425
 7107SOL    HW122220   4.079   0.774   0.445
 7107SOL    HW222221   3.961   0.663   0.466
 7108SOL     OW22222   3.386   6.736   1.996
 7108SOL    HW122223   3.432   6.819   1.965
 7108SOL    HW222224   3.423   6.657   1.947
 7109SOL     OW22225   2.905   4.716   5.587
 7109SOL    HW122226   2.996   4.737   5.551
 7109SOL    HW222227   2.839   4.784   5.553
 7110SOL     OW22228   2.717   5.785   5.746
 7110SOL    HW122229   2.714   5.693   5.784
 7110SOL    HW222230   2.684   5.783   5.651
 7111SOL     OW22231   6.732   1.048   4.984
 7111SOL    HW122232   6.783   1.037   5.070
 7111SOL    HW222233   6.700   1.143   4.977
 7112SOL     OW22234   6.321   4.920   5.533
 7112SOL    HW122235   6.416   4.928   5.506
 7112SOL    HW222236   6.314   4.918   5.633
 7113SOL     OW22237   3.436   0.123   5.163
 7113SOL    HW122238   3.514   0.185   5.168
 7113SOL    HW222239   3.418   0.101   5.067
 7114SOL     OW22240   5.278   4.231   0.465
 7114SOL    HW122241   5.306   4.263   0.374
 7114SOL    HW222242   5.198   4.172   0.456
 7115SOL     OW22243   4.876   2.668   5.639
 7115SOL    HW122244   4.835   2.759   5.628
 7115SOL    HW222245   4.880   2.623   5.550
 7116SOL     OW22246   6.410   5.393   4.777
 7116SOL    HW122247   6.423   5.313   4.718
 7116SOL    HW222248   6.492   5.450   4.775
 7117SOL     OW22249   4.397   0.218   3.263
 7117SOL    HW122250   4.306   0.184   3.236
 7117SOL    HW222251   4.388   0.308   3.304
 7118SOL     OW22252   4.720   4.058   5.735
 7118SOL    HW122253   4.816   4.040   5.713
 7118SOL    HW222254   4.714   4.141   5.791
 7119SOL     OW22255   2.853   6.687   4.418
 7119SOL    HW122256   2.774   6.633   4.387
 7119SOL    HW222257   2.877   6.753   4.347
 7120SOL     OW22258   4.441   1.647   2.036
 7120SOL    HW122259   4.403   1.556   2.055
 7120SOL    HW222260   4.376   1.717   2.064
 7121SOL     OW22261   1.191   6.031   1.911
 7121SOL    HW122262   1.226   6.124   1.907
 7121SOL    HW222263   1.093   6.033   1.931
 7122SOL     OW22264   3.286   1.880   6.352
 7122SOL    HW122265   3.311   1.845   6.262
 7122SOL    HW222266   3.188   1.898   6.355
 7123SOL     OW22267   4.929   4.592   6.777
 7123SOL    HW122268   4.888   4.580   6.687
 7123SOL    HW222269   5.003   4.525   6.789
 7124SOL     OW22270   2.830   2.817   6.781
 7124SOL    HW122271   2.755   2.751   6.787
 7124SOL    HW222272   2.792   2.908   6.762
 7125SOL     OW22273   1.023   6.424   1.669
 7125SOL    HW122274   0.998   6.368   1.590
 7125SOL    HW222275   1.082   6.499   1.639
 7126SOL     OW22276   4.261   5.054   1.080
 7126SOL    HW122277   4.354   5.058   1.116
 7126SOL    HW222278   4.228   4.959   1.084
 7127SOL     OW22279   3.089   6.775   5.275
 7127SOL    HW122280   3.129   6.861   5.245
 7127SOL    HW222281   2.998   6.791   5.312
 7128SOL     OW22282   3.212   4.622   0.324
 7128SOL    HW122283   3.204   4.523   0.333
 7128SOL    HW222284   3.305   4.651   0.346
 7129SOL     OW22285   6.846   1.088   0.132
 7129SOL    HW122286   6.834   1.027   0.210
 7129SOL    HW222287   6.822   1.040   0.048
 7130SOL     OW22288   3.386   0.438   4.082
 7130SOL    HW122289   3.440   0.453   4.165
 7130SOL    HW222290   3.289   0.444   4.103
 7131SOL     OW22291   2.213   1.513   2.901
 7131SOL    HW122292   2.139   1.535   2.964
 7131SOL    HW222293   2.175   1.491   2.812
 7132SOL     OW22294   5.652   4.445   1.682
 7132SOL    HW122295   5.567   4.495   1.666
 7132SOL    HW222296   5.665   4.433   1.781
 7133SOL     OW22297   3.602   6.044   2.283
 7133SOL    HW122298   3.538   6.119   2.267
 7133SOL    HW222299   3.553   5.965   2.318
 7134SOL     OW22300   4.747   4.772   0.206
 7134SOL    HW122301   4.745   4.758   0.107
 7134SOL    HW222302   4.822   4.719   0.246
 7135SOL     OW22303   2.177   4.395   1.451
 7135SOL    HW122304   2.249   4.457   1.482
 7135SOL    HW222305   2.126   4.362   1.531
 7136SOL     OW22306   1.327   2.799   2.393
 7136SOL    HW122307   1.312   2.883   2.341
 7136SOL    HW222308   1.349   2.725   2.330
 7137SOL     OW22309   1.908   0.219   2.313
 7137SOL    HW122310   1.995   0.269   2.318
 7137SOL    HW222311   1.926   0.121   2.321
 7138SOL     OW22312   6.576   3.363   6.583
 7138SOL    HW122313   6.615   3.329   6.497
 7138SOL    HW222314   6.592   3.462   6.589
 7139SOL     OW22315   5.911   6.013   1.241
 7139SOL    HW122316   5.817   5.985   1.220
 7139SOL    HW222317   5.926   6.005   1.339
 7140SOL     OW22318   0.178   5.304   0.709
 7140SOL    HW122319   0.152   5.210   0.731
 7140SOL    HW222320   0.122   5.368   0.762
 7141SOL     OW22321   2.976   1.507   0.986
 7141SOL    HW122322   3.008   1.521   1.080
 7141SOL    HW222323   3.038   1.443   0.940
 7142SOL     OW22324   4.669   6.679   5.695
 7142SOL    HW122325   4.682   6.732   5.779
 7142SOL    HW222326   4.628   6.591   5.717
 7143SOL     OW22327   3.469   3.028   5.739
 7143SOL    HW122328   3.420   3.041   5.652
 7143SOL    HW222329   3.507   2.936   5.742
 7144SOL     OW22330   6.252   1.293   5.580
 7144SOL    HW122331   6.179   1.361   5.573
 7144SOL    HW222332   6.217   1.203   5.553
 7145SOL     OW22333   6.954   2.923   6.020
 7145SOL    HW122334   6.931   2.899   5.925
 7145SOL    HW222335   0.038   2.915   6.033
 7146SOL     OW22336   0.160   1.651   4.652
 7146SOL    HW122337   0.241   1.709   4.654
 7146SOL    HW222338   0.088   1.691   4.709
 7147SOL     OW22339   6.973   6.757   0.958
 7147SOL    HW122340   0.053   6.768   0.928
 7147SOL    HW222341   6.922   6.842   0.938
 7148SOL     OW22342   5.390   6.514   0.474
 7148SOL    HW122343   5.313   6.545   0.418
 7148SOL    HW222344   5.392   6.414   0.477
 7149SOL     OW22345   5.755   4.402   6.205
 7149SOL    HW122346   5.837   4.344   6.205
 7149SOL    HW222347   5.761   4.468   6.129
 7150SOL     OW22348   3.003   2.120   0.024
 7150SOL    HW122349   2.961   2.083   0.107
 7150SOL    HW222350   3.098   2.146   0.044
 7151SOL     OW22351   5.453   1.977   0.357
 7151SOL    HW122352   5.423   2.069   0.335
 7151SOL    HW222353   5.531   1.952   0.300
 7152SOL     OW22354   5.122   0.176   5.298
 7152SOL    HW122355   5.054   0.199   5.228
 7152SOL    HW222356   5.202   0.235   5.287
 7153SOL     OW22357   4.785   5.611   1.094
 7153SOL    HW122358   4.690   5.639   1.085
 7153SOL    HW222359   4.803   5.534   1.032
 7154SOL     OW22360   4.713   0.603   1.698
 7154SOL    HW122361   4.644   0.608   1.770
 7154SOL    HW222362   4.788   0.667   1.719
 7155SOL     OW22363   2.343   0.067   1.330
 7155SOL    HW122364   2.383   0.033   1.245
 7155SOL    HW222365   2.400   0.039   1.407
 7156SOL     OW22366   6.419   3.431   4.789
 7156SOL    HW122367   6.335   3.381   4.770
 7156SOL    HW222368   6.495   3.366   4.796
 7157SOL     OW22369   6.998   3.667   5.031
 7157SOL    HW122370   6.907   3.708   5.020
 7157SOL    HW222371   6.989   3.581   5.082
 7158SOL     OW22372   5.018   0.237   3.875
 7158SOL    HW122373   4.935   0.205   3.921
 7158SOL    HW222374   5.031   0.334   3.895
 7159SOL     OW22375   0.352   6.679   3.178
 7159SOL    HW122376   0.288   6.608   3.148
 7159SOL    HW222377   0.445   6.655   3.148
 7160SOL     OW22378   5.660   6.575   2.760
 7160SOL    HW122379   5.728   6.507   2.791
 7160SOL    HW222380   5.684   6.606   2.669
 7161SOL     OW22381   3.629   3.436   2.082
 7161SOL    HW122382   3.660   3.531   2.075
 7161SOL    HW222383   3.529   3.434   2.090
 7162SOL     OW22384   0.420   6.281   0.527
 7162SOL    HW122385   0.374   6.212   0.472
 7162SOL    HW222386   0.454   6.239   0.612
 7163SOL     OW22387   0.000   6.831   0.141
 7163SOL    HW122388   6.928   6.829   0.189
 7163SOL    HW222389   0.054   6.909   0.173
 7164SOL     OW22390   1.978   7.011   0.097
 7164SOL    HW122391   1.954   0.093   0.093
 7164SOL    HW222392   1.916   6.964   0.159
 7165SOL     OW22393   4.344   2.065   6.373
 7165SOL    HW122394   4.340   2.070   6.472
 7165SOL    HW222395   4.418   2.123   6.340
 7166SOL     OW22396   6.556   6.187   5.085
 7166SOL    HW122397   6.597   6.149   5.002
 7166SOL    HW222398   6.620   6.179   5.161
 7167SOL     OW22399   0.329   3.141   5.497
 7167SOL    HW122400   0.422   3.108   5.514
 7167SOL    HW222401   0.320   3.234   5.533
 7168SOL     OW22402   1.333   0.575   2.417
 7168SOL    HW122403   1.378   0.552   2.503
 7168SOL    HW222404   1.327   0.493   2.360
 7169SOL     OW22405   1.745   4.434   6.070
 7169SOL    HW122406   1.687   4.382   6.133
 7169SOL    HW222407   1.688   4.495   6.014
 7170SOL     OW22408   3.836   2.143   1.018
 7170SOL    HW122409   3.805   2.212   1.083
 7170SOL    HW222410   3.869   2.063   1.067
 7171SOL     OW22411   0.143   5.077   1.109
 7171SOL    HW122412   0.123   4.994   1.057
 7171SOL    HW222413   0.185   5.052   1.197
 7172SOL     OW22414   0.831   2.419   3.125
 7172SOL    HW122415   0.754   2.481   3.115
 7172SOL    HW222416   0.806   2.343   3.185
 7173SOL     OW22417   3.367   5.496   4.789
 7173SOL    HW122418   3.455   5.449   4.794
 7173SOL    HW222419   3.378   5.591   4.816
 7174SOL     OW22420   6.491   3.713   2.267
 7174SOL    HW122421   6.428   3.756   2.202
 7174SOL    HW222422   6.573   3.684   2.218
 7175SOL     OW22423   6.584   3.065   5.827
 7175SOL    HW122424   6.651   3.097   5.893
 7175SOL    HW222425   6.500   3.118   5.836
 7176SOL     OW22426   6.736   1.423   6.625
 7176SOL    HW122427   6.771   1.386   6.711
 7176SOL    HW222428   6.730   1.523   6.633
 7177SOL     OW22429   1.301   5.780   2.951
 7177SOL    HW122430   1.336   5.759   3.043
 7177SOL    HW222431   1.311   5.700   2.892
 7178SOL     OW22432   1.145   6.648   5.687
 7178SOL    HW122433   1.151   6.555   5.722
 7178SOL    HW222434   1.128   6.711   5.762
 7179SOL     OW22435   4.913   4.367   5.799
 7179SOL    HW122436   4.884   4.354   5.704
 7179SOL    HW222437   4.950   4.460   5.810
 7180SOL     OW22438   0.410   2.757   1.697
 7180SOL    HW122439   0.472   2.680   1.681
 7180SOL    HW222440   0.322   2.722   1.729
 7181SOL     OW22441   3.141   0.175   0.101
 7181SOL    HW122442   3.202   0.235   0.152
 7181SOL    HW222443   3.132   0.208   0.007
 7182SOL     OW22444   2.012   0.938   3.077
 7182SOL    HW122445   2.085   1.005   3.072
 7182SOL    HW222446   2.046   0.854   3.119
 7183SOL     OW22447   1.680   0.147   1.520
 7183SOL    HW122448   1.597   0.129   1.573
 7183SOL    HW222449   1.705   0.065   1.468
 7184SOL     OW22450   0.463   1.057   3.485
 7184SOL    HW122451   0.465   1.003   3.569
 7184SOL    HW222452   0.458   0.996   3.406
 7185SOL     OW22453   4.273   0.668   3.513
 7185SOL    HW122454   4.226   0.754   3.492
 7185SOL    HW222455   4.210   0.607   3.561
 7186SOL     OW22456   6.542   1.266   6.512
 7186SOL    HW122457   6.455   1.312   6.529
 7186SOL    HW222458   6.616   1.333   6.516
 7187SOL     OW22459   3.576   3.586   4.045
 7187SOL    HW122460   3.539   3.519   4.109
 7187SOL    HW222461   3.668   3.613   4.073
 7188SOL     OW22462   5.117   4.543   0.080
 7188SOL    HW122463   5.192   4.479   0.061
 7188SOL    HW222464   5.032   4.492   0.094
 7189SOL     OW22465   0.079   2.218   5.981
 7189SOL    HW122466   7.007   2.253   5.947
 7189SOL    HW222467   0.064   2.166   6.065
 7190SOL     OW22468   5.978   6.029   0.448
 7190SOL    HW122469   6.038   5.953   0.475
 7190SOL    HW222470   6.004   6.111   0.498
 7191SOL     OW22471   0.027   5.238   2.811
 7191SOL    HW122472   0.044   5.143   2.785
 7191SOL    HW222473   0.105   5.272   2.865
 7192SOL     OW22474   3.130   4.042   5.462
 7192SOL    HW122475   3.223   4.007   5.470
 7192SOL    HW222476   3.067   3.977   5.505
 7193SOL     OW22477   3.742   1.442   3.679
 7193SOL    HW122478   3.798   1.472   3.756
 7193SOL    HW222479   3.781   1.358   3.640
 7194SOL     OW22480   3.519   2.568   5.437
 7194SOL    HW122481   3.611   2.538   5.462
 7194SOL    HW222482   3.463   2.575   5.519
 7195SOL     OW22483   0.660   4.200   5.775
 7195SOL    HW122484   0.690   4.270   5.840
 7195SOL    HW222485   0.733   4.133   5.762
 7196SOL     OW22486   3.236   3.758   1.607
 7196SOL    HW122487   3.234   3.824   1.533
 7196SOL    HW222488   3.253   3.805   1.693
 7197SOL     OW22489   3.425   4.682   6.502
 7197SOL    HW122490   3.421   4.754   6.571
 7197SOL    HW222491   3.507   4.695   6.445
 7198SOL     OW22492   1.074   0.248   2.088
 7198SOL    HW122493   1.084   0.150   2.073
 7198SOL    HW222494   1.041   0.264   2.182
 7199SOL     OW22495   5.854   0.919   3.093
 7199SOL    HW122496   5.870   1.005   3.044
 7199SOL    HW222497   5.936   0.862   3.087
 7200SOL     OW22498   0.751   3.510   6.872
 7200SOL    HW122499   0.688   3.581   6.840
 7200SOL    HW222500   0.804   3.544   6.950
 7201SOL     OW22501   5.734   6.171   4.515
 7201SOL    HW122502   5.642   6.205   4.535
 7201SOL    HW222503   5.732   6.072   4.509
 7202SOL     OW22504   4.854   0.968   6.241
 7202SOL    HW122505   4.768   1.018   6.235
 7202SOL    HW222506   4.886   0.945   6.149
 7203SOL     OW22507   0.685   1.810   1.097
 7203SOL    HW122508   0.755   1.819   1.026
 7203SOL    HW222509   0.666   1.713   1.112
 7204SOL     OW22510   6.102   0.641   3.352
 7204SOL    HW122511   6.192   0.616   3.317
 7204SOL    HW222512   6.045   0.674   3.276
 7205SOL     OW22513   3.172   1.474   4.145
 7205SOL    HW122514   3.253   1.417   4.157
 7205SOL    HW222515   3.192   1.567   4.176
 7206SOL     OW22516   2.076   3.184   6.455
 7206SOL    HW122517   2.031   3.220   6.538
 7206SOL    HW222518   2.077   3.084   6.460
 7207SOL     OW22519   1.602   1.780   3.056
 7207SOL    HW122520   1.596   1.850   3.127
 7207SOL    HW222521   1.550   1.700   3.084
 7208SOL     OW22522   3.288   6.845   3.275
 7208SOL    HW122523   3.366   6.790   3.307
 7208SOL    HW222524   3.311   6.885   3.186
 7209SOL     OW22525   3.820   0.443   2.488
 7209SOL    HW122526   3.822   0.535   2.448
 7209SOL    HW222527   3.913   0.415   2.511
 7210SOL     OW22528   3.404   1.373   4.216
 7210SOL    HW122529   3.466   1.444   4.251
 7210SOL    HW222530   3.415   1.290   4.270
 7211SOL     OW22531   4.162   6.188   5.832
 7211SOL    HW122532   4.175   6.128   5.753
 7211SOL    HW222533   4.111   6.270   5.804
 7212SOL     OW22534   0.659   5.691   5.194
 7212SOL    HW122535   0.681   5.717   5.100
 7212SOL    HW222536   0.696   5.600   5.213
 7213SOL     OW22537   4.484   2.633   0.404
 7213SOL    HW122538   4.414   2.561   0.408
 7213SOL    HW222539   4.502   2.656   0.309
 7214SOL     OW22540   6.654   1.344   5.853
 7214SOL    HW122541   6.689   1.320   5.943
 7214SOL    HW222542   6.674   1.270   5.789
 7215SOL     OW22543   6.009   1.800   2.706
 7215SOL    HW122544   6.105   1.792   2.733
 7215SOL    HW222545   5.966   1.872   2.761
 7216SOL     OW22546   5.518   6.683   3.816
 7216SOL    HW122547   5.538   6.780   3.831
 7216SOL    HW222548   5.558   6.629   3.890
 7217SOL     OW22549   1.148   3.532   3.537
 7217SOL    HW122550   1.094   3.492   3.463
 7217SOL    HW222551   1.238   3.557   3.502
 7218SOL     OW22552   6.667   2.475   5.246
 7218SOL    HW122553   6.594   2.467   5.314
 7218SOL    HW222554   6.705   2.384   5.227
 7219SOL     OW22555   2.876   6.114   1.967
 7219SOL    HW122556   2.791   6.157   1.936
 7219SOL    HW222557   2.903   6.153   2.055
 7220SOL     OW22558   6.562   3.691   3.639
 7220SOL    HW122559   6.591   3.716   3.732
 7220SOL    HW222560   6.643   3.664   3.586
 7221SOL     OW22561   4.315   5.023   3.641
 7221SOL    HW122562   4.400   4.998   3.594
 7221SOL    HW222563   4.253   4.945   3.641
 7222SOL     OW22564   6.682   6.182   4.340
 7222SOL    HW122565   6.697   6.267   4.389
 7222SOL    HW222566   6.657   6.201   4.246
 7223SOL     OW22567   6.698   6.108   1.876
 7223SOL    HW122568   6.779   6.051   1.891
 7223SOL    HW222569   6.642   6.108   1.959
 7224SOL     OW22570   4.991   2.460   2.707
 7224SOL    HW122571   5.041   2.544   2.725
 7224SOL    HW222572   4.954   2.462   2.614
 7225SOL     OW22573   0.611   5.407   0.069
 7225SOL    HW122574   0.578   5.447   6.999
 7225SOL    HW222575   0.579   5.313   0.076
 7226SOL     OW22576   6.171   6.343   6.936
 7226SOL    HW122577   6.121   6.279   6.879
 7226SOL    HW222578   6.265   6.311   6.948
 7227SOL     OW22579   1.956   0.905   2.145
 7227SOL    HW122580   2.037   0.931   2.093
 7227SOL    HW222581   1.983   0.874   2.236
 7228SOL     OW22582   5.783   3.299   2.730
 7228SOL    HW122583   5.804   3.263   2.639
 7228SOL    HW222584   5.726   3.233   2.779
 7229SOL     OW22585   6.336   0.140   5.223
 7229SOL    HW122586   6.433   0.135   5.200
 7229SOL    HW222587   6.284   0.082   5.161
 7230SOL     OW22588   2.066   4.784   4.964
 7230SOL    HW122589   2.075   4.882   4.979
 7230SOL    HW222590   1.995   4.747   5.025
 7231SOL     OW22591   3.868   3.682   6.030
 7231SOL    HW122592   3.852   3.769   5.984
 7231SOL    HW222593   3.899   3.698   6.124
 7232SOL     OW22594   4.248   6.257   3.355
 7232SOL    HW122595   4.242   6.186   3.425
 7232SOL    HW222596   4.341   6.294   3.354
 7233SOL     OW22597   0.287   1.494   6.194
 7233SOL    HW122598   0.188   1.502   6.203
 7233SOL    HW222599   0.313   1.397   6.190
 7234SOL     OW22600   5.265   4.777   3.125
 7234SOL    HW122601   5.196   4.816   3.186
 7234SOL    HW222602   5.259   4.677   3.128
 7235SOL     OW22603   6.300   0.708   2.179
 7235SOL    HW122604   6.340   0.621   2.149
 7235SOL    HW222605   6.281   0.704   2.277
 7236SOL     OW22606   0.854   3.794   3.089
 7236SOL    HW122607   0.773   3.807   3.031
 7236SOL    HW222608   0.826   3.753   3.176
 7237SOL     OW22609   5.388   1.635   0.049
 7237SOL    HW122610   5.366   1.660   0.144
 7237SOL    HW222611   5.399   1.536   0.043
 7238SOL     OW22612   4.023   3.528   0.052
 7238SOL    HW122613   4.066   3.607   0.007
 7238SOL    HW222614   3.926   3.524   0.027
 7239SOL     OW22615   5.557   2.671   1.874
 7239SOL    HW122616   5.521   2.719   1.794
 7239SOL    HW222617   5.647   2.632   1.851
 7240SOL     OW22618   0.029   1.529   0.215
 7240SOL    HW122619   0.087   1.524   0.134
 7240SOL    HW222620   6.985   1.449   0.219
 7241SOL     OW22621   1.673   0.025   2.587
 7241SOL    HW122622   1.687   0.008   2.490
 7241SOL    HW222623   1.637   6.958   2.631
 7242SOL     OW22624   6.443   4.227   5.271
 7242SOL    HW122625   6.482   4.306   5.223
 7242SOL    HW222626   6.473   4.229   5.366
 7243SOL     OW22627   5.663   4.672   6.088
 7243SOL    HW122628   5.714   4.719   6.017
 7243SOL    HW222629   5.577   4.636   6.050
 7244SOL     OW22630   6.687   5.740   6.909
 7244SOL    HW122631   6.659   5.645   6.928
 7244SOL    HW222632   6.660   5.764   6.816
 7245SOL     OW22633   1.536   2.347   6.793
 7245SOL    HW122634   1.579   2.423   6.842
 7245SOL    HW222635   1.567   2.260   6.831
 7246SOL     OW22636   4.341   6.859   3.950
 7246SOL    HW122637   4.253   6.879   3.906
 7246SOL    HW222638   4.400   6.812   3.885
 7247SOL     OW22639   3.112   3.828   4.358
 7247SOL    HW122640   3.200   3.793   4.392
 7247SOL    HW222641   3.124   3.922   4.328
 7248SOL     OW22642   2.822   1.877   5.520
 7248SOL    HW122643   2.848   1.973   5.531
 7248SOL    HW222644   2.795   1.839   5.609
 7249SOL     OW22645   3.217   5.709   2.866
 7249SOL    HW122646   3.156   5.753   2.800
 7249SOL    HW222647   3.245   5.776   2.936
 7250SOL     OW22648   5.256   5.557   5.647
 7250SOL    HW122649   5.346   5.557   5.603
 7250SOL    HW222650   5.212   5.469   5.631
 7251SOL     OW22651   0.909   5.663   4.449
 7251SOL    HW122652   0.815   5.687   4.425
 7251SOL    HW222653   0.952   5.615   4.372
 7252SOL     OW22654   4.092   3.450   2.138
 7252SOL    HW122655   4.160   3.413   2.075
 7252SOL    HW222656   4.102   3.406   2.227
 7253SOL     OW22657   2.085   5.138   4.744
 7253SOL    HW122658   2.093   5.232   4.712
 7253SOL    HW222659   2.176   5.101   4.761
 7254SOL     OW22660   6.687   3.778   3.878
 7254SOL    HW122661   6.609   3.794   3.939
 7254SOL    HW222662   6.764   3.743   3.931
 7255SOL     OW22663   4.638   3.896   6.864
 7255SOL    HW122664   4.721   3.850   6.894
 7255SOL    HW222665   4.575   3.905   6.941
 7256SOL     OW22666   3.123   6.880   4.189
 7256SOL    HW122667   3.211   6.834   4.181
 7256SOL    HW222668   3.119   6.928   4.277
 7257SOL     OW22669   0.786   1.142   5.025
 7257SOL    HW122670   0.839   1.191   4.956
 7257SOL    HW222671   0.690   1.169   5.019
 7258SOL     OW22672   6.645   2.453   1.975
 7258SOL    HW122673   6.696   2.530   1.937
 7258SOL    HW222674   6.622   2.472   2.070
 7259SOL     OW22675   1.215   4.055   2.629
 7259SOL    HW122676   1.143   4.013   2.684
 7259SOL    HW222677   1.209   4.155   2.638
 7260SOL     OW22678   6.131   3.035   1.296
 7260SOL    HW122679   6.164   3.045   1.391
 7260SOL    HW222680   6.181   3.098   1.237
 7261SOL     OW22681   7.000   4.077   6.831
 7261SOL    HW122682   6.963   4.163   6.796
 7261SOL    HW222683   6.931   4.031   6.886
 7262SOL     OW22684   4.467   0.984   4.925
 7262SOL    HW122685   4.437   1.059   4.984
 7262SOL    HW222686   4.393   0.960   4.862
 7263SOL     OW22687   6.370   5.374   5.501
 7263SOL    HW122688   6.420   5.305   5.555
 7263SOL    HW222689   6.358   5.340   5.408
 7264SOL     OW22690   5.542   1.487   1.488
 7264SOL    HW122691   5.532   1.585   1.471
 7264SOL    HW222692   5.472   1.457   1.553
 7265SOL     OW22693   3.818   0.739   5.650
 7265SOL    HW122694   3.814   0.710   5.745
 7265SOL    HW222695   3.726   0.734   5.610
 7266SOL     OW22696   0.044   0.643   3.163
 7266SOL    HW122697   0.045   0.710   3.089
 7266SOL    HW222698   6.967   0.638   3.203
 7267SOL     OW22699   6.807   4.254   4.675
 7267SOL    HW122700   6.838   4.204   4.756
 7267SOL    HW222701   6.807   4.352   4.694
 7268SOL     OW22702   5.670   6.286   4.253
 7268SOL    HW122703   5.728   6.258   4.330
 7268SOL    HW222704   5.712   6.254   4.168
 7269SOL     OW22705   2.562   5.042   4.378
 7269SOL    HW122706   2.476   4.995   4.359
 7269SOL    HW222707   2.560   5.079   4.471
 7270SOL     OW22708   0.662   0.168   4.564
 7270SOL    HW122709   0.661   0.246   4.626
 7270SOL    HW222710   0.756   0.149   4.536
 7271SOL     OW22711   0.769   4.923   3.210
 7271SOL    HW122712   0.822   4.901   3.128
 7271SOL    HW222713   0.689   4.864   3.215
 7272SOL     OW22714   6.135   4.209   1.993
 7272SOL    HW122715   6.178   4.125   2.026
 7272SOL    HW222716   6.137   4.211   1.893
 7273SOL     OW22717   0.669   1.366   5.301
 7273SOL    HW122718   0.703   1.450   5.344
 7273SOL    HW222719   0.644   1.386   5.206
 7274SOL     OW22720   0.176   4.860   6.098
 7274SOL    HW122721   0.225   4.948   6.107
 7274SOL    HW222722   0.231   4.797   6.043
 7275SOL     OW22723   0.951   5.460   3.664
 7275SOL    HW122724   0.939   5.366   3.635
 7275SOL    HW222725   0.881   5.482   3.733
 7276SOL     OW22726   4.847   6.012   3.552
 7276SOL    HW122727   4.812   5.918   3.557
 7276SOL    HW222728   4.943   6.013   3.580
 7277SOL     OW22729   4.934   0.925   0.630
 7277SOL    HW122730   4.843   0.940   0.668
 7277SOL    HW222731   4.946   0.983   0.549
 7278SOL     OW22732   3.639   2.855   2.474
 7278SOL    HW122733   3.705   2.871   2.400
 7278SOL    HW222734   3.661   2.770   2.521
 7279SOL     OW22735   3.507   7.002   6.057
 7279SOL    HW122736   3.435   6.997   5.987
 7279SOL    HW222737   3.494   6.929   6.123
 7280SOL     OW22738   4.955   1.360   6.223
 7280SOL    HW122739   4.904   1.407   6.152
 7280SOL    HW222740   4.906   1.368   6.310
 7281SOL     OW22741   5.886   1.631   5.995
 7281SOL    HW122742   5.839   1.716   6.022
 7281SOL    HW222743   5.985   1.647   5.997
 7282SOL     OW22744   5.605   6.182   2.154
 7282SOL    HW122745   5.702   6.203   2.164
 7282SOL    HW222746   5.558   6.200   2.240
 7283SOL     OW22747   2.509   1.136   4.022
 7283SOL    HW122748   2.499   1.089   4.110
 7283SOL    HW222749   2.599   1.114   3.984
 7284SOL     OW22750   1.314   1.808   5.286
 7284SOL    HW122751   1.268   1.852   5.209
 7284SOL    HW222752   1.362   1.877   5.341
 7285SOL     OW22753   5.956   5.311   1.443
 7285SOL    HW122754   5.997   5.248   1.509
 7285SOL    HW222755   5.859   5.322   1.462
 7286SOL     OW22756   2.220   3.999   0.758
 7286SOL    HW122757   2.131   4.031   0.725
 7286SOL    HW222758   2.206   3.940   0.838
 7287SOL     OW22759   6.138   1.446   5.355
 7287SOL    HW122760   6.082   1.500   5.417
 7287SOL    HW222761   6.199   1.506   5.303
 7288SOL     OW22762   2.695   6.948   0.147
 7288SOL    HW122763   2.617   6.997   0.184
 7288SOL    HW222764   2.780   6.985   0.185
 7289SOL     OW22765   4.816   2.391   4.439
 7289SOL    HW122766   4.742   2.452   4.469
 7289SOL    HW222767   4.871   2.437   4.369
 7290SOL     OW22768   2.796   5.664   4.457
 7290SOL    HW122769   2.823   5.615   4.374
 7290SOL    HW222770   2.878   5.690   4.508
 7291SOL     OW22771   3.573   4.526   1.403
 7291SOL    HW122772   3.635   4.471   1.458
 7291SOL    HW222773   3.575   4.621   1.434
 7292SOL     OW22774   3.141   0.181   5.020
 7292SOL    HW122775   3.230   0.153   4.984
 7292SOL    HW222776   3.152   0.217   5.113
 7293SOL     OW22777   1.795   1.544   6.591
 7293SOL    HW122778   1.842   1.616   6.641
 7293SOL    HW222779   1.857   1.503   6.524
 7294SOL     OW22780   5.290   5.364   0.266
 7294SOL    HW122781   5.290   5.306   0.347
 7294SOL    HW222782   5.196   5.385   0.240
 7295SOL     OW22783   4.902   6.977   1.362
 7295SOL    HW122784   4.993   0.003   1.368
 7295SOL    HW222785   4.835   0.023   1.405
 7296SOL     OW22786   4.130   5.271   1.536
 7296SOL    HW122787   4.039   5.309   1.551
 7296SOL    HW222788   4.129   5.173   1.554
 7297SOL     OW22789   5.059   6.909   2.162
 7297SOL    HW122790   5.143   6.957   2.136
 7297SOL    HW222791   5.012   6.961   2.234
 7298SOL     OW22792   6.622   3.623   4.103
 7298SOL    HW122793   6.586   3.532   4.085
 7298SOL    HW222794   6.720   3.616   4.123
 7299SOL     OW22795   5.669   3.595   6.613
 7299SOL    HW122796   5.653   3.694   6.615
 7299SOL    HW222797   5.649   3.560   6.521
 7300SOL     OW22798   4.789   5.408   1.625
 7300SOL    HW122799   4.737   5.475   1.572
 7300SOL    HW222800   4.799   5.441   1.719
 7301SOL     OW22801   6.737   1.292   6.105
 7301SOL    HW122802   6.674   1.239   6.162
 7301SOL    HW222803   6.825   1.298   6.152
 7302SOL     OW22804   5.757   0.975   6.472
 7302SOL    HW122805   5.832   1.037   6.497
 7302SOL    HW222806   5.795   0.888   6.440
 7303SOL     OW22807   3.586   0.743   0.701
 7303SOL    HW122808   3.564   0.825   0.754
 7303SOL    HW222809   3.502   0.693   0.682
 7304SOL     OW22810   3.978   3.434   5.140
 7304SOL    HW122811   3.931   3.492   5.074
 7304SOL    HW222812   3.916   3.409   5.214
 7305SOL     OW22813   5.368   1.713   0.302
 7305SOL    HW122814   5.412   1.799   0.328
 7305SOL    HW222815   5.305   1.685   0.373
 7306SOL     OW22816   4.791   4.936   2.393
 7306SOL    HW122817   4.890   4.952   2.385
 7306SOL    HW222818   4.745   5.022   2.417
 7307SOL     OW22819   4.289   6.225   2.263
 7307SOL    HW122820   4.315   6.231   2.167
 7307SOL    HW222821   4.258   6.132   2.284
 7308SOL     OW22822   6.188   0.650   4.227
 7308SOL    HW122823   6.170   0.747   4.214
 7308SOL    HW222824   6.228   0.612   4.143
 7309SOL     OW22825   4.293   5.287   1.976
 7309SOL    HW122826   4.351   5.347   2.031
 7309SOL    HW222827   4.320   5.294   1.880
 7310SOL     OW22828   2.139   5.684   1.695
 7310SOL    HW122829   2.169   5.767   1.649
 7310SOL    HW222830   2.106   5.706   1.787
 7311SOL     OW22831   2.600   2.090   2.346
 7311SOL    HW122832   2.566   2.059   2.257
 7311SOL    HW222833   2.575   2.186   2.360
 7312SOL     OW22834   7.009   2.118   6.225
 7312SOL    HW122835   6.916   2.156   6.226
 7312SOL    HW222836   0.016   2.082   6.315
 7313SOL     OW22837   3.619   2.520   6.207
 7313SOL    HW122838   3.598   2.531   6.110
 7313SOL    HW222839   3.696   2.578   6.232
 7314SOL     OW22840   1.109   2.899   4.319
 7314SOL    HW122841   1.038   2.966   4.297
 7314SOL    HW222842   1.105   2.877   4.417
 7315SOL     OW22843   6.934   0.701   5.797
 7315SOL    HW122844   6.930   0.640   5.718
 7315SOL    HW222845   6.972   0.653   5.876
 7316SOL     OW22846   4.049   3.275   4.890
 7316SOL    HW122847   4.051   3.278   4.990
 7316SOL    HW222848   4.032   3.181   4.861
 7317SOL     OW22849   2.942   1.328   4.012
 7317SOL    HW122850   2.908   1.284   4.094
 7317SOL    HW222851   3.026   1.378   4.033
 7318SOL     OW22852   1.533   1.662   1.171
 7318SOL    HW122853   1.506   1.727   1.242
 7318SOL    HW222854   1.602   1.599   1.207
 7319SOL     OW22855   0.321   3.887   6.133
 7319SOL    HW122856   0.385   3.963   6.138
 7319SOL    HW222857   0.333   3.828   6.212
 7320SOL     OW22858   6.892   2.169   2.423
 7320SOL    HW122859   6.918   2.076   2.399
 7320SOL    HW222860   6.927   2.233   2.355
 7321SOL     OW22861   2.869   1.725   4.426
 7321SOL    HW122862   2.950   1.783   4.431
 7321SOL    HW222863   2.810   1.742   4.505
 7322SOL     OW22864   0.174   3.602   1.584
 7322SOL    HW122865   0.206   3.681   1.637
 7322SOL    HW222866   0.088   3.568   1.623
 7323SOL     OW22867   2.142   4.062   3.168
 7323SOL    HW122868   2.149   4.087   3.072
 7323SOL    HW222869   2.107   3.969   3.177
 7324SOL     OW22870   5.285   5.370   2.855
 7324SOL    HW122871   5.342   5.289   2.873
 7324SOL    HW222872   5.189   5.344   2.855
 7325SOL     OW22873   2.933   6.124   0.469
 7325SOL    HW122874   2.867   6.123   0.394
 7325SOL    HW222875   3.002   6.053   0.454
 7326SOL     OW22876   2.155   0.955   4.673
 7326SOL    HW122877   2.071   0.993   4.634
 7326SOL    HW222878   2.153   0.855   4.665
 7327SOL     OW22879   1.304   2.756   5.456
 7327SOL    HW122880   1.299   2.667   5.501
 7327SOL    HW222881   1.235   2.761   5.384
 7328SOL     OW22882   2.324   0.128   6.487
 7328SOL    HW122883   2.369   0.205   6.441
 7328SOL    HW222884   2.393   0.068   6.527
 7329SOL     OW22885   4.420   3.507   1.678
 7329SOL    HW122886   4.460   3.598   1.688
 7329SOL    HW222887   4.336   3.502   1.732
 7330SOL     OW22888   4.275   2.286   0.639
 7330SOL    HW122889   4.339   2.358   0.666
 7330SOL    HW222890   4.204   2.276   0.710
 7331SOL     OW22891   4.926   1.325   1.859
 7331SOL    HW122892   4.948   1.284   1.948
 7331SOL    HW222893   4.994   1.295   1.792
 7332SOL     OW22894   3.309   5.692   0.952
 7332SOL    HW122895   3.374   5.763   0.981
 7332SOL    HW222896   3.293   5.629   1.029
 7333SOL     OW22897   0.524   4.507   2.513
 7333SOL    HW122898   0.563   4.519   2.604
 7333SOL    HW222899   0.451   4.438   2.517
 7334SOL     OW22900   3.354   0.018   4.500
 7334SOL    HW122901   3.344   0.077   4.580
 7334SOL    HW222902   3.450   0.013   4.474
 7335SOL     OW22903   1.930   3.244   2.652
 7335SOL    HW122904   1.951   3.201   2.564
 7335SOL    HW222905   2.005   3.304   2.679
 7336SOL     OW22906   1.698   6.225   4.218
 7336SOL    HW122907   1.768   6.227   4.289
 7336SOL    HW222908   1.711   6.303   4.156
 7337SOL     OW22909   4.846   2.490   2.048
 7337SOL    HW122910   4.776   2.556   2.018
 7337SOL    HW222911   4.924   2.539   2.085
 7338SOL     OW22912   6.714   2.950   6.865
 7338SOL    HW122913   6.725   3.025   6.800
 7338SOL    HW222914   6.779   2.877   6.844
 7339SOL     OW22915   1.384   5.841   4.981
 7339SOL    HW122916   1.329   5.812   5.059
 7339SOL    HW222917   1.475   5.869   5.012
 7340SOL     OW22918   2.628   6.688   6.753
 7340SOL    HW122919   2.550   6.692   6.690
 7340SOL    HW222920   2.601   6.722   6.842
 7341SOL     OW22921   6.771   1.610   0.847
 7341SOL    HW122922   6.802   1.631   0.755
 7341SOL    HW222923   6.700   1.539   0.843
 7342SOL     OW22924   0.590   6.309   2.158
 7342SOL    HW122925   0.675   6.314   2.211
 7342SOL    HW222926   0.609   6.330   2.063
 7343SOL     OW22927   6.044   2.964   0.858
 7343SOL    HW122928   6.044   3.004   0.766
 7343SOL    HW222929   6.018   2.868   0.852
 7344SOL     OW22930   2.316   6.029   5.834
 7344SOL    HW122931   2.391   6.056   5.774
 7344SOL    HW222932   2.319   6.083   5.918
 7345SOL     OW22933   3.473   5.840   5.807
 7345SOL    HW122934   3.557   5.829   5.753
 7345SOL    HW222935   3.496   5.849   5.904
 7346SOL     OW22936   3.929   5.112   2.151
 7346SOL    HW122937   3.857   5.043   2.150
 7346SOL    HW222938   3.965   5.124   2.059
 7347SOL     OW22939   6.149   1.450   0.448
 7347SOL    HW122940   6.187   1.360   0.427
 7347SOL    HW222941   6.050   1.445   0.450
 7348SOL     OW22942   6.583   4.810   0.258
 7348SOL    HW122943   6.662   4.753   0.280
 7348SOL    HW222944   6.529   4.767   0.186
 7349SOL     OW22945   3.712   1.675   1.510
 7349SOL    HW122946   3.798   1.634   1.541
 7349SOL    HW222947   3.679   1.739   1.580
 7350SOL     OW22948   3.877   1.002   4.354
 7350SOL    HW122949   3.807   1.070   4.331
 7350SOL    HW222950   3.968   1.040   4.336
 7351SOL     OW22951   1.966   4.450   4.226
 7351SOL    HW122952   2.032   4.375   4.225
 7351SOL    HW222953   1.991   4.517   4.156
 7352SOL     OW22954   6.031   3.787   4.245
 7352SOL    HW122955   6.028   3.727   4.325
 7352SOL    HW222956   6.121   3.832   4.240
 7353SOL     OW22957   6.505   1.142   5.436
 7353SOL    HW122958   6.468   1.049   5.430
 7353SOL    HW222959   6.445   1.206   5.389
 7354SOL     OW22960   0.744   1.674   2.539
 7354SOL    HW122961   0.703   1.692   2.628
 7354SOL    HW222962   0.806   1.749   2.515
 7355SOL     OW22963   3.563   1.623   0.718
 7355SOL    HW122964   3.601   1.530   0.716
 7355SOL    HW222965   3.465   1.619   0.696
 7356SOL     OW22966   4.069   3.923   6.197
 7356SOL    HW122967   4.145   3.927   6.132
 7356SOL    HW222968   3.984   3.947   6.150
 7357SOL     OW22969   5.343   6.689   1.957
 7357SOL    HW122970   5.322   6.679   2.054
 7357SOL    HW222971   5.345   6.599   1.914
 7358SOL     OW22972   5.375   0.547   3.495
 7358SOL    HW122973   5.437   0.514   3.425
 7358SOL    HW222974   5.281   0.540   3.462
 7359SOL     OW22975   4.193   6.618   1.854
 7359SOL    HW122976   4.180   6.661   1.943
 7359SOL    HW222977   4.270   6.660   1.806
 7360SOL     OW22978   2.832   3.722   5.115
 7360SOL    HW122979   2.806   3.807   5.161
 7360SOL    HW222980   2.859   3.742   5.021
 7361SOL     OW22981   6.800   0.329   2.874
 7361SOL    HW122982   6.826   0.238   2.903
 7361SOL    HW222983   6.743   0.372   2.944
 7362SOL     OW22984   3.335   5.658   0.350
 7362SOL    HW122985   3.363   5.590   0.282
 7362SOL    HW222986   3.409   5.723   0.366
 7363SOL     OW22987   4.099   0.840   1.307
 7363SOL    HW122988   4.087   0.867   1.403
 7363SOL    HW222989   4.135   0.918   1.255
 7364SOL     OW22990   6.202   6.397   1.625
 7364SOL    HW122991   6.247   6.319   1.581
 7364SOL    HW222992   6.103   6.381   1.627
 7365SOL     OW22993   4.830   3.870   2.599
 7365SOL    HW122994   4.885   3.934   2.652
 7365SOL    HW222995   4.748   3.916   2.565
 7366SOL     OW22996   2.214   6.989   3.796
 7366SOL    HW122997   2.242   7.002   3.700
 7366SOL    HW222998   2.283   0.013   3.856
 7367SOL     OW22999   4.375   1.005   6.329
 7367SOL    HW123000   4.445   1.051   6.273
 7367SOL    HW223001   4.372   1.047   6.420
 7368SOL     OW23002   3.610   3.355   3.253
 7368SOL    HW123003   3.665   3.439   3.248
 7368SOL    HW223004   3.564   3.351   3.341
 7369SOL     OW23005   5.426   3.549   6.989
 7369SOL    HW123006   5.503   3.555   0.037
 7369SOL    HW223007   5.457   3.510   6.903
 7370SOL     OW23008   1.731   1.355   4.810
 7370SOL    HW123009   1.813   1.334   4.864
 7370SOL    HW223010   1.700   1.273   4.763
 7371SOL     OW23011   3.834   1.216   3.531
 7371SOL    HW123012   3.744   1.172   3.536
 7371SOL    HW223013   3.904   1.154   3.565
 7372SOL     OW23014   4.832   1.112   5.442
 7372SOL    HW123015   4.761   1.161   5.391
 7372SOL    HW223016   4.914   1.103   5.386
 7373SOL     OW23017   6.022   3.077   4.344
 7373SOL    HW123018   5.989   3.079   4.250
 7373SOL    HW223019   5.975   3.004   4.394
 7374SOL     OW23020   0.668   2.371   6.826
 7374SOL    HW123021   0.607   2.404   6.897
 7374SOL    HW223022   0.646   2.417   6.739
 7375SOL     OW23023   2.012   3.603   0.570
 7375SOL    HW123024   2.087   3.602   0.636
 7375SOL    HW223025   2.047   3.625   0.479
 7376SOL     OW23026   6.955   4.393   0.637
 7376SOL    HW123027   6.881   4.400   0.570
 7376SOL    HW223028   6.998   4.482   0.649
 7377SOL     OW23029   2.548   5.646   1.157
 7377SOL    HW123030   2.584   5.710   1.225
 7377SOL    HW223031   2.528   5.559   1.200
 7378SOL     OW23032   1.988   4.847   5.463
 7378SOL    HW123033   1.909   4.869   5.521
 7378SOL    HW223034   2.030   4.762   5.494
 7379SOL     OW23035   4.629   1.856   2.637
 7379SOL    HW123036   4.535   1.838   2.663
 7379SOL    HW223037   4.635   1.948   2.597
 7380SOL     OW23038   5.186   3.384   1.726
 7380SOL    HW123039   5.277   3.417   1.752
 7380SOL    HW223040   5.164   3.302   1.779
 7381SOL     OW23041   3.627   6.543   1.747
 7381SOL    HW123042   3.578   6.456   1.737
 7381SOL    HW223043   3.721   6.525   1.779
 7382SOL     OW23044   0.028   1.629   6.187
 7382SOL    HW123045   0.021   1.718   6.142
 7382SOL    HW223046   6.958   1.610   6.236
 7383SOL     OW23047   2.119   6.805   0.983
 7383SOL    HW123048   2.070   6.731   1.028
 7383SOL    HW223049   2.209   6.816   1.025
 7384SOL     OW23050   6.922   6.534   0.785
 7384SOL    HW123051   6.920   6.617   0.841
 7384SOL    HW223052   0.001   6.500   0.779
 7385SOL     OW23053   5.987   4.992   3.215
 7385SOL    HW123054   5.976   5.028   3.307
 7385SOL    HW223055   6.060   5.041   3.168
 7386SOL     OW23056   5.280   3.838   6.843
 7386SOL    HW123057   5.250   3.778   6.769
 7386SOL    HW223058   5.202   3.891   6.877
 7387SOL     OW23059   6.430   5.789   4.271
 7387SOL    HW123060   6.416   5.793   4.172
 7387SOL    HW223061   6.341   5.792   4.317
 7388SOL     OW23062   2.290   4.389   2.386
 7388SOL    HW123063   2.304   4.396   2.288
 7388SOL    HW223064   2.259   4.477   2.422
 7389SOL     OW23065   6.638   3.302   0.409
 7389SOL    HW123066   6.664   3.309   0.313
 7389SOL    HW223067   6.538   3.297   0.415
 7390SOL     OW23068   2.765   2.402   3.786
 7390SOL    HW123069   2.794   2.313   3.819
 7390SOL    HW223070   2.844   2.461   3.775
 7391SOL     OW23071   3.297   3.831   3.224
 7391SOL    HW123072   3.303   3.776   3.308
 7391SOL    HW223073   3.203   3.831   3.191
 7392SOL     OW23074   3.134   6.719   0.583
 7392SOL    HW123075   3.176   6.630   0.600
 7392SOL    HW223076   3.070   6.741   0.657
 7393SOL     OW23077   5.052   5.858   3.298
 7393SOL    HW123078   4.958   5.825   3.285
 7393SOL    HW223079   5.115   5.800   3.245
 7394SOL     OW23080   2.344   2.018   6.121
 7394SOL    HW123081   2.255   2.026   6.077
 7394SOL    HW223082   2.398   2.100   6.104
 7395SOL     OW23083   2.738   5.869   0.943
 7395SOL    HW123084   2.785   5.788   0.980
 7395SOL    HW223085   2.776   5.891   0.853
 7396SOL     OW23086   1.271   4.940   2.179
 7396SOL    HW123087   1.218   4.925   2.263
 7396SOL    HW223088   1.345   4.872   2.174
 7397SOL     OW23089   5.935   4.589   4.022
 7397SOL    HW123090   5.868   4.524   3.987
 7397SOL    HW223091   6.024   4.544   4.029
 7398SOL     OW23092   3.129   4.892   2.201
 7398SOL    HW123093   3.217   4.939   2.202
 7398SOL    HW223094   3.135   4.811   2.143
 7399SOL     OW23095   5.784   1.420   5.809
 7399SOL    HW123096   5.846   1.462   5.874
 7399SOL    HW223097   5.821   1.332   5.779
 7400SOL     OW23098   4.400   3.614   5.792
 7400SOL    HW123099   4.448   3.669   5.724
 7400SOL    HW223100   4.335   3.672   5.841
 7401SOL     OW23101   1.367   2.485   3.858
 7401SOL    HW123102   1.432   2.550   3.820
 7401SOL    HW223103   1.375   2.485   3.958
 7402SOL     OW23104   3.477   5.614   4.282
 7402SOL    HW123105   3.537   5.624   4.361
 7402SOL    HW223106   3.440   5.703   4.256
 7403SOL     OW23107   1.804   4.234   3.785
 7403SOL    HW123108   1.743   4.179   3.729
 7403SOL    HW223109   1.811   4.326   3.747
 7404SOL     OW23110   2.739   3.806   0.575
 7404SOL    HW123111   2.776   3.832   0.665
 7404SOL    HW223112   2.721   3.888   0.522
 7405SOL     OW23113   3.817   6.628   5.401
 7405SOL    HW123114   3.870   6.704   5.438
 7405SOL    HW223115   3.732   6.618   5.453
 7406SOL     OW23116   0.934   2.419   4.448
 7406SOL    HW123117   0.935   2.519   4.452
 7406SOL    HW223118   0.840   2.387   4.436
 7407SOL     OW23119   1.582   6.042   5.932
 7407SOL    HW123120   1.661   5.992   5.969
 7407SOL    HW223121   1.500   5.985   5.942
 7408SOL     OW23122   4.324   5.456   4.818
 7408SOL    HW123123   4.354   5.546   4.848
 7408SOL    HW223124   4.236   5.434   4.859
 7409SOL     OW23125   6.675   4.470   1.599
 7409SOL    HW123126   6.708   4.565   1.604
 7409SOL    HW223127   6.599   4.458   1.662
 7410SOL     OW23128   6.388   0.712   1.377
 7410SOL    HW123129   6.483   0.690   1.356
 7410SOL    HW223130   6.327   0.658   1.320
 7411SOL     OW23131   3.344   1.919   5.517
 7411SOL    HW123132   3.327   2.011   5.554
 7411SOL    HW223133   3.374   1.859   5.591
 7412SOL     OW23134   4.119   6.638   0.351
 7412SOL    HW123135   4.148   6.554   0.396
 7412SOL    HW223136   4.163   6.645   0.262
 7413SOL     OW23137   4.881   1.122   3.693
 7413SOL    HW123138   4.802   1.156   3.642
 7413SOL    HW223139   4.890   1.173   3.778
 7414SOL     OW23140   2.794   0.922   4.107
 7414SOL    HW123141   2.803   0.984   4.029
 7414SOL    HW223142   2.706   0.874   4.102
 7415SOL     OW23143   3.943   0.153   6.310
 7415SOL    HW123144   3.948   0.253   6.301
 7415SOL    HW223145   3.854   0.121   6.276
 7416SOL     OW23146   1.761   0.402   1.885
 7416SOL    HW123147   1.661   0.396   1.887
 7416SOL    HW223148   1.792   0.418   1.791
 7417SOL     OW23149   0.629   0.548   2.261
 7417SOL    HW123150   0.642   0.530   2.163
 7417SOL    HW223151   0.532   0.567   2.279
 7418SOL     OW23152   1.388   3.890   6.259
 7418SOL    HW123153   1.434   3.844   6.183
 7418SOL    HW223154   1.370   3.985   6.234
 7419SOL     OW23155   6.848   3.213   4.249
 7419SOL    HW123156   6.948   3.215   4.251
 7419SOL    HW223157   6.817   3.120   4.229
 7420SOL     OW23158   6.783   6.376   0.953
 7420SOL    HW123159   6.817   6.438   1.024
 7420SOL    HW223160   6.804   6.413   0.863
 7421SOL     OW23161   5.612   4.045   1.136
 7421SOL    HW123162   5.640   4.138   1.158
 7421SOL    HW223163   5.680   3.981   1.172
 7422SOL     OW23164   5.430   3.445   1.780
 7422SOL    HW123165   5.512   3.460   1.725
 7422SOL    HW223166   5.457   3.414   1.872
 7423SOL     OW23167   4.810   2.757   6.342
 7423SOL    HW123168   4.783   2.663   6.361
 7423SOL    HW223169   4.908   2.769   6.358
 7424SOL     OW23170   0.828   2.313   4.042
 7424SOL    HW123171   0.817   2.270   3.952
 7424SOL    HW223172   0.913   2.281   4.084
 7425SOL     OW23173   5.749   0.657   1.016
 7425SOL    HW123174   5.809   0.691   1.089
 7425SOL    HW223175   5.654   0.669   1.043
 7426SOL     OW23176   3.135   2.984   5.868
 7426SOL    HW123177   3.150   3.079   5.840
 7426SOL    HW223178   3.224   2.940   5.886
 7427SOL     OW23179   2.561   0.005   3.349
 7427SOL    HW123180   2.613   0.003   3.434
 7427SOL    HW223181   2.524   0.097   3.335
 7428SOL     OW23182   3.155   0.485   5.001
 7428SOL    HW123183   3.254   0.502   5.002
 7428SOL    HW223184   3.132   0.428   4.922
 7429SOL     OW23185   0.990   0.557   2.169
 7429SOL    HW123186   0.983   0.559   2.069
 7429SOL    HW223187   1.056   0.626   2.199
 7430SOL     OW23188   0.208   4.284   2.814
 7430SOL    HW123189   0.173   4.194   2.839
 7430SOL    HW223190   0.144   4.354   2.846
 7431SOL     OW23191   0.807   1.829   3.978
 7431SOL    HW123192   0.773   1.901   4.039
 7431SOL    HW223193   0.731   1.768   3.953
 7432SOL     OW23194   1.800   1.042   3.222
 7432SOL    HW123195   1.886   1.002   3.190
 7432SOL    HW223196   1.806   1.142   3.216
 7433SOL     OW23197   3.341   6.881   6.598
 7433SOL    HW123198   3.248   6.856   6.570
 7433SOL    HW223199   3.339   6.925   6.688
 7434SOL     OW23200   4.441   0.256   3.751
 7434SOL    HW123201   4.535   0.261   3.715
 7434SOL    HW223202   4.443   0.214   3.842
 7435SOL     OW23203   4.951   4.639   3.188
 7435SOL    HW123204   4.985   4.690   3.267
 7435SOL    HW223205   4.994   4.674   3.105
 7436SOL     OW23206   5.307   3.115   6.012
 7436SOL    HW123207   5.342   3.108   5.918
 7436SOL    HW223208   5.240   3.043   6.028
 7437SOL     OW23209   3.187   0.797   1.194
 7437SOL    HW123210   3.121   0.843   1.254
 7437SOL    HW223211   3.177   0.698   1.204
 7438SOL     OW23212   2.057   0.361   6.541
 7438SOL    HW123213   2.151   0.328   6.543
 7438SOL    HW223214   1.995   0.290   6.574
 7439SOL     OW23215   1.112   4.642   6.121
 7439SOL    HW123216   1.063   4.610   6.040
 7439SOL    HW223217   1.163   4.725   6.098
 7440SOL     OW23218   5.309   3.665   4.101
 7440SOL    HW123219   5.265   3.639   4.188
 7440SOL    HW223220   5.313   3.764   4.094
 7441SOL     OW23221   4.608   5.935   1.002
 7441SOL    HW123222   4.593   5.836   1.009
 7441SOL    HW223223   4.521   5.983   1.006
 7442SOL     OW23224   5.844   1.141   6.172
 7442SOL    HW123225   5.835   1.047   6.138
 7442SOL    HW223226   5.940   1.158   6.195
 7443SOL     OW23227   0.029   0.503   1.542
 7443SOL    HW123228   0.012   0.443   1.621
 7443SOL    HW223229   0.109   0.560   1.560
 7444SOL     OW23230   1.501   6.505   6.876
 7444SOL    HW123231   1.476   6.478   6.969
 7444SOL    HW223232   1.491   6.604   6.867
 7445SOL     OW23233   3.511   5.774   2.344
 7445SOL    HW123234   3.523   5.720   2.261
 7445SOL    HW223235   3.453   5.724   2.408
 7446SOL     OW23236   5.674   5.075   0.057
 7446SOL    HW123237   5.636   5.110   0.143
 7446SOL    HW223238   5.741   5.005   0.077
 7447SOL     OW23239   1.125   5.319   1.019
 7447SOL    HW123240   1.158   5.266   0.941
 7447SOL    HW223241   1.036   5.358   0.998
 7448SOL     OW23242   4.430   5.172   6.779
 7448SOL    HW123243   4.435   5.170   6.879
 7448SOL    HW223244   4.406   5.081   6.745
 7449SOL     OW23245   5.971   4.259   6.190
 7449SOL    HW123246   6.057   4.307   6.209
 7449SOL    HW223247   5.954   4.258   6.091
 7450SOL     OW23248   5.822   2.117   6.607
 7450SOL    HW123249   5.900   2.054   6.607
 7450SOL    HW223250   5.798   2.139   6.512
 7451SOL     OW23251   4.510   4.399   3.184
 7451SOL    HW123252   4.561   4.382   3.268
 7451SOL    HW223253   4.412   4.397   3.203
 7452SOL     OW23254   6.471   5.401   6.348
 7452SOL    HW123255   6.490   5.384   6.251
 7452SOL    HW223256   6.383   5.359   6.372
 7453SOL     OW23257   4.164   5.897   6.178
 7453SOL    HW123258   4.167   5.868   6.274
 7453SOL    HW223259   4.254   5.928   6.150
 7454SOL     OW23260   3.468   2.256   1.212
 7454SOL    HW123261   3.451   2.205   1.297
 7454SOL    HW223262   3.567   2.256   1.193
 7455SOL     OW23263   6.602   0.390   3.177
 7455SOL    HW123264   6.658   0.451   3.234
 7455SOL    HW223265   6.558   0.442   3.104
 7456SOL     OW23266   2.867   2.161   5.957
 7456SOL    HW123267   2.888   2.165   6.054
 7456SOL    HW223268   2.769   2.146   5.944
 7457SOL     OW23269   1.164   1.162   2.564
 7457SOL    HW123270   1.246   1.173   2.621
 7457SOL    HW223271   1.187   1.108   2.483
 7458SOL     OW23272   0.787   5.431   5.220
 7458SOL    HW123273   0.837   5.381   5.149
 7458SOL    HW223274   0.711   5.375   5.253
 7459SOL     OW23275   5.997   0.069   3.474
 7459SOL    HW123276   5.994   0.024   3.385
 7459SOL    HW223277   5.979   0.167   3.462
 7460SOL     OW23278   0.756   0.707   1.367
 7460SOL    HW123279   0.824   0.653   1.416
 7460SOL    HW223280   0.670   0.657   1.363
 7461SOL     OW23281   2.177   4.598   4.485
 7461SOL    HW123282   2.238   4.520   4.499
 7461SOL    HW223283   2.147   4.633   4.574
 7462SOL     OW23284   1.945   4.586   0.313
 7462SOL    HW123285   1.972   4.498   0.275
 7462SOL    HW223286   1.927   4.576   0.411
 7463SOL     OW23287   4.668   5.224   1.945
 7463SOL    HW123288   4.694   5.138   1.989
 7463SOL    HW223289   4.640   5.206   1.851
 7464SOL     OW23290   5.705   5.599   5.076
 7464SOL    HW123291   5.622   5.622   5.127
 7464SOL    HW223292   5.778   5.575   5.140
 7465SOL     OW23293   1.262   4.170   6.287
 7465SOL    HW123294   1.307   4.256   6.265
 7465SOL    HW223295   1.308   4.128   6.366
 7466SOL     OW23296   0.569   0.183   5.222
 7466SOL    HW123297   0.609   0.115   5.160
 7466SOL    HW223298   0.589   0.274   5.187
 7467SOL     OW23299   0.499   3.723   4.658
 7467SOL    HW123300   0.545   3.797   4.608
 7467SOL    HW223301   0.459   3.658   4.594
 7468SOL     OW23302   5.302   2.429   5.495
 7468SOL    HW123303   5.239   2.377   5.553
 7468SOL    HW223304   5.343   2.503   5.548
 7469SOL     OW23305   0.127   1.463   0.517
 7469SOL    HW123306   0.112   1.395   0.445
 7469SOL    HW223307   0.077   1.547   0.495
 7470SOL     OW23308   5.308   3.294   4.082
 7470SOL    HW123309   5.341   3.205   4.048
 7470SOL    HW223310   5.273   3.348   4.005
 7471SOL     OW23311   3.805   6.941   6.776
 7471SOL    HW123312   3.768   6.996   6.701
 7471SOL    HW223313   3.885   6.987   6.815
 7472SOL     OW23314   0.572   0.256   5.874
 7472SOL    HW123315   0.558   0.354   5.858
 7472SOL    HW223316   0.565   0.207   5.788
 7473SOL     OW23317   3.881   5.651   3.211
 7473SOL    HW123318   3.896   5.669   3.114
 7473SOL    HW223319   3.810   5.582   3.222
 7474SOL     OW23320   6.254   2.148   0.200
 7474SOL    HW123321   6.252   2.240   0.240
 7474SOL    HW223322   6.161   2.116   0.184
 7475SOL     OW23323   5.013   2.976   0.734
 7475SOL    HW123324   4.981   3.023   0.816
 7475SOL    HW223325   4.955   2.897   0.716
 7476SOL     OW23326   2.245   1.073   2.858
 7476SOL    HW123327   2.221   1.094   2.953
 7476SOL    HW223328   2.322   1.131   2.830
 7477SOL     OW23329   2.263   3.532   5.915
 7477SOL    HW123330   2.346   3.479   5.928
 7477SOL    HW223331   2.267   3.616   5.970
 7478SOL     OW23332   0.278   2.040   5.927
 7478SOL    HW123333   0.211   2.113   5.913
 7478SOL    HW223334   0.231   1.958   5.961
 7479SOL     OW23335   4.598   2.760   1.503
 7479SOL    HW123336   4.662   2.699   1.548
 7479SOL    HW223337   4.533   2.796   1.570
 7480SOL     OW23338   3.661   5.738   2.613
 7480SOL    HW123339   3.611   5.796   2.549
 7480SOL    HW223340   3.684   5.792   2.694
 7481SOL     OW23341   0.137   3.522   5.868
 7481SOL    HW123342   0.157   3.606   5.816
 7481SOL    HW223343   0.066   3.470   5.821
 7482SOL     OW23344   5.119   2.306   4.246
 7482SOL    HW123345   5.201   2.362   4.237
 7482SOL    HW223346   5.111   2.274   4.341
 7483SOL     OW23347   4.889   1.725   6.425
 7483SOL    HW123348   4.796   1.755   6.450
 7483SOL    HW223349   4.912   1.759   6.334
 7484SOL     OW23350   2.920   0.691   4.401
 7484SOL    HW123351   2.960   0.782   4.407
 7484SOL    HW223352   2.978   0.632   4.345
 7485SOL     OW23353   4.076   0.399   6.614
 7485SOL    HW123354   4.100   0.464   6.543
 7485SOL    HW223355   3.978   0.407   6.635
 7486SOL     OW23356   4.457   6.835   0.792
 7486SOL    HW123357   4.429   6.784   0.873
 7486SOL    HW223358   4.421   6.790   0.710
 7487SOL     OW23359   3.221   6.626   3.904
 7487SOL    HW123360   3.138   6.570   3.904
 7487SOL    HW223361   3.301   6.568   3.919
 7488SOL     OW23362   1.319   5.732   4.248
 7488SOL    HW123363   1.223   5.759   4.238
 7488SOL    HW223364   1.350   5.752   4.341
 7489SOL     OW23365   5.313   2.901   6.780
 7489SOL    HW123366   5.370   2.923   6.858
 7489SOL    HW223367   5.242   2.972   6.769
 7490SOL     OW23368   1.870   2.826   2.552
 7490SOL    HW123369   1.807   2.833   2.475
 7490SOL    HW223370   1.961   2.857   2.523
 7491SOL     OW23371   4.260   3.864   0.229
 7491SOL    HW123372   4.198   3.932   0.267
 7491SOL    HW223373   4.218   3.773   0.236
 7492SOL     OW23374   1.594   0.589   3.955
 7492SOL    HW123375   1.557   0.568   3.865
 7492SOL    HW223376   1.520   0.614   4.017
 7493SOL     OW23377   6.329   4.829   4.593
 7493SOL    HW123378   6.261   4.899   4.615
 7493SOL    HW223379   6.341   4.768   4.671
 7494SOL     OW23380   6.135   1.527   2.499
 7494SOL    HW123381   6.083   1.603   2.460
 7494SOL    HW223382   6.136   1.451   2.434
 7495SOL     OW23383   1.224   3.058   5.179
 7495SOL    HW123384   1.322   3.066   5.158
 7495SOL    HW223385   1.173   3.044   5.094
 7496SOL     OW23386   6.284   3.949   2.377
 7496SOL    HW123387   6.225   3.890   2.432
 7496SOL    HW223388   6.360   3.981   2.434
 7497SOL     OW23389   6.129   6.959   1.322
 7497SOL    HW123390   6.043   6.945   1.274
 7497SOL    HW223391   6.111   6.972   1.420
 7498SOL     OW23392   2.840   6.800   3.781
 7498SOL    HW123393   2.775   6.756   3.842
 7498SOL    HW223394   2.844   6.750   3.695
 7499SOL     OW23395   3.086   1.545   3.262
 7499SOL    HW123396   3.060   1.516   3.353
 7499SOL    HW223397   3.085   1.467   3.200
 7500SOL     OW23398   4.072   0.684   4.139
 7500SOL    HW123399   4.049   0.713   4.232
 7500SOL    HW223400   4.107   0.763   4.088
 7501SOL     OW23401   6.585   2.209   4.475
 7501SOL    HW123402   6.670   2.166   4.445
 7501SOL    HW223403   6.556   2.168   4.562
 7502SOL     OW23404   4.461   1.097   3.733
 7502SOL    HW123405   4.456   0.998   3.727
 7502SOL    HW223406   4.525   1.131   3.663
 7503SOL     OW23407   1.291   5.913   1.417
 7503SOL    HW123408   1.330   5.966   1.492
 7503SOL    HW223409   1.306   5.815   1.434
 7504SOL     OW23410   5.681   6.472   4.612
 7504SOL    HW123411   5.701   6.564   4.576
 7504SOL    HW223412   5.763   6.435   4.656
 7505SOL     OW23413   0.875   6.575   5.816
 7505SOL    HW123414   0.904   6.537   5.728
 7505SOL    HW223415   0.844   6.669   5.803
 7506SOL     OW23416   3.290   2.100   4.319
 7506SOL    HW123417   3.266   2.089   4.415
 7506SOL    HW223418   3.389   2.110   4.310
 7507SOL     OW23419   6.753   4.067   6.077
 7507SOL    HW123420   6.816   4.023   6.141
 7507SOL    HW223421   6.670   4.013   6.069
 7508SOL     OW23422   3.053   6.421   0.670
 7508SOL    HW123423   2.980   6.408   0.737
 7508SOL    HW223424   3.090   6.332   0.643
 7509SOL     OW23425   6.186   4.503   2.271
 7509SOL    HW123426   6.096   4.476   2.237
 7509SOL    HW223427   6.216   4.586   2.223
 7510SOL     OW23428   3.225   4.126   1.874
 7510SOL    HW123429   3.155   4.176   1.822
 7510SOL    HW223430   3.182   4.084   1.954
 7511SOL     OW23431   4.546   5.974   3.700
 7511SOL    HW123432   4.589   5.894   3.659
 7511SOL    HW223433   4.578   5.987   3.793
 7512SOL     OW23434   4.247   0.409   0.812
 7512SOL    HW123435   4.155   0.398   0.849
 7512SOL    HW223436   4.306   0.448   0.883
 7513SOL     OW23437   1.140   0.849   1.857
 7513SOL    HW123438   1.134   0.865   1.956
 7513SOL    HW223439   1.236   0.855   1.828
 7514SOL     OW23440   0.359   6.714   1.082
 7514SOL    HW123441   0.407   6.797   1.055
 7514SOL    HW223442   0.347   6.713   1.181
 7515SOL     OW23443   0.201   4.538   5.370
 7515SOL    HW123444   0.207   4.634   5.341
 7515SOL    HW223445   0.116   4.524   5.421
 7516SOL     OW23446   1.828   6.409   5.234
 7516SOL    HW123447   1.827   6.409   5.134
 7516SOL    HW223448   1.878   6.329   5.268
 7517SOL     OW23449   0.521   1.839   6.340
 7517SOL    HW123450   0.526   1.779   6.420
 7517SOL    HW223451   0.556   1.790   6.260
 7518SOL     OW23452   4.120   1.984   4.315
 7518SOL    HW123453   4.047   1.991   4.246
 7518SOL    HW223454   4.131   2.073   4.360
 7519SOL     OW23455   3.631   6.983   4.420
 7519SOL    HW123456   3.687   6.994   4.338
 7519SOL    HW223457   3.671   0.021   4.495
 7520SOL     OW23458   2.024   1.146   0.890
 7520SOL    HW123459   2.008   1.232   0.939
 7520SOL    HW223460   2.100   1.157   0.826
 7521SOL     OW23461   4.164   1.435   5.424
 7521SOL    HW123462   4.094   1.369   5.396
 7521SOL    HW223463   4.120   1.516   5.462
 7522SOL     OW23464   2.111   6.456   4.242
 7522SOL    HW123465   2.209   6.459   4.264
 7522SOL    HW223466   2.098   6.483   4.147
 7523SOL     OW23467   5.869   1.367   0.449
 7523SOL    HW123468   5.843   1.330   0.360
 7523SOL    HW223469   5.814   1.448   0.469
 7524SOL     OW23470   0.452   3.437   4.957
 7524SOL    HW123471   0.370   3.409   4.907
 7524SOL    HW223472   0.425   3.476   5.045
 7525SOL     OW23473   2.782   4.983   5.717
 7525SOL    HW123474   2.781   5.083   5.719
 7525SOL    HW223475   2.822   4.949   5.802
 7526SOL     OW23476   2.010   4.180   0.940
 7526SOL    HW123477   1.969   4.230   1.016
 7526SOL    HW223478   1.951   4.102   0.916
 7527SOL     OW23479   2.826   5.043   2.760
 7527SOL    HW123480   2.922   5.048   2.731
 7527SOL    HW223481   2.784   4.960   2.723
 7528SOL     OW23482   6.048   2.767   5.896
 7528SOL    HW123483   5.985   2.692   5.877
 7528SOL    HW223484   6.092   2.795   5.811
 7529SOL     OW23485   6.023   3.609   4.456
 7529SOL    HW123486   5.958   3.535   4.473
 7529SOL    HW223487   6.025   3.670   4.535
 7530SOL     OW23488   1.210   2.760   3.055
 7530SOL    HW123489   1.201   2.661   3.049
 7530SOL    HW223490   1.258   2.794   2.974
 7531SOL     OW23491   3.920   1.907   3.620
 7531SOL    HW123492   4.004   1.936   3.576
 7531SOL    HW223493   3.879   1.984   3.669
 7532SOL     OW23494   4.962   5.582   6.679
 7532SOL    HW123495   5.061   5.596   6.668
 7532SOL    HW223496   4.922   5.663   6.723
 7533SOL     OW23497   4.562   4.483   1.762
 7533SOL    HW123498   4.580   4.429   1.679
 7533SOL    HW223499   4.531   4.422   1.835
 7534SOL     OW23500   4.294   5.862   5.219
 7534SOL    HW123501   4.206   5.909   5.230
 7534SOL    HW223502   4.364   5.927   5.190
 7535SOL     OW23503   0.322   6.667   4.185
 7535SOL    HW123504   0.350   6.620   4.101
 7535SOL    HW223505   0.222   6.671   4.189
 7536SOL     OW23506   6.597   6.093   3.477
 7536SOL    HW123507   6.619   6.143   3.393
 7536SOL    HW223508   6.667   6.111   3.546
 7537SOL     OW23509   1.850   0.016   2.797
 7537SOL    HW123510   1.793   0.046   2.721
 7537SOL    HW223511   1.827   6.935   2.819
 7538SOL     OW23512   0.163   4.793   0.159
 7538SOL    HW123513   0.145   4.697   0.181
 7538SOL    HW223514   0.237   4.799   0.093
 7539SOL     OW23515   6.743   0.520   4.300
 7539SOL    HW123516   6.694   0.551   4.218
 7539SOL    HW223517   6.719   0.579   4.377
 7540SOL     OW23518   5.303   4.491   3.163
 7540SOL    HW123519   5.387   4.545   3.166
 7540SOL    HW223520   5.291   4.445   3.251
 7541SOL     OW23521   2.533   3.931   6.002
 7541SOL    HW123522   2.476   4.012   6.018
 7541SOL    HW223523   2.518   3.899   5.908
 7542SOL     OW23524   6.157   5.774   4.804
 7542SOL    HW123525   6.144   5.787   4.903
 7542SOL    HW223526   6.122   5.683   4.779
 7543SOL     OW23527   2.315   1.370   0.577
 7543SOL    HW123528   2.412   1.384   0.594
 7543SOL    HW223529   2.264   1.451   0.607
 7544SOL     OW23530   6.239   1.107   4.408
 7544SOL    HW123531   6.174   1.076   4.339
 7544SOL    HW223532   6.323   1.138   4.363
 7545SOL     OW23533   1.512   5.499   5.313
 7545SOL    HW123534   1.610   5.494   5.333
 7545SOL    HW223535   1.469   5.411   5.330
 7546SOL     OW23536   2.507   2.668   1.768
 7546SOL    HW123537   2.533   2.715   1.684
 7546SOL    HW223538   2.579   2.603   1.794
 7547SOL     OW23539   4.100   6.952   1.885
 7547SOL    HW123540   4.179   6.902   1.847
 7547SOL    HW223541   4.019   6.932   1.830
 7548SOL     OW23542   2.555   2.303   6.522
 7548SOL    HW123543   2.550   2.207   6.497
 7548SOL    HW223544   2.558   2.359   6.439
 7549SOL     OW23545   5.239   0.913   4.564
 7549SOL    HW123546   5.293   0.829   4.568
 7549SOL    HW223547   5.289   0.982   4.512
 7550SOL     OW23548   2.964   6.180   4.252
 7550SOL    HW123549   3.007   6.108   4.307
 7550SOL    HW223550   2.876   6.147   4.217
 7551SOL     OW23551   6.345   3.005   6.330
 7551SOL    HW123552   6.408   2.999   6.408
 7551SOL    HW223553   6.353   2.922   6.275
 7552SOL     OW23554   2.523   6.569   4.929
 7552SOL    HW123555   2.549   6.475   4.906
 7552SOL    HW223556   2.454   6.567   5.001
 7553SOL     OW23557   6.492   6.364   5.999
 7553SOL    HW123558   6.429   6.360   5.922
 7553SOL    HW223559   6.516   6.459   6.017
 7554SOL     OW23560   4.765   1.610   1.247
 7554SOL    HW123561   4.755   1.524   1.298
 7554SOL    HW223562   4.765   1.590   1.149
 7555SOL     OW23563   4.415   5.154   4.017
 7555SOL    HW123564   4.431   5.222   3.945
 7555SOL    HW223565   4.319   5.156   4.044
 7556SOL     OW23566   1.200   6.126   1.285
 7556SOL    HW123567   1.272   6.155   1.222
 7556SOL    HW223568   1.234   6.051   1.343
 7557SOL     OW23569   4.631   6.482   1.372
 7557SOL    HW123570   4.721   6.500   1.410
 7557SOL    HW223571   4.641   6.447   1.279
 7558SOL     OW23572   0.671   1.860   3.535
 7558SOL    HW123573   0.580   1.899   3.519
 7558SOL    HW223574   0.663   1.778   3.591
 7559SOL     OW23575   2.960   1.085   4.971
 7559SOL    HW123576   2.886   1.067   5.036
 7559SOL    HW223577   2.970   1.007   4.910
 7560SOL     OW23578   0.945   1.176   5.804
 7560SOL    HW123579   0.961   1.087   5.761
 7560SOL    HW223580   0.956   1.248   5.735
 7561SOL     OW23581   5.160   1.198   5.363
 7561SOL    HW123582   5.258   1.178   5.361
 7561SOL    HW223583   5.111   1.129   5.310
 7562SOL     OW23584   2.126   5.681   3.441
 7562SOL    HW123585   2.089   5.729   3.362
 7562SOL    HW223586   2.050   5.648   3.498
 7563SOL     OW23587   2.838   6.155   3.070
 7563SOL    HW123588   2.900   6.190   3.140
 7563SOL    HW223589   2.884   6.082   3.020
 7564SOL     OW23590   4.882   1.915   5.399
 7564SOL    HW123591   4.884   1.815   5.394
 7564SOL    HW223592   4.937   1.954   5.325
 7565SOL     OW23593   6.491   2.833   5.697
 7565SOL    HW123594   6.514   2.827   5.600
 7565SOL    HW223595   6.541   2.909   5.739
 7566SOL     OW23596   4.950   5.177   2.067
 7566SOL    HW123597   4.979   5.235   2.143
 7566SOL    HW223598   4.914   5.091   2.103
 7567SOL     OW23599   1.255   0.178   4.515
 7567SOL    HW123600   1.297   0.184   4.425
 7567SOL    HW223601   1.315   0.221   4.583
 7568SOL     OW23602   6.305   4.335   1.346
 7568SOL    HW123603   6.345   4.333   1.254
 7568SOL    HW223604   6.323   4.248   1.392
 7569SOL     OW23605   4.359   3.627   0.533
 7569SOL    HW123606   4.278   3.649   0.479
 7569SOL    HW223607   4.332   3.613   0.628
 7570SOL     OW23608   0.884   3.112   1.971
 7570SOL    HW123609   0.902   3.126   1.873
 7570SOL    HW223610   0.787   3.091   1.984
 7571SOL     OW23611   4.772   1.636   2.669
 7571SOL    HW123612   4.736   1.723   2.636
 7571SOL    HW223613   4.730   1.614   2.757
 7572SOL     OW23614   4.856   6.358   3.737
 7572SOL    HW123615   4.857   6.458   3.731
 7572SOL    HW223616   4.763   6.327   3.755
 7573SOL     OW23617   4.476   6.257   6.337
 7573SOL    HW123618   4.519   6.308   6.411
 7573SOL    HW223619   4.391   6.301   6.310
 7574SOL     OW23620   0.770   2.663   4.174
 7574SOL    HW123621   0.772   2.652   4.075
 7574SOL    HW223622   0.705   2.599   4.214
 7575SOL     OW23623   6.845   6.564   1.122
 7575SOL    HW123624   6.763   6.590   1.172
 7575SOL    HW223625   6.873   6.641   1.063
 7576SOL     OW23626   4.814   2.831   6.845
 7576SOL    HW123627   4.734   2.779   6.816
 7576SOL    HW223628   4.784   2.915   6.891
 7577SOL     OW23629   0.528   0.140   6.712
 7577SOL    HW123630   0.497   0.234   6.704
 7577SOL    HW223631   0.460   0.087   6.763
 7578SOL     OW23632   6.356   6.120   3.018
 7578SOL    HW123633   6.410   6.036   3.025
 7578SOL    HW223634   6.274   6.111   3.074
 7579SOL     OW23635   0.244   1.886   0.118
 7579SOL    HW123636   0.198   1.975   0.112
 7579SOL    HW223637   0.270   1.856   0.026
 7580SOL     OW23638   1.884   5.464   3.038
 7580SOL    HW123639   1.785   5.474   3.046
 7580SOL    HW223640   1.928   5.554   3.041
 7581SOL     OW23641   0.046   6.791   1.234
 7581SOL    HW123642   7.006   6.862   1.191
 7581SOL    HW223643   0.034   6.705   1.184
 7582SOL     OW23644   2.152   1.535   6.540
 7582SOL    HW123645   2.234   1.535   6.483
 7582SOL    HW223646   2.164   1.599   6.616
 7583SOL     OW23647   5.492   3.574   2.090
 7583SOL    HW123648   5.541   3.618   2.165
 7583SOL    HW223649   5.406   3.622   2.074
 7584SOL     OW23650   0.676   0.937   2.824
 7584SOL    HW123651   0.685   1.003   2.899
 7584SOL    HW223652   0.705   0.847   2.856
 7585SOL     OW23653   1.029   1.398   5.631
 7585SOL    HW123654   1.077   1.404   5.544
 7585SOL    HW223655   0.991   1.487   5.656
 7586SOL     OW23656   1.753   6.428   4.044
 7586SOL    HW123657   1.666   6.476   4.038
 7586SOL    HW223658   1.828   6.494   4.051
 7587SOL     OW23659   4.861   0.351   1.671
 7587SOL    HW123660   4.944   0.387   1.714
 7587SOL    HW223661   4.782   0.400   1.708
 7588SOL     OW23662   2.138   3.346   4.477
 7588SOL    HW123663   2.182   3.318   4.562
 7588SOL    HW223664   2.065   3.411   4.497
 7589SOL     OW23665   6.868   0.435   2.506
 7589SOL    HW123666   6.945   0.489   2.474
 7589SOL    HW223667   6.901   0.352   2.550
 7590SOL     OW23668   6.066   1.065   0.962
 7590SOL    HW123669   6.071   1.114   0.875
 7590SOL    HW223670   5.975   1.026   0.974
 7591SOL     OW23671   2.951   3.819   4.607
 7591SOL    HW123672   2.894   3.740   4.584
 7591SOL    HW223673   2.999   3.851   4.525
 7592SOL     OW23674   0.381   6.509   3.956
 7592SOL    HW123675   0.383   6.593   3.902
 7592SOL    HW223676   0.463   6.505   4.014
 7593SOL     OW23677   6.825   1.043   6.273
 7593SOL    HW123678   6.884   1.085   6.205
 7593SOL    HW223679   6.858   1.067   6.365
 7594SOL     OW23680   6.702   3.563   5.717
 7594SOL    HW123681   6.768   3.611   5.659
 7594SOL    HW223682   6.630   3.525   5.660
 7595SOL     OW23683   0.186   3.402   6.640
 7595SOL    HW123684   0.258   3.396   6.570
 7595SOL    HW223685   0.168   3.498   6.660
 7596SOL     OW23686   2.585   1.672   0.664
 7596SOL    HW123687   2.648   1.723   0.606
 7596SOL    HW223688   2.595   1.574   0.646
 7597SOL     OW23689   2.326   4.472   0.980
 7597SOL    HW123690   2.246   4.525   0.949
 7597SOL    HW223691   2.407   4.504   0.931
 7598SOL     OW23692   5.660   0.920   1.943
 7598SOL    HW123693   5.643   1.018   1.960
 7598SOL    HW223694   5.749   0.909   1.899
 7599SOL     OW23695   3.212   3.368   0.539
 7599SOL    HW123696   3.156   3.408   0.612
 7599SOL    HW223697   3.294   3.424   0.526
 7600SOL     OW23698   0.837   6.908   3.897
 7600SOL    HW123699   0.925   6.953   3.911
 7600SOL    HW223700   0.832   6.825   3.954
 7601SOL     OW23701   3.232   6.785   1.358
 7601SOL    HW123702   3.156   6.751   1.414
 7601SOL    HW223703   3.209   6.774   1.261
 7602SOL     OW23704   0.892   1.872   0.883
 7602SOL    HW123705   0.817   1.923   0.840
 7602SOL    HW223706   0.958   1.844   0.813
 7603SOL     OW23707   4.614   1.073   6.191
 7603SOL    HW123708   4.626   1.166   6.224
 7603SOL    HW223709   4.618   1.072   6.091
 7604SOL     OW23710   2.154   2.460   5.129
 7604SOL    HW123711   2.249   2.488   5.112
 7604SOL    HW223712   2.092   2.534   5.105
 7605SOL     OW23713   3.021   5.982   6.907
 7605SOL    HW123714   3.089   5.998   6.836
 7605SOL    HW223715   3.065   5.984   6.996
 7606SOL     OW23716   6.800   0.605   3.251
 7606SOL    HW123717   6.770   0.699   3.230
 7606SOL    HW223718   6.796   0.591   3.350
 7607SOL     OW23719   2.065   5.737   5.244
 7607SOL    HW123720   1.966   5.732   5.256
 7607SOL    HW223721   2.108   5.657   5.286
 7608SOL     OW23722   7.014   1.965   6.463
 7608SOL    HW123723   0.097   1.981   6.452
 7608SOL    HW223724   6.996   1.867   6.473
 7609SOL     OW23725   3.756   0.788   4.718
 7609SOL    HW123726   3.775   0.774   4.815
 7609SOL    HW223727   3.718   0.879   4.704
 7610SOL     OW23728   4.112   5.059   4.560
 7610SOL    HW123729   4.018   5.085   4.542
 7610SOL    HW223730   4.127   4.965   4.528
 7611SOL     OW23731   4.307   2.361   0.056
 7611SOL    HW123732   4.367   2.434   0.024
 7611SOL    HW223733   4.233   2.400   0.109
 7612SOL     OW23734   4.132   2.265   2.925
 7612SOL    HW123735   4.146   2.274   3.024
 7612SOL    HW223736   4.040   2.294   2.901
 7613SOL     OW23737   0.703   0.632   6.899
 7613SOL    HW123738   0.743   0.683   6.823
 7613SOL    HW223739   0.759   0.551   6.918
 7614SOL     OW23740   5.584   4.428   0.599
 7614SOL    HW123741   5.609   4.382   0.684
 7614SOL    HW223742   5.490   4.461   0.605
 7615SOL     OW23743   6.028   3.316   5.833
 7615SOL    HW123744   6.072   3.252   5.770
 7615SOL    HW223745   6.082   3.322   5.917
 7616SOL     OW23746   6.949   6.552   2.162
 7616SOL    HW123747   7.007   6.486   2.209
 7616SOL    HW223748   6.862   6.509   2.138
 7617SOL     OW23749   6.395   3.751   3.021
 7617SOL    HW123750   6.325   3.719   3.086
 7617SOL    HW223751   6.355   3.757   2.930
 7618SOL     OW23752   2.690   2.523   0.142
 7618SOL    HW123753   2.729   2.436   0.169
 7618SOL    HW223754   2.591   2.522   0.155
 7619SOL     OW23755   1.156   1.038   4.590
 7619SOL    HW123756   1.082   0.973   4.576
 7619SOL    HW223757   1.230   0.995   4.641
 7620SOL     OW23758   3.410   3.551   0.526
 7620SOL    HW123759   3.431   3.561   0.623
 7620SOL    HW223760   3.484   3.499   0.481
 7621SOL     OW23761   5.957   4.872   6.860
 7621SOL    HW123762   5.860   4.847   6.858
 7621SOL    HW223763   6.012   4.792   6.837
 7622SOL     OW23764   3.468   3.554   1.616
 7622SOL    HW123765   3.496   3.630   1.558
 7622SOL    HW223766   3.394   3.583   1.677
 7623SOL     OW23767   5.293   4.684   1.998
 7623SOL    HW123768   5.220   4.738   1.955
 7623SOL    HW223769   5.283   4.588   1.973
 7624SOL     OW23770   0.543   3.469   2.433
 7624SOL    HW123771   0.621   3.416   2.401
 7624SOL    HW223772   0.519   3.538   2.364
 7625SOL     OW23773   5.347   0.040   1.492
 7625SOL    HW123774   5.251   0.065   1.480
 7625SOL    HW223775   5.396   0.051   1.406
 7626SOL     OW23776   4.545   0.221   7.015
 7626SOL    HW123777   4.562   0.164   0.081
 7626SOL    HW223778   4.610   0.297   7.013
 7627SOL     OW23779   4.386   2.437   6.042
 7627SOL    HW123780   4.455   2.495   6.086
 7627SOL    HW223781   4.432   2.369   5.984
 7628SOL     OW23782   2.902   2.967   0.636
 7628SOL    HW123783   2.985   3.015   0.664
 7628SOL    HW223784   2.926   2.876   0.602
 7629SOL     OW23785   5.927   2.687   3.510
 7629SOL    HW123786   5.843   2.712   3.558
 7629SOL    HW223787   5.918   2.595   3.474
 7630SOL     OW23788   1.167   6.253   3.950
 7630SOL    HW123789   1.192   6.266   4.046
 7630SOL    HW223790   1.068   6.263   3.940
 7631SOL     OW23791   1.302   1.031   5.895
 7631SOL    HW123792   1.283   0.943   5.854
 7631SOL    HW223793   1.399   1.054   5.884
 7632SOL     OW23794   4.236   5.796   1.147
 7632SOL    HW123795   4.201   5.766   1.059
 7632SOL    HW223796   4.178   5.760   1.220
 7633SOL     OW23797   5.339   1.144   1.390
 7633SOL    HW123798   5.300   1.117   1.302
 7633SOL    HW223799   5.430   1.183   1.376
 7634SOL     OW23800   0.213   1.707   6.844
 7634SOL    HW123801   0.205   1.619   6.891
 7634SOL    HW223802   0.264   1.695   6.759
 7635SOL     OW23803   1.176   3.256   5.811
 7635SOL    HW123804   1.243   3.311   5.763
 7635SOL    HW223805   1.197   3.159   5.797
 7636SOL     OW23806   6.865   3.933   3.508
 7636SOL    HW123807   6.868   3.834   3.524
 7636SOL    HW223808   6.797   3.974   3.568
 7637SOL     OW23809   0.637   4.205   5.088
 7637SOL    HW123810   0.596   4.139   5.025
 7637SOL    HW223811   0.669   4.158   5.170
 7638SOL     OW23812   0.552   6.136   1.049
 7638SOL    HW123813   0.464   6.101   1.081
 7638SOL    HW223814   0.627   6.085   1.093
 7639SOL     OW23815   2.111   6.637   0.363
 7639SOL    HW123816   2.025   6.624   0.412
 7639SOL    HW223817   2.167   6.704   0.411
 7640SOL     OW23818   3.310   0.601   0.681
 7640SOL    HW123819   3.247   0.676   0.702
 7640SOL    HW223820   3.285   0.520   0.734
 7641SOL     OW23821   6.764   5.068   4.961
 7641SOL    HW123822   6.847   5.122   4.948
 7641SOL    HW223823   6.686   5.129   4.975
 7642SOL     OW23824   5.653   1.080   3.533
 7642SOL    HW123825   5.592   1.141   3.482
 7642SOL    HW223826   5.688   1.127   3.613
 7643SOL     OW23827   5.597   3.112   5.069
 7643SOL    HW123828   5.666   3.101   4.997
 7643SOL    HW223829   5.642   3.110   5.158
 7644SOL     OW23830   5.258   4.389   0.872
 7644SOL    HW123831   5.337   4.386   0.934
 7644SOL    HW223832   5.286   4.428   0.785
 7645SOL     OW23833   4.659   5.067   0.160
 7645SOL    HW123834   4.721   5.134   0.118
 7645SOL    HW223835   4.703   4.978   0.161
 7646SOL     OW23836   6.856   2.175   1.218
 7646SOL    HW123837   6.879   2.119   1.298
 7646SOL    HW223838   6.904   2.262   1.224
 7647SOL     OW23839   6.871   1.797   4.149
 7647SOL    HW123840   6.956   1.745   4.150
 7647SOL    HW223841   6.880   1.875   4.087
 7648SOL     OW23842   1.594   2.263   1.284
 7648SOL    HW123843   1.599   2.326   1.361
 7648SOL    HW223844   1.620   2.312   1.200
 7649SOL     OW23845   4.153   0.575   0.096
 7649SOL    HW123846   4.088   0.651   0.105
 7649SOL    HW223847   4.102   0.489   0.089
 7650SOL     OW23848   3.596   2.667   0.076
 7650SOL    HW123849   3.587   2.603   7.014
 7650SOL    HW223850   3.507   2.679   0.119
 7651SOL     OW23851   3.638   5.693   6.532
 7651SOL    HW123852   3.630   5.792   6.535
 7651SOL    HW223853   3.586   5.658   6.454
 7652SOL     OW23854   0.480   0.738   5.231
 7652SOL    HW123855   0.476   0.771   5.137
 7652SOL    HW223856   0.406   0.672   5.247
 7653SOL     OW23857   1.740   6.690   0.021
 7653SOL    HW123858   1.779   6.638   0.096
 7653SOL    HW223859   1.756   6.642   6.950
 7654SOL     OW23860   0.268   2.240   5.513
 7654SOL    HW123861   0.218   2.226   5.427
 7654SOL    HW223862   0.204   2.270   5.584
 7655SOL     OW23863   3.488   1.849   5.113
 7655SOL    HW123864   3.514   1.798   5.031
 7655SOL    HW223865   3.516   1.945   5.104
 7656SOL     OW23866   5.741   4.084   6.693
 7656SOL    HW123867   5.834   4.116   6.673
 7656SOL    HW223868   5.739   4.042   6.783
 7657SOL     OW23869   0.962   3.893   4.843
 7657SOL    HW123870   0.926   3.922   4.931
 7657SOL    HW223871   0.991   3.973   4.790
 7658SOL     OW23872   2.717   0.699   1.730
 7658SOL    HW123873   2.768   0.777   1.767
 7658SOL    HW223874   2.629   0.730   1.693
 7659SOL     OW23875   5.075   5.098   5.891
 7659SOL    HW123876   5.114   5.096   5.983
 7659SOL    HW223877   5.068   5.005   5.856
 7660SOL     OW23878   6.600   6.585   5.744
 7660SOL    HW123879   6.540   6.654   5.704
 7660SOL    HW223880   6.642   6.531   5.671
 7661SOL     OW23881   2.953   1.118   5.379
 7661SOL    HW123882   2.998   1.029   5.388
 7661SOL    HW223883   3.010   1.188   5.421
 7662SOL     OW23884   0.158   5.837   1.245
 7662SOL    HW123885   0.094   5.910   1.268
 7662SOL    HW223886   0.108   5.757   1.213
 7663SOL     OW23887   1.110   5.928   4.469
 7663SOL    HW123888   1.093   5.895   4.376
 7663SOL    HW223889   1.191   5.882   4.506
 7664SOL     OW23890   5.271   2.379   2.368
 7664SOL    HW123891   5.206   2.303   2.378
 7664SOL    HW223892   5.293   2.418   2.457
 7665SOL     OW23893   3.002   0.789   5.539
 7665SOL    HW123894   3.021   0.749   5.449
 7665SOL    HW223895   2.995   0.715   5.607
 7666SOL     OW23896   5.457   5.284   4.100
 7666SOL    HW123897   5.435   5.188   4.115
 7666SOL    HW223898   5.556   5.296   4.098
 7667SOL     OW23899   4.210   5.787   1.932
 7667SOL    HW123900   4.110   5.791   1.923
 7667SOL    HW223901   4.250   5.873   1.902
 7668SOL     OW23902   1.644   5.835   0.013
 7668SOL    HW123903   1.611   5.925   7.002
 7668SOL    HW223904   1.687   5.791   6.949
 7669SOL     OW23905   2.578   1.809   0.056
 7669SOL    HW123906   2.543   1.717   0.075
 7669SOL    HW223907   2.531   1.875   0.114
 7670SOL     OW23908   1.077   0.798   0.859
 7670SOL    HW123909   1.010   0.854   0.908
 7670SOL    HW223910   1.166   0.805   0.905
 7671SOL     OW23911   3.071   6.970   1.555
 7671SOL    HW123912   3.034   0.020   1.489
 7671SOL    HW223913   3.165   6.996   1.578
 7672SOL     OW23914   5.614   3.770   2.246
 7672SOL    HW123915   5.629   3.760   2.344
 7672SOL    HW223916   5.551   3.846   2.229
 7673SOL     OW23917   2.107   6.774   4.862
 7673SOL    HW123918   2.084   6.749   4.768
 7673SOL    HW223919   2.100   6.693   4.920
 7674SOL     OW23920   3.813   5.665   3.887
 7674SOL    HW123921   3.813   5.684   3.985
 7674SOL    HW223922   3.818   5.566   3.872
 7675SOL     OW23923   4.333   6.337   3.018
 7675SOL    HW123924   4.413   6.292   3.056
 7675SOL    HW223925   4.285   6.387   3.091
 7676SOL     OW23926   3.200   3.305   4.985
 7676SOL    HW123927   3.108   3.292   4.948
 7676SOL    HW223928   3.232   3.220   5.026
 7677SOL     OW23929   7.008   5.657   6.944
 7677SOL    HW123930   0.032   5.713   6.870
 7677SOL    HW223931   6.963   5.717   7.011
 7678SOL     OW23932   4.033   1.276   6.261
 7678SOL    HW123933   4.027   1.374   6.245
 7678SOL    HW223934   4.074   1.231   6.182
 7679SOL     OW23935   2.854   4.926   4.092
 7679SOL    HW123936   2.844   4.870   4.175
 7679SOL    HW223937   2.786   4.999   4.092
 7680SOL     OW23938   2.051   6.769   4.324
 7680SOL    HW123939   2.115   6.707   4.277
 7680SOL    HW223940   1.958   6.754   4.289
 7681SOL     OW23941   2.087   2.149   5.512
 7681SOL    HW123942   2.025   2.078   5.545
 7681SOL    HW223943   2.035   2.233   5.495
 7682SOL     OW23944   3.307   0.639   2.227
 7682SOL    HW123945   3.305   0.579   2.146
 7682SOL    HW223946   3.384   0.702   2.219
 7683SOL     OW23947   0.428   4.677   4.471
 7683SOL    HW123948   0.427   4.602   4.404
 7683SOL    HW223949   0.375   4.754   4.436
 7684SOL     OW23950   4.803   3.322   1.782
 7684SOL    HW123951   4.827   3.277   1.869
 7684SOL    HW223952   4.762   3.255   1.720
 7685SOL     OW23953   2.538   0.318   0.315
 7685SOL    HW123954   2.472   0.247   0.289
 7685SOL    HW223955   2.628   0.294   0.281
 7686SOL     OW23956   6.927   0.556   4.118
 7686SOL    HW123957   6.964   0.646   4.091
 7686SOL    HW223958   6.892   0.562   4.211
 7687SOL     OW23959   5.125   3.451   6.160
 7687SOL    HW123960   5.094   3.365   6.120
 7687SOL    HW223961   5.218   3.471   6.127
 7688SOL     OW23962   6.167   3.034   0.028
 7688SOL    HW123963   6.092   3.044   6.978
 7688SOL    HW223964   6.141   2.970   0.100
 7689SOL     OW23965   5.676   0.363   2.660
 7689SOL    HW123966   5.701   0.394   2.752
 7689SOL    HW223967   5.724   0.418   2.592
 7690SOL     OW23968   5.309   4.712   2.270
 7690SOL    HW123969   5.404   4.695   2.299
 7690SOL    HW223970   5.304   4.713   2.170
 7691SOL     OW23971   5.346   2.642   3.920
 7691SOL    HW123972   5.259   2.633   3.970
 7691SOL    HW223973   5.332   2.618   3.824
 7692SOL     OW23974   2.380   6.812   2.082
 7692SOL    HW123975   2.399   6.875   2.157
 7692SOL    HW223976   2.293   6.837   2.039
 7693SOL     OW23977   2.923   1.634   1.718
 7693SOL    HW123978   2.944   1.616   1.622
 7693SOL    HW223979   3.009   1.640   1.770
 7694SOL     OW23980   3.684   2.612   0.515
 7694SOL    HW123981   3.605   2.646   0.566
 7694SOL    HW223982   3.742   2.688   0.487
 7695SOL     OW23983   5.337   6.680   3.619
 7695SOL    HW123984   5.318   6.582   3.632
 7695SOL    HW223985   5.391   6.713   3.696
 7696SOL     OW23986   2.900   2.133   5.571
 7696SOL    HW123987   2.928   2.163   5.662
 7696SOL    HW223988   2.844   2.203   5.528
 7697SOL     OW23989   5.864   6.398   2.796
 7697SOL    HW123990   5.887   6.379   2.701
 7697SOL    HW223991   5.948   6.413   2.848
 7698SOL     OW23992   6.349   2.542   1.053
 7698SOL    HW123993   6.328   2.599   1.133
 7698SOL    HW223994   6.446   2.517   1.054
 7699SOL     OW23995   3.824   6.717   5.779
 7699SOL    HW123996   3.897   6.755   5.836
 7699SOL    HW223997   3.825   6.617   5.786
 7700SOL     OW23998   6.272   5.482   1.766
 7700SOL    HW123999   6.315   5.466   1.676
 7700SOL    HW224000   6.274   5.398   1.819
 7701SOL     OW24001   2.475   1.741   6.604
 7701SOL    HW124002   2.514   1.684   6.676
 7701SOL    HW224003   2.549   1.776   6.546
 7702SOL     OW24004   5.857   6.718   5.676
 7702SOL    HW124005   5.892   6.762   5.593
 7702SOL    HW224006   5.811   6.633   5.651
 7703SOL     OW24007   6.896   6.264   5.905
 7703SOL    HW124008   6.943   6.195   5.960
 7703SOL    HW224009   6.951   6.284   5.823
 7704SOL     OW24010   1.622   1.781   4.948
 7704SOL    HW124011   1.576   1.853   4.896
 7704SOL    HW224012   1.689   1.822   5.010
 7705SOL     OW24013   0.607   4.543   0.297
 7705SOL    HW124014   0.597   4.532   0.396
 7705SOL    HW224015   0.619   4.639   0.275
 7706SOL     OW24016   3.601   3.581   2.527
 7706SOL    HW124017   3.577   3.528   2.446
 7706SOL    HW224018   3.553   3.544   2.606
 7707SOL     OW24019   0.227   4.452   6.184
 7707SOL    HW124020   0.210   4.539   6.230
 7707SOL    HW224021   0.211   4.377   6.248
 7708SOL     OW24022   0.874   6.954   4.404
 7708SOL    HW124023   0.942   6.888   4.372
 7708SOL    HW224024   0.914   0.030   4.405
 7709SOL     OW24025   6.397   4.516   0.838
 7709SOL    HW124026   6.400   4.587   0.910
 7709SOL    HW224027   6.458   4.542   0.763
 7710SOL     OW24028   6.340   2.838   2.202
 7710SOL    HW124029   6.411   2.885   2.151
 7710SOL    HW224030   6.305   2.761   2.149
 7711SOL     OW24031   0.941   4.139   3.792
 7711SOL    HW124032   0.939   4.098   3.701
 7711SOL    HW224033   0.896   4.079   3.858
 7712SOL     OW24034   0.847   4.448   4.507
 7712SOL    HW124035   0.793   4.530   4.490
 7712SOL    HW224036   0.839   4.385   4.430
 7713SOL     OW24037   0.652   5.245   0.705
 7713SOL    HW124038   0.593   5.209   0.777
 7713SOL    HW224039   0.633   5.342   0.692
 7714SOL     OW24040   6.075   1.709   5.046
 7714SOL    HW124041   6.049   1.803   5.022
 7714SOL    HW224042   6.174   1.703   5.052
 7715SOL     OW24043   3.643   3.372   6.688
 7715SOL    HW124044   3.594   3.456   6.711
 7715SOL    HW224045   3.584   3.293   6.705
 7716SOL     OW24046   1.077   0.750   6.116
 7716SOL    HW124047   1.001   0.787   6.170
 7716SOL    HW224048   1.111   0.667   6.160
 7717SOL     OW24049   0.937   1.735   6.127
 7717SOL    HW124050   1.017   1.700   6.078
 7717SOL    HW224051   0.869   1.766   6.060
 7718SOL     OW24052   0.712   3.350   2.899
 7718SOL    HW124053   0.674   3.291   2.971
 7718SOL    HW224054   0.771   3.296   2.840
 7719SOL     OW24055   1.991   5.898   4.680
 7719SOL    HW124056   2.091   5.904   4.690
 7719SOL    HW224057   1.955   5.831   4.744
 7720SOL     OW24058   4.523   1.660   6.928
 7720SOL    HW124059   4.488   1.591   6.991
 7720SOL    HW224060   4.536   1.747   6.976
 7721SOL     OW24061   6.036   5.950   2.058
 7721SOL    HW124062   6.101   6.018   2.091
 7721SOL    HW224063   5.975   5.992   1.991
 7722SOL     OW24064   0.639   5.715   4.348
 7722SOL    HW124065   0.562   5.730   4.286
 7722SOL    HW224066   0.629   5.775   4.428
 7723SOL     OW24067   3.897   4.503   6.678
 7723SOL    HW124068   3.941   4.571   6.737
 7723SOL    HW224069   3.966   4.447   6.634
 7724SOL     OW24070   1.309   3.937   0.282
 7724SOL    HW124071   1.266   3.847   0.272
 7724SOL    HW224072   1.264   4.003   0.222
 7725SOL     OW24073   5.635   3.639   4.534
 7725SOL    HW124074   5.695   3.707   4.577
 7725SOL    HW224075   5.683   3.552   4.528
 7726SOL     OW24076   2.015   3.284   0.138
 7726SOL    HW124077   2.075   3.268   0.217
 7726SOL    HW224078   1.920   3.268   0.164
 7727SOL     OW24079   5.509   0.699   2.770
 7727SOL    HW124080   5.422   0.747   2.772
 7727SOL    HW224081   5.584   0.764   2.785
 7728SOL     OW24082   2.061   3.372   4.957
 7728SOL    HW124083   2.071   3.346   4.861
 7728SOL    HW224084   2.135   3.332   5.011
 7729SOL     OW24085   6.954   1.038   2.890
 7729SOL    HW124086   6.910   0.963   2.938
 7729SOL    HW224087   0.035   1.015   2.874
 7730SOL     OW24088   5.608   4.624   5.779
 7730SOL    HW124089   5.665   4.571   5.716
 7730SOL    HW224090   5.548   4.684   5.726
 7731SOL     OW24091   0.069   0.527   5.999
 7731SOL    HW124092   0.005   0.520   6.076
 7731SOL    HW224093   0.102   0.436   5.975
 7732SOL     OW24094   4.529   0.849   0.365
 7732SOL    HW124095   4.606   0.786   0.373
 7732SOL    HW224096   4.454   0.804   0.315
 7733SOL     OW24097   6.841   5.580   0.976
 7733SOL    HW124098   6.757   5.535   1.006
 7733SOL    HW224099   6.820   5.641   0.899
 7734SOL     OW24100   4.075   3.725   3.200
 7734SOL    HW124101   4.114   3.662   3.132
 7734SOL    HW224102   4.089   3.687   3.292
 7735SOL     OW24103   1.334   5.789   0.658
 7735SOL    HW124104   1.293   5.864   0.711
 7735SOL    HW224105   1.433   5.788   0.673
 7736SOL     OW24106   1.648   1.896   0.834
 7736SOL    HW124107   1.677   1.811   0.878
 7736SOL    HW224108   1.665   1.890   0.735
 7737SOL     OW24109   4.425   4.406   6.714
 7737SOL    HW124110   4.397   4.448   6.800
 7737SOL    HW224111   4.504   4.347   6.730
 7738SOL     OW24112   1.522   1.316   5.546
 7738SOL    HW124113   1.448   1.282   5.487
 7738SOL    HW224114   1.588   1.243   5.563
 7739SOL     OW24115   1.495   2.699   0.678
 7739SOL    HW124116   1.526   2.616   0.724
 7739SOL    HW224117   1.570   2.736   0.623
 7740SOL     OW24118   2.476   0.978   4.261
 7740SOL    HW124119   2.553   0.959   4.321
 7740SOL    HW224120   2.401   1.018   4.314
 7741SOL     OW24121   6.926   4.078   5.871
 7741SOL    HW124122   7.013   4.067   5.921
 7741SOL    HW224123   6.850   4.069   5.935
 7742SOL     OW24124   4.072   2.193   3.785
 7742SOL    HW124125   4.120   2.106   3.774
 7742SOL    HW224126   4.136   2.269   3.772
 7743SOL     OW24127   3.506   1.274   6.454
 7743SOL    HW124128   3.412   1.306   6.447
 7743SOL    HW224129   3.563   1.348   6.490
 7744SOL     OW24130   0.691   6.592   4.881
 7744SOL    HW124131   0.609   6.550   4.919
 7744SOL    HW224132   0.713   6.549   4.794
 7745SOL     OW24133   2.969   7.010   0.645
 7745SOL    HW124134   2.967   6.957   0.560
 7745SOL    HW224135   2.981   6.948   0.723
 7746SOL     OW24136   0.344   6.323   1.244
 7746SOL    HW124137   0.353   6.379   1.162
 7746SOL    HW224138   0.424   6.264   1.253
 7747SOL     OW24139   0.481   5.520   1.440
 7747SOL    HW124140   0.391   5.557   1.417
 7747SOL    HW224141   0.502   5.543   1.536
 7748SOL     OW24142   4.449   0.868   5.963
 7748SOL    HW124143   4.539   0.824   5.968
 7748SOL    HW224144   4.460   0.967   5.962
 7749SOL     OW24145   3.192   3.471   2.756
 7749SOL    HW124146   3.097   3.494   2.780
 7749SOL    HW224147   3.240   3.439   2.838
 7750SOL     OW24148   5.103   5.112   6.163
 7750SOL    HW124149   5.130   5.054   6.240
 7750SOL    HW224150   5.149   5.201   6.171
 7751SOL     OW24151   0.083   1.166   4.883
 7751SOL    HW124152   0.167   1.193   4.835
 7751SOL    HW224153   0.055   1.075   4.853
 7752SOL     OW24154   6.478   4.478   5.150
 7752SOL    HW124155   6.543   4.533   5.097
 7752SOL    HW224156   6.476   4.512   5.244
 7753SOL     OW24157   3.031   0.886   4.780
 7753SOL    HW124158   3.088   0.957   4.739
 7753SOL    HW224159   3.025   0.808   4.717
 7754SOL     OW24160   5.944   0.706   1.236
 7754SOL    HW124161   5.974   0.653   1.316
 7754SOL    HW224162   6.018   0.710   1.169
 7755SOL     OW24163   1.772   6.097   5.366
 7755SOL    HW124164   1.692   6.144   5.328
 7755SOL    HW224165   1.852   6.116   5.309
 7756SOL     OW24166   4.121   5.767   2.906
 7756SOL    HW124167   4.191   5.823   2.862
 7756SOL    HW224168   4.162   5.683   2.941
 7757SOL     OW24169   3.255   0.391   5.949
 7757SOL    HW124170   3.228   0.483   5.978
 7757SOL    HW224171   3.349   0.393   5.916
 7758SOL     OW24172   2.475   2.499   6.321
 7758SOL    HW124173   2.513   2.467   6.234
 7758SOL    HW224174   2.539   2.561   6.365
 7759SOL     OW24175   1.828   0.739   4.601
 7759SOL    HW124176   1.882   0.657   4.581
 7759SOL    HW224177   1.836   0.803   4.524
 7760SOL     OW24178   5.183   2.104   3.177
 7760SOL    HW124179   5.175   2.202   3.162
 7760SOL    HW224180   5.155   2.055   3.094
 7761SOL     OW24181   4.641   0.996   6.970
 7761SOL    HW124182   4.585   0.929   0.002
 7761SOL    HW224183   4.613   1.002   6.874
 7762SOL     OW24184   1.369   2.391   0.407
 7762SOL    HW124185   1.368   2.491   0.412
 7762SOL    HW224186   1.333   2.361   0.318
 7763SOL     OW24187   2.254   2.440   1.356
 7763SOL    HW124188   2.254   2.385   1.439
 7763SOL    HW224189   2.160   2.457   1.326
 7764SOL     OW24190   3.332   3.446   2.033
 7764SOL    HW124191   3.314   3.413   2.126
 7764SOL    HW224192   3.259   3.414   1.972
 7765SOL     OW24193   6.796   1.610   2.056
 7765SOL    HW124194   6.707   1.573   2.084
 7765SOL    HW224195   6.823   1.682   2.120
 7766SOL     OW24196   6.814   2.715   6.746
 7766SOL    HW124197   6.741   2.668   6.795
 7766SOL    HW224198   6.821   2.677   6.654
 7767SOL     OW24199   5.685   3.987   5.088
 7767SOL    HW124200   5.671   4.084   5.072
 7767SOL    HW224201   5.637   3.934   5.018
 7768SOL     OW24202   3.689   5.418   1.336
 7768SOL    HW124203   3.683   5.482   1.260
 7768SOL    HW224204   3.622   5.443   1.406
 7769SOL     OW24205   5.692   2.382   2.798
 7769SOL    HW124206   5.785   2.416   2.786
 7769SOL    HW224207   5.667   2.325   2.719
 7770SOL     OW24208   3.423   6.163   1.395
 7770SOL    HW124209   3.357   6.180   1.468
 7770SOL    HW224210   3.516   6.177   1.429
 7771SOL     OW24211   1.628   1.087   4.238
 7771SOL    HW124212   1.631   1.184   4.215
 7771SOL    HW224213   1.552   1.043   4.189
 7772SOL     OW24214   5.845   0.701   5.293
 7772SOL    HW124215   5.755   0.664   5.316
 7772SOL    HW224216   5.838   0.757   5.210
 7773SOL     OW24217   3.849   4.513   6.219
 7773SOL    HW124218   3.906   4.582   6.265
 7773SOL    HW224219   3.777   4.559   6.167
 7774SOL     OW24220   5.285   2.151   6.528
 7774SOL    HW124221   5.224   2.121   6.455
 7774SOL    HW224222   5.315   2.072   6.581
 7775SOL     OW24223   1.468   6.887   2.154
 7775SOL    HW124224   1.402   6.848   2.218
 7775SOL    HW224225   1.424   6.956   2.097
 7776SOL     OW24226   3.434   4.012   0.986
 7776SOL    HW124227   3.462   4.003   0.890
 7776SOL    HW224228   3.464   4.100   1.022
 7777SOL     OW24229   1.239   0.183   6.140
 7777SOL    HW124230   1.237   0.107   6.205
 7777SOL    HW224231   1.147   0.220   6.130
 7778SOL     OW24232   4.792   1.716   1.615
 7778SOL    HW124233   4.721   1.719   1.686
 7778SOL    HW224234   4.779   1.792   1.552
 7779SOL     OW24235   4.115   2.926   0.418
 7779SOL    HW124236   4.094   2.896   0.325
 7779SOL    HW224237   4.184   2.998   0.415
 7780SOL     OW24238   1.152   0.205   4.820
 7780SOL    HW124239   1.243   0.244   4.833
 7780SOL    HW224240   1.153   0.108   4.846
 7781SOL     OW24241   1.959   4.342   5.355
 7781SOL    HW124242   1.870   4.358   5.313
 7781SOL    HW224243   2.027   4.403   5.314
 7782SOL     OW24244   4.444   4.383   0.139
 7782SOL    HW124245   4.498   4.434   0.206
 7782SOL    HW224246   4.447   4.286   0.161
 7783SOL     OW24247   2.598   6.202   6.848
 7783SOL    HW124248   2.662   6.278   6.840
 7783SOL    HW224249   2.629   6.141   6.921
 7784SOL     OW24250   6.469   3.610   0.357
 7784SOL    HW124251   6.520   3.562   0.429
 7784SOL    HW224252   6.396   3.551   0.323
 7785SOL     OW24253   1.578   5.468   6.377
 7785SOL    HW124254   1.526   5.530   6.436
 7785SOL    HW224255   1.663   5.443   6.422
 7786SOL     OW24256   3.405   4.242   5.192
 7786SOL    HW124257   3.475   4.256   5.122
 7786SOL    HW224258   3.382   4.144   5.197
 7787SOL     OW24259   3.071   2.415   5.415
 7787SOL    HW124260   3.100   2.411   5.319
 7787SOL    HW224261   3.091   2.329   5.460
 7788SOL     OW24262   0.087   2.025   0.863
 7788SOL    HW124263   0.158   1.958   0.884
 7788SOL    HW224264   0.000   1.997   0.905
 7789SOL     OW24265   1.900   0.155   1.855
 7789SOL    HW124266   1.904   0.087   1.928
 7789SOL    HW224267   1.838   0.229   1.882
 7790SOL     OW24268   6.691   3.406   2.654
 7790SOL    HW124269   6.711   3.375   2.562
 7790SOL    HW224270   6.715   3.503   2.663
 7791SOL     OW24271   6.973   5.076   5.763
 7791SOL    HW124272   6.894   5.066   5.703
 7791SOL    HW224273   6.961   5.019   5.844
 7792SOL     OW24274   2.038   5.508   6.458
 7792SOL    HW124275   1.968   5.456   6.508
 7792SOL    HW224276   2.098   5.444   6.410
 7793SOL     OW24277   2.020   0.790   6.262
 7793SOL    HW124278   2.077   0.867   6.289
 7793SOL    HW224279   1.940   0.786   6.321
 7794SOL     OW24280   5.563   5.511   2.868
 7794SOL    HW124281   5.465   5.492   2.860
 7794SOL    HW224282   5.600   5.464   2.948
 7795SOL     OW24283   1.231   4.119   6.654
 7795SOL    HW124284   1.290   4.140   6.576
 7795SOL    HW224285   1.184   4.202   6.684
 7796SOL     OW24286   3.949   4.001   4.875
 7796SOL    HW124287   3.961   4.047   4.963
 7796SOL    HW224288   3.989   3.910   4.878
 7797SOL     OW24289   0.959   0.041   3.179
 7797SOL    HW124290   0.879   0.089   3.217
 7797SOL    HW224291   1.042   0.083   3.214
 7798SOL     OW24292   4.066   6.154   6.156
 7798SOL    HW124293   4.088   6.134   6.061
 7798SOL    HW224294   4.093   6.078   6.214
 7799SOL     OW24295   6.133   6.161   1.483
 7799SOL    HW124296   6.081   6.120   1.558
 7799SOL    HW224297   6.171   6.089   1.425
 7800SOL     OW24298   0.930   6.076   1.990
 7800SOL    HW124299   0.958   6.171   1.978
 7800SOL    HW224300   0.832   6.068   1.971
 7801SOL     OW24301   4.192   2.119   5.308
 7801SOL    HW124302   4.205   2.037   5.363
 7801SOL    HW224303   4.205   2.097   5.211
 7802SOL     OW24304   5.463   2.341   0.530
 7802SOL    HW124305   5.440   2.310   0.438
 7802SOL    HW224306   5.391   2.314   0.594
 7803SOL     OW24307   3.368   3.474   5.721
 7803SOL    HW124308   3.416   3.453   5.636
 7803SOL    HW224309   3.286   3.527   5.701
 7804SOL     OW24310   5.490   0.954   6.331
 7804SOL    HW124311   5.438   1.003   6.401
 7804SOL    HW224312   5.588   0.966   6.348
 7805SOL     OW24313   5.001   2.798   1.562
 7805SOL    HW124314   4.954   2.873   1.516
 7805SOL    HW224315   4.946   2.766   1.639
 7806SOL     OW24316   4.955   3.387   0.126
 7806SOL    HW124317   4.908   3.427   0.205
 7806SOL    HW224318   4.890   3.380   0.050
 7807SOL     OW24319   0.760   3.508   0.188
 7807SOL    HW124320   0.775   3.420   0.143
 7807SOL    HW224321   0.816   3.512   0.271
 7808SOL     OW24322   0.632   0.739   5.469
 7808SOL    HW124323   0.710   0.677   5.459
 7808SOL    HW224324   0.590   0.754   5.380
 7809SOL     OW24325   1.352   5.590   5.610
 7809SOL    HW124326   1.381   5.515   5.551
 7809SOL    HW224327   1.404   5.586   5.696
 7810SOL     OW24328   2.650   1.372   0.001
 7810SOL    HW124329   2.688   1.342   0.089
 7810SOL    HW224330   2.552   1.355   7.014
 7811SOL     OW24331   6.909   4.822   5.047
 7811SOL    HW124332   6.862   4.890   4.990
 7811SOL    HW224333   7.007   4.826   5.030
 7812SOL     OW24334   0.445   1.957   3.475
 7812SOL    HW124335   0.440   1.920   3.382
 7812SOL    HW224336   0.352   1.970   3.510
 7813SOL     OW24337   6.192   2.519   0.819
 7813SOL    HW124338   6.264   2.488   0.757
 7813SOL    HW224339   6.230   2.534   0.910
 7814SOL     OW24340   1.922   2.925   4.914
 7814SOL    HW124341   1.992   2.974   4.862
 7814SOL    HW224342   1.906   2.835   4.872
 7815SOL     OW24343   6.996   1.942   5.185
 7815SOL    HW124344   0.020   2.010   5.124
 7815SOL    HW224345   0.017   1.852   5.161
 7816SOL     OW24346   0.552   4.793   4.950
 7816SOL    HW124347   0.541   4.891   4.934
 7816SOL    HW224348   0.609   4.779   5.031
 7817SOL     OW24349   5.367   3.498   6.050
 7817SOL    HW124350   5.455   3.458   6.076
 7817SOL    HW224351   5.373   3.535   5.958
 7818SOL     OW24352   5.187   3.979   3.317
 7818SOL    HW124353   5.141   4.067   3.331
 7818SOL    HW224354   5.163   3.944   3.226
 7819SOL     OW24355   0.988   1.509   0.952
 7819SOL    HW124356   1.046   1.466   1.021
 7819SOL    HW224357   0.910   1.449   0.931
 7820SOL     OW24358   2.851   0.336   6.241
 7820SOL    HW124359   2.931   0.357   6.296
 7820SOL    HW224360   2.788   0.414   6.242
 7821SOL     OW24361   2.959   5.242   0.806
 7821SOL    HW124362   2.869   5.213   0.837
 7821SOL    HW224363   2.953   5.281   0.714
 7822SOL     OW24364   1.952   6.471   5.960
 7822SOL    HW124365   1.903   6.396   6.004
 7822SOL    HW224366   2.017   6.434   5.893
 7823SOL     OW24367   1.872   3.718   5.234
 7823SOL    HW124368   1.927   3.677   5.307
 7823SOL    HW224369   1.896   3.677   5.146
 7824SOL     OW24370   0.619   3.224   5.248
 7824SOL    HW124371   0.656   3.134   5.273
 7824SOL    HW224372   0.658   3.253   5.161
 7825SOL     OW24373   2.936   0.664   0.187
 7825SOL    HW124374   2.902   0.594   0.124
 7825SOL    HW224375   2.975   0.621   0.268
 7826SOL     OW24376   0.711   3.721   5.670
 7826SOL    HW124377   0.698   3.697   5.766
 7826SOL    HW224378   0.635   3.684   5.616
 7827SOL     OW24379   6.155   5.050   4.439
 7827SOL    HW124380   6.152   5.150   4.428
 7827SOL    HW224381   6.174   5.008   4.351
 7828SOL     OW24382   1.175   4.904   6.426
 7828SOL    HW124383   1.137   4.814   6.406
 7828SOL    HW224384   1.100   4.970   6.437
 7829SOL     OW24385   4.273   4.761   0.765
 7829SOL    HW124386   4.338   4.835   0.781
 7829SOL    HW224387   4.262   4.707   0.848
 7830SOL     OW24388   2.110   5.290   3.614
 7830SOL    HW124389   2.047   5.361   3.646
 7830SOL    HW224390   2.183   5.278   3.681
 7831SOL     OW24391   1.859   0.440   5.936
 7831SOL    HW124392   1.848   0.481   6.026
 7831SOL    HW224393   1.825   0.346   5.937
 7832SOL     OW24394   6.450   1.542   5.506
 7832SOL    HW124395   6.385   1.584   5.442
 7832SOL    HW224396   6.402   1.476   5.564
 7833SOL     OW24397   0.669   0.335   2.660
 7833SOL    HW124398   0.732   0.275   2.611
 7833SOL    HW224399   0.672   0.427   2.621
 7834SOL     OW24400   6.843   3.531   4.737
 7834SOL    HW124401   6.821   3.530   4.639
 7834SOL    HW224402   6.872   3.623   4.764
 7835SOL     OW24403   3.802   2.102   5.642
 7835SOL    HW124404   3.717   2.144   5.611
 7835SOL    HW224405   3.850   2.165   5.704
 7836SOL     OW24406   2.947   3.832   4.891
 7836SOL    HW124407   2.991   3.919   4.912
 7836SOL    HW224408   2.948   3.817   4.792
 7837SOL     OW24409   1.179   5.428   6.423
 7837SOL    HW124410   1.102   5.455   6.480
 7837SOL    HW224411   1.264   5.458   6.466
 7838SOL     OW24412   3.985   5.059   1.840
 7838SOL    HW124413   4.071   5.010   1.822
 7838SOL    HW224414   3.915   5.027   1.776
 7839SOL     OW24415   6.257   4.445   4.367
 7839SOL    HW124416   6.230   4.361   4.413
 7839SOL    HW224417   6.249   4.433   4.268
 7840SOL     OW24418   2.052   2.758   3.700
 7840SOL    HW124419   2.069   2.791   3.793
 7840SOL    HW224420   2.137   2.728   3.659
 7841SOL     OW24421   4.173   1.895   5.951
 7841SOL    HW124422   4.092   1.952   5.961
 7841SOL    HW224423   4.210   1.874   6.041
 7842SOL     OW24424   1.249   0.708   1.152
 7842SOL    HW124425   1.286   0.743   1.065
 7842SOL    HW224426   1.150   0.696   1.143
 7843SOL     OW24427   0.002   6.748   1.986
 7843SOL    HW124428   6.990   6.667   2.038
 7843SOL    HW224429   6.951   6.765   1.914
 7844SOL     OW24430   4.179   0.082   2.336
 7844SOL    HW124431   4.211   0.030   2.415
 7844SOL    HW224432   4.165   0.020   2.259
 7845SOL     OW24433   6.163   2.882   1.572
 7845SOL    HW124434   6.098   2.836   1.511
 7845SOL    HW224435   6.252   2.888   1.528
 7846SOL     OW24436   0.970   1.271   0.600
 7846SOL    HW124437   1.053   1.323   0.579
 7846SOL    HW224438   0.995   1.188   0.650
 7847SOL     OW24439   5.465   4.520   5.983
 7847SOL    HW124440   5.461   4.420   5.976
 7847SOL    HW224441   5.504   4.558   5.898
 7848SOL     OW24442   4.046   4.651   0.329
 7848SOL    HW124443   4.003   4.563   0.350
 7848SOL    HW224444   4.136   4.654   0.372
 7849SOL     OW24445   4.247   5.383   6.758
 7849SOL    HW124446   4.327   5.324   6.744
 7849SOL    HW224447   4.167   5.327   6.780
 7850SOL     OW24448   0.616   0.579   3.310
 7850SOL    HW124449   0.596   0.503   3.248
 7850SOL    HW224450   0.547   0.650   3.298
 7851SOL     OW24451   0.521   5.211   0.940
 7851SOL    HW124452   0.467   5.137   0.979
 7851SOL    HW224453   0.555   5.270   1.013
 7852SOL     OW24454   1.009   3.168   6.053
 7852SOL    HW124455   0.984   3.082   6.009
 7852SOL    HW224456   1.091   3.205   6.011
 7853SOL     OW24457   3.973   3.002   1.740
 7853SOL    HW124458   4.021   2.935   1.683
 7853SOL    HW224459   4.001   3.094   1.714
 7854SOL     OW24460   4.460   1.391   1.379
 7854SOL    HW124461   4.399   1.336   1.435
 7854SOL    HW224462   4.555   1.375   1.408
 7855SOL     OW24463   5.289   6.325   3.989
 7855SOL    HW124464   5.200   6.284   3.972
 7855SOL    HW224465   5.296   6.351   4.085
 7856SOL     OW24466   2.060   6.173   5.980
 7856SOL    HW124467   2.147   6.172   6.030
 7856SOL    HW224468   2.073   6.219   5.892
 7857SOL     OW24469   6.761   4.970   0.615
 7857SOL    HW124470   6.673   4.971   0.569
 7857SOL    HW224471   6.793   5.064   0.630
 7858SOL     OW24472   0.485   3.948   5.813
 7858SOL    HW124473   0.486   4.045   5.790
 7858SOL    HW224474   0.488   3.937   5.912
 7859SOL     OW24475   4.948   1.965   0.852
 7859SOL    HW124476   4.878   2.006   0.911
 7859SOL    HW224477   4.903   1.926   0.771
 7860SOL     OW24478   2.092   1.562   3.654
 7860SOL    HW124479   2.121   1.641   3.707
 7860SOL    HW224480   2.119   1.573   3.559
 7861SOL     OW24481   1.769   5.758   0.899
 7861SOL    HW124482   1.833   5.682   0.912
 7861SOL    HW224483   1.743   5.796   0.987
 7862SOL     OW24484   1.540   6.833   0.142
 7862SOL    HW124485   1.609   6.767   0.113
 7862SOL    HW224486   1.449   6.793   0.132
 7863SOL     OW24487   1.262   3.932   4.302
 7863SOL    HW124488   1.280   4.027   4.275
 7863SOL    HW224489   1.163   3.918   4.309
 7864SOL     OW24490   3.013   5.779   4.939
 7864SOL    HW124491   3.051   5.857   4.989
 7864SOL    HW224492   3.013   5.698   4.998
 7865SOL     OW24493   5.954   4.935   3.922
 7865SOL    HW124494   5.955   4.903   4.017
 7865SOL    HW224495   5.898   4.873   3.867
 7866SOL     OW24496   1.278   0.901   5.517
 7866SOL    HW124497   1.245   0.985   5.474
 7866SOL    HW224498   1.376   0.908   5.535
 7867SOL     OW24499   3.632   5.039   3.858
 7867SOL    HW124500   3.542   5.066   3.824
 7867SOL    HW224501   3.695   5.116   3.850
 7868SOL     OW24502   3.439   6.366   1.688
 7868SOL    HW124503   3.440   6.414   1.600
 7868SOL    HW224504   3.403   6.273   1.674
 7869SOL     OW24505   5.510   4.587   0.114
 7869SOL    HW124506   5.538   4.522   0.185
 7869SOL    HW224507   5.484   4.538   0.032
 7870SOL     OW24508   6.507   0.202   3.850
 7870SOL    HW124509   6.547   0.121   3.894
 7870SOL    HW224510   6.407   0.198   3.860
 7871SOL     OW24511   4.815   1.485   0.667
 7871SOL    HW124512   4.821   1.397   0.621
 7871SOL    HW224513   4.720   1.517   0.664
 7872SOL     OW24514   0.382   4.865   3.218
 7872SOL    HW124515   0.415   4.898   3.130
 7872SOL    HW224516   0.344   4.941   3.271
 7873SOL     OW24517   4.500   2.317   6.739
 7873SOL    HW124518   4.590   2.293   6.700
 7873SOL    HW224519   4.443   2.357   6.668
 7874SOL     OW24520   6.347   2.735   6.728
 7874SOL    HW124521   6.406   2.663   6.764
 7874SOL    HW224522   6.403   2.810   6.694
 7875SOL     OW24523   6.692   4.515   6.794
 7875SOL    HW124524   6.627   4.573   6.746
 7875SOL    HW224525   6.748   4.572   6.855
 7876SOL     OW24526   1.561   6.625   3.137
 7876SOL    HW124527   1.469   6.648   3.168
 7876SOL    HW224528   1.607   6.571   3.208
 7877SOL     OW24529   0.303   3.087   2.595
 7877SOL    HW124530   0.226   3.151   2.586
 7877SOL    HW224531   0.304   3.024   2.518
 7878SOL     OW24532   3.926   6.923   2.586
 7878SOL    HW124533   3.897   6.852   2.522
 7878SOL    HW224534   4.006   6.970   2.550
 7879SOL     OW24535   2.896   5.925   2.874
 7879SOL    HW124536   2.844   5.934   2.789
 7879SOL    HW224537   2.876   5.837   2.917
 7880SOL     OW24538   0.649   4.594   2.277
 7880SOL    HW124539   0.642   4.688   2.242
 7880SOL    HW224540   0.596   4.586   2.361
 7881SOL     OW24541   4.877   3.050   3.792
 7881SOL    HW124542   4.953   3.000   3.750
 7881SOL    HW224543   4.790   3.015   3.757
 7882SOL     OW24544   0.237   2.563   6.842
 7882SOL    HW124545   0.228   2.476   6.795
 7882SOL    HW224546   0.151   2.585   6.888
 7883SOL     OW24547   0.487   6.788   4.384
 7883SOL    HW124548   0.428   6.740   4.319
 7883SOL    HW224549   0.494   6.735   4.469
 7884SOL     OW24550   1.480   2.703   4.224
 7884SOL    HW124551   1.465   2.800   4.241
 7884SOL    HW224552   1.423   2.673   4.148
 7885SOL     OW24553   0.098   6.053   6.691
 7885SOL    HW124554   0.055   5.969   6.725
 7885SOL    HW224555   0.084   6.127   6.758
 7886SOL     OW24556   4.830   3.841   0.473
 7886SOL    HW124557   4.924   3.814   0.450
 7886SOL    HW224558   4.766   3.791   0.413
 7887SOL     OW24559   4.603   2.557   6.117
 7887SOL    HW124560   4.654   2.548   6.202
 7887SOL    HW224561   4.667   2.561   6.039
 7888SOL     OW24562   4.118   5.754   4.403
 7888SOL    HW124563   4.042   5.816   4.383
 7888SOL    HW224564   4.205   5.799   4.382
 7889SOL     OW24565   6.396   5.050   3.189
 7889SOL    HW124566   6.398   4.953   3.163
 7889SOL    HW224567   6.368   5.105   3.111
 7890SOL     OW24568   1.796   3.533   2.626
 7890SOL    HW124569   1.870   3.513   2.563
 7890SOL    HW224570   1.818   3.495   2.716
 7891SOL     OW24571   1.078   4.433   3.113
 7891SOL    HW124572   1.089   4.351   3.056
 7891SOL    HW224573   1.165   4.483   3.116
 7892SOL     OW24574   2.026   1.999   4.885
 7892SOL    HW124575   2.032   2.075   4.950
 7892SOL    HW224576   2.037   1.912   4.933
 7893SOL     OW24577   5.289   6.699   0.835
 7893SOL    HW124578   5.360   6.664   0.896
 7893SOL    HW224579   5.236   6.622   0.799
 7894SOL     OW24580   2.649   0.476   1.857
 7894SOL    HW124581   2.706   0.541   1.806
 7894SOL    HW224582   2.593   0.526   1.923
 7895SOL     OW24583   0.210   1.611   3.496
 7895SOL    HW124584   0.207   1.629   3.595
 7895SOL    HW224585   0.299   1.572   3.473
 7896SOL     OW24586   3.593   1.774   6.446
 7896SOL    HW124587   3.624   1.760   6.352
 7896SOL    HW224588   3.509   1.722   6.462
 7897SOL     OW24589   2.904   3.389   6.689
 7897SOL    HW124590   2.876   3.293   6.689
 7897SOL    HW224591   2.922   3.418   6.595
 7898SOL     OW24592   5.353   1.317   4.377
 7898SOL    HW124593   5.266   1.268   4.374
 7898SOL    HW224594   5.335   1.415   4.380
 7899SOL     OW24595   4.493   0.956   2.044
 7899SOL    HW124596   4.401   0.992   2.029
 7899SOL    HW224597   4.560   1.030   2.035
 7900SOL     OW24598   0.824   5.739   1.561
 7900SOL    HW124599   0.922   5.753   1.544
 7900SOL    HW224600   0.783   5.694   1.482
 7901SOL     OW24601   5.817   4.822   0.916
 7901SOL    HW124602   5.781   4.909   0.880
 7901SOL    HW224603   5.806   4.751   0.847
 7902SOL     OW24604   4.981   4.626   5.721
 7902SOL    HW124605   5.045   4.670   5.784
 7902SOL    HW224606   4.890   4.663   5.735
 7903SOL     OW24607   0.072   3.225   1.401
 7903SOL    HW124608   0.150   3.176   1.441
 7903SOL    HW224609   0.048   3.183   1.314
 7904SOL     OW24610   5.802   2.716   3.085
 7904SOL    HW124611   5.853   2.632   3.105
 7904SOL    HW224612   5.867   2.792   3.073
 7905SOL     OW24613   1.817   1.583   2.364
 7905SOL    HW124614   1.725   1.604   2.396
 7905SOL    HW224615   1.816   1.496   2.315
 7906SOL     OW24616   0.704   4.662   6.729
 7906SOL    HW124617   0.733   4.709   6.646
 7906SOL    HW224618   0.745   4.571   6.732
 7907SOL     OW24619   0.409   2.946   2.806
 7907SOL    HW124620   0.334   2.932   2.871
 7907SOL    HW224621   0.378   3.006   2.732
 7908SOL     OW24622   0.402   1.826   2.901
 7908SOL    HW124623   0.315   1.805   2.946
 7908SOL    HW224624   0.433   1.917   2.929
 7909SOL     OW24625   4.325   6.490   4.757
 7909SOL    HW124626   4.392   6.564   4.756
 7909SOL    HW224627   4.288   6.480   4.849
 7910SOL     OW24628   6.789   2.643   5.616
 7910SOL    HW124629   6.741   2.561   5.650
 7910SOL    HW224630   6.732   2.689   5.548
 7911SOL     OW24631   0.208   5.350   6.600
 7911SOL    HW124632   0.276   5.287   6.639
 7911SOL    HW224633   0.153   5.390   6.673
 7912SOL     OW24634   6.864   5.304   5.482
 7912SOL    HW124635   6.859   5.336   5.577
 7912SOL    HW224636   6.959   5.299   5.453
 7913SOL     OW24637   1.502   6.445   6.528
 7913SOL    HW124638   1.484   6.385   6.450
 7913SOL    HW224639   1.597   6.433   6.558
 7914SOL     OW24640   6.237   4.435   0.541
 7914SOL    HW124641   6.197   4.524   0.519
 7914SOL    HW224642   6.171   4.381   0.592
 7915SOL     OW24643   2.779   0.939   2.555
 7915SOL    HW124644   2.779   0.924   2.457
 7915SOL    HW224645   2.783   1.037   2.574
 7916SOL     OW24646   4.537   3.856   5.403
 7916SOL    HW124647   4.549   3.860   5.502
 7916SOL    HW224648   4.458   3.799   5.381
 7917SOL     OW24649   4.118   3.379   3.578
 7917SOL    HW124650   4.171   3.333   3.507
 7917SOL    HW224651   4.058   3.312   3.623
 7918SOL     OW24652   5.784   1.857   2.027
 7918SOL    HW124653   5.878   1.837   1.999
 7918SOL    HW224654   5.774   1.955   2.044
 7919SOL     OW24655   5.377   3.958   2.192
 7919SOL    HW124656   5.304   4.026   2.185
 7919SOL    HW224657   5.449   3.980   2.126
 7920SOL     OW24658   0.531   6.285   1.647
 7920SOL    HW124659   0.461   6.340   1.692
 7920SOL    HW224660   0.619   6.298   1.693
 7921SOL     OW24661   2.721   5.434   1.918
 7921SOL    HW124662   2.802   5.443   1.859
 7921SOL    HW224663   2.656   5.372   1.874
 7922SOL     OW24664   0.808   4.668   5.217
 7922SOL    HW124665   0.731   4.706   5.269
 7922SOL    HW224666   0.786   4.575   5.188
 7923SOL     OW24667   1.154   1.815   3.132
 7923SOL    HW124668   1.237   1.864   3.157
 7923SOL    HW224669   1.074   1.862   3.169
 7924SOL     OW24670   2.248   1.248   3.412
 7924SOL    HW124671   2.220   1.212   3.500
 7924SOL    HW224672   2.180   1.315   3.380
 7925SOL     OW24673   0.966   1.259   6.925
 7925SOL    HW124674   0.929   1.352   6.935
 7925SOL    HW224675   1.000   1.247   6.831
 7926SOL     OW24676   3.297   0.467   1.996
 7926SOL    HW124677   3.267   0.437   1.905
 7926SOL    HW224678   3.338   0.390   2.045
 7927SOL     OW24679   4.325   4.627   4.559
 7927SOL    HW124680   4.325   4.673   4.648
 7927SOL    HW224681   4.391   4.552   4.561
 7928SOL     OW24682   0.538   4.408   0.046
 7928SOL    HW124683   0.496   4.321   0.072
 7928SOL    HW224684   0.554   4.463   0.127
 7929SOL     OW24685   3.491   4.157   4.907
 7929SOL    HW124686   3.409   4.161   4.849
 7929SOL    HW224687   3.572   4.171   4.850
 7930SOL     OW24688   4.307   6.751   2.698
 7930SOL    HW124689   4.302   6.666   2.646
 7930SOL    HW224690   4.338   6.731   2.791
 7931SOL     OW24691   2.976   3.392   5.973
 7931SOL    HW124692   2.886   3.423   5.942
 7931SOL    HW224693   2.968   3.299   6.010
 7932SOL     OW24694   3.349   0.654   0.333
 7932SOL    HW124695   3.436   0.686   0.370
 7932SOL    HW224696   3.355   0.556   0.313
 7933SOL     OW24697   1.943   1.487   6.351
 7933SOL    HW124698   1.966   1.544   6.273
 7933SOL    HW224699   2.009   1.503   6.425
 7934SOL     OW24700   4.521   2.276   5.895
 7934SOL    HW124701   4.610   2.263   5.939
 7934SOL    HW224702   4.504   2.202   5.831
 7935SOL     OW24703   4.990   5.825   2.064
 7935SOL    HW124704   5.073   5.776   2.038
 7935SOL    HW224705   4.952   5.873   1.985
 7936SOL     OW24706   4.234   6.348   1.879
 7936SOL    HW124707   4.213   6.445   1.869
 7936SOL    HW224708   4.333   6.335   1.883
 7937SOL     OW24709   6.243   1.974   5.942
 7937SOL    HW124710   6.187   2.057   5.948
 7937SOL    HW224711   6.207   1.905   6.003
 7938SOL     OW24712   6.456   4.970   4.130
 7938SOL    HW124713   6.492   4.962   4.037
 7938SOL    HW224714   6.511   5.036   4.181
 7939SOL     OW24715   0.184   6.289   3.940
 7939SOL    HW124716   0.244   6.221   3.898
 7939SOL    HW224717   0.230   6.377   3.944
 7940SOL     OW24718   1.492   6.364   0.671
 7940SOL    HW124719   1.413   6.425   0.671
 7940SOL    HW224720   1.555   6.389   0.745
 7941SOL     OW24721   0.779   0.680   0.765
 7941SOL    HW124722   0.855   0.676   0.829
 7941SOL    HW224723   0.759   0.588   0.730
 7942SOL     OW24724   1.111   0.587   1.727
 7942SOL    HW124725   1.073   0.520   1.791
 7942SOL    HW224726   1.136   0.670   1.777
 7943SOL     OW24727   6.125   1.985   0.518
 7943SOL    HW124728   6.043   2.031   0.484
 7943SOL    HW224729   6.099   1.909   0.576
 7944SOL     OW24730   6.625   4.289   1.998
 7944SOL    HW124731   6.711   4.241   2.016
 7944SOL    HW224732   6.561   4.271   2.073
 7945SOL     OW24733   5.682   0.334   0.652
 7945SOL    HW124734   5.761   0.356   0.709
 7945SOL    HW224735   5.598   0.365   0.697
 7946SOL     OW24736   2.530   1.746   5.595
 7946SOL    HW124737   2.431   1.738   5.609
 7946SOL    HW224738   2.558   1.690   5.517
 7947SOL     OW24739   4.370   5.266   6.311
 7947SOL    HW124740   4.339   5.340   6.252
 7947SOL    HW224741   4.372   5.299   6.406
 7948SOL     OW24742   1.006   5.174   6.084
 7948SOL    HW124743   0.986   5.261   6.039
 7948SOL    HW224744   1.053   5.113   6.020
 7949SOL     OW24745   6.884   3.820   4.092
 7949SOL    HW124746   6.818   3.853   4.160
 7949SOL    HW224747   6.919   3.731   4.120
 7950SOL     OW24748   3.419   4.989   4.132
 7950SOL    HW124749   3.503   4.994   4.185
 7950SOL    HW224750   3.352   4.934   4.181
 7951SOL     OW24751   2.084   3.385   0.907
 7951SOL    HW124752   1.990   3.416   0.922
 7951SOL    HW224753   2.145   3.465   0.907
 7952SOL     OW24754   5.527   4.767   0.704
 7952SOL    HW124755   5.464   4.734   0.775
 7952SOL    HW224756   5.609   4.711   0.704
 7953SOL     OW24757   1.884   3.732   2.340
 7953SOL    HW124758   1.806   3.696   2.288
 7953SOL    HW224759   1.864   3.826   2.369
 7954SOL     OW24760   5.296   4.908   4.344
 7954SOL    HW124761   5.337   4.995   4.372
 7954SOL    HW224762   5.230   4.924   4.271
 7955SOL     OW24763   2.184   6.071   6.354
 7955SOL    HW124764   2.235   6.150   6.391
 7955SOL    HW224765   2.184   5.998   6.422
 7956SOL     OW24766   6.002   6.270   2.564
 7956SOL    HW124767   6.029   6.202   2.632
 7956SOL    HW224768   6.082   6.299   2.511
 7957SOL     OW24769   1.724   2.424   1.087
 7957SOL    HW124770   1.779   2.373   1.021
 7957SOL    HW224771   1.757   2.518   1.092
 7958SOL     OW24772   2.781   5.872   3.454
 7958SOL    HW124773   2.750   5.912   3.368
 7958SOL    HW224774   2.802   5.945   3.519
 7959SOL     OW24775   5.033   5.199   1.808
 7959SOL    HW124776   4.978   5.126   1.768
 7959SOL    HW224777   5.011   5.209   1.905
 7960SOL     OW24778   1.613   2.697   1.473
 7960SOL    HW124779   1.547   2.753   1.423
 7960SOL    HW224780   1.627   2.735   1.564
 7961SOL     OW24781   0.468   5.533   0.403
 7961SOL    HW124782   0.440   5.438   0.409
 7961SOL    HW224783   0.565   5.538   0.378
 7962SOL     OW24784   1.639   6.783   2.677
 7962SOL    HW124785   1.572   6.737   2.735
 7962SOL    HW224786   1.636   6.743   2.585
 7963SOL     OW24787   0.694   6.473   5.566
 7963SOL    HW124788   0.659   6.393   5.519
 7963SOL    HW224789   0.788   6.455   5.597
 7964SOL     OW24790   6.249   5.559   3.449
 7964SOL    HW124791   6.150   5.565   3.438
 7964SOL    HW224792   6.271   5.508   3.531
 7965SOL     OW24793   4.181   1.662   0.712
 7965SOL    HW124794   4.084   1.673   0.732
 7965SOL    HW224795   4.192   1.611   0.627
 7966SOL     OW24796   0.099   0.568   3.545
 7966SOL    HW124797   0.166   0.499   3.574
 7966SOL    HW224798   0.097   0.641   3.613
 7967SOL     OW24799   3.209   0.392   3.322
 7967SOL    HW124800   3.309   0.395   3.334
 7967SOL    HW224801   3.181   0.297   3.308
 7968SOL     OW24802   2.610   0.832   1.267
 7968SOL    HW124803   2.532   0.859   1.324
 7968SOL    HW224804   2.596   0.740   1.232
 7969SOL     OW24805   3.488   1.504   3.700
 7969SOL    HW124806   3.586   1.487   3.699
 7969SOL    HW224807   3.445   1.464   3.619
 7970SOL     OW24808   0.880   4.780   3.434
 7970SOL    HW124809   0.785   4.776   3.465
 7970SOL    HW224810   0.888   4.845   3.358
 7971SOL     OW24811   3.055   1.686   2.106
 7971SOL    HW124812   3.072   1.664   2.202
 7971SOL    HW224813   2.958   1.708   2.094
 7972SOL     OW24814   5.742   5.913   1.494
 7972SOL    HW124815   5.747   5.969   1.577
 7972SOL    HW224816   5.687   5.831   1.513
 7973SOL     OW24817   5.051   1.933   2.949
 7973SOL    HW124818   4.960   1.909   2.982
 7973SOL    HW224819   5.043   1.977   2.859
 7974SOL     OW24820   5.503   6.275   4.592
 7974SOL    HW124821   5.555   6.359   4.612
 7974SOL    HW224822   5.473   6.234   4.678
 7975SOL     OW24823   1.503   1.601   2.803
 7975SOL    HW124824   1.406   1.617   2.788
 7975SOL    HW224825   1.556   1.667   2.750
 7976SOL     OW24826   1.662   6.972   6.369
 7976SOL    HW124827   1.672   0.055   6.355
 7976SOL    HW224828   1.701   6.947   6.458
 7977SOL     OW24829   5.602   6.380   1.101
 7977SOL    HW124830   5.613   6.335   1.013
 7977SOL    HW224831   5.538   6.457   1.093
 7978SOL     OW24832   3.395   1.513   5.869
 7978SOL    HW124833   3.296   1.508   5.869
 7978SOL    HW224834   3.425   1.591   5.813
 7979SOL     OW24835   4.914   6.083   4.109
 7979SOL    HW124836   4.945   6.042   4.195
 7979SOL    HW224837   4.902   6.011   4.041
 7980SOL     OW24838   2.815   0.487   2.511
 7980SOL    HW124839   2.813   0.394   2.473
 7980SOL    HW224840   2.905   0.506   2.549
 7981SOL     OW24841   1.026   6.053   2.290
 7981SOL    HW124842   1.005   6.068   2.194
 7981SOL    HW224843   1.125   6.049   2.303
 7982SOL     OW24844   6.949   2.727   0.374
 7982SOL    HW124845   0.016   2.755   0.423
 7982SOL    HW224846   6.967   2.641   0.326
 7983SOL     OW24847   5.056   2.450   1.404
 7983SOL    HW124848   5.021   2.383   1.338
 7983SOL    HW224849   5.068   2.538   1.358
 7984SOL     OW24850   6.657   0.717   0.742
 7984SOL    HW124851   6.558   0.727   0.749
 7984SOL    HW224852   6.701   0.806   0.756
 7985SOL     OW24853   1.134   1.395   1.190
 7985SOL    HW124854   1.199   1.458   1.146
 7985SOL    HW224855   1.180   1.309   1.212
 7986SOL     OW24856   4.601   3.787   0.336
 7986SOL    HW124857   4.520   3.734   0.362
 7986SOL    HW224858   4.611   3.784   0.236
 7987SOL     OW24859   0.880   2.975   4.755
 7987SOL    HW124860   0.905   2.891   4.707
 7987SOL    HW224861   0.847   3.043   4.689
 7988SOL     OW24862   3.051   1.481   5.602
 7988SOL    HW124863   2.974   1.428   5.568
 7988SOL    HW224864   3.072   1.554   5.536
 7989SOL     OW24865   3.209   3.769   6.470
 7989SOL    HW124866   3.198   3.765   6.371
 7989SOL    HW224867   3.195   3.678   6.509
 7990SOL     OW24868   2.262   2.627   4.810
 7990SOL    HW124869   2.211   2.541   4.815
 7990SOL    HW224870   2.311   2.642   4.896
 7991SOL     OW24871   2.625   2.989   6.150
 7991SOL    HW124872   2.533   2.969   6.183
 7991SOL    HW224873   2.689   2.989   6.227
 7992SOL     OW24874   2.958   1.223   0.878
 7992SOL    HW124875   3.037   1.165   0.899
 7992SOL    HW224876   2.888   1.168   0.832
 7993SOL     OW24877   2.811   5.457   6.187
 7993SOL    HW124878   2.846   5.544   6.220
 7993SOL    HW224879   2.711   5.460   6.183
 7994SOL     OW24880   5.745   0.661   4.433
 7994SOL    HW124881   5.828   0.638   4.484
 7994SOL    HW224882   5.729   0.591   4.363
 7995SOL     OW24883   4.443   5.422   2.679
 7995SOL    HW124884   4.366   5.481   2.656
 7995SOL    HW224885   4.427   5.330   2.643
 7996SOL     OW24886   4.368   1.214   5.379
 7996SOL    HW124887   4.317   1.298   5.397
 7996SOL    HW224888   4.329   1.139   5.431
 7997SOL     OW24889   5.228   2.763   0.944
 7997SOL    HW124890   5.200   2.725   0.856
 7997SOL    HW224891   5.322   2.795   0.938
 7998SOL     OW24892   6.351   4.654   5.957
 7998SOL    HW124893   6.257   4.664   5.990
 7998SOL    HW224894   6.356   4.576   5.895
 7999SOL     OW24895   2.419   2.306   5.702
 7999SOL    HW124896   2.374   2.217   5.714
 7999SOL    HW224897   2.517   2.297   5.719
 8000SOL     OW24898   4.908   0.645   5.925
 8000SOL    HW124899   4.989   0.616   5.876
 8000SOL    HW224900   4.925   0.642   6.024
 8001SOL     OW24901   2.341   5.065   0.506
 8001SOL    HW124902   2.358   5.088   0.410
 8001SOL    HW224903   2.428   5.063   0.555
 8002SOL     OW24904   4.908   2.156   5.542
 8002SOL    HW124905   4.822   2.208   5.542
 8002SOL    HW224906   4.896   2.072   5.490
 8003SOL     OW24907   4.660   5.442   3.341
 8003SOL    HW124908   4.585   5.487   3.292
 8003SOL    HW224909   4.685   5.497   3.421
 8004SOL     OW24910   1.344   4.224   3.529
 8004SOL    HW124911   1.317   4.155   3.597
 8004SOL    HW224912   1.386   4.179   3.450
 8005SOL     OW24913   2.222   0.697   2.586
 8005SOL    HW124914   2.216   0.787   2.629
 8005SOL    HW224915   2.315   0.661   2.596
 8006SOL     OW24916   3.900   5.988   1.648
 8006SOL    HW124917   3.912   6.066   1.709
 8006SOL    HW224918   3.969   5.991   1.576
 8007SOL     OW24919   0.361   1.082   3.829
 8007SOL    HW124920   0.440   1.144   3.836
 8007SOL    HW224921   0.373   1.020   3.752
 8008SOL     OW24922   5.977   5.530   1.101
 8008SOL    HW124923   5.918   5.576   1.168
 8008SOL    HW224924   5.940   5.546   1.009
 8009SOL     OW24925   6.974   6.648   3.338
 8009SOL    HW124926   0.020   6.597   3.400
 8009SOL    HW224927   6.882   6.650   3.377
 8010SOL     OW24928   1.990   2.239   6.931
 8010SOL    HW124929   2.057   2.197   6.869
 8010SOL    HW224930   1.942   2.167   6.981
 8011SOL     OW24931   2.295   2.871   0.189
 8011SOL    HW124932   2.320   2.875   0.092
 8011SOL    HW224933   2.343   2.794   0.232
 8012SOL     OW24934   2.633   6.582   3.093
 8012SOL    HW124935   2.618   6.681   3.093
 8012SOL    HW224936   2.728   6.563   3.118
 8013SOL     OW24937   6.264   5.308   4.998
 8013SOL    HW124938   6.314   5.337   4.916
 8013SOL    HW224939   6.188   5.248   4.971
 8014SOL     OW24940   2.423   6.403   6.769
 8014SOL    HW124941   2.476   6.396   6.685
 8014SOL    HW224942   2.363   6.483   6.764
 8015SOL     OW24943   1.584   2.275   0.132
 8015SOL    HW124944   1.509   2.247   0.191
 8015SOL    HW224945   1.593   2.209   0.057
 8016SOL     OW24946   4.435   6.211   2.026
 8016SOL    HW124947   4.427   6.141   1.955
 8016SOL    HW224948   4.529   6.245   2.029
 8017SOL     OW24949   6.440   3.430   5.668
 8017SOL    HW124950   6.481   3.358   5.612
 8017SOL    HW224951   6.436   3.516   5.616
 8018SOL     OW24952   5.399   3.041   4.002
 8018SOL    HW124953   5.366   3.030   3.909
 8018SOL    HW224954   5.435   2.954   4.036
 8019SOL     OW24955   2.999   5.081   1.339
 8019SOL    HW124956   3.049   5.126   1.413
 8019SOL    HW224957   3.062   5.060   1.264
 8020SOL     OW24958   5.871   6.801   6.574
 8020SOL    HW124959   5.855   6.876   6.510
 8020SOL    HW224960   5.785   6.754   6.593
 8021SOL     OW24961   6.606   1.127   0.778
 8021SOL    HW124962   6.540   1.065   0.736
 8021SOL    HW224963   6.698   1.086   0.772
 8022SOL     OW24964   4.704   5.192   3.623
 8022SOL    HW124965   4.677   5.280   3.584
 8022SOL    HW224966   4.627   5.129   3.618
 8023SOL     OW24967   0.010   5.950   3.631
 8023SOL    HW124968   6.987   5.887   3.699
 8023SOL    HW224969   0.033   5.898   3.548
 8024SOL     OW24970   4.425   5.219   4.730
 8024SOL    HW124971   4.381   5.300   4.768
 8024SOL    HW224972   4.375   5.190   4.648
 8025SOL     OW24973   3.474   6.021   0.392
 8025SOL    HW124974   3.440   6.106   0.352
 8025SOL    HW224975   3.404   5.983   0.453
 8026SOL     OW24976   2.218   1.830   6.654
 8026SOL    HW124977   2.178   1.896   6.591
 8026SOL    HW224978   2.301   1.791   6.613
 8027SOL     OW24979   4.710   3.330   5.541
 8027SOL    HW124980   4.624   3.296   5.578
 8027SOL    HW224981   4.720   3.299   5.447
 8028SOL     OW24982   5.891   5.145   0.288
 8028SOL    HW124983   5.806   5.107   0.325
 8028SOL    HW224984   5.872   5.235   0.248
 8029SOL     OW24985   3.072   4.613   6.252
 8029SOL    HW124986   3.064   4.606   6.352
 8029SOL    HW224987   3.165   4.639   6.228
 8030SOL     OW24988   6.213   3.442   0.993
 8030SOL    HW124989   6.199   3.416   0.898
 8030SOL    HW224990   6.170   3.531   1.010
 8031SOL     OW24991   3.926   6.359   1.121
 8031SOL    HW124992   3.935   6.331   1.216
 8031SOL    HW224993   3.893   6.454   1.116
 8032SOL     OW24994   4.846   3.758   5.678
 8032SOL    HW124995   4.869   3.662   5.694
 8032SOL    HW224996   4.747   3.769   5.680
 8033SOL     OW24997   6.438   2.054   1.444
 8033SOL    HW124998   6.497   2.134   1.438
 8033SOL    HW224999   6.344   2.079   1.420
 8034SOL     OW25000   6.583   1.854   5.463
 8034SOL    HW125001   6.483   1.855   5.465
 8034SOL    HW225002   6.617   1.780   5.520
 8035SOL     OW25003   5.705   6.020   6.229
 8035SOL    HW125004   5.711   6.103   6.286
 8035SOL    HW225005   5.788   5.966   6.241
 8036SOL     OW25006   1.332   4.534   1.723
 8036SOL    HW125007   1.302   4.623   1.755
 8036SOL    HW225008   1.432   4.530   1.727
 8037SOL     OW25009   2.118   3.231   1.950
 8037SOL    HW125010   2.174   3.309   1.980
 8037SOL    HW225011   2.141   3.206   1.857
 8038SOL     OW25012   5.841   1.419   3.841
 8038SOL    HW125013   5.928   1.446   3.880
 8038SOL    HW225014   5.795   1.499   3.803
 8039SOL     OW25015   2.412   5.824   4.018
 8039SOL    HW125016   2.453   5.880   4.091
 8039SOL    HW225017   2.480   5.759   3.984
 8040SOL     OW25018   5.494   5.871   0.324
 8040SOL    HW125019   5.515   5.902   0.232
 8040SOL    HW225020   5.455   5.779   0.321
 8041SOL     OW25021   3.211   1.821   1.473
 8041SOL    HW125022   3.124   1.870   1.466
 8041SOL    HW225023   3.192   1.724   1.491
 8042SOL     OW25024   2.272   5.365   6.935
 8042SOL    HW125025   2.372   5.363   6.928
 8042SOL    HW225026   2.234   5.281   6.896
 8043SOL     OW25027   2.888   0.572   1.555
 8043SOL    HW125028   2.819   0.608   1.618
 8043SOL    HW225029   2.892   0.630   1.474
 8044SOL     OW25030   2.948   3.179   2.201
 8044SOL    HW125031   2.972   3.232   2.282
 8044SOL    HW225032   2.849   3.169   2.195
 8045SOL     OW25033   6.566   2.864   3.759
 8045SOL    HW125034   6.644   2.889   3.816
 8045SOL    HW225035   6.578   2.901   3.667
 8046SOL     OW25036   0.061   5.195   4.984
 8046SOL    HW125037   0.103   5.240   5.063
 8046SOL    HW225038   0.130   5.140   4.937
 8047SOL     OW25039   2.574   0.191   4.662
 8047SOL    HW125040   2.484   0.173   4.622
 8047SOL    HW225041   2.562   0.233   4.752
 8048SOL     OW25042   5.648   0.680   5.746
 8048SOL    HW125043   5.663   0.773   5.713
 8048SOL    HW225044   5.562   0.645   5.710
 8049SOL     OW25045   1.636   0.122   0.487
 8049SOL    HW125046   1.712   0.094   0.428
 8049SOL    HW225047   1.658   0.209   0.531
 8050SOL     OW25048   0.226   3.303   1.771
 8050SOL    HW125049   0.317   3.344   1.766
 8050SOL    HW225050   0.160   3.363   1.727
 8051SOL     OW25051   2.779   1.571   3.780
 8051SOL    HW125052   2.693   1.555   3.829
 8051SOL    HW225053   2.856   1.540   3.837
 8052SOL     OW25054   3.365   1.790   3.085
 8052SOL    HW125055   3.448   1.827   3.127
 8052SOL    HW225056   3.303   1.865   3.062
 8053SOL     OW25057   4.173   3.471   1.826
 8053SOL    HW125058   4.094   3.515   1.867
 8053SOL    HW225059   4.164   3.372   1.836
 8054SOL     OW25060   4.686   6.378   4.289
 8054SOL    HW125061   4.666   6.397   4.193
 8054SOL    HW225062   4.602   6.387   4.343
 8055SOL     OW25063   0.864   0.135   5.722
 8055SOL    HW125064   0.826   0.077   5.794
 8055SOL    HW225065   0.832   0.103   5.633
 8056SOL     OW25066   4.397   1.117   2.411
 8056SOL    HW125067   4.472   1.141   2.473
 8056SOL    HW225068   4.351   1.200   2.380
 8057SOL     OW25069   3.314   0.215   3.764
 8057SOL    HW125070   3.338   0.163   3.846
 8057SOL    HW225071   3.220   0.193   3.737
 8058SOL     OW25072   1.951   6.891   3.463
 8058SOL    HW125073   2.026   6.909   3.399
 8058SOL    HW225074   1.866   6.879   3.413
 8059SOL     OW25075   2.068   1.113   4.092
 8059SOL    HW125076   2.102   1.034   4.042
 8059SOL    HW225077   2.144   1.174   4.115
 8060SOL     OW25078   0.632   2.590   5.143
 8060SOL    HW125079   0.711   2.644   5.174
 8060SOL    HW225080   0.661   2.530   5.068
 8061SOL     OW25081   6.294   6.451   2.751
 8061SOL    HW125082   6.235   6.414   2.823
 8061SOL    HW225083   6.331   6.376   2.697
 8062SOL     OW25084   1.426   3.267   1.895
 8062SOL    HW125085   1.520   3.299   1.905
 8062SOL    HW225086   1.424   3.188   1.834
 8063SOL     OW25087   2.526   2.974   5.884
 8063SOL    HW125088   2.552   2.971   5.981
 8063SOL    HW225089   2.429   2.954   5.875
 8064SOL     OW25090   6.915   2.042   5.435
 8064SOL    HW125091   6.955   2.013   5.348
 8064SOL    HW225092   6.899   1.962   5.493
 8065SOL     OW25093   4.618   6.883   6.520
 8065SOL    HW125094   4.552   6.864   6.447
 8065SOL    HW225095   4.575   6.943   6.588
 8066SOL     OW25096   2.059   0.070   1.639
 8066SOL    HW125097   1.989   0.093   1.707
 8066SOL    HW225098   2.098   6.996   1.660
 8067SOL     OW25099   4.727   2.407   2.322
 8067SOL    HW125100   4.755   2.420   2.227
 8067SOL    HW225101   4.629   2.387   2.325
 8068SOL     OW25102   6.590   4.792   4.432
 8068SOL    HW125103   6.605   4.891   4.428
 8068SOL    HW225104   6.524   4.771   4.503
 8069SOL     OW25105   1.253   6.370   2.144
 8069SOL    HW125106   1.237   6.464   2.172
 8069SOL    HW225107   1.266   6.313   2.225
 8070SOL     OW25108   3.665   0.307   2.658
 8070SOL    HW125109   3.711   0.220   2.676
 8070SOL    HW225110   3.720   0.362   2.596
 8071SOL     OW25111   5.157   5.275   6.961
 8071SOL    HW125112   5.185   5.238   6.872
 8071SOL    HW225113   5.237   5.312   7.008
 8072SOL     OW25114   4.091   0.509   3.185
 8072SOL    HW125115   4.015   0.445   3.184
 8072SOL    HW225116   4.110   0.541   3.092
 8073SOL     OW25117   5.177   0.311   6.209
 8073SOL    HW125118   5.189   0.394   6.263
 8073SOL    HW225119   5.266   0.280   6.175
 8074SOL     OW25120   2.986   4.244   6.702
 8074SOL    HW125121   2.913   4.236   6.635
 8074SOL    HW225122   3.058   4.177   6.682
 8075SOL     OW25123   6.002   2.060   3.680
 8075SOL    HW125124   6.010   2.106   3.768
 8075SOL    HW225125   5.918   2.007   3.677
 8076SOL     OW25126   4.674   3.336   6.339
 8076SOL    HW125127   4.741   3.263   6.324
 8076SOL    HW225128   4.593   3.318   6.284
 8077SOL     OW25129   1.126   0.069   0.432
 8077SOL    HW125130   1.197   0.140   0.435
 8077SOL    HW225131   1.048   0.098   0.488
 8078SOL     OW25132   5.798   2.835   1.079
 8078SOL    HW125133   5.868   2.907   1.075
 8078SOL    HW225134   5.758   2.833   1.170
 8079SOL     OW25135   1.277   2.198   1.258
 8079SOL    HW125136   1.356   2.162   1.208
 8079SOL    HW225137   1.264   2.147   1.343
 8080SOL     OW25138   3.931   5.458   0.021
 8080SOL    HW125139   3.899   5.500   0.106
 8080SOL    HW225140   3.913   5.520   6.960
 8081SOL     OW25141   5.852   2.361   4.754
 8081SOL    HW125142   5.878   2.280   4.806
 8081SOL    HW225143   5.846   2.338   4.657
 8082SOL     OW25144   6.071   3.643   4.838
 8082SOL    HW125145   6.129   3.593   4.903
 8082SOL    HW225146   5.984   3.667   4.881
 8083SOL     OW25147   5.980   1.957   4.975
 8083SOL    HW125148   5.952   2.036   5.030
 8083SOL    HW225149   5.922   1.950   4.894
 8084SOL     OW25150   6.385   0.006   0.246
 8084SOL    HW125151   6.336   6.935   0.258
 8084SOL    HW225152   6.462   0.010   0.311
 8085SOL     OW25153   5.190   2.387   0.743
 8085SOL    HW125154   5.265   2.412   0.805
 8085SOL    HW225155   5.170   2.463   0.682
 8086SOL     OW25156   2.487   5.590   5.771
 8086SOL    HW125157   2.388   5.579   5.784
 8086SOL    HW225158   2.536   5.522   5.825
 8087SOL     OW25159   2.839   3.906   0.800
 8087SOL    HW125160   2.883   3.853   0.873
 8087SOL    HW225161   2.844   4.003   0.822
 8088SOL     OW25162   4.738   0.874   3.297
 8088SOL    HW125163   4.728   0.823   3.382
 8088SOL    HW225164   4.833   0.870   3.267
 8089SOL     OW25165   6.538   2.715   0.723
 8089SOL    HW125166   6.564   2.666   0.640
 8089SOL    HW225167   6.616   2.716   0.787
 8090SOL     OW25168   4.232   2.009   5.054
 8090SOL    HW125169   4.307   1.945   5.072
 8090SOL    HW225170   4.201   1.996   4.960
 8091SOL     OW25171   1.833   4.031   5.744
 8091SOL    HW125172   1.922   4.003   5.705
 8091SOL    HW225173   1.784   4.088   5.678
 8092SOL     OW25174   6.292   1.662   4.262
 8092SOL    HW125175   6.295   1.570   4.302
 8092SOL    HW225176   6.290   1.730   4.335
 8093SOL     OW25177   5.866   5.316   0.598
 8093SOL    HW125178   5.912   5.379   0.535
 8093SOL    HW225179   5.895   5.335   0.692
 8094SOL     OW25180   0.619   3.580   3.928
 8094SOL    HW125181   0.602   3.673   3.896
 8094SOL    HW225182   0.550   3.555   3.996
 8095SOL     OW25183   6.442   3.115   4.560
 8095SOL    HW125184   6.509   3.184   4.587
 8095SOL    HW225185   6.489   3.033   4.528
 8096SOL     OW25186   4.475   0.050   0.651
 8096SOL    HW125187   4.433   0.044   0.560
 8096SOL    HW225188   4.456   6.981   0.702
 8097SOL     OW25189   4.529   1.726   4.221
 8097SOL    HW125190   4.458   1.780   4.266
 8097SOL    HW225191   4.603   1.706   4.285
 8098SOL     OW25192   2.169   1.463   4.315
 8098SOL    HW125193   2.209   1.526   4.381
 8098SOL    HW225194   2.077   1.495   4.291
 8099SOL     OW25195   3.654   6.616   4.603
 8099SOL    HW125196   3.591   6.653   4.534
 8099SOL    HW225197   3.666   6.682   4.676
 8100SOL     OW25198   6.675   6.022   1.125
 8100SOL    HW125199   6.600   6.084   1.100
 8100SOL    HW225200   6.713   6.050   1.213
 8101SOL     OW25201   0.033   5.028   1.985
 8101SOL    HW125202   0.048   5.060   2.078
 8101SOL    HW225203   6.962   4.976   1.981
 8102SOL     OW25204   6.484   0.262   5.572
 8102SOL    HW125205   6.562   0.214   5.612
 8102SOL    HW225206   6.460   0.221   5.484
 8103SOL     OW25207   2.389   2.548   2.322
 8103SOL    HW125208   2.401   2.614   2.396
 8103SOL    HW225209   2.478   2.532   2.278
 8104SOL     OW25210   2.869   0.165   5.988
 8104SOL    HW125211   2.816   0.227   5.930
 8104SOL    HW225212   2.866   0.198   6.082
 8105SOL     OW25213   1.550   2.925   3.227
 8105SOL    HW125214   1.616   2.867   3.179
 8105SOL    HW225215   1.547   2.899   3.324
 8106SOL     OW25216   0.329   3.737   5.406
 8106SOL    HW125217   0.319   3.836   5.400
 8106SOL    HW225218   0.241   3.693   5.385
 8107SOL     OW25219   1.330   5.322   6.662
 8107SOL    HW125220   1.397   5.277   6.602
 8107SOL    HW225221   1.377   5.362   6.740
 8108SOL     OW25222   2.147   3.158   5.774
 8108SOL    HW125223   2.085   3.143   5.697
 8108SOL    HW225224   2.242   3.145   5.744
 8109SOL     OW25225   0.489   5.154   5.816
 8109SOL    HW125226   0.489   5.228   5.883
 8109SOL    HW225227   0.580   5.145   5.775
 8110SOL     OW25228   1.352   5.109   0.530
 8110SOL    HW125229   1.254   5.131   0.527
 8110SOL    HW225230   1.386   5.124   0.623
 8111SOL     OW25231   3.471   5.926   4.121
 8111SOL    HW125232   3.407   5.981   4.175
 8111SOL    HW225233   3.421   5.873   4.053
 8112SOL     OW25234   4.145   0.876   3.968
 8112SOL    HW125235   4.084   0.874   3.888
 8112SOL    HW225236   4.208   0.954   3.960
 8113SOL     OW25237   2.991   2.844   5.696
 8113SOL    HW125238   3.017   2.899   5.776
 8113SOL    HW225239   2.995   2.900   5.614
 8114SOL     OW25240   3.097   3.426   1.823
 8114SOL    HW125241   3.087   3.426   1.724
 8114SOL    HW225242   3.007   3.433   1.866
 8115SOL     OW25243   3.626   2.948   0.900
 8115SOL    HW125244   3.722   2.942   0.928
 8115SOL    HW225245   3.612   3.029   0.844
 8116SOL     OW25246   5.513   1.310   5.748
 8116SOL    HW125247   5.499   1.228   5.802
 8116SOL    HW225248   5.606   1.345   5.764
 8117SOL     OW25249   3.098   2.674   5.912
 8117SOL    HW125250   3.096   2.626   5.825
 8117SOL    HW225251   3.014   2.729   5.921
 8118SOL     OW25252   1.274   1.983   3.550
 8118SOL    HW125253   1.243   2.051   3.483
 8118SOL    HW225254   1.248   2.013   3.642
 8119SOL     OW25255   1.560   6.667   2.429
 8119SOL    HW125256   1.471   6.709   2.411
 8119SOL    HW225257   1.553   6.568   2.417
 8120SOL     OW25258   4.672   4.274   2.704
 8120SOL    HW125259   4.600   4.283   2.773
 8120SOL    HW225260   4.645   4.324   2.621
 8121SOL     OW25261   6.993   5.686   2.947
 8121SOL    HW125262   6.917   5.750   2.962
 8121SOL    HW225263   6.962   5.611   2.889
 8122SOL     OW25264   6.744   5.574   1.759
 8122SOL    HW125265   6.662   5.538   1.805
 8122SOL    HW225266   6.825   5.541   1.807
 8123SOL     OW25267   1.474   5.160   7.004
 8123SOL    HW125268   1.518   5.190   0.074
 8123SOL    HW225269   1.377   5.182   7.007
 8124SOL     OW25270   1.663   6.329   3.012
 8124SOL    HW125271   1.748   6.313   2.962
 8124SOL    HW225272   1.590   6.354   2.947
 8125SOL     OW25273   5.082   5.158   2.941
 8125SOL    HW125274   5.016   5.227   2.910
 8125SOL    HW225275   5.072   5.075   2.886
 8126SOL     OW25276   6.960   4.819   2.383
 8126SOL    HW125277   6.996   4.785   2.296
 8126SOL    HW225278   6.879   4.875   2.367
 8127SOL     OW25279   4.232   5.340   1.103
 8127SOL    HW125280   4.246   5.253   1.055
 8127SOL    HW225281   4.146   5.381   1.073
 8128SOL     OW25282   3.920   2.259   5.841
 8128SOL    HW125283   4.006   2.275   5.890
 8128SOL    HW225284   3.866   2.343   5.841
 8129SOL     OW25285   4.748   6.094   6.495
 8129SOL    HW125286   4.784   6.173   6.445
 8129SOL    HW225287   4.782   6.096   6.590
 8130SOL     OW25288   0.621   6.934   6.525
 8130SOL    HW125289   0.715   6.926   6.559
 8130SOL    HW225290   0.560   6.958   6.601
 8131SOL     OW25291   2.394   1.668   1.255
 8131SOL    HW125292   2.387   1.766   1.239
 8131SOL    HW225293   2.310   1.634   1.297
 8132SOL     OW25294   5.555   4.845   3.139
 8132SOL    HW125295   5.577   4.752   3.169
 8132SOL    HW225296   5.458   4.849   3.114
 8133SOL     OW25297   0.235   5.620   1.991
 8133SOL    HW125298   0.257   5.701   1.935
 8133SOL    HW225299   0.235   5.645   2.087
 8134SOL     OW25300   2.292   2.482   1.814
 8134SOL    HW125301   2.260   2.484   1.908
 8134SOL    HW225302   2.362   2.552   1.801
 8135SOL     OW25303   4.098   6.358   2.394
 8135SOL    HW125304   4.139   6.428   2.453
 8135SOL    HW225305   4.170   6.303   2.353
 8136SOL     OW25306   2.189   6.087   1.857
 8136SOL    HW125307   2.239   6.005   1.886
 8136SOL    HW225308   2.163   6.078   1.761
 8137SOL     OW25309   3.079   3.567   5.236
 8137SOL    HW125310   3.136   3.538   5.313
 8137SOL    HW225311   2.985   3.536   5.250
 8138SOL     OW25312   4.643   1.191   3.560
 8138SOL    HW125313   4.674   1.286   3.558
 8138SOL    HW225314   4.615   1.163   3.468
 8139SOL     OW25315   1.566   3.267   6.162
 8139SOL    HW125316   1.557   3.177   6.118
 8139SOL    HW225317   1.660   3.279   6.193
 8140SOL     OW25318   4.768   1.555   0.980
 8140SOL    HW125319   4.801   1.476   0.928
 8140SOL    HW225320   4.676   1.578   0.950
 8141SOL     OW25321   6.087   0.847   5.165
 8141SOL    HW125322   6.127   0.778   5.104
 8141SOL    HW225323   6.004   0.884   5.123
 8142SOL     OW25324   3.592   5.576   0.653
 8142SOL    HW125325   3.669   5.519   0.681
 8142SOL    HW225326   3.604   5.669   0.689
 8143SOL     OW25327   5.731   4.721   7.003
 8143SOL    HW125328   5.677   4.660   0.045
 8143SOL    HW225329   5.793   4.774   0.046
 8144SOL     OW25330   1.703   5.545   6.734
 8144SOL    HW125331   1.752   5.482   6.673
 8144SOL    HW225332   1.763   5.570   6.810
 8145SOL     OW25333   5.591   5.708   5.932
 8145SOL    HW125334   5.675   5.685   5.982
 8145SOL    HW225335   5.534   5.626   5.924
 8146SOL     OW25336   6.861   6.298   4.913
 8146SOL    HW125337   6.796   6.374   4.920
 8146SOL    HW225338   6.946   6.330   4.871
 8147SOL     OW25339   2.524   0.196   5.003
 8147SOL    HW125340   2.517   0.191   5.103
 8147SOL    HW225341   2.529   0.291   4.974
 8148SOL     OW25342   5.103   4.756   6.930
 8148SOL    HW125343   5.126   4.675   6.984
 8148SOL    HW225344   5.069   4.727   6.841
 8149SOL     OW25345   1.832   6.930   5.731
 8149SOL    HW125346   1.915   6.985   5.731
 8149SOL    HW225347   1.767   6.968   5.665
 8150SOL     OW25348   0.380   4.164   0.355
 8150SOL    HW125349   0.424   4.175   0.444
 8150SOL    HW225350   0.399   4.073   0.319
 8151SOL     OW25351   5.925   4.468   2.146
 8151SOL    HW125352   5.883   4.385   2.182
 8151SOL    HW225353   5.957   4.452   2.053
 8152SOL     OW25354   5.303   2.204   3.819
 8152SOL    HW125355   5.232   2.262   3.779
 8152SOL    HW225356   5.325   2.130   3.754
 8153SOL     OW25357   0.311   1.602   1.641
 8153SOL    HW125358   0.289   1.671   1.572
 8153SOL    HW225359   0.342   1.518   1.596
 8154SOL     OW25360   0.929   0.957   3.490
 8154SOL    HW125361   0.850   0.899   3.472
 8154SOL    HW225362   0.973   0.928   3.575
 8155SOL     OW25363   1.228   4.640   4.685
 8155SOL    HW125364   1.259   4.729   4.651
 8155SOL    HW225365   1.131   4.645   4.707
 8156SOL     OW25366   1.316   3.835   0.544
 8156SOL    HW125367   1.328   3.868   0.450
 8156SOL    HW225368   1.249   3.891   0.591
 8157SOL     OW25369   6.020   4.700   4.622
 8157SOL    HW125370   5.977   4.789   4.637
 8157SOL    HW225371   6.073   4.702   4.537
 8158SOL     OW25372   6.302   5.024   6.333
 8158SOL    HW125373   6.309   5.122   6.349
 8158SOL    HW225374   6.309   5.005   6.235
 8159SOL     OW25375   2.754   0.036   5.195
 8159SOL    HW125376   2.715   6.982   5.134
 8159SOL    HW225377   2.685   0.105   5.215
 8160SOL     OW25378   5.496   2.881   2.836
 8160SOL    HW125379   5.592   2.860   2.815
 8160SOL    HW225380   5.456   2.932   2.760
 8161SOL     OW25381   6.845   2.609   2.202
 8161SOL    HW125382   6.759   2.636   2.159
 8161SOL    HW225383   6.883   2.530   2.154
 8162SOL     OW25384   0.829   6.117   5.658
 8162SOL    HW125385   0.848   6.082   5.566
 8162SOL    HW225386   0.851   6.047   5.726
 8163SOL     OW25387   3.650   5.051   5.494
 8163SOL    HW125388   3.744   5.051   5.460
 8163SOL    HW225389   3.614   4.958   5.493
 8164SOL     OW25390   5.111   1.953   0.261
 8164SOL    HW125391   5.130   2.033   0.319
 8164SOL    HW225392   5.158   1.964   0.173
 8165SOL     OW25393   0.560   2.417   6.387
 8165SOL    HW125394   0.580   2.472   6.468
 8165SOL    HW225395   0.563   2.474   6.305
 8166SOL     OW25396   2.401   2.190   4.734
 8166SOL    HW125397   2.401   2.170   4.832
 8166SOL    HW225398   2.451   2.119   4.685
 8167SOL     OW25399   1.542   2.347   3.155
 8167SOL    HW125400   1.614   2.416   3.143
 8167SOL    HW225401   1.550   2.305   3.245
 8168SOL     OW25402   1.849   6.368   2.463
 8168SOL    HW125403   1.896   6.450   2.497
 8168SOL    HW225404   1.913   6.292   2.461
 8169SOL     OW25405   4.686   4.097   0.158
 8169SOL    HW125406   4.650   4.120   0.248
 8169SOL    HW225407   4.716   4.181   0.112
 8170SOL     OW25408   6.999   4.405   2.914
 8170SOL    HW125409   6.943   4.440   2.839
 8170SOL    HW225410   6.963   4.317   2.944
 8171SOL     OW25411   1.883   1.585   1.690
 8171SOL    HW125412   1.933   1.576   1.776
 8171SOL    HW225413   1.919   1.664   1.639
 8172SOL     OW25414   1.192   4.636   0.570
 8172SOL    HW125415   1.229   4.728   0.554
 8172SOL    HW225416   1.140   4.607   0.489
 8173SOL     OW25417   5.743   6.892   1.323
 8173SOL    HW125418   5.748   6.989   1.349
 8173SOL    HW225419   5.811   6.873   1.252
 8174SOL     OW25420   2.769   6.436   3.744
 8174SOL    HW125421   2.752   6.458   3.648
 8174SOL    HW225422   2.722   6.502   3.803
 8175SOL     OW25423   0.638   1.928   5.672
 8175SOL    HW125424   0.564   1.962   5.614
 8175SOL    HW225425   0.600   1.881   5.752
 8176SOL     OW25426   3.043   4.946   0.144
 8176SOL    HW125427   2.980   4.869   0.133
 8176SOL    HW225428   3.047   4.998   0.059
 8177SOL     OW25429   3.186   0.947   2.552
 8177SOL    HW125430   3.231   1.036   2.542
 8177SOL    HW225431   3.224   0.883   2.486
 8178SOL     OW25432   2.309   5.927   1.289
 8178SOL    HW125433   2.292   5.886   1.199
 8178SOL    HW225434   2.407   5.943   1.300
 8179SOL     OW25435   6.232   0.124   3.733
 8179SOL    HW125436   6.154   0.063   3.716
 8179SOL    HW225437   6.282   0.139   3.648
 8180SOL     OW25438   4.680   5.061   0.652
 8180SOL    HW125439   4.632   5.143   0.621
 8180SOL    HW225440   4.696   5.000   0.574
 8181SOL     OW25441   6.293   0.715   6.165
 8181SOL    HW125442   6.296   0.681   6.259
 8181SOL    HW225443   6.330   0.645   6.104
 8182SOL     OW25444   3.476   3.549   3.025
 8182SOL    HW125445   3.563   3.565   3.071
 8182SOL    HW225446   3.417   3.629   3.038
 8183SOL     OW25447   0.182   0.338   5.619
 8183SOL    HW125448   0.202   0.428   5.658
 8183SOL    HW225449   0.133   0.350   5.532
 8184SOL     OW25450   0.296   6.230   5.217
 8184SOL    HW125451   0.222   6.162   5.214
 8184SOL    HW225452   0.298   6.280   5.131
 8185SOL     OW25453   0.551   6.087   5.139
 8185SOL    HW125454   0.470   6.139   5.166
 8185SOL    HW225455   0.540   6.056   5.045
 8186SOL     OW25456   1.597   5.604   0.460
 8186SOL    HW125457   1.569   5.687   0.507
 8186SOL    HW225458   1.672   5.561   0.511
 8187SOL     OW25459   1.352   6.524   4.786
 8187SOL    HW125460   1.429   6.479   4.740
 8187SOL    HW225461   1.267   6.481   4.760
 8188SOL     OW25462   1.495   2.872   2.591
 8188SOL    HW125463   1.541   2.785   2.572
 8188SOL    HW225464   1.420   2.885   2.527
 8189SOL     OW25465   6.319   5.466   4.025
 8189SOL    HW125466   6.382   5.435   3.954
 8189SOL    HW225467   6.361   5.455   4.114
 8190SOL     OW25468   5.867   3.683   2.794
 8190SOL    HW125469   5.860   3.600   2.850
 8190SOL    HW225470   5.800   3.750   2.824
 8191SOL     OW25471   4.398   5.535   0.877
 8191SOL    HW125472   4.412   5.502   0.784
 8191SOL    HW225473   4.431   5.467   0.942
 8192SOL     OW25474   0.577   6.211   3.316
 8192SOL    HW125475   0.489   6.257   3.320
 8192SOL    HW225476   0.577   6.147   3.239
 8193SOL     OW25477   0.344   4.777   4.049
 8193SOL    HW125478   0.427   4.828   4.071
 8193SOL    HW225479   0.292   4.827   3.980
 8194SOL     OW25480   5.406   0.471   1.625
 8194SOL    HW125481   5.306   0.471   1.616
 8194SOL    HW225482   5.437   0.564   1.647
 8195SOL     OW25483   6.604   6.388   3.573
 8195SOL    HW125484   6.545   6.325   3.623
 8195SOL    HW225485   6.618   6.353   3.480
 8196SOL     OW25486   4.930   0.057   2.353
 8196SOL    HW125487   5.002   0.061   2.422
 8196SOL    HW225488   4.841   0.064   2.398
 8197SOL     OW25489   4.172   1.681   3.418
 8197SOL    HW125490   4.221   1.608   3.370
 8197SOL    HW225491   4.086   1.645   3.454
 8198SOL     OW25492   2.140   5.668   0.507
 8198SOL    HW125493   2.117   5.602   0.579
 8198SOL    HW225494   2.237   5.662   0.485
 8199SOL     OW25495   5.809   2.083   0.413
 8199SOL    HW125496   5.863   2.162   0.441
 8199SOL    HW225497   5.714   2.096   0.440
 8200SOL     OW25498   5.426   4.101   0.692
 8200SOL    HW125499   5.382   4.152   0.619
 8200SOL    HW225500   5.525   4.111   0.685
 8201SOL     OW25501   5.589   0.584   5.318
 8201SOL    HW125502   5.580   0.513   5.248
 8201SOL    HW225503   5.582   0.541   5.408
 8202SOL     OW25504   1.155   5.778   1.808
 8202SOL    HW125505   1.196   5.707   1.865
 8202SOL    HW225506   1.168   5.867   1.851
 8203SOL     OW25507   1.790   3.116   0.602
 8203SOL    HW125508   1.850   3.195   0.588
 8203SOL    HW225509   1.697   3.139   0.571
 8204SOL     OW25510   1.612   3.440   0.618
 8204SOL    HW125511   1.703   3.474   0.594
 8204SOL    HW225512   1.553   3.517   0.642
 8205SOL     OW25513   0.259   3.565   6.183
 8205SOL    HW125514   0.332   3.631   6.168
 8205SOL    HW225515   0.245   3.511   6.100
 8206SOL     OW25516   3.509   0.965   1.433
 8206SOL    HW125517   3.552   1.052   1.455
 8206SOL    HW225518   3.524   0.944   1.337
 8207SOL     OW25519   4.113   3.711   4.133
 8207SOL    HW125520   4.142   3.745   4.222
 8207SOL    HW225521   4.132   3.613   4.126
 8208SOL     OW25522   2.623   0.226   7.009
 8208SOL    HW125523   2.675   0.249   0.076
 8208SOL    HW225524   2.685   0.196   6.937
 8209SOL     OW25525   5.684   2.227   4.231
 8209SOL    HW125526   5.707   2.259   4.323
 8209SOL    HW225527   5.610   2.282   4.193
 8210SOL     OW25528   2.049   2.910   5.913
 8210SOL    HW125529   2.070   3.004   5.887
 8210SOL    HW225530   2.081   2.848   5.841
 8211SOL     OW25531   4.420   4.530   1.188
 8211SOL    HW125532   4.434   4.431   1.191
 8211SOL    HW225533   4.427   4.568   1.280
 8212SOL     OW25534   1.819   2.444   3.108
 8212SOL    HW125535   1.795   2.519   3.170
 8212SOL    HW225536   1.851   2.482   3.021
 8213SOL     OW25537   6.423   4.759   0.607
 8213SOL    HW125538   6.343   4.789   0.659
 8213SOL    HW225539   6.420   4.799   0.515
 8214SOL     OW25540   5.005   3.529   3.061
 8214SOL    HW125541   4.986   3.504   2.967
 8214SOL    HW225542   4.979   3.624   3.077
 8215SOL     OW25543   3.560   5.267   2.154
 8215SOL    HW125544   3.515   5.219   2.079
 8215SOL    HW225545   3.634   5.210   2.190
 8216SOL     OW25546   5.497   3.570   3.461
 8216SOL    HW125547   5.589   3.590   3.428
 8216SOL    HW225548   5.437   3.647   3.438
 8217SOL     OW25549   2.148   5.891   0.328
 8217SOL    HW125550   2.134   5.970   0.387
 8217SOL    HW225551   2.137   5.807   0.382
 8218SOL     OW25552   4.997   1.934   7.001
 8218SOL    HW125553   4.919   1.892   0.031
 8218SOL    HW225554   5.013   2.025   0.025
 8219SOL     OW25555   5.115   2.365   0.301
 8219SOL    HW125556   5.205   2.329   0.278
 8219SOL    HW225557   5.061   2.293   0.346
 8220SOL     OW25558   3.984   3.630   1.597
 8220SOL    HW125559   3.914   3.561   1.580
 8220SOL    HW225560   3.980   3.659   1.693
 8221SOL     OW25561   5.703   4.347   3.282
 8221SOL    HW125562   5.783   4.289   3.298
 8221SOL    HW225563   5.640   4.300   3.220
 8222SOL     OW25564   6.462   0.817   3.217
 8222SOL    HW125565   6.561   0.831   3.211
 8222SOL    HW225566   6.423   0.885   3.279
 8223SOL     OW25567   0.348   5.161   6.846
 8223SOL    HW125568   0.440   5.149   6.810
 8223SOL    HW225569   0.353   5.193   6.940
 8224SOL     OW25570   0.999   3.932   2.440
 8224SOL    HW125571   1.050   3.994   2.501
 8224SOL    HW225572   0.991   3.974   2.350
 8225SOL     OW25573   4.414   1.618   1.214
 8225SOL    HW125574   4.494   1.677   1.223
 8225SOL    HW225575   4.423   1.540   1.276
 8226SOL     OW25576   3.831   0.332   6.837
 8226SOL    HW125577   3.785   0.357   6.751
 8226SOL    HW225578   3.804   0.397   6.909
 8227SOL     OW25579   5.884   4.206   3.437
 8227SOL    HW125580   5.844   4.227   3.527
 8227SOL    HW225581   5.967   4.260   3.425
 8228SOL     OW25582   0.232   1.318   3.754
 8228SOL    HW125583   0.267   1.231   3.788
 8228SOL    HW225584   0.285   1.346   3.673
 8229SOL     OW25585   5.088   5.643   0.484
 8229SOL    HW125586   5.164   5.675   0.540
 8229SOL    HW225587   5.002   5.677   0.523
 8230SOL     OW25588   5.550   6.979   3.466
 8230SOL    HW125589   5.523   0.022   3.543
 8230SOL    HW225590   5.547   0.017   3.381
 8231SOL     OW25591   3.998   5.699   1.258
 8231SOL    HW125592   3.933   5.674   1.330
 8231SOL    HW225593   3.960   5.775   1.205
 8232SOL     OW25594   2.853   1.729   0.186
 8232SOL    HW125595   2.860   1.711   0.284
 8232SOL    HW225596   2.885   1.649   0.135
 8233SOL     OW25597   0.501   5.484   5.982
 8233SOL    HW125598   0.590   5.525   5.963
 8233SOL    HW225599   0.429   5.544   5.948
 8234SOL     OW25600   2.510   3.103   0.011
 8234SOL    HW125601   2.424   3.155   0.011
 8234SOL    HW225602   2.585   3.162   6.997
 8235SOL     OW25603   4.796   2.480   6.355
 8235SOL    HW125604   4.881   2.517   6.319
 8235SOL    HW225605   4.816   2.402   6.414
 8236SOL     OW25606   5.886   2.689   1.475
 8236SOL    HW125607   5.806   2.738   1.439
 8236SOL    HW225608   5.922   2.628   1.405
 8237SOL     OW25609   3.567   6.605   5.509
 8237SOL    HW125610   3.555   6.528   5.572
 8237SOL    HW225611   3.478   6.640   5.482
 8238SOL     OW25612   1.309   0.901   6.547
 8238SOL    HW125613   1.287   0.808   6.520
 8238SOL    HW225614   1.281   0.964   6.475
 8239SOL     OW25615   5.773   1.231   0.232
 8239SOL    HW125616   5.833   1.178   0.173
 8239SOL    HW225617   5.728   1.170   0.297
 8240SOL     OW25618   3.918   3.015   3.227
 8240SOL    HW125619   3.847   3.031   3.296
 8240SOL    HW225620   3.896   2.934   3.173
 8241SOL     OW25621   5.026   6.247   1.517
 8241SOL    HW125622   4.988   6.154   1.515
 8241SOL    HW225623   4.953   6.313   1.504
 8242SOL     OW25624   1.015   4.090   5.477
 8242SOL    HW125625   1.075   4.017   5.445
 8242SOL    HW225626   0.946   4.052   5.539
 8243SOL     OW25627   0.512   3.101   4.970
 8243SOL    HW125628   0.612   3.107   4.973
 8243SOL    HW225629   0.474   3.134   5.056
 8244SOL     OW25630   2.411   5.261   4.881
 8244SOL    HW125631   2.370   5.344   4.920
 8244SOL    HW225632   2.361   5.181   4.914
 8245SOL     OW25633   4.345   3.663   0.812
 8245SOL    HW125634   4.439   3.691   0.793
 8245SOL    HW225635   4.345   3.577   0.863
 8246SOL     OW25636   5.299   3.651   5.182
 8246SOL    HW125637   5.331   3.625   5.273
 8246SOL    HW225638   5.232   3.725   5.191
 8247SOL     OW25639   1.005   6.240   0.153
 8247SOL    HW125640   0.922   6.286   0.120
 8247SOL    HW225641   0.985   6.144   0.171
 8248SOL     OW25642   0.189   4.677   3.126
 8248SOL    HW125643   0.248   4.756   3.144
 8248SOL    HW225644   0.134   4.694   3.044
 8249SOL     OW25645   1.065   5.500   2.986
 8249SOL    HW125646   1.138   5.492   3.054
 8249SOL    HW225647   1.083   5.437   2.910
 8250SOL     OW25648   3.429   3.685   1.928
 8250SOL    HW125649   3.365   3.612   1.952
 8250SOL    HW225650   3.459   3.731   2.012
 8251SOL     OW25651   6.271   1.182   4.798
 8251SOL    HW125652   6.332   1.136   4.732
 8251SOL    HW225653   6.230   1.113   4.858
 8252SOL     OW25654   1.448   3.723   4.283
 8252SOL    HW125655   1.394   3.807   4.288
 8252SOL    HW225656   1.388   3.644   4.289
 8253SOL     OW25657   2.432   3.249   5.705
 8253SOL    HW125658   2.358   3.294   5.654
 8253SOL    HW225659   2.515   3.248   5.649
 8254SOL     OW25660   4.587   5.785   3.283
 8254SOL    HW125661   4.508   5.847   3.286
 8254SOL    HW225662   4.638   5.792   3.368
 8255SOL     OW25663   3.839   4.862   3.743
 8255SOL    HW125664   3.774   4.912   3.801
 8255SOL    HW225665   3.808   4.865   3.648
 8256SOL     OW25666   5.811   2.651   3.778
 8256SOL    HW125667   5.771   2.743   3.783
 8256SOL    HW225668   5.745   2.587   3.740
 8257SOL     OW25669   6.192   4.928   4.202
 8257SOL    HW125670   6.200   4.853   4.268
 8257SOL    HW225671   6.282   4.945   4.160
 8258SOL     OW25672   5.327   2.026   0.062
 8258SOL    HW125673   5.344   2.077   6.993
 8258SOL    HW225674   5.362   1.932   0.052
 8259SOL     OW25675   4.466   1.028   1.045
 8259SOL    HW125676   4.431   0.942   1.009
 8259SOL    HW225677   4.405   1.062   1.116
 8260SOL     OW25678   3.335   5.979   6.972
 8260SOL    HW125679   3.339   5.879   6.979
 8260SOL    HW225680   3.320   6.006   6.877
 8261SOL     OW25681   5.172   1.284   1.713
 8261SOL    HW125682   5.236   1.353   1.679
 8261SOL    HW225683   5.147   1.222   1.639
 8262SOL     OW25684   6.927   2.437   1.252
 8262SOL    HW125685   6.992   2.444   1.328
 8262SOL    HW225686   6.971   2.470   1.168
 8263SOL     OW25687   5.145   1.524   1.013
 8263SOL    HW125688   5.106   1.616   1.021
 8263SOL    HW225689   5.180   1.494   1.102
 8264SOL     OW25690   1.774   4.244   1.689
 8264SOL    HW125691   1.750   4.247   1.786
 8264SOL    HW225692   1.745   4.156   1.651
 8265SOL     OW25693   1.610   0.551   2.571
 8265SOL    HW125694   1.646   0.541   2.479
 8265SOL    HW225695   1.673   0.508   2.637
 8266SOL     OW25696   3.546   0.393   3.046
 8266SOL    HW125697   3.604   0.332   3.099
 8266SOL    HW225698   3.465   0.417   3.099
 8267SOL     OW25699   0.016   3.691   0.551
 8267SOL    HW125700   0.037   3.671   0.455
 8267SOL    HW225701   6.947   3.643   0.577
 8268SOL     OW25702   3.256   5.705   6.993
 8268SOL    HW125703   3.331   5.647   0.009
 8268SOL    HW225704   3.171   5.652   6.997
 8269SOL     OW25705   5.896   2.305   0.573
 8269SOL    HW125706   5.925   2.375   0.508
 8269SOL    HW225707   5.969   2.288   0.639
 8270SOL     OW25708   2.927   6.503   4.103
 8270SOL    HW125709   2.961   6.496   4.009
 8270SOL    HW225710   2.950   6.419   4.152
 8271SOL     OW25711   6.408   2.460   3.152
 8271SOL    HW125712   6.462   2.537   3.186
 8271SOL    HW225713   6.354   2.489   3.073
 8272SOL     OW25714   3.742   1.230   4.286
 8272SOL    HW125715   3.646   1.210   4.308
 8272SOL    HW225716   3.750   1.324   4.253
 8273SOL     OW25717   1.966   6.646   1.910
 8273SOL    HW125718   1.896   6.716   1.928
 8273SOL    HW225719   1.949   6.567   1.968
 8274SOL     OW25720   5.115   4.309   3.583
 8274SOL    HW125721   5.107   4.211   3.599
 8274SOL    HW225722   5.025   4.352   3.592
 8275SOL     OW25723   5.356   2.263   0.230
 8275SOL    HW125724   5.358   2.179   0.174
 8275SOL    HW225725   5.401   2.337   0.181
 8276SOL     OW25726   0.387   2.090   2.966
 8276SOL    HW125727   0.453   2.165   2.965
 8276SOL    HW225728   0.342   2.086   3.055
 8277SOL     OW25729   6.850   1.276   6.852
 8277SOL    HW125730   6.814   1.366   6.878
 8277SOL    HW225731   6.938   1.261   6.898
 8278SOL     OW25732   1.212   2.459   0.723
 8278SOL    HW125733   1.233   2.534   0.659
 8278SOL    HW225734   1.267   2.379   0.700
 8279SOL     OW25735   0.458   6.381   3.722
 8279SOL    HW125736   0.440   6.417   3.814
 8279SOL    HW225737   0.512   6.447   3.670
 8280SOL     OW25738   3.401   2.249   5.850
 8280SOL    HW125739   3.406   2.150   5.841
 8280SOL    HW225740   3.307   2.280   5.834
 8281SOL     OW25741   4.777   5.405   2.610
 8281SOL    HW125742   4.682   5.437   2.616
 8281SOL    HW225743   4.838   5.474   2.646
 8282SOL     OW25744   5.577   2.944   6.178
 8282SOL    HW125745   5.486   2.902   6.183
 8282SOL    HW225746   5.628   2.924   6.262
 8283SOL     OW25747   1.814   2.513   5.842
 8283SOL    HW125748   1.760   2.485   5.921
 8283SOL    HW225749   1.802   2.611   5.826
 8284SOL     OW25750   6.471   4.341   1.776
 8284SOL    HW125751   6.539   4.327   1.849
 8284SOL    HW225752   6.396   4.397   1.811
 8285SOL     OW25753   4.055   3.169   3.831
 8285SOL    HW125754   3.981   3.224   3.870
 8285SOL    HW225755   4.097   3.113   3.903
 8286SOL     OW25756   0.270   2.020   6.393
 8286SOL    HW125757   0.282   2.119   6.389
 8286SOL    HW225758   0.358   1.974   6.381
 8287SOL     OW25759   1.520   6.369   4.350
 8287SOL    HW125760   1.589   6.323   4.295
 8287SOL    HW225761   1.429   6.341   4.320
 8288SOL     OW25762   3.201   1.784   3.318
 8288SOL    HW125763   3.283   1.754   3.268
 8288SOL    HW225764   3.129   1.715   3.310
 8289SOL     OW25765   0.110   5.736   6.690
 8289SOL    HW125766   0.089   5.779   6.602
 8289SOL    HW225767   0.202   5.697   6.686
 8290SOL     OW25768   6.338   2.102   0.858
 8290SOL    HW125769   6.415   2.165   0.846
 8290SOL    HW225770   6.276   2.138   0.928
 8291SOL     OW25771   3.906   0.516   0.564
 8291SOL    HW125772   3.981   0.456   0.592
 8291SOL    HW225773   3.884   0.579   0.639
 8292SOL     OW25774   3.016   0.549   6.489
 8292SOL    HW125775   3.070   0.607   6.428
 8292SOL    HW225776   3.013   0.456   6.452
 8293SOL     OW25777   6.030   5.236   4.870
 8293SOL    HW125778   5.997   5.163   4.929
 8293SOL    HW225779   6.007   5.216   4.775
 8294SOL     OW25780   6.252   3.291   0.007
 8294SOL    HW125781   6.290   3.306   6.931
 8294SOL    HW225782   6.251   3.193   0.027
 8295SOL     OW25783   4.776   3.538   6.734
 8295SOL    HW125784   4.792   3.637   6.742
 8295SOL    HW225785   4.755   3.516   6.639
 8296SOL     OW25786   1.282   4.864   6.070
 8296SOL    HW125787   1.241   4.909   5.991
 8296SOL    HW225788   1.323   4.933   6.130
 8297SOL     OW25789   1.358   2.857   3.845
 8297SOL    HW125790   1.414   2.782   3.810
 8297SOL    HW225791   1.266   2.824   3.866
 8298SOL     OW25792   4.855   1.606   1.906
 8298SOL    HW125793   4.919   1.660   1.850
 8298SOL    HW225794   4.872   1.508   1.890
 8299SOL     OW25795   6.227   2.188   1.359
 8299SOL    HW125796   6.281   2.204   1.276
 8299SOL    HW225797   6.219   2.274   1.410
 8300SOL     OW25798   0.882   5.212   3.185
 8300SOL    HW125799   0.811   5.239   3.120
 8300SOL    HW225800   0.849   5.136   3.240
 8301SOL     OW25801   2.673   2.316   6.775
 8301SOL    HW125802   2.714   2.225   6.774
 8301SOL    HW225803   2.634   2.337   6.686
 8302SOL     OW25804   5.974   5.826   5.553
 8302SOL    HW125805   5.990   5.797   5.647
 8302SOL    HW225806   5.947   5.747   5.498
 8303SOL     OW25807   0.196   0.370   6.353
 8303SOL    HW125808   0.160   0.305   6.419
 8303SOL    HW225809   0.174   0.340   6.260
 8304SOL     OW25810   0.295   3.294   0.552
 8304SOL    HW125811   0.294   3.254   0.461
 8304SOL    HW225812   0.275   3.223   0.620
 8305SOL     OW25813   3.844   5.149   3.224
 8305SOL    HW125814   3.889   5.219   3.169
 8305SOL    HW225815   3.747   5.143   3.198
 8306SOL     OW25816   1.448   3.001   4.284
 8306SOL    HW125817   1.392   3.083   4.293
 8306SOL    HW225818   1.533   3.023   4.237
 8307SOL     OW25819   3.977   5.624   0.756
 8307SOL    HW125820   3.920   5.572   0.692
 8307SOL    HW225821   4.025   5.560   0.816
 8308SOL     OW25822   3.392   0.258   2.748
 8308SOL    HW125823   3.367   0.350   2.781
 8308SOL    HW225824   3.480   0.262   2.701
 8309SOL     OW25825   5.582   6.743   2.228
 8309SOL    HW125826   5.609   6.838   2.243
 8309SOL    HW225827   5.483   6.735   2.233
 8310SOL     OW25828   6.177   4.493   6.971
 8310SOL    HW125829   6.182   4.580   6.922
 8310SOL    HW225830   6.179   4.510   0.055
 8311SOL     OW25831   6.542   0.352   6.631
 8311SOL    HW125832   6.513   0.413   6.705
 8311SOL    HW225833   6.491   0.266   6.638
 8312SOL     OW25834   5.303   6.442   1.425
 8312SOL    HW125835   5.224   6.444   1.487
 8312SOL    HW225836   5.330   6.348   1.408
 8313SOL     OW25837   3.971   1.279   2.491
 8313SOL    HW125838   4.010   1.258   2.581
 8313SOL    HW225839   3.893   1.218   2.474
 8314SOL     OW25840   0.314   6.306   3.298
 8314SOL    HW125841   0.250   6.266   3.364
 8314SOL    HW225842   0.269   6.381   3.249
 8315SOL     OW25843   4.855   4.789   6.431
 8315SOL    HW125844   4.899   4.822   6.348
 8315SOL    HW225845   4.862   4.859   6.503
 8316SOL     OW25846   3.165   5.887   6.507
 8316SOL    HW125847   3.115   5.972   6.488
 8316SOL    HW225848   3.165   5.869   6.605
 8317SOL     OW25849   2.185   4.103   1.852
 8317SOL    HW125850   2.165   4.011   1.885
 8317SOL    HW225851   2.259   4.099   1.784
 8318SOL     OW25852   3.648   1.205   5.998
 8318SOL    HW125853   3.673   1.277   6.063
 8318SOL    HW225854   3.664   1.116   6.040
 8319SOL     OW25855   3.613   0.707   5.152
 8319SOL    HW125856   3.589   0.785   5.209
 8319SOL    HW225857   3.640   0.630   5.209
 8320SOL     OW25858   4.446   4.867   1.353
 8320SOL    HW125859   4.530   4.895   1.398
 8320SOL    HW225860   4.373   4.858   1.421
 8321SOL     OW25861   6.793   1.072   1.158
 8321SOL    HW125862   6.782   1.021   1.243
 8321SOL    HW225863   6.882   1.050   1.118
 8322SOL     OW25864   6.000   6.909   6.811
 8322SOL    HW125865   5.987   7.004   6.840
 8322SOL    HW225866   5.956   6.894   6.722
 8323SOL     OW25867   1.595   0.963   1.614
 8323SOL    HW125868   1.622   1.017   1.694
 8323SOL    HW225869   1.565   0.872   1.644
 8324SOL     OW25870   6.876   1.070   2.599
 8324SOL    HW125871   6.783   1.107   2.602
 8324SOL    HW225872   6.904   1.043   2.692
 8325SOL     OW25873   3.617   4.160   4.564
 8325SOL    HW125874   3.685   4.150   4.637
 8325SOL    HW225875   3.580   4.253   4.566
 8326SOL     OW25876   4.088   2.894   6.550
 8326SOL    HW125877   4.164   2.834   6.576
 8326SOL    HW225878   4.117   2.955   6.476
 8327SOL     OW25879   5.442   2.362   6.457
 8327SOL    HW125880   5.362   2.306   6.478
 8327SOL    HW225881   5.504   2.311   6.398
 8328SOL     OW25882   2.477   2.605   4.082
 8328SOL    HW125883   2.550   2.537   4.083
 8328SOL    HW225884   2.409   2.579   4.014
 8329SOL     OW25885   0.654   2.065   4.468
 8329SOL    HW125886   0.692   2.154   4.493
 8329SOL    HW225887   0.677   2.044   4.373
 8330SOL     OW25888   2.331   6.843   0.808
 8330SOL    HW125889   2.245   6.835   0.859
 8330SOL    HW225890   2.403   6.872   0.870
 8331SOL     OW25891   3.103   6.744   1.115
 8331SOL    HW125892   3.151   6.681   1.053
 8331SOL    HW225893   3.037   6.798   1.063
 8332SOL     OW25894   5.105   5.914   3.569
 8332SOL    HW125895   5.157   5.999   3.568
 8332SOL    HW225896   5.097   5.879   3.476
 8333SOL     OW25897   1.492   4.964   5.725
 8333SOL    HW125898   1.413   4.910   5.696
 8333SOL    HW225899   1.461   5.048   5.769
 8334SOL     OW25900   6.458   6.961   4.216
 8334SOL    HW125901   6.415   0.006   4.283
 8334SOL    HW225902   6.511   0.001   4.151
 8335SOL     OW25903   6.467   6.338   5.590
 8335SOL    HW125904   6.405   6.361   5.514
 8335SOL    HW225905   6.422   6.356   5.677
 8336SOL     OW25906   0.869   1.979   2.665
 8336SOL    HW125907   0.857   1.991   2.567
 8336SOL    HW225908   0.911   2.061   2.705
 8337SOL     OW25909   0.232   6.238   1.907
 8337SOL    HW125910   0.133   6.223   1.900
 8337SOL    HW225911   0.249   6.318   1.965
 8338SOL     OW25912   1.834   4.458   0.834
 8338SOL    HW125913   1.811   4.555   0.846
 8338SOL    HW225914   1.890   4.427   0.910
 8339SOL     OW25915   5.981   0.653   3.077
 8339SOL    HW125916   5.891   0.656   3.120
 8339SOL    HW225917   5.982   0.585   3.004
 8340SOL     OW25918   4.652   3.464   1.325
 8340SOL    HW125919   4.607   3.436   1.409
 8340SOL    HW225920   4.680   3.560   1.332
 8341SOL     OW25921   2.546   6.985   0.906
 8341SOL    HW125922   2.528   0.066   0.927
 8341SOL    HW225923   2.644   6.972   0.894
 8342SOL     OW25924   5.025   6.896   1.102
 8342SOL    HW125925   4.946   6.934   1.152
 8342SOL    HW225926   5.022   6.926   1.007
 8343SOL     OW25927   0.791   5.435   5.617
 8343SOL    HW125928   0.857   5.484   5.674
 8343SOL    HW225929   0.808   5.457   5.521
 8344SOL     OW25930   3.830   0.157   5.218
 8344SOL    HW125931   3.757   0.092   5.241
 8344SOL    HW225932   3.909   0.140   5.277
 8345SOL     OW25933   6.002   1.311   3.191
 8345SOL    HW125934   5.907   1.300   3.164
 8345SOL    HW225935   6.061   1.259   3.129
 8346SOL     OW25936   3.522   5.521   1.520
 8346SOL    HW125937   3.536   5.480   1.610
 8346SOL    HW225938   3.523   5.621   1.529
 8347SOL     OW25939   3.384   5.237   4.032
 8347SOL    HW125940   3.385   5.148   4.076
 8347SOL    HW225941   3.393   5.225   3.933
 8348SOL     OW25942   1.863   0.680   0.683
 8348SOL    HW125943   1.886   0.777   0.691
 8348SOL    HW225944   1.815   0.650   0.765
 8349SOL     OW25945   5.977   5.604   1.437
 8349SOL    HW125946   5.957   5.506   1.443
 8349SOL    HW225947   6.076   5.618   1.439
 8350SOL     OW25948   6.664   0.134   4.917
 8350SOL    HW125949   6.756   0.167   4.895
 8350SOL    HW225950   6.631   0.077   4.841
 8351SOL     OW25951   2.912   6.473   1.994
 8351SOL    HW125952   2.840   6.422   1.947
 8351SOL    HW225953   2.916   6.566   1.958
 8352SOL     OW25954   6.323   5.965   1.814
 8352SOL    HW125955   6.389   5.997   1.747
 8352SOL    HW225956   6.253   6.035   1.829
 8353SOL     OW25957   1.015   3.776   2.099
 8353SOL    HW125958   0.939   3.789   2.035
 8353SOL    HW225959   0.990   3.707   2.166
 8354SOL     OW25960   2.742   0.251   0.529
 8354SOL    HW125961   2.672   0.183   0.549
 8354SOL    HW225962   2.747   0.265   0.430
 8355SOL     OW25963   3.456   1.139   0.530
 8355SOL    HW125964   3.439   1.187   0.616
 8355SOL    HW225965   3.369   1.121   0.483
 8356SOL     OW25966   2.650   5.343   0.642
 8356SOL    HW125967   2.683   5.412   0.707
 8356SOL    HW225968   2.692   5.359   0.553
 8357SOL     OW25969   4.690   6.185   3.410
 8357SOL    HW125970   4.756   6.259   3.397
 8357SOL    HW225971   4.736   6.107   3.453
 8358SOL     OW25972   2.881   2.275   5.183
 8358SOL    HW125973   2.829   2.260   5.100
 8358SOL    HW225974   2.976   2.296   5.160
 8359SOL     OW25975   4.056   4.807   3.908
 8359SOL    HW125976   4.111   4.796   3.825
 8359SOL    HW225977   3.959   4.811   3.883
 8360SOL     OW25978   4.428   0.528   2.880
 8360SOL    HW125979   4.457   0.529   2.976
 8360SOL    HW225980   4.420   0.433   2.849
 8361SOL     OW25981   1.604   0.265   2.764
 8361SOL    HW125982   1.638   0.194   2.702
 8361SOL    HW225983   1.515   0.238   2.800
 8362SOL     OW25984   2.142   3.185   0.368
 8362SOL    HW125985   2.131   3.092   0.332
 8362SOL    HW225986   2.235   3.196   0.404
 8363SOL     OW25987   0.327   3.611   1.125
 8363SOL    HW125988   0.321   3.575   1.032
 8363SOL    HW225989   0.278   3.550   1.188
 8364SOL     OW25990   6.689   4.555   4.986
 8364SOL    HW125991   6.673   4.498   4.906
 8364SOL    HW225992   6.698   4.650   4.958
 8365SOL     OW25993   0.923   3.794   6.065
 8365SOL    HW125994   0.976   3.810   5.982
 8365SOL    HW225995   0.983   3.768   6.140
 8366SOL     OW25996   2.546   6.940   2.901
 8366SOL    HW125997   2.528   6.868   2.968
 8366SOL    HW225998   2.641   6.935   2.870
 8367SOL     OW25999   4.760   5.736   3.885
 8367SOL    HW126000   4.723   5.782   3.966
 8367SOL    HW226001   4.779   5.640   3.906
 8368SOL     OW26002   3.247   5.842   6.120
 8368SOL    HW126003   3.331   5.818   6.169
 8368SOL    HW226004   3.249   5.939   6.096
 8369SOL     OW26005   2.782   1.291   1.486
 8369SOL    HW126006   2.735   1.367   1.443
 8369SOL    HW226007   2.856   1.259   1.426
 8370SOL     OW26008   1.659   1.731   0.478
 8370SOL    HW126009   1.681   1.635   0.463
 8370SOL    HW226010   1.683   1.784   0.397
 8371SOL     OW26011   1.968   2.498   0.002
 8371SOL    HW126012   2.064   2.524   7.010
 8371SOL    HW226013   1.959   2.399   7.009
 8372SOL     OW26014   6.603   0.442   1.178
 8372SOL    HW126015   6.516   0.393   1.173
 8372SOL    HW226016   6.619   0.490   1.091
 8373SOL     OW26017   1.538   6.371   4.636
 8373SOL    HW126018   1.568   6.383   4.541
 8373SOL    HW226019   1.553   6.276   4.664
 8374SOL     OW26020   6.664   0.430   5.738
 8374SOL    HW126021   6.750   0.381   5.725
 8374SOL    HW226022   6.594   0.391   5.678
 8375SOL     OW26023   4.272   0.680   5.951
 8375SOL    HW126024   4.352   0.740   5.954
 8375SOL    HW226025   4.272   0.622   6.032
 8376SOL     OW26026   4.520   0.428   4.441
 8376SOL    HW126027   4.571   0.380   4.512
 8376SOL    HW226028   4.583   0.461   4.370
 8377SOL     OW26029   5.397   5.018   1.183
 8377SOL    HW126030   5.494   4.993   1.182
 8377SOL    HW226031   5.378   5.083   1.109
 8378SOL     OW26032   5.194   3.301   3.819
 8378SOL    HW126033   5.249   3.333   3.741
 8378SOL    HW226034   5.215   3.204   3.836
 8379SOL     OW26035   5.045   2.640   2.124
 8379SOL    HW126036   5.095   2.701   2.063
 8379SOL    HW226037   5.086   2.549   2.121
 8380SOL     OW26038   5.714   1.650   3.713
 8380SOL    HW126039   5.700   1.640   3.614
 8380SOL    HW226040   5.725   1.747   3.735
 8381SOL     OW26041   2.077   5.324   4.139
 8381SOL    HW126042   2.033   5.411   4.117
 8381SOL    HW226043   2.060   5.258   4.066
 8382SOL     OW26044   0.958   4.499   2.507
 8382SOL    HW126045   0.929   4.437   2.434
 8382SOL    HW226046   1.025   4.564   2.471
 8383SOL     OW26047   3.224   1.239   5.527
 8383SOL    HW126048   3.177   1.324   5.551
 8383SOL    HW226049   3.319   1.259   5.501
 8384SOL     OW26050   0.922   6.702   1.809
 8384SOL    HW126051   0.940   6.720   1.906
 8384SOL    HW226052   0.965   6.615   1.783
 8385SOL     OW26053   4.765   2.064   1.037
 8385SOL    HW126054   4.700   2.109   0.975
 8385SOL    HW226055   4.716   1.997   1.093
 8386SOL     OW26056   0.719   4.045   2.453
 8386SOL    HW126057   0.748   3.952   2.476
 8386SOL    HW226058   0.728   4.058   2.354
 8387SOL     OW26059   0.945   2.082   1.290
 8387SOL    HW126060   0.983   2.159   1.341
 8387SOL    HW226061   0.933   2.109   1.194
 8388SOL     OW26062   0.947   0.067   2.903
 8388SOL    HW126063   0.856   0.109   2.909
 8388SOL    HW226064   0.981   0.048   2.995
 8389SOL     OW26065   6.091   2.845   3.657
 8389SOL    HW126066   6.169   2.790   3.687
 8389SOL    HW226067   6.029   2.788   3.604
 8390SOL     OW26068   6.093   1.568   6.328
 8390SOL    HW126069   6.163   1.498   6.316
 8390SOL    HW226070   6.008   1.525   6.358
 8391SOL     OW26071   6.688   6.931   0.953
 8391SOL    HW126072   6.716   0.011   0.963
 8391SOL    HW226073   6.609   6.913   1.012
 8392SOL     OW26074   3.622   3.199   5.432
 8392SOL    HW126075   3.712   3.184   5.473
 8392SOL    HW226076   3.562   3.122   5.453
 8393SOL     OW26077   5.433   0.102   1.233
 8393SOL    HW126078   5.398   0.194   1.251
 8393SOL    HW226079   5.477   0.100   1.143
 8394SOL     OW26080   5.798   2.390   2.097
 8394SOL    HW126081   5.758   2.306   2.133
 8394SOL    HW226082   5.832   2.446   2.172
 8395SOL     OW26083   2.409   1.344   5.461
 8395SOL    HW126084   2.488   1.377   5.513
 8395SOL    HW226085   2.395   1.401   5.380
 8396SOL     OW26086   5.193   5.502   4.641
 8396SOL    HW126087   5.174   5.569   4.569
 8396SOL    HW226088   5.266   5.440   4.611
 8397SOL     OW26089   6.885   7.013   2.735
 8397SOL    HW126090   6.867   0.017   2.832
 8397SOL    HW226091   6.812   6.957   2.698
 8398SOL     OW26092   5.935   1.932   6.204
 8398SOL    HW126093   5.850   1.910   6.156
 8398SOL    HW226094   5.925   2.020   6.250
 8399SOL     OW26095   0.160   4.635   1.751
 8399SOL    HW126096   0.234   4.591   1.802
 8399SOL    HW226097   0.129   4.575   1.678
 8400SOL     OW26098   1.309   1.394   4.798
 8400SOL    HW126099   1.393   1.406   4.851
 8400SOL    HW226100   1.324   1.326   4.726
 8401SOL     OW26101   2.035   0.538   5.509
 8401SOL    HW126102   1.950   0.496   5.477
 8401SOL    HW226103   2.077   0.480   5.578
 8402SOL     OW26104   3.571   0.823   6.601
 8402SOL    HW126105   3.524   0.855   6.683
 8402SOL    HW226106   3.665   0.798   6.624
 8403SOL     OW26107   5.551   4.617   4.959
 8403SOL    HW126108   5.548   4.588   4.863
 8403SOL    HW226109   5.487   4.692   4.973
 8404SOL     OW26110   1.166   1.531   6.837
 8404SOL    HW126111   1.080   1.544   6.789
 8404SOL    HW226112   1.226   1.473   6.782
 8405SOL     OW26113   3.917   6.887   5.395
 8405SOL    HW126114   3.830   6.936   5.384
 8405SOL    HW226115   3.958   6.872   5.305
 8406SOL     OW26116   5.795   0.017   6.077
 8406SOL    HW126117   5.728   6.958   6.084
 8406SOL    HW226118   5.753   0.097   6.035
 8407SOL     OW26119   4.171   0.366   4.431
 8407SOL    HW126120   4.079   0.333   4.406
 8407SOL    HW226121   4.163   0.447   4.488
 8408SOL     OW26122   3.750   1.771   1.207
 8408SOL    HW126123   3.710   1.773   1.298
 8408SOL    HW226124   3.681   1.740   1.141
 8409SOL     OW26125   4.163   2.197   2.285
 8409SOL    HW126126   4.238   2.131   2.296
 8409SOL    HW226127   4.103   2.167   2.211
 8410SOL     OW26128   0.136   1.603   1.924
 8410SOL    HW126129   0.205   1.665   1.963
 8410SOL    HW226130   0.134   1.614   1.825
 8411SOL     OW26131   1.179   6.337   1.041
 8411SOL    HW126132   1.263   6.284   1.029
 8411SOL    HW226133   1.157   6.343   1.138
 8412SOL     OW26134   2.691   2.586   6.883
 8412SOL    HW126135   2.734   2.609   6.971
 8412SOL    HW226136   2.667   2.489   6.882
 8413SOL     OW26137   3.721   5.549   4.663
 8413SOL    HW126138   3.676   5.499   4.736
 8413SOL    HW226139   3.720   5.647   4.683
 8414SOL     OW26140   1.622   0.175   0.948
 8414SOL    HW126141   1.582   0.262   0.919
 8414SOL    HW226142   1.715   0.191   0.982
 8415SOL     OW26143   3.367   1.741   6.062
 8415SOL    HW126144   3.305   1.708   5.991
 8415SOL    HW226145   3.403   1.664   6.114
 8416SOL     OW26146   0.639   2.167   5.082
 8416SOL    HW126147   0.680   2.093   5.136
 8416SOL    HW226148   0.562   2.206   5.132
 8417SOL     OW26149   1.707   3.577   5.986
 8417SOL    HW126150   1.795   3.541   6.017
 8417SOL    HW226151   1.674   3.523   5.909
 8418SOL     OW26152   0.425   6.014   1.975
 8418SOL    HW126153   0.436   6.011   2.075
 8418SOL    HW226154   0.360   6.087   1.952
 8419SOL     OW26155   3.730   1.953   4.609
 8419SOL    HW126156   3.770   1.863   4.594
 8419SOL    HW226157   3.736   2.007   4.525
 8420SOL     OW26158   3.867   0.937   1.853
 8420SOL    HW126159   3.919   0.934   1.939
 8420SOL    HW226160   3.913   0.998   1.789
 8421SOL     OW26161   4.747   6.666   6.671
 8421SOL    HW126162   4.671   6.730   6.666
 8421SOL    HW226163   4.744   6.605   6.592
 8422SOL     OW26164   5.509   2.748   4.129
 8422SOL    HW126165   5.496   2.729   4.032
 8422SOL    HW226166   5.426   2.724   4.179
 8423SOL     OW26167   6.481   5.623   0.228
 8423SOL    HW126168   6.547   5.578   0.289
 8423SOL    HW226169   6.432   5.694   0.279
 8424SOL     OW26170   3.415   0.613   5.001
 8424SOL    HW126171   3.484   0.658   5.057
 8424SOL    HW226172   3.456   0.579   4.917
 8425SOL     OW26173   3.979   3.701   2.304
 8425SOL    HW126174   4.050   3.647   2.258
 8425SOL    HW226175   3.900   3.643   2.323
 8426SOL     OW26176   3.532   3.138   1.934
 8426SOL    HW126177   3.451   3.081   1.926
 8426SOL    HW226178   3.530   3.209   1.864
 8427SOL     OW26179   4.062   3.390   3.078
 8427SOL    HW126180   4.064   3.362   3.174
 8427SOL    HW226181   3.994   3.336   3.029
 8428SOL     OW26182   5.880   0.225   2.505
 8428SOL    HW126183   5.895   0.321   2.529
 8428SOL    HW226184   5.852   0.174   2.586
 8429SOL     OW26185   2.807   5.894   5.436
 8429SOL    HW126186   2.890   5.861   5.389
 8429SOL    HW226187   2.741   5.820   5.442
 8430SOL     OW26188   4.967   6.851   5.235
 8430SOL    HW126189   4.895   6.879   5.171
 8430SOL    HW226190   4.996   6.758   5.214
 8431SOL     OW26191   1.781   3.295   5.903
 8431SOL    HW126192   1.850   3.357   5.941
 8431SOL    HW226193   1.742   3.335   5.820
 8432SOL     OW26194   6.384   5.171   5.986
 8432SOL    HW126195   6.374   5.078   6.021
 8432SOL    HW226196   6.453   5.172   5.914
 8433SOL     OW26197   5.293   2.283   1.211
 8433SOL    HW126198   5.265   2.220   1.138
 8433SOL    HW226199   5.391   2.298   1.205
 8434SOL     OW26200   2.594   6.329   4.805
 8434SOL    HW126201   2.574   6.300   4.711
 8434SOL    HW226202   2.527   6.287   4.867
 8435SOL     OW26203   5.729   1.671   3.342
 8435SOL    HW126204   5.668   1.694   3.266
 8435SOL    HW226205   5.714   1.576   3.370
 8436SOL     OW26206   2.150   5.797   2.348
 8436SOL    HW126207   2.064   5.780   2.300
 8436SOL    HW226208   2.222   5.739   2.309
 8437SOL     OW26209   1.150   5.760   1.020
 8437SOL    HW126210   1.077   5.782   0.955
 8437SOL    HW226211   1.231   5.729   0.970
 8438SOL     OW26212   1.034   4.078   1.695
 8438SOL    HW126213   1.077   4.166   1.678
 8438SOL    HW226214   0.976   4.084   1.776
 8439SOL     OW26215   6.288   4.613   2.783
 8439SOL    HW126216   6.387   4.601   2.778
 8439SOL    HW226217   6.248   4.603   2.691
 8440SOL     OW26218   1.822   1.964   2.608
 8440SOL    HW126219   1.814   2.040   2.672
 8440SOL    HW226220   1.919   1.941   2.597
 8441SOL     OW26221   6.899   2.355   5.841
 8441SOL    HW126222   6.814   2.373   5.791
 8441SOL    HW226223   6.933   2.441   5.879
 8442SOL     OW26224   3.739   2.199   6.739
 8442SOL    HW126225   3.652   2.235   6.772
 8442SOL    HW226226   3.788   2.270   6.688
 8443SOL     OW26227   2.011   4.439   2.677
 8443SOL    HW126228   1.969   4.351   2.652
 8443SOL    HW226229   2.109   4.435   2.659
 8444SOL     OW26230   5.477   5.293   4.924
 8444SOL    HW126231   5.576   5.297   4.919
 8444SOL    HW226232   5.448   5.289   5.020
 8445SOL     OW26233   4.626   6.607   6.930
 8445SOL    HW126234   4.620   6.706   6.939
 8445SOL    HW226235   4.680   6.584   6.849
 8446SOL     OW26236   0.122   5.571   5.059
 8446SOL    HW126237   0.132   5.659   5.011
 8446SOL    HW226238   0.055   5.514   5.012
 8447SOL     OW26239   3.861   1.115   3.943
 8447SOL    HW126240   3.941   1.173   3.922
 8447SOL    HW226241   3.837   1.126   4.039
 8448SOL     OW26242   3.568   5.853   2.971
 8448SOL    HW126243   3.504   5.901   2.910
 8448SOL    HW226244   3.645   5.818   2.917
 8449SOL     OW26245   1.500   2.048   3.925
 8449SOL    HW126246   1.405   2.026   3.901
 8449SOL    HW226247   1.508   2.056   4.024
 8450SOL     OW26248   6.733   0.680   0.330
 8450SOL    HW126249   6.735   0.780   0.335
 8450SOL    HW226250   6.717   0.653   0.235
 8451SOL     OW26251   4.032   2.493   1.230
 8451SOL    HW126252   4.057   2.492   1.326
 8451SOL    HW226253   3.968   2.418   1.211
 8452SOL     OW26254   5.316   1.677   6.007
 8452SOL    HW126255   5.411   1.675   6.037
 8452SOL    HW226256   5.299   1.601   5.944
 8453SOL     OW26257   6.674   0.585   6.826
 8453SOL    HW126258   6.749   0.519   6.835
 8453SOL    HW226259   6.611   0.575   6.902
 8454SOL     OW26260   6.256   5.119   6.708
 8454SOL    HW126261   6.334   5.150   6.654
 8454SOL    HW226262   6.220   5.195   6.761
 8455SOL     OW26263   6.499   0.951   2.783
 8455SOL    HW126264   6.463   0.878   2.725
 8455SOL    HW226265   6.599   0.951   2.779
 8456SOL     OW26266   0.059   0.586   2.395
 8456SOL    HW126267   0.037   0.510   2.334
 8456SOL    HW226268   0.095   0.663   2.342
 8457SOL     OW26269   6.955   0.134   5.069
 8457SOL    HW126270   6.940   0.173   5.160
 8457SOL    HW226271   0.038   0.120   5.055
 8458SOL     OW26272   1.113   6.943   6.930
 8458SOL    HW126273   1.134   6.897   0.001
 8458SOL    HW226274   1.197   6.982   6.892
 8459SOL     OW26275   1.157   6.056   2.888
 8459SOL    HW126276   1.236   6.117   2.881
 8459SOL    HW226277   1.182   5.974   2.940
 8460SOL     OW26278   4.113   3.618   2.928
 8460SOL    HW126279   4.187   3.589   2.866
 8460SOL    HW226280   4.086   3.541   2.986
 8461SOL     OW26281   6.101   3.376   3.563
 8461SOL    HW126282   6.136   3.284   3.578
 8461SOL    HW226283   6.058   3.409   3.646
 8462SOL     OW26284   2.695   2.465   1.793
 8462SOL    HW126285   2.738   2.451   1.704
 8462SOL    HW226286   2.765   2.463   1.865
 8463SOL     OW26287   5.926   0.623   2.070
 8463SOL    HW126288   5.856   0.557   2.040
 8463SOL    HW226289   5.969   0.664   1.990
 8464SOL     OW26290   6.603   1.378   4.626
 8464SOL    HW126291   6.516   1.408   4.665
 8464SOL    HW226292   6.674   1.382   4.696
 8465SOL     OW26293   1.331   1.980   0.504
 8465SOL    HW126294   1.337   2.042   0.425
 8465SOL    HW226295   1.340   1.886   0.473
 8466SOL     OW26296   0.642   6.940   4.180
 8466SOL    HW126297   0.585   6.868   4.219
 8466SOL    HW226298   0.731   6.940   4.224
 8467SOL     OW26299   4.085   5.333   0.721
 8467SOL    HW126300   4.111   5.241   0.750
 8467SOL    HW226301   3.985   5.337   0.709
 8468SOL     OW26302   3.539   2.537   6.837
 8468SOL    HW126303   3.464   2.573   6.781
 8468SOL    HW226304   3.626   2.569   6.800
 8469SOL     OW26305   4.047   2.465   5.672
 8469SOL    HW126306   3.948   2.460   5.690
 8469SOL    HW226307   4.096   2.483   5.757
 8470SOL     OW26308   1.642   3.018   6.918
 8470SOL    HW126309   1.605   3.109   6.938
 8470SOL    HW226310   1.732   3.008   6.960
 8471SOL     OW26311   4.088   1.837   3.929
 8471SOL    HW126312   4.127   1.769   3.990
 8471SOL    HW226313   3.993   1.855   3.954
 8472SOL     OW26314   1.249   6.718   2.865
 8472SOL    HW126315   1.281   6.728   2.959
 8472SOL    HW226316   1.325   6.690   2.807
 8473SOL     OW26317   6.414   5.597   6.535
 8473SOL    HW126318   6.354   5.552   6.601
 8473SOL    HW226319   6.445   5.530   6.467
 8474SOL     OW26320   4.156   5.176   0.441
 8474SOL    HW126321   4.239   5.123   0.457
 8474SOL    HW226322   4.079   5.132   0.488
 8475SOL     OW26323   4.538   2.103   3.187
 8475SOL    HW126324   4.626   2.067   3.217
 8475SOL    HW226325   4.552   2.169   3.114
 8476SOL     OW26326   4.466   0.600   2.443
 8476SOL    HW126327   4.489   0.503   2.452
 8476SOL    HW226328   4.502   0.651   2.521
 8477SOL     OW26329   2.890   0.241   3.080
 8477SOL    HW126330   2.936   0.219   2.994
 8477SOL    HW226331   2.930   0.324   3.119
 8478SOL     OW26332   1.611   0.554   5.864
 8478SOL    HW126333   1.582   0.579   5.957
 8478SOL    HW226334   1.708   0.530   5.865
 8479SOL     OW26335   5.095   0.894   2.648
 8479SOL    HW126336   5.047   0.886   2.561
 8479SOL    HW226337   5.115   0.802   2.684
 8480SOL     OW26338   2.002   1.322   1.361
 8480SOL    HW126339   1.989   1.228   1.390
 8480SOL    HW226340   2.079   1.362   1.411
 8481SOL     OW26341   4.381   0.113   5.873
 8481SOL    HW126342   4.326   0.072   5.801
 8481SOL    HW226343   4.456   0.165   5.831
 8482SOL     OW26344   0.309   0.539   1.525
 8482SOL    HW126345   0.390   0.594   1.504
 8482SOL    HW226346   0.338   0.450   1.562
 8483SOL     OW26347   5.574   6.688   1.747
 8483SOL    HW126348   5.597   6.777   1.788
 8483SOL    HW226349   5.495   6.649   1.795
 8484SOL     OW26350   6.829   4.534   5.255
 8484SOL    HW126351   6.836   4.561   5.159
 8484SOL    HW226352   6.850   4.437   5.264
 8485SOL     OW26353   1.970   3.466   6.000
 8485SOL    HW126354   1.970   3.456   6.099
 8485SOL    HW226355   2.047   3.523   5.972
 8486SOL     OW26356   4.169   0.637   2.949
 8486SOL    HW126357   4.137   0.679   2.864
 8486SOL    HW226358   4.266   0.616   2.940
 8487SOL     OW26359   4.365   0.818   0.919
 8487SOL    HW126360   4.407   0.795   0.831
 8487SOL    HW226361   4.268   0.838   0.905
 8488SOL     OW26362   5.866   3.775   4.958
 8488SOL    HW126363   5.842   3.788   4.863
 8488SOL    HW226364   5.848   3.858   5.010
 8489SOL     OW26365   3.523   6.292   2.738
 8489SOL    HW126366   3.424   6.304   2.746
 8489SOL    HW226367   3.569   6.379   2.754
 8490SOL     OW26368   3.832   5.134   2.606
 8490SOL    HW126369   3.732   5.138   2.603
 8490SOL    HW226370   3.863   5.161   2.698
 8491SOL     OW26371   1.101   1.145   1.830
 8491SOL    HW126372   1.136   1.062   1.787
 8491SOL    HW226373   1.112   1.139   1.929
 8492SOL     OW26374   5.725   4.157   4.375
 8492SOL    HW126375   5.720   4.220   4.298
 8492SOL    HW226376   5.777   4.199   4.449
 8493SOL     OW26377   3.513   2.435   1.452
 8493SOL    HW126378   3.570   2.462   1.529
 8493SOL    HW226379   3.417   2.454   1.474
 8494SOL     OW26380   3.589   6.074   6.926
 8494SOL    HW126381   3.520   6.103   6.992
 8494SOL    HW226382   3.572   6.119   6.838
 8495SOL     OW26383   0.767   2.493   0.070
 8495SOL    HW126384   0.730   2.562   0.008
 8495SOL    HW226385   0.711   2.410   0.066
 8496SOL     OW26386   0.762   2.100   3.367
 8496SOL    HW126387   0.733   2.027   3.429
 8496SOL    HW226388   0.726   2.082   3.276
 8497SOL     OW26389   5.565   4.596   3.235
 8497SOL    HW126390   5.570   4.608   3.334
 8497SOL    HW226391   5.634   4.530   3.206
 8498SOL     OW26392   6.262   0.695   1.620
 8498SOL    HW126393   6.323   0.689   1.542
 8498SOL    HW226394   6.263   0.787   1.657
 8499SOL     OW26395   0.768   3.989   6.760
 8499SOL    HW126396   0.797   3.901   6.724
 8499SOL    HW226397   0.848   4.040   6.792
 8500SOL     OW26398   2.924   0.569   5.685
 8500SOL    HW126399   2.867   0.488   5.669
 8500SOL    HW226400   2.916   0.597   5.780
 8501SOL     OW26401   2.747   3.929   5.621
 8501SOL    HW126402   2.669   3.917   5.559
 8501SOL    HW226403   2.777   4.024   5.619
 8502SOL     OW26404   1.010   6.890   1.618
 8502SOL    HW126405   0.992   6.849   1.529
 8502SOL    HW226406   1.008   6.820   1.689
 8503SOL     OW26407   3.443   5.648   3.677
 8503SOL    HW126408   3.414   5.732   3.630
 8503SOL    HW226409   3.386   5.635   3.758
 8504SOL     OW26410   1.637   5.279   3.090
 8504SOL    HW126411   1.565   5.261   3.024
 8504SOL    HW226412   1.679   5.193   3.119
 8505SOL     OW26413   4.566   2.426   3.837
 8505SOL    HW126414   4.618   2.511   3.845
 8505SOL    HW226415   4.496   2.423   3.908
 8506SOL     OW26416   0.916   6.254   6.756
 8506SOL    HW126417   0.998   6.218   6.799
 8506SOL    HW226418   0.928   6.352   6.737
 8507SOL     OW26419   1.811   0.173   4.981
 8507SOL    HW126420   1.866   0.089   4.983
 8507SOL    HW226421   1.715   0.151   4.998
 8508SOL     OW26422   0.563   2.917   5.227
 8508SOL    HW126423   0.589   2.890   5.320
 8508SOL    HW226424   0.473   2.880   5.205
 8509SOL     OW26425   6.005   1.689   4.685
 8509SOL    HW126426   6.101   1.707   4.665
 8509SOL    HW226427   5.997   1.644   4.774
 8510SOL     OW26428   5.326   0.028   2.319
 8510SOL    HW126429   5.303   7.009   2.228
 8510SOL    HW226430   5.389   0.106   2.311
 8511SOL     OW26431   6.485   5.539   1.927
 8511SOL    HW126432   6.477   5.603   2.003
 8511SOL    HW226433   6.399   5.538   1.874
 8512SOL     OW26434   3.485   3.158   0.750
 8512SOL    HW126435   3.422   3.089   0.716
 8512SOL    HW226436   3.434   3.230   0.797
 8513SOL     OW26437   1.105   3.278   0.556
 8513SOL    HW126438   1.009   3.256   0.573
 8513SOL    HW226439   1.130   3.359   0.609
 8514SOL     OW26440   2.325   2.737   5.079
 8514SOL    HW126441   2.236   2.736   5.123
 8514SOL    HW226442   2.363   2.830   5.081
 8515SOL     OW26443   3.017   0.335   0.554
 8515SOL    HW126444   3.070   0.275   0.614
 8515SOL    HW226445   2.928   0.293   0.534
 8516SOL     OW26446   5.959   3.332   4.291
 8516SOL    HW126447   6.000   3.263   4.350
 8516SOL    HW226448   5.869   3.300   4.260
 8517SOL     OW26449   1.838   1.948   5.958
 8517SOL    HW126450   1.778   1.906   5.890
 8517SOL    HW226451   1.785   1.972   6.039
 8518SOL     OW26452   5.229   4.925   6.747
 8518SOL    HW126453   5.215   4.871   6.830
 8518SOL    HW226454   5.309   4.890   6.697
 8519SOL     OW26455   0.441   3.513   0.488
 8519SOL    HW126456   0.368   3.446   0.499
 8519SOL    HW226457   0.440   3.577   0.565
 8520SOL     OW26458   3.198   3.923   5.703
 8520SOL    HW126459   3.196   4.014   5.745
 8520SOL    HW226460   3.216   3.854   5.774
 8521SOL     OW26461   1.668   6.609   4.975
 8521SOL    HW126462   1.746   6.585   4.918
 8521SOL    HW226463   1.632   6.698   4.948
 8522SOL     OW26464   0.949   6.778   0.141
 8522SOL    HW126465   0.898   6.763   0.056
 8522SOL    HW226466   1.033   6.723   0.140
 8523SOL     OW26467   3.608   1.991   0.909
 8523SOL    HW126468   3.680   2.030   0.967
 8523SOL    HW226469   3.558   2.065   0.864
 8524SOL     OW26470   2.509   5.940   5.325
 8524SOL    HW126471   2.547   5.937   5.418
 8524SOL    HW226472   2.569   5.890   5.263
 8525SOL     OW26473   6.575   2.989   2.391
 8525SOL    HW126474   6.524   3.023   2.312
 8525SOL    HW226475   6.662   2.950   2.360
 8526SOL     OW26476   0.180   4.402   6.725
 8526SOL    HW126477   0.117   4.475   6.700
 8526SOL    HW226478   0.253   4.439   6.783
 8527SOL     OW26479   2.848   0.778   6.295
 8527SOL    HW126480   2.922   0.771   6.362
 8527SOL    HW226481   2.782   0.848   6.324
 8528SOL     OW26482   5.525   0.978   1.007
 8528SOL    HW126483   5.624   0.993   1.000
 8528SOL    HW226484   5.507   0.883   1.032
 8529SOL     OW26485   0.874   6.066   6.296
 8529SOL    HW126486   0.892   6.154   6.252
 8529SOL    HW226487   0.788   6.029   6.262
 8530SOL     OW26488   3.823   3.916   2.614
 8530SOL    HW126489   3.908   3.878   2.579
 8530SOL    HW226490   3.773   3.846   2.664
 8531SOL     OW26491   6.605   5.293   3.290
 8531SOL    HW126492   6.669   5.326   3.360
 8531SOL    HW226493   6.550   5.219   3.329
 8532SOL     OW26494   3.453   5.162   0.045
 8532SOL    HW126495   3.542   5.186   0.005
 8532SOL    HW226496   3.410   5.090   7.006
 8533SOL     OW26497   2.263   6.368   4.706
 8533SOL    HW126498   2.299   6.433   4.639
 8533SOL    HW226499   2.336   6.340   4.768
 8534SOL     OW26500   1.799   2.608   2.687
 8534SOL    HW126501   1.816   2.614   2.786
 8534SOL    HW226502   1.821   2.695   2.644
 8535SOL     OW26503   5.798   0.783   2.351
 8535SOL    HW126504   5.860   0.842   2.299
 8535SOL    HW226505   5.833   0.689   2.350
 8536SOL     OW26506   1.733   0.725   3.690
 8536SOL    HW126507   1.678   0.776   3.757
 8536SOL    HW226508   1.752   0.784   3.611
 8537SOL     OW26509   6.115   1.074   3.479
 8537SOL    HW126510   6.101   1.172   3.472
 8537SOL    HW226511   6.040   1.026   3.434
 8538SOL     OW26512   0.827   2.459   0.358
 8538SOL    HW126513   0.767   2.484   0.282
 8538SOL    HW226514   0.805   2.366   0.388
 8539SOL     OW26515   5.109   3.171   1.876
 8539SOL    HW126516   5.164   3.152   1.958
 8539SOL    HW226517   5.034   3.105   1.871
 8540SOL     OW26518   4.151   0.470   1.504
 8540SOL    HW126519   4.225   0.408   1.531
 8540SOL    HW226520   4.172   0.510   1.415
 8541SOL     OW26521   1.844   3.054   3.417
 8541SOL    HW126522   1.851   2.958   3.444
 8541SOL    HW226523   1.895   3.111   3.481
 8542SOL     OW26524   3.509   4.619   6.962
 8542SOL    HW126525   3.512   4.695   0.012
 8542SOL    HW226526   3.418   4.615   6.920
 8543SOL     OW26527   3.600   1.799   6.953
 8543SOL    HW126528   3.633   1.712   6.989
 8543SOL    HW226529   3.606   1.799   6.854
 8544SOL     OW26530   6.284   1.748   4.643
 8544SOL    HW126531   6.273   1.787   4.552
 8544SOL    HW226532   6.339   1.664   4.636
 8545SOL     OW26533   4.354   6.496   5.303
 8545SOL    HW126534   4.449   6.484   5.334
 8545SOL    HW226535   4.327   6.592   5.315
 8546SOL     OW26536   4.086   2.380   6.699
 8546SOL    HW126537   4.000   2.385   6.647
 8546SOL    HW226538   4.088   2.295   6.752
 8547SOL     OW26539   1.814   4.621   1.870
 8547SOL    HW126540   1.902   4.627   1.824
 8547SOL    HW226541   1.781   4.526   1.866
 8548SOL     OW26542   6.593   2.195   5.483
 8548SOL    HW126543   6.649   2.138   5.423
 8548SOL    HW226544   6.549   2.137   5.552
 8549SOL     OW26545   5.148   3.254   5.205
 8549SOL    HW126546   5.098   3.331   5.164
 8549SOL    HW226547   5.083   3.182   5.229
 8550SOL     OW26548   1.054   4.546   5.488
 8550SOL    HW126549   0.994   4.486   5.436
 8550SOL    HW226550   1.119   4.491   5.541
 8551SOL     OW26551   2.299   4.223   1.064
 8551SOL    HW126552   2.338   4.312   1.040
 8551SOL    HW226553   2.215   4.209   1.012
 8552SOL     OW26554   3.094   6.646   4.665
 8552SOL    HW126555   3.100   6.717   4.594
 8552SOL    HW226556   3.120   6.685   4.753
 8553SOL     OW26557   6.027   5.086   0.019
 8553SOL    HW126558   6.032   4.998   6.986
 8553SOL    HW226559   5.972   5.076   0.101
 8554SOL     OW26560   5.866   3.850   0.149
 8554SOL    HW126561   5.829   3.762   0.119
 8554SOL    HW226562   5.942   3.835   0.212
 8555SOL     OW26563   2.073   6.709   4.599
 8555SOL    HW126564   2.011   6.631   4.607
 8555SOL    HW226565   2.075   6.740   4.504
 8556SOL     OW26566   5.949   6.799   4.348
 8556SOL    HW126567   6.022   6.852   4.305
 8556SOL    HW226568   5.987   6.749   4.426
 8557SOL     OW26569   0.181   1.171   0.681
 8557SOL    HW126570   0.181   1.071   0.680
 8557SOL    HW226571   0.088   1.204   0.694
 8558SOL     OW26572   1.386   4.720   2.047
 8558SOL    HW126573   1.294   4.698   2.014
 8558SOL    HW226574   1.447   4.736   1.970
 8559SOL     OW26575   0.750   1.622   5.392
 8559SOL    HW126576   0.830   1.570   5.361
 8559SOL    HW226577   0.779   1.708   5.432
 8560SOL     OW26578   6.552   2.276   6.619
 8560SOL    HW126579   6.543   2.238   6.527
 8560SOL    HW226580   6.464   2.313   6.649
 8561SOL     OW26581   4.649   6.016   5.779
 8561SOL    HW126582   4.661   6.035   5.682
 8561SOL    HW226583   4.562   6.055   5.811
 8562SOL     OW26584   3.769   0.166   4.566
 8562SOL    HW126585   3.829   0.136   4.640
 8562SOL    HW226586   3.824   0.205   4.492
 8563SOL     OW26587   2.938   2.421   6.714
 8563SOL    HW126588   2.845   2.444   6.744
 8563SOL    HW226589   3.003   2.447   6.784
 8564SOL     OW26590   0.764   6.394   2.916
 8564SOL    HW126591   0.826   6.332   2.963
 8564SOL    HW226592   0.671   6.359   2.922
 8565SOL     OW26593   3.672   0.542   1.266
 8565SOL    HW126594   3.613   0.532   1.186
 8565SOL    HW226595   3.733   0.620   1.253
 8566SOL     OW26596   1.593   3.824   3.858
 8566SOL    HW126597   1.565   3.793   3.767
 8566SOL    HW226598   1.658   3.899   3.849
 8567SOL     OW26599   5.217   6.091   6.306
 8567SOL    HW126600   5.285   6.085   6.233
 8567SOL    HW226601   5.224   6.179   6.351
 8568SOL     OW26602   5.469   0.193   0.225
 8568SOL    HW126603   5.533   0.259   0.187
 8568SOL    HW226604   5.435   0.225   0.313
 8569SOL     OW26605   3.912   0.920   5.463
 8569SOL    HW126606   3.879   0.901   5.555
 8569SOL    HW226607   3.926   0.834   5.413
 8570SOL     OW26608   6.922   3.206   6.220
 8570SOL    HW126609   6.983   3.286   6.223
 8570SOL    HW226610   6.831   3.233   6.250
 8571SOL     OW26611   0.181   4.798   5.315
 8571SOL    HW126612   0.246   4.870   5.341
 8571SOL    HW226613   0.097   4.809   5.367
 8572SOL     OW26614   2.754   5.265   5.721
 8572SOL    HW126615   2.811   5.308   5.792
 8572SOL    HW226616   2.658   5.270   5.748
 8573SOL     OW26617   3.499   5.798   4.531
 8573SOL    HW126618   3.531   5.776   4.623
 8573SOL    HW226619   3.529   5.890   4.506
 8574SOL     OW26620   0.498   4.023   4.286
 8574SOL    HW126621   0.561   4.026   4.208
 8574SOL    HW226622   0.424   4.089   4.272
 8575SOL     OW26623   2.919   3.522   6.409
 8575SOL    HW126624   2.883   3.610   6.378
 8575SOL    HW226625   2.864   3.448   6.369
 8576SOL     OW26626   2.175   0.238   0.415
 8576SOL    HW126627   2.189   0.147   0.377
 8576SOL    HW226628   2.171   0.233   0.515
 8577SOL     OW26629   6.205   5.737   4.394
 8577SOL    HW126630   6.176   5.804   4.462
 8577SOL    HW226631   6.144   5.657   4.398
 8578SOL     OW26632   4.698   0.692   3.076
 8578SOL    HW126633   4.610   0.656   3.105
 8578SOL    HW226634   4.725   0.767   3.136
 8579SOL     OW26635   0.448   4.776   2.507
 8579SOL    HW126636   0.440   4.676   2.499
 8579SOL    HW226637   0.381   4.820   2.448
 8580SOL     OW26638   2.641   5.103   5.976
 8580SOL    HW126639   2.603   5.188   6.012
 8580SOL    HW226640   2.722   5.078   6.029
 8581SOL     OW26641   3.118   3.133   0.410
 8581SOL    HW126642   3.027   3.148   0.369
 8581SOL    HW226643   3.141   3.211   0.468
 8582SOL     OW26644   4.018   5.064   0.221
 8582SOL    HW126645   4.011   5.104   0.130
 8582SOL    HW226646   4.063   5.128   0.282
 8583SOL     OW26647   5.760   6.562   5.099
 8583SOL    HW126648   5.695   6.541   5.172
 8583SOL    HW226649   5.805   6.650   5.118
 8584SOL     OW26650   0.593   5.488   6.625
 8584SOL    HW126651   0.651   5.562   6.658
 8584SOL    HW226652   0.604   5.478   6.526
 8585SOL     OW26653   1.459   1.828   1.363
 8585SOL    HW126654   1.515   1.905   1.394
 8585SOL    HW226655   1.366   1.860   1.344
 8586SOL     OW26656   3.880   5.013   4.190
 8586SOL    HW126657   3.875   5.098   4.138
 8586SOL    HW226658   3.973   4.976   4.184
 8587SOL     OW26659   6.705   1.646   1.376
 8587SOL    HW126660   6.688   1.634   1.278
 8587SOL    HW226661   6.623   1.682   1.420
 8588SOL     OW26662   3.409   2.642   6.329
 8588SOL    HW126663   3.476   2.583   6.283
 8588SOL    HW226664   3.411   2.733   6.288
 8589SOL     OW26665   2.698   1.727   4.642
 8589SOL    HW126666   2.631   1.800   4.635
 8589SOL    HW226667   2.663   1.655   4.703
 8590SOL     OW26668   5.422   4.913   5.368
 8590SOL    HW126669   5.518   4.894   5.388
 8590SOL    HW226670   5.376   4.829   5.340
 8591SOL     OW26671   0.283   2.679   0.645
 8591SOL    HW126672   0.223   2.747   0.604
 8591SOL    HW226673   0.365   2.668   0.588
 8592SOL     OW26674   6.217   5.759   6.819
 8592SOL    HW126675   6.163   5.713   6.748
 8592SOL    HW226676   6.297   5.703   6.841
 8593SOL     OW26677   0.415   6.018   2.945
 8593SOL    HW126678   0.341   6.067   2.991
 8593SOL    HW226679   0.438   5.937   2.998
 8594SOL     OW26680   3.944   3.965   3.365
 8594SOL    HW126681   4.000   3.897   3.317
 8594SOL    HW226682   3.982   4.056   3.352
 8595SOL     OW26683   1.431   3.019   1.747
 8595SOL    HW126684   1.446   2.980   1.838
 8595SOL    HW226685   1.518   3.030   1.701
 8596SOL     OW26686   6.645   4.218   2.340
 8596SOL    HW126687   6.654   4.180   2.248
 8596SOL    HW226688   6.609   4.311   2.334
 8597SOL     OW26689   2.585   1.799   0.376
 8597SOL    HW126690   2.670   1.759   0.343
 8597SOL    HW226691   2.594   1.898   0.380
 8598SOL     OW26692   5.888   3.291   1.849
 8598SOL    HW126693   5.891   3.344   1.933
 8598SOL    HW226694   5.833   3.208   1.863
 8599SOL     OW26695   0.734   3.094   0.903
 8599SOL    HW126696   0.745   3.128   0.810
 8599SOL    HW226697   0.686   3.007   0.901
 8600SOL     OW26698   6.724   2.186   6.204
 8600SOL    HW126699   6.639   2.159   6.249
 8600SOL    HW226700   6.704   2.244   6.126
 8601SOL     OW26701   0.883   0.271   5.090
 8601SOL    HW126702   0.882   0.269   4.990
 8601SOL    HW226703   0.800   0.314   5.123
 8602SOL     OW26704   1.608   6.408   1.878
 8602SOL    HW126705   1.654   6.320   1.866
 8602SOL    HW226706   1.657   6.462   1.947
 8603SOL     OW26707   4.990   3.377   1.300
 8603SOL    HW126708   4.957   3.392   1.393
 8603SOL    HW226709   4.927   3.420   1.235
 8604SOL     OW26710   5.809   3.053   3.219
 8604SOL    HW126711   5.819   3.072   3.121
 8604SOL    HW226712   5.868   2.976   3.244
 8605SOL     OW26713   3.036   5.211   1.643
 8605SOL    HW126714   3.066   5.144   1.712
 8605SOL    HW226715   3.112   5.232   1.582
 8606SOL     OW26716   3.920   5.375   4.615
 8606SOL    HW126717   3.882   5.284   4.634
 8606SOL    HW226718   3.848   5.444   4.622
 8607SOL     OW26719   2.884   6.152   0.981
 8607SOL    HW126720   2.959   6.104   0.937
 8607SOL    HW226721   2.831   6.088   1.037
 8608SOL     OW26722   5.917   6.738   2.373
 8608SOL    HW126723   5.996   6.677   2.375
 8608SOL    HW226724   5.934   6.813   2.309
 8609SOL     OW26725   4.958   0.218   6.063
 8609SOL    HW126726   4.984   0.242   5.969
 8609SOL    HW226727   5.022   0.261   6.126
 8610SOL     OW26728   0.080   6.378   5.764
 8610SOL    HW126729   0.170   6.408   5.794
 8610SOL    HW226730   0.086   6.340   5.671
 8611SOL     OW26731   1.650   1.998   3.253
 8611SOL    HW126732   1.693   1.996   3.343
 8611SOL    HW226733   1.712   2.042   3.188
 8612SOL     OW26734   5.131   3.216   4.507
 8612SOL    HW126735   5.041   3.256   4.526
 8612SOL    HW226736   5.146   3.216   4.408
 8613SOL     OW26737   1.591   0.867   0.568
 8613SOL    HW126738   1.604   0.856   0.470
 8613SOL    HW226739   1.609   0.962   0.593
 8614SOL     OW26740   1.791   1.957   3.474
 8614SOL    HW126741   1.774   1.993   3.566
 8614SOL    HW226742   1.889   1.950   3.459
 8615SOL     OW26743   4.490   1.856   5.931
 8615SOL    HW126744   4.411   1.846   5.991
 8615SOL    HW226745   4.475   1.934   5.870
 8616SOL     OW26746   0.947   2.975   0.234
 8616SOL    HW126747   0.910   2.900   0.179
 8616SOL    HW226748   0.933   2.955   0.331
 8617SOL     OW26749   5.729   2.730   0.678
 8617SOL    HW126750   5.816   2.715   0.725
 8617SOL    HW226751   5.730   2.819   0.632
 8618SOL     OW26752   3.896   1.237   3.246
 8618SOL    HW126753   3.832   1.292   3.300
 8618SOL    HW226754   3.966   1.198   3.305
 8619SOL     OW26755   4.010   6.562   0.762
 8619SOL    HW126756   3.945   6.503   0.714
 8619SOL    HW226757   3.980   6.576   0.856
 8620SOL     OW26758   6.135   5.860   3.753
 8620SOL    HW126759   6.047   5.902   3.770
 8620SOL    HW226760   6.196   5.926   3.708
 8621SOL     OW26761   5.397   0.918   4.318
 8621SOL    HW126762   5.309   0.962   4.307
 8621SOL    HW226763   5.470   0.981   4.292
 8622SOL     OW26764   4.683   5.267   6.368
 8622SOL    HW126765   4.630   5.183   6.372
 8622SOL    HW226766   4.780   5.246   6.377
 8623SOL     OW26767   6.486   2.155   4.106
 8623SOL    HW126768   6.418   2.191   4.169
 8623SOL    HW226769   6.476   2.055   4.100
 8624SOL     OW26770   6.256   3.112   3.986
 8624SOL    HW126771   6.244   3.195   4.041
 8624SOL    HW226772   6.320   3.051   4.033
 8625SOL     OW26773   3.649   1.416   6.637
 8625SOL    HW126774   3.720   1.478   6.607
 8625SOL    HW226775   3.574   1.467   6.680
 8626SOL     OW26776   2.889   3.500   2.565
 8626SOL    HW126777   2.932   3.435   2.503
 8626SOL    HW226778   2.864   3.583   2.514
 8627SOL     OW26779   2.806   0.273   0.250
 8627SOL    HW126780   2.851   0.335   0.186
 8627SOL    HW226781   2.859   0.189   0.259
 8628SOL     OW26782   6.269   1.347   1.083
 8628SOL    HW126783   6.270   1.270   1.147
 8628SOL    HW226784   6.188   1.402   1.098
 8629SOL     OW26785   1.410   5.896   3.521
 8629SOL    HW126786   1.327   5.920   3.471
 8629SOL    HW226787   1.457   5.821   3.474
 8630SOL     OW26788   5.026   5.258   4.226
 8630SOL    HW126789   5.066   5.266   4.317
 8630SOL    HW226790   4.930   5.285   4.229
 8631SOL     OW26791   4.411   6.240   3.910
 8631SOL    HW126792   4.436   6.144   3.922
 8631SOL    HW226793   4.467   6.281   3.838
 8632SOL     OW26794   3.237   1.002   3.148
 8632SOL    HW126795   3.221   0.990   3.246
 8632SOL    HW226796   3.319   1.057   3.134
 8633SOL     OW26797   6.844   6.791   2.463
 8633SOL    HW126798   6.931   6.798   2.512
 8633SOL    HW226799   6.821   6.695   2.451
 8634SOL     OW26800   6.196   6.217   1.844
 8634SOL    HW126801   6.097   6.222   1.827
 8634SOL    HW226802   6.243   6.280   1.782
 8635SOL     OW26803   5.974   3.507   5.608
 8635SOL    HW126804   6.031   3.490   5.527
 8635SOL    HW226805   5.963   3.423   5.659
 8636SOL     OW26806   5.485   5.048   0.650
 8636SOL    HW126807   5.420   5.089   0.715
 8636SOL    HW226808   5.486   4.949   0.663
 8637SOL     OW26809   1.275   1.040   1.614
 8637SOL    HW126810   1.323   1.020   1.529
 8637SOL    HW226811   1.184   1.076   1.593
 8638SOL     OW26812   5.667   4.498   1.142
 8638SOL    HW126813   5.705   4.583   1.179
 8638SOL    HW226814   5.690   4.422   1.202
 8639SOL     OW26815   6.093   2.307   2.089
 8639SOL    HW126816   6.052   2.377   2.031
 8639SOL    HW226817   6.173   2.346   2.136
 8640SOL     OW26818   5.167   6.261   1.752
 8640SOL    HW126819   5.098   6.248   1.682
 8640SOL    HW226820   5.127   6.247   1.843
 8641SOL     OW26821   4.846   4.426   3.638
 8641SOL    HW126822   4.777   4.383   3.696
 8641SOL    HW226823   4.844   4.385   3.547
 8642SOL     OW26824   4.143   1.585   1.738
 8642SOL    HW126825   4.132   1.665   1.798
 8642SOL    HW226826   4.201   1.517   1.783
 8643SOL     OW26827   4.731   0.345   0.278
 8643SOL    HW126828   4.680   0.421   0.238
 8643SOL    HW226829   4.816   0.378   0.318
 8644SOL     OW26830   6.954   3.305   4.944
 8644SOL    HW126831   0.027   3.259   4.928
 8644SOL    HW226832   6.935   3.367   4.868
 8645SOL     OW26833   6.418   3.828   1.704
 8645SOL    HW126834   6.396   3.822   1.607
 8645SOL    HW226835   6.481   3.905   1.719
 8646SOL     OW26836   4.865   5.834   0.993
 8646SOL    HW126837   4.780   5.876   1.025
 8646SOL    HW226838   4.878   5.746   1.039
 8647SOL     OW26839   4.462   4.665   1.925
 8647SOL    HW126840   4.535   4.690   1.989
 8647SOL    HW226841   4.502   4.614   1.848
 8648SOL     OW26842   5.944   0.976   3.921
 8648SOL    HW126843   5.967   0.881   3.943
 8648SOL    HW226844   6.015   1.015   3.863
 8649SOL     OW26845   6.536   4.518   5.450
 8649SOL    HW126846   6.618   4.557   5.490
 8649SOL    HW226847   6.532   4.420   5.472
 8650SOL     OW26848   0.520   5.245   1.551
 8650SOL    HW126849   0.614   5.214   1.560
 8650SOL    HW226850   0.513   5.339   1.586
 8651SOL     OW26851   4.135   3.210   1.000
 8651SOL    HW126852   4.178   3.123   1.023
 8651SOL    HW226853   4.079   3.241   1.076
 8652SOL     OW26854   0.887   3.097   4.350
 8652SOL    HW126855   0.931   3.157   4.282
 8652SOL    HW226856   0.887   3.143   4.439
 8653SOL     OW26857   5.362   2.822   6.293
 8653SOL    HW126858   5.420   2.750   6.330
 8653SOL    HW226859   5.348   2.893   6.362
 8654SOL     OW26860   1.560   5.189   1.570
 8654SOL    HW126861   1.481   5.220   1.518
 8654SOL    HW226862   1.534   5.114   1.631
 8655SOL     OW26863   6.064   6.567   1.936
 8655SOL    HW126864   6.052   6.512   2.018
 8655SOL    HW226865   5.974   6.597   1.903
 8656SOL     OW26866   6.929   2.023   1.440
 8656SOL    HW126867   0.012   2.037   1.441
 8656SOL    HW226868   6.902   1.965   1.518
 8657SOL     OW26869   2.851   4.680   0.826
 8657SOL    HW126870   2.764   4.647   0.864
 8657SOL    HW226871   2.877   4.622   0.749
 8658SOL     OW26872   1.221   5.271   6.215
 8658SOL    HW126873   1.203   5.317   6.302
 8658SOL    HW226874   1.135   5.253   6.168
 8659SOL     OW26875   4.057   6.936   4.189
 8659SOL    HW126876   4.116   6.972   4.261
 8659SOL    HW226877   4.060   6.836   4.190
 8660SOL     OW26878   5.333   4.385   6.999
 8660SOL    HW126879   5.429   4.382   6.972
 8660SOL    HW226880   5.282   4.312   6.953
 8661SOL     OW26881   6.573   3.232   1.828
 8661SOL    HW126882   6.648   3.167   1.841
 8661SOL    HW226883   6.486   3.183   1.833
 8662SOL     OW26884   0.904   0.391   6.885
 8662SOL    HW126885   0.829   0.332   6.855
 8662SOL    HW226886   0.982   0.380   6.823
 8663SOL     OW26887   2.551   5.165   0.984
 8663SOL    HW126888   2.552   5.138   0.888
 8663SOL    HW226889   2.469   5.128   1.028
 8664SOL     OW26890   4.408   4.997   1.675
 8664SOL    HW126891   4.449   5.085   1.700
 8664SOL    HW226892   4.315   5.011   1.643
 8665SOL     OW26893   4.951   5.350   4.712
 8665SOL    HW126894   4.902   5.414   4.772
 8665SOL    HW226895   5.038   5.391   4.684
 8666SOL     OW26896   6.565   4.589   3.799
 8666SOL    HW126897   6.567   4.537   3.885
 8666SOL    HW226898   6.600   4.681   3.815
 8667SOL     OW26899   5.633   2.538   3.457
 8667SOL    HW126900   5.612   2.598   3.381
 8667SOL    HW226901   5.568   2.554   3.531
 8668SOL     OW26902   3.201   1.050   4.599
 8668SOL    HW126903   3.292   1.088   4.619
 8668SOL    HW226904   3.212   0.968   4.543
 8669SOL     OW26905   4.336   6.949   6.078
 8669SOL    HW126906   4.374   7.004   6.004
 8669SOL    HW226907   4.238   6.967   6.085
 8670SOL     OW26908   4.317   4.600   2.685
 8670SOL    HW126909   4.335   4.574   2.780
 8670SOL    HW226910   4.380   4.551   2.625
 8671SOL     OW26911   6.203   6.024   2.291
 8671SOL    HW126912   6.281   5.964   2.313
 8671SOL    HW226913   6.132   6.012   2.360
 8672SOL     OW26914   3.500   5.457   5.124
 8672SOL    HW126915   3.505   5.365   5.162
 8672SOL    HW226916   3.468   5.453   5.029
 8673SOL     OW26917   4.891   2.312   0.121
 8673SOL    HW126918   4.966   2.353   0.171
 8673SOL    HW226919   4.805   2.358   0.144
 8674SOL     OW26920   0.824   0.116   2.569
 8674SOL    HW126921   0.891   0.094   2.640
 8674SOL    HW226922   0.744   0.056   2.579
 8675SOL     OW26923   2.494   2.065   2.696
 8675SOL    HW126924   2.565   2.008   2.654
 8675SOL    HW226925   2.498   2.157   2.656
 8676SOL     OW26926   4.404   0.992   4.496
 8676SOL    HW126927   4.469   0.964   4.567
 8676SOL    HW226928   4.336   1.054   4.537
 8677SOL     OW26929   2.095   3.883   5.618
 8677SOL    HW126930   2.050   3.934   5.545
 8677SOL    HW226931   2.172   3.831   5.580
 8678SOL     OW26932   1.699   0.967   5.823
 8678SOL    HW126933   1.780   0.914   5.846
 8678SOL    HW226934   1.654   0.998   5.907
 8679SOL     OW26935   6.235   1.421   4.420
 8679SOL    HW126936   6.150   1.473   4.427
 8679SOL    HW226937   6.216   1.330   4.382
 8680SOL     OW26938   0.560   3.606   0.762
 8680SOL    HW126939   0.612   3.692   0.761
 8680SOL    HW226940   0.621   3.530   0.782
 8681SOL     OW26941   4.187   3.710   1.448
 8681SOL    HW126942   4.246   3.631   1.435
 8681SOL    HW226943   4.116   3.688   1.515
 8682SOL     OW26944   1.449   5.796   2.445
 8682SOL    HW126945   1.508   5.747   2.509
 8682SOL    HW226946   1.411   5.731   2.379
 8683SOL     OW26947   5.111   2.668   6.273
 8683SOL    HW126948   5.198   2.716   6.277
 8683SOL    HW226949   5.102   2.622   6.184
 8684SOL     OW26950   6.782   2.613   3.942
 8684SOL    HW126951   6.720   2.614   4.020
 8684SOL    HW226952   6.825   2.523   3.934
 8685SOL     OW26953   6.932   1.243   5.680
 8685SOL    HW126954   6.989   1.323   5.694
 8685SOL    HW226955   6.940   1.213   5.585
 8686SOL     OW26956   6.428   1.915   3.678
 8686SOL    HW126957   6.352   1.900   3.742
 8686SOL    HW226958   6.393   1.949   3.591
 8687SOL     OW26959   3.957   0.973   2.618
 8687SOL    HW126960   3.871   1.010   2.582
 8687SOL    HW226961   3.995   1.038   2.685
 8688SOL     OW26962   1.200   6.947   1.930
 8688SOL    HW126963   1.283   6.949   1.873
 8688SOL    HW226964   1.226   6.938   2.026
 8689SOL     OW26965   4.837   4.742   0.803
 8689SOL    HW126966   4.902   4.667   0.809
 8689SOL    HW226967   4.743   4.706   0.804
 8690SOL     OW26968   1.501   0.805   2.979
 8690SOL    HW126969   1.512   0.854   3.066
 8690SOL    HW226970   1.499   0.707   2.996
 8691SOL     OW26971   5.822   1.652   0.486
 8691SOL    HW126972   5.867   1.699   0.562
 8691SOL    HW226973   5.840   1.701   0.401
 8692SOL     OW26974   1.692   1.303   3.523
 8692SOL    HW126975   1.724   1.396   3.540
 8692SOL    HW226976   1.627   1.304   3.447
 8693SOL     OW26977   5.320   2.356   6.918
 8693SOL    HW126978   5.378   2.276   6.904
 8693SOL    HW226979   5.358   2.412   6.993
 8694SOL     OW26980   3.660   6.811   6.967
 8694SOL    HW126981   3.711   6.862   6.898
 8694SOL    HW226982   3.719   6.742   7.008
 8695SOL     OW26983   4.541   4.134   5.404
 8695SOL    HW126984   4.550   4.040   5.371
 8695SOL    HW226985   4.550   4.197   5.327
 8696SOL     OW26986   1.920   5.208   0.695
 8696SOL    HW126987   1.978   5.201   0.613
 8696SOL    HW226988   1.825   5.189   0.671
 8697SOL     OW26989   4.952   4.974   6.662
 8697SOL    HW126990   5.047   4.978   6.692
 8697SOL    HW226991   4.930   5.057   6.609
 8698SOL     OW26992   5.949   6.083   4.835
 8698SOL    HW126993   5.957   6.173   4.792
 8698SOL    HW226994   5.860   6.077   4.880
 8699SOL     OW26995   1.109   1.497   4.984
 8699SOL    HW126996   1.017   1.459   4.984
 8699SOL    HW226997   1.176   1.425   4.965
 8700SOL     OW26998   2.699   2.466   6.107
 8700SOL    HW126999   2.785   2.452   6.158
 8700SOL    HW227000   2.717   2.525   6.028
 8701SOL     OW27001   1.130   1.201   3.352
 8701SOL    HW127002   1.227   1.191   3.372
 8701SOL    HW227003   1.106   1.146   3.272
 8702SOL     OW27004   5.601   6.036   6.767
 8702SOL    HW127005   5.686   6.046   6.819
 8702SOL    HW227006   5.570   5.941   6.772
 8703SOL     OW27007   1.328   5.333   1.486
 8703SOL    HW127008   1.278   5.278   1.420
 8703SOL    HW227009   1.307   5.430   1.471
 8704SOL     OW27010   0.809   4.287   1.921
 8704SOL    HW127011   0.806   4.362   1.855
 8704SOL    HW227012   0.845   4.321   2.008
 8705SOL     OW27013   4.964   6.692   4.212
 8705SOL    HW127014   5.042   6.719   4.269
 8705SOL    HW227015   4.913   6.773   4.185
 8706SOL     OW27016   4.987   1.642   5.740
 8706SOL    HW127017   4.913   1.599   5.690
 8706SOL    HW227018   5.071   1.636   5.686
 8707SOL     OW27019   4.471   2.066   5.743
 8707SOL    HW127020   4.539   2.022   5.683
 8707SOL    HW227021   4.412   2.124   5.688
 8708SOL     OW27022   4.051   1.876   0.555
 8708SOL    HW127023   4.112   1.828   0.617
 8708SOL    HW227024   4.104   1.935   0.495
 8709SOL     OW27025   5.793   3.408   0.428
 8709SOL    HW127026   5.838   3.479   0.483
 8709SOL    HW227027   5.809   3.426   0.331
 8710SOL     OW27028   5.824   3.011   4.059
 8710SOL    HW127029   5.748   2.973   4.007
 8710SOL    HW227030   5.900   3.032   3.997
 8711SOL     OW27031   0.936   1.175   4.472
 8711SOL    HW127032   0.908   1.270   4.482
 8711SOL    HW227033   1.022   1.160   4.521
 8712SOL     OW27034   3.566   0.540   6.835
 8712SOL    HW127035   3.621   0.496   6.765
 8712SOL    HW227036   3.538   0.473   6.903
 8713SOL     OW27037   6.155   4.702   2.539
 8713SOL    HW127038   6.090   4.636   2.501
 8713SOL    HW227039   6.127   4.727   2.632
 8714SOL     OW27040   1.565   1.374   4.260
 8714SOL    HW127041   1.469   1.372   4.289
 8714SOL    HW227042   1.612   1.450   4.304
 8715SOL     OW27043   6.039   1.103   2.696
 8715SOL    HW127044   6.050   1.200   2.720
 8715SOL    HW227045   6.020   1.096   2.598
 8716SOL     OW27046   0.394   1.270   1.890
 8716SOL    HW127047   0.453   1.264   1.809
 8716SOL    HW227048   0.423   1.203   1.957
 8717SOL     OW27049   4.092   3.395   0.595
 8717SOL    HW127050   4.011   3.350   0.556
 8717SOL    HW227051   4.086   3.494   0.579
 8718SOL     OW27052   0.149   2.548   5.911
 8718SOL    HW127053   0.226   2.611   5.920
 8718SOL    HW227054   0.168   2.482   5.838
 8719SOL     OW27055   6.184   0.847   5.636
 8719SOL    HW127056   6.241   0.822   5.715
 8719SOL    HW227057   6.242   0.882   5.562
 8720SOL     OW27058   4.853   3.499   5.707
 8720SOL    HW127059   4.950   3.489   5.683
 8720SOL    HW227060   4.796   3.467   5.631
 8721SOL     OW27061   6.861   0.732   5.098
 8721SOL    HW127062   6.911   0.646   5.106
 8721SOL    HW227063   6.763   0.714   5.105
 8722SOL     OW27064   3.060   2.956   1.074
 8722SOL    HW127065   2.997   2.897   1.125
 8722SOL    HW227066   3.013   3.041   1.049
 8723SOL     OW27067   0.334   5.313   0.479
 8723SOL    HW127068   0.283   5.325   0.564
 8723SOL    HW227069   0.272   5.326   0.401
 8724SOL     OW27070   5.293   6.309   6.452
 8724SOL    HW127071   5.297   6.385   6.516
 8724SOL    HW227072   5.360   6.240   6.478
 8725SOL     OW27073   1.902   5.990   1.267
 8725SOL    HW127074   1.975   6.039   1.313
 8725SOL    HW227075   1.940   5.935   1.192
 8726SOL     OW27076   6.638   0.603   1.386
 8726SOL    HW127077   6.734   0.615   1.412
 8726SOL    HW227078   6.632   0.541   1.308
 8727SOL     OW27079   5.998   6.808   0.718
 8727SOL    HW127080   5.975   6.895   0.763
 8727SOL    HW227081   6.016   6.825   0.621
 8728SOL     OW27082   2.046   6.193   5.550
 8728SOL    HW127083   2.023   6.115   5.609
 8728SOL    HW227084   2.081   6.160   5.463
 8729SOL     OW27085   4.964   6.008   4.845
 8729SOL    HW127086   4.866   6.009   4.830
 8729SOL    HW227087   5.011   6.039   4.762
 8730SOL     OW27088   6.850   6.031   0.668
 8730SOL    HW127089   6.900   5.978   0.599
 8730SOL    HW227090   6.759   6.054   0.633
 8731SOL     OW27091   0.573   1.574   2.345
 8731SOL    HW127092   0.636   1.601   2.417
 8731SOL    HW227093   0.593   1.626   2.261
 8732SOL     OW27094   6.320   5.574   2.221
 8732SOL    HW127095   6.326   5.670   2.193
 8732SOL    HW227096   6.240   5.532   2.179
 8733SOL     OW27097   0.082   0.098   0.901
 8733SOL    HW127098   0.123   0.159   0.969
 8733SOL    HW227099   0.111   0.004   0.919
 8734SOL     OW27100   0.018   5.915   0.518
 8734SOL    HW127101   0.001   5.839   0.455
 8734SOL    HW227102   0.082   5.885   0.589
 8735SOL     OW27103   0.176   2.762   6.469
 8735SOL    HW127104   0.257   2.819   6.486
 8735SOL    HW227105   0.104   2.819   6.431
 8736SOL     OW27106   0.111   4.501   5.695
 8736SOL    HW127107   0.208   4.474   5.701
 8736SOL    HW227108   0.103   4.598   5.714
 8737SOL     OW27109   4.007   6.401   6.698
 8737SOL    HW127110   3.943   6.341   6.649
 8737SOL    HW227111   4.101   6.371   6.681
 8738SOL     OW27112   0.893   3.809   5.490
 8738SOL    HW127113   0.847   3.785   5.576
 8738SOL    HW227114   0.862   3.749   5.417
 8739SOL     OW27115   1.100   3.555   5.653
 8739SOL    HW127116   1.134   3.574   5.745
 8739SOL    HW227117   1.005   3.525   5.659
 8740SOL     OW27118   1.476   6.739   1.200
 8740SOL    HW127119   1.504   6.835   1.213
 8740SOL    HW227120   1.441   6.727   1.107
 8741SOL     OW27121   1.656   3.614   2.245
 8741SOL    HW127122   1.625   3.561   2.325
 8741SOL    HW227123   1.581   3.669   2.211
 8742SOL     OW27124   4.773   5.821   2.223
 8742SOL    HW127125   4.790   5.782   2.313
 8742SOL    HW227126   4.857   5.820   2.169
 8743SOL     OW27127   2.394   4.857   2.874
 8743SOL    HW127128   2.391   4.875   2.776
 8743SOL    HW227129   2.483   4.885   2.910
 8744SOL     OW27130   3.152   3.199   5.514
 8744SOL    HW127131   3.192   3.291   5.505
 8744SOL    HW227132   3.089   3.198   5.591
 8745SOL     OW27133   6.318   1.454   0.178
 8745SOL    HW127134   6.327   1.521   0.252
 8745SOL    HW227135   6.227   1.463   0.136
 8746SOL     OW27136   5.444   3.606   4.939
 8746SOL    HW127137   5.515   3.538   4.920
 8746SOL    HW227138   5.440   3.624   5.037
 8747SOL     OW27139   0.787   2.015   4.238
 8747SOL    HW127140   0.718   2.068   4.188
 8747SOL    HW227141   0.878   2.043   4.209
 8748SOL     OW27142   2.940   6.822   0.431
 8748SOL    HW127143   3.017   6.766   0.462
 8748SOL    HW227144   2.855   6.786   0.469
 8749SOL     OW27145   4.137   1.992   3.453
 8749SOL    HW127146   4.187   1.925   3.397
 8749SOL    HW227147   4.178   2.083   3.439
 8750SOL     OW27148   1.906   0.779   5.444
 8750SOL    HW127149   1.951   0.689   5.450
 8750SOL    HW227150   1.874   0.807   5.534
 8751SOL     OW27151   2.063   6.613   3.080
 8751SOL    HW127152   2.008   6.534   3.109
 8751SOL    HW227153   2.011   6.697   3.097
 8752SOL     OW27154   2.560   1.376   5.692
 8752SOL    HW127155   2.551   1.451   5.758
 8752SOL    HW227156   2.510   1.296   5.724
 8753SOL     OW27157   5.872   1.556   5.208
 8753SOL    HW127158   5.941   1.626   5.194
 8753SOL    HW227159   5.844   1.518   5.120
 8754SOL     OW27160   2.034   1.417   5.642
 8754SOL    HW127161   2.060   1.321   5.652
 8754SOL    HW227162   1.977   1.427   5.560
 8755SOL     OW27163   2.312   2.128   0.714
 8755SOL    HW127164   2.359   2.071   0.782
 8755SOL    HW227165   2.331   2.224   0.731
 8756SOL     OW27166   2.010   4.214   4.431
 8756SOL    HW127167   2.041   4.149   4.501
 8756SOL    HW227168   1.952   4.283   4.474
 8757SOL     OW27169   3.721   5.778   4.181
 8757SOL    HW127170   3.630   5.815   4.166
 8757SOL    HW227171   3.721   5.721   4.263
 8758SOL     OW27172   5.253   6.688   2.232
 8758SOL    HW127173   5.190   6.766   2.225
 8758SOL    HW227174   5.296   6.687   2.322
 8759SOL     OW27175   5.273   0.861   5.964
 8759SOL    HW127176   5.337   0.786   5.947
 8759SOL    HW227177   5.224   0.883   5.880
 8760SOL     OW27178   2.004   3.209   3.582
 8760SOL    HW127179   1.995   3.278   3.654
 8760SOL    HW227180   2.042   3.125   3.621
 8761SOL     OW27181   5.647   6.076   1.754
 8761SOL    HW127182   5.553   6.041   1.744
 8761SOL    HW227183   5.653   6.166   1.711
 8762SOL     OW27184   0.908   4.516   0.536
 8762SOL    HW127185   0.886   4.614   0.530
 8762SOL    HW227186   0.968   4.491   0.459
 8763SOL     OW27187   0.378   5.859   6.287
 8763SOL    HW127188   0.301   5.859   6.350
 8763SOL    HW227189   0.391   5.767   6.249
 8764SOL     OW27190   3.498   2.083   6.321
 8764SOL    HW127191   3.537   2.065   6.231
 8764SOL    HW227192   3.417   2.027   6.335
 8765SOL     OW27193   0.013   0.477   4.752
 8765SOL    HW127194   7.001   0.381   4.759
 8765SOL    HW227195   0.089   0.495   4.813
 8766SOL     OW27196   2.012   4.772   2.480
 8766SOL    HW127197   2.084   4.713   2.517
 8766SOL    HW227198   2.003   4.756   2.382
 8767SOL     OW27199   5.121   1.251   5.946
 8767SOL    HW127200   5.117   1.285   6.040
 8767SOL    HW227201   5.034   1.209   5.922
 8768SOL     OW27202   1.035   3.914   7.004
 8768SOL    HW127203   1.005   3.989   6.946
 8768SOL    HW227204   1.088   3.949   0.065
 8769SOL     OW27205   1.903   1.310   6.007
 8769SOL    HW127206   1.857   1.294   6.094
 8769SOL    HW227207   1.842   1.358   5.945
 8770SOL     OW27208   5.468   1.135   3.180
 8770SOL    HW127209   5.384   1.168   3.137
 8770SOL    HW227210   5.480   1.180   3.268
 8771SOL     OW27211   2.630   2.870   5.646
 8771SOL    HW127212   2.563   2.901   5.578
 8771SOL    HW227213   2.591   2.882   5.738
 8772SOL     OW27214   6.370   6.494   6.465
 8772SOL    HW127215   6.374   6.519   6.562
 8772SOL    HW227216   6.363   6.577   6.410
 8773SOL     OW27217   2.920   2.032   3.092
 8773SOL    HW127218   3.004   1.979   3.079
 8773SOL    HW227219   2.860   2.019   3.013
 8774SOL     OW27220   1.481   0.640   0.101
 8774SOL    HW127221   1.516   0.555   0.140
 8774SOL    HW227222   1.400   0.669   0.150
 8775SOL     OW27223   6.361   6.261   4.295
 8775SOL    HW127224   6.391   6.172   4.329
 8775SOL    HW227225   6.266   6.256   4.266
 8776SOL     OW27226   3.187   3.828   5.144
 8776SOL    HW127227   3.150   3.879   5.067
 8776SOL    HW227228   3.123   3.757   5.172
 8777SOL     OW27229   5.940   5.742   2.801
 8777SOL    HW127230   5.879   5.665   2.779
 8777SOL    HW227231   6.026   5.707   2.838
 8778SOL     OW27232   1.382   2.855   2.851
 8778SOL    HW127233   1.443   2.791   2.899
 8778SOL    HW227234   1.419   2.874   2.760
 8779SOL     OW27235   1.605   4.586   0.961
 8779SOL    HW127236   1.544   4.639   0.902
 8779SOL    HW227237   1.553   4.519   1.013
 8780SOL     OW27238   2.119   5.456   4.712
 8780SOL    HW127239   2.210   5.495   4.696
 8780SOL    HW227240   2.053   5.500   4.652
 8781SOL     OW27241   0.840   2.386   2.628
 8781SOL    HW127242   0.779   2.419   2.701
 8781SOL    HW227243   0.933   2.377   2.663
 8782SOL     OW27244   5.026   1.482   3.828
 8782SOL    HW127245   5.104   1.536   3.861
 8782SOL    HW227246   4.982   1.530   3.752
 8783SOL     OW27247   6.228   2.853   5.674
 8783SOL    HW127248   6.328   2.843   5.674
 8783SOL    HW227249   6.204   2.944   5.705
 8784SOL     OW27250   5.743   4.203   5.951
 8784SOL    HW127251   5.769   4.128   6.012
 8784SOL    HW227252   5.645   4.217   5.955
 8785SOL     OW27253   5.102   4.149   5.605
 8785SOL    HW127254   5.045   4.069   5.586
 8785SOL    HW227255   5.167   4.161   5.530
 8786SOL     OW27256   1.659   6.450   0.272
 8786SOL    HW127257   1.749   6.456   0.230
 8786SOL    HW227258   1.667   6.413   0.365
 8787SOL     OW27259   1.087   2.696   0.052
 8787SOL    HW127260   1.103   2.640   0.133
 8787SOL    HW227261   1.171   2.702   7.014
 8788SOL     OW27262   1.459   2.028   5.401
 8788SOL    HW127263   1.494   1.961   5.466
 8788SOL    HW227264   1.523   2.038   5.325
 8789SOL     OW27265   0.632   1.170   0.363
 8789SOL    HW127266   0.555   1.115   0.397
 8789SOL    HW227267   0.637   1.162   0.264
 8790SOL     OW27268   4.085   1.725   6.353
 8790SOL    HW127269   4.052   1.714   6.259
 8790SOL    HW227270   4.065   1.818   6.385
 8791SOL     OW27271   5.007   6.505   5.436
 8791SOL    HW127272   4.955   6.540   5.514
 8791SOL    HW227273   4.999   6.406   5.433
 8792SOL     OW27274   5.320   6.888   2.715
 8792SOL    HW127275   5.410   6.904   2.675
 8792SOL    HW227276   5.304   6.790   2.724
 8793SOL     OW27277   1.287   4.532   3.328
 8793SOL    HW127278   1.379   4.499   3.344
 8793SOL    HW227279   1.239   4.543   3.415
 8794SOL     OW27280   2.532   5.626   3.116
 8794SOL    HW127281   2.480   5.571   3.050
 8794SOL    HW227282   2.545   5.718   3.080
 8795SOL     OW27283   2.815   5.892   4.713
 8795SOL    HW127284   2.863   5.830   4.776
 8795SOL    HW227285   2.820   5.985   4.748
 8796SOL     OW27286   5.033   2.033   5.219
 8796SOL    HW127287   5.013   2.121   5.177
 8796SOL    HW227288   5.101   1.984   5.164
 8797SOL     OW27289   0.753   6.060   6.571
 8797SOL    HW127290   0.805   6.072   6.487
 8797SOL    HW227291   0.807   6.094   6.648
 8798SOL     OW27292   3.389   3.416   5.210
 8798SOL    HW127293   3.472   3.378   5.169
 8798SOL    HW227294   3.310   3.394   5.152
 8799SOL     OW27295   3.061   0.570   2.585
 8799SOL    HW127296   3.048   0.586   2.682
 8799SOL    HW227297   3.156   0.590   2.560
 8800SOL     OW27298   4.293   4.352   0.430
 8800SOL    HW127299   4.311   4.451   0.429
 8800SOL    HW227300   4.292   4.318   0.337
 8801SOL     OW27301   3.089   6.500   5.977
 8801SOL    HW127302   3.063   6.460   5.890
 8801SOL    HW227303   3.189   6.498   5.986
 8802SOL     OW27304   2.571   6.200   1.674
 8802SOL    HW127305   2.486   6.250   1.692
 8802SOL    HW227306   2.595   6.207   1.577
 8803SOL     OW27307   3.917   5.818   1.875
 8803SOL    HW127308   3.851   5.860   1.936
 8803SOL    HW227309   3.925   5.871   1.791
 8804SOL     OW27310   2.879   0.932   1.749
 8804SOL    HW127311   2.796   0.984   1.729
 8804SOL    HW227312   2.957   0.977   1.706
 8805SOL     OW27313   0.737   0.700   2.921
 8805SOL    HW127314   0.763   0.737   3.010
 8805SOL    HW227315   0.709   0.605   2.932
 8806SOL     OW27316   1.771   5.018   0.301
 8806SOL    HW127317   1.869   5.010   0.320
 8806SOL    HW227318   1.738   4.931   0.263
 8807SOL     OW27319   2.436   5.593   6.733
 8807SOL    HW127320   2.486   5.597   6.820
 8807SOL    HW227321   2.423   5.686   6.699
 8808SOL     OW27322   5.570   1.974   1.056
 8808SOL    HW127323   5.540   1.992   0.962
 8808SOL    HW227324   5.669   1.965   1.058
 8809SOL     OW27325   6.034   4.621   0.418
 8809SOL    HW127326   5.973   4.548   0.447
 8809SOL    HW227327   5.994   4.710   0.442
 8810SOL     OW27328   5.211   1.660   4.028
 8810SOL    HW127329   5.306   1.634   4.047
 8810SOL    HW227330   5.154   1.641   4.107
 8811SOL     OW27331   1.384   1.120   3.470
 8811SOL    HW127332   1.425   1.071   3.393
 8811SOL    HW227333   1.426   1.211   3.477
 8812SOL     OW27334   2.734   1.252   0.238
 8812SOL    HW127335   2.706   1.206   0.323
 8812SOL    HW227336   2.832   1.236   0.223
 8813SOL     OW27337   1.346   5.657   1.460
 8813SOL    HW127338   1.408   5.639   1.384
 8813SOL    HW227339   1.397   5.655   1.546
 8814SOL     OW27340   5.760   6.669   5.936
 8814SOL    HW127341   5.820   6.706   5.865
 8814SOL    HW227342   5.672   6.644   5.897
 8815SOL     OW27343   5.975   5.458   3.170
 8815SOL    HW127344   5.886   5.441   3.127
 8815SOL    HW227345   5.971   5.545   3.220
 8816SOL     OW27346   0.450   5.162   2.124
 8816SOL    HW127347   0.520   5.233   2.122
 8816SOL    HW227348   0.389   5.172   2.045
 8817SOL     OW27349   2.208   3.850   5.264
 8817SOL    HW127350   2.294   3.895   5.239
 8817SOL    HW227351   2.174   3.796   5.186
 8818SOL     OW27352   6.961   4.397   4.982
 8818SOL    HW127353   6.964   4.304   4.945
 8818SOL    HW227354   6.871   4.436   4.965
 8819SOL     OW27355   6.766   0.279   4.175
 8819SOL    HW127356   6.720   0.359   4.213
 8819SOL    HW227357   6.863   0.283   4.199
 8820SOL     OW27358   0.627   2.339   3.422
 8820SOL    HW127359   0.679   2.258   3.396
 8820SOL    HW227360   0.535   2.333   3.383
 8821SOL     OW27361   1.762   6.948   6.607
 8821SOL    HW127362   1.779   6.882   6.680
 8821SOL    HW227363   1.849   6.972   6.564
 8822SOL     OW27364   1.131   2.743   3.951
 8822SOL    HW127365   1.113   2.716   4.046
 8822SOL    HW227366   1.066   2.699   3.890
 8823SOL     OW27367   2.130   5.281   1.485
 8823SOL    HW127368   2.215   5.227   1.487
 8823SOL    HW227369   2.098   5.287   1.390
 8824SOL     OW27370   4.324   4.306   0.897
 8824SOL    HW127371   4.251   4.284   0.832
 8824SOL    HW227372   4.303   4.264   0.985
 8825SOL     OW27373   2.483   2.420   0.524
 8825SOL    HW127374   2.434   2.437   0.609
 8825SOL    HW227375   2.427   2.451   0.447
 8826SOL     OW27376   5.850   0.431   0.842
 8826SOL    HW127377   5.915   0.403   0.912
 8826SOL    HW227378   5.829   0.528   0.853
 8827SOL     OW27379   6.514   1.823   3.401
 8827SOL    HW127380   6.557   1.817   3.491
 8827SOL    HW227381   6.510   1.732   3.360
 8828SOL     OW27382   1.383   6.277   3.454
 8828SOL    HW127383   1.448   6.218   3.501
 8828SOL    HW227384   1.305   6.296   3.514
 8829SOL     OW27385   1.608   0.849   1.354
 8829SOL    HW127386   1.591   0.922   1.420
 8829SOL    HW227387   1.706   0.846   1.333
 8830SOL     OW27388   1.444   1.359   0.501
 8830SOL    HW127389   1.487   1.448   0.512
 8830SOL    HW227390   1.357   1.369   0.452
 8831SOL     OW27391   6.538   0.828   2.083
 8831SOL    HW127392   6.519   0.802   1.989
 8831SOL    HW227393   6.452   0.843   2.132
 8832SOL     OW27394   6.333   0.997   2.320
 8832SOL    HW127395   6.268   0.989   2.396
 8832SOL    HW227396   6.419   0.952   2.344
 8833SOL     OW27397   1.262   5.240   2.348
 8833SOL    HW127398   1.296   5.280   2.433
 8833SOL    HW227399   1.165   5.261   2.338
 8834SOL     OW27400   5.920   4.264   3.921
 8834SOL    HW127401   5.964   4.331   3.860
 8834SOL    HW227402   5.990   4.203   3.959
 8835SOL     OW27403   0.628   1.016   0.091
 8835SOL    HW127404   0.703   0.949   0.088
 8835SOL    HW227405   0.666   1.108   0.101
 8836SOL     OW27406   4.847   2.059   2.094
 8836SOL    HW127407   4.805   2.115   2.166
 8836SOL    HW227408   4.832   1.962   2.114
 8837SOL     OW27409   0.286   2.386   1.805
 8837SOL    HW127410   0.293   2.437   1.890
 8837SOL    HW227411   0.370   2.333   1.790
 8838SOL     OW27412   1.486   6.081   4.126
 8838SOL    HW127413   1.505   5.985   4.149
 8838SOL    HW227414   1.561   6.138   4.158
 8839SOL     OW27415   5.187   6.144   4.427
 8839SOL    HW127416   5.214   6.225   4.376
 8839SOL    HW227417   5.247   6.067   4.402
 8840SOL     OW27418   4.047   0.580   2.324
 8840SOL    HW127419   4.030   0.490   2.285
 8840SOL    HW227420   4.087   0.640   2.254
 8841SOL     OW27421   3.012   0.559   4.052
 8841SOL    HW127422   3.032   0.521   3.962
 8841SOL    HW227423   3.063   0.644   4.065
 8842SOL     OW27424   1.373   2.669   1.840
 8842SOL    HW127425   1.298   2.615   1.802
 8842SOL    HW227426   1.458   2.617   1.836
 8843SOL     OW27427   0.225   2.996   4.353
 8843SOL    HW127428   0.296   2.940   4.310
 8843SOL    HW227429   0.267   3.060   4.417
 8844SOL     OW27430   5.881   1.573   6.690
 8844SOL    HW127431   5.820   1.501   6.722
 8844SOL    HW227432   5.884   1.574   6.590
 8845SOL     OW27433   5.171   2.938   0.144
 8845SOL    HW127434   5.104   2.889   0.088
 8845SOL    HW227435   5.194   2.882   0.224
 8846SOL     OW27436   3.246   4.930   3.599
 8846SOL    HW127437   3.246   4.910   3.697
 8846SOL    HW227438   3.164   4.983   3.575
 8847SOL     OW27439   1.001   1.311   2.952
 8847SOL    HW127440   1.036   1.313   2.859
 8847SOL    HW227441   1.009   1.402   2.993
 8848SOL     OW27442   0.689   1.070   3.236
 8848SOL    HW127443   0.717   1.125   3.315
 8848SOL    HW227444   0.713   0.974   3.251
 8849SOL     OW27445   2.979   6.730   1.521
 8849SOL    HW127446   2.882   6.717   1.500
 8849SOL    HW227447   2.996   6.827   1.539
 8850SOL     OW27448   3.157   2.533   6.887
 8850SOL    HW127449   3.190   2.590   6.812
 8850SOL    HW227450   3.181   2.437   6.870
 8851SOL     OW27451   2.008   3.553   1.860
 8851SOL    HW127452   1.946   3.611   1.912
 8851SOL    HW227453   2.084   3.525   1.918
 8852SOL     OW27454   0.333   1.848   4.734
 8852SOL    HW127455   0.344   1.881   4.828
 8852SOL    HW227456   0.335   1.927   4.672
 8853SOL     OW27457   4.381   0.368   1.616
 8853SOL    HW127458   4.472   0.352   1.578
 8853SOL    HW227459   4.379   0.456   1.664
 8854SOL     OW27460   0.007   2.791   4.978
 8854SOL    HW127461   6.973   2.726   5.035
 8854SOL    HW227462   0.070   2.844   5.034
 8855SOL     OW27463   5.012   4.428   1.385
 8855SOL    HW127464   5.108   4.455   1.386
 8855SOL    HW227465   4.996   4.365   1.308
 8856SOL     OW27466   6.060   0.710   5.985
 8856SOL    HW127467   6.043   0.622   5.942
 8856SOL    HW227468   6.138   0.703   6.047
 8857SOL     OW27469   6.500   1.895   6.599
 8857SOL    HW127470   6.488   1.966   6.668
 8857SOL    HW227471   6.573   1.832   6.628
 8858SOL     OW27472   6.621   5.564   4.754
 8858SOL    HW127473   6.676   5.617   4.819
 8858SOL    HW227474   6.597   5.621   4.676
 8859SOL     OW27475   0.869   5.669   2.914
 8859SOL    HW127476   0.882   5.693   2.817
 8859SOL    HW227477   0.939   5.602   2.941
 8860SOL     OW27478   6.536   2.593   2.259
 8860SOL    HW127479   6.492   2.683   2.250
 8860SOL    HW227480   6.577   2.584   2.349
 8861SOL     OW27481   3.380   2.597   1.664
 8861SOL    HW127482   3.340   2.648   1.588
 8861SOL    HW227483   3.410   2.660   1.735
 8862SOL     OW27484   4.280   4.790   4.869
 8862SOL    HW127485   4.292   4.709   4.927
 8862SOL    HW227486   4.369   4.834   4.855
 8863SOL     OW27487   1.422   4.051   2.031
 8863SOL    HW127488   1.427   4.079   2.127
 8863SOL    HW227489   1.443   4.129   1.972
 8864SOL     OW27490   6.377   1.571   4.929
 8864SOL    HW127491   6.347   1.588   4.835
 8864SOL    HW227492   6.453   1.632   4.951
 8865SOL     OW27493   3.280   1.399   0.728
 8865SOL    HW127494   3.228   1.324   0.686
 8865SOL    HW227495   3.249   1.486   0.691
 8866SOL     OW27496   6.074   0.139   1.823
 8866SOL    HW127497   6.107   0.060   1.874
 8866SOL    HW227498   6.095   0.223   1.872
 8867SOL     OW27499   6.120   2.795   2.742
 8867SOL    HW127500   6.158   2.749   2.662
 8867SOL    HW227501   6.081   2.883   2.715
 8868SOL     OW27502   0.053   3.349   3.602
 8868SOL    HW127503   0.139   3.307   3.573
 8868SOL    HW227504   0.072   3.433   3.652
 8869SOL     OW27505   4.883   6.961   3.710
 8869SOL    HW127506   4.951   0.006   3.667
 8869SOL    HW227507   4.926   6.911   3.785
 8870SOL     OW27508   0.835   0.874   1.852
 8870SOL    HW127509   0.932   0.853   1.864
 8870SOL    HW227510   0.815   0.964   1.890
 8871SOL     OW27511   6.956   0.031   1.147
 8871SOL    HW127512   6.911   0.067   1.065
 8871SOL    HW227513   0.013   0.093   1.176
 8872SOL     OW27514   0.091   4.658   3.477
 8872SOL    HW127515   0.178   4.685   3.518
 8872SOL    HW227516   0.106   4.629   3.383
 8873SOL     OW27517   1.994   1.333   3.371
 8873SOL    HW127518   1.930   1.301   3.301
 8873SOL    HW227519   1.976   1.286   3.457
 8874SOL     OW27520   2.855   5.941   0.699
 8874SOL    HW127521   2.896   5.861   0.655
 8874SOL    HW227522   2.888   6.024   0.654
 8875SOL     OW27523   6.216   2.898   4.535
 8875SOL    HW127524   6.176   2.975   4.486
 8875SOL    HW227525   6.143   2.837   4.566
 8876SOL     OW27526   4.108   0.879   0.800
 8876SOL    HW127527   4.014   0.845   0.794
 8876SOL    HW227528   4.164   0.834   0.731
 8877SOL     OW27529   0.628   4.734   0.990
 8877SOL    HW127530   0.607   4.642   1.023
 8877SOL    HW227531   0.543   4.781   0.965
 8878SOL     OW27532   4.838   3.702   1.832
 8878SOL    HW127533   4.884   3.666   1.751
 8878SOL    HW227534   4.740   3.707   1.814
 8879SOL     OW27535   6.449   4.167   3.858
 8879SOL    HW127536   6.437   4.068   3.848
 8879SOL    HW227537   6.453   4.209   3.767
 8880SOL     OW27538   4.137   2.255   3.187
 8880SOL    HW127539   4.047   2.220   3.213
 8880SOL    HW227540   4.188   2.280   3.269
 8881SOL     OW27541   3.421   5.160   2.640
 8881SOL    HW127542   3.393   5.159   2.544
 8881SOL    HW227543   3.388   5.077   2.685
 8882SOL     OW27544   3.863   1.120   0.641
 8882SOL    HW127545   3.833   1.071   0.723
 8882SOL    HW227546   3.879   1.216   0.664
 8883SOL     OW27547   0.469   6.533   2.801
 8883SOL    HW127548   0.485   6.435   2.812
 8883SOL    HW227549   0.504   6.582   2.880
 8884SOL     OW27550   4.389   2.944   5.692
 8884SOL    HW127551   4.451   2.867   5.709
 8884SOL    HW227552   4.376   2.995   5.778
 8885SOL     OW27553   5.727   5.072   0.822
 8885SOL    HW127554   5.735   5.140   0.895
 8885SOL    HW227555   5.633   5.067   0.790
 8886SOL     OW27556   5.165   6.596   6.932
 8886SOL    HW127557   5.249   6.640   6.963
 8886SOL    HW227558   5.099   6.666   6.904
 8887SOL     OW27559   3.638   0.253   1.533
 8887SOL    HW127560   3.568   0.272   1.465
 8887SOL    HW227561   3.725   0.293   1.503
 8888SOL     OW27562   3.554   2.083   2.270
 8888SOL    HW127563   3.609   2.146   2.214
 8888SOL    HW227564   3.509   2.017   2.210
 8889SOL     OW27565   1.426   4.667   6.967
 8889SOL    HW127566   1.474   4.735   6.911
 8889SOL    HW227567   1.493   4.614   0.004
 8890SOL     OW27568   1.295   5.958   0.145
 8890SOL    HW127569   1.277   6.023   0.219
 8890SOL    HW227570   1.283   6.004   0.057
 8891SOL     OW27571   6.338   3.497   5.026
 8891SOL    HW127572   6.377   3.472   4.938
 8891SOL    HW227573   6.248   3.455   5.036
 8892SOL     OW27574   2.427   5.190   4.608
 8892SOL    HW127575   2.432   5.253   4.685
 8892SOL    HW227576   2.391   5.102   4.640
 8893SOL     OW27577   0.481   4.570   5.374
 8893SOL    HW127578   0.383   4.550   5.371
 8893SOL    HW227579   0.520   4.532   5.458
 8894SOL     OW27580   5.049   2.501   1.777
 8894SOL    HW127581   5.137   2.539   1.807
 8894SOL    HW227582   5.033   2.414   1.823
 8895SOL     OW27583   6.479   3.599   1.010
 8895SOL    HW127584   6.395   3.637   0.971
 8895SOL    HW227585   6.458   3.518   1.064
 8896SOL     OW27586   0.851   1.213   3.451
 8896SOL    HW127587   0.893   1.122   3.459
 8896SOL    HW227588   0.902   1.268   3.386
 8897SOL     OW27589   1.586   5.441   4.584
 8897SOL    HW127590   1.532   5.441   4.668
 8897SOL    HW227591   1.629   5.351   4.571
 8898SOL     OW27592   5.344   4.546   2.488
 8898SOL    HW127593   5.321   4.596   2.404
 8898SOL    HW227594   5.357   4.611   2.563
 8899SOL     OW27595   1.732   4.131   2.180
 8899SOL    HW127596   1.810   4.187   2.153
 8899SOL    HW227597   1.764   4.038   2.200
 8900SOL     OW27598   4.073   1.832   4.527
 8900SOL    HW127599   4.089   1.875   4.438
 8900SOL    HW227600   3.979   1.796   4.529
 8901SOL     OW27601   1.400   5.250   5.259
 8901SOL    HW127602   1.429   5.180   5.193
 8901SOL    HW227603   1.305   5.276   5.240
 8902SOL     OW27604   0.596   5.079   6.739
 8902SOL    HW127605   0.660   5.141   6.786
 8902SOL    HW227606   0.604   5.093   6.640
 8903SOL     OW27607   0.808   0.631   5.048
 8903SOL    HW127608   0.781   0.708   4.991
 8903SOL    HW227609   0.899   0.600   5.021
 8904SOL     OW27610   0.324   1.140   3.167
 8904SOL    HW127611   0.232   1.165   3.198
 8904SOL    HW227612   0.354   1.057   3.215
 8905SOL     OW27613   1.718   4.302   1.310
 8905SOL    HW127614   1.674   4.233   1.367
 8905SOL    HW227615   1.742   4.381   1.365
 8906SOL     OW27616   6.107   0.421   6.943
 8906SOL    HW127617   6.034   0.473   6.898
 8906SOL    HW227618   6.091   0.418   0.026
 8907SOL     OW27619   2.930   3.225   5.174
 8907SOL    HW127620   2.854   3.191   5.230
 8907SOL    HW227621   3.016   3.189   5.209
 8908SOL     OW27622   1.719   5.197   5.974
 8908SOL    HW127623   1.706   5.176   5.877
 8908SOL    HW227624   1.746   5.292   5.983
 8909SOL     OW27625   2.364   5.895   1.944
 8909SOL    HW127626   2.368   5.897   2.044
 8909SOL    HW227627   2.420   5.820   1.909
 8910SOL     OW27628   1.175   1.115   3.691
 8910SOL    HW127629   1.250   1.052   3.672
 8910SOL    HW227630   1.123   1.133   3.608
 8911SOL     OW27631   5.312   2.729   4.676
 8911SOL    HW127632   5.254   2.810   4.668
 8911SOL    HW227633   5.302   2.673   4.594
 8912SOL     OW27634   3.290   2.910   3.679
 8912SOL    HW127635   3.387   2.916   3.658
 8912SOL    HW227636   3.277   2.899   3.778
 8913SOL     OW27637   5.135   5.560   1.297
 8913SOL    HW127638   5.154   5.511   1.382
 8913SOL    HW227639   5.094   5.498   1.231
 8914SOL     OW27640   4.760   5.972   5.402
 8914SOL    HW127641   4.787   6.022   5.484
 8914SOL    HW227642   4.781   5.875   5.413
 8915SOL     OW27643   2.452   1.117   3.739
 8915SOL    HW127644   2.427   1.201   3.786
 8915SOL    HW227645   2.551   1.115   3.724
 8916SOL     OW27646   5.860   1.124   2.427
 8916SOL    HW127647   5.836   1.050   2.365
 8916SOL    HW227648   5.782   1.145   2.486
 8917SOL     OW27649   5.340   1.957   0.613
 8917SOL    HW127650   5.341   1.974   0.514
 8917SOL    HW227651   5.248   1.971   0.649
 8918SOL     OW27652   1.280   3.555   2.588
 8918SOL    HW127653   1.301   3.551   2.685
 8918SOL    HW227654   1.205   3.620   2.573
 8919SOL     OW27655   6.610   2.676   2.507
 8919SOL    HW127656   6.603   2.775   2.494
 8919SOL    HW227657   6.578   2.653   2.599
 8920SOL     OW27658   1.027   1.805   0.646
 8920SOL    HW127659   0.991   1.724   0.600
 8920SOL    HW227660   1.009   1.886   0.590
 8921SOL     OW27661   1.146   3.012   1.689
 8921SOL    HW127662   1.234   2.995   1.734
 8921SOL    HW227663   1.162   3.063   1.604
 8922SOL     OW27664   2.749   4.807   3.178
 8922SOL    HW127665   2.723   4.900   3.205
 8922SOL    HW227666   2.827   4.777   3.232
 8923SOL     OW27667   2.725   1.397   3.551
 8923SOL    HW127668   2.729   1.476   3.612
 8923SOL    HW227669   2.637   1.396   3.504
 8924SOL     OW27670   6.194   5.017   4.725
 8924SOL    HW127671   6.178   4.977   4.816
 8924SOL    HW227672   6.108   5.019   4.675
 8925SOL     OW27673   0.637   0.027   3.776
 8925SOL    HW127674   0.712   6.979   3.794
 8925SOL    HW227675   0.557   0.001   3.831
 8926SOL     OW27676   6.038   1.854   0.091
 8926SOL    HW127677   6.009   1.949   0.103
 8926SOL    HW227678   6.136   1.851   0.071
 8927SOL     OW27679   1.319   1.480   6.490
 8927SOL    HW127680   1.382   1.466   6.413
 8927SOL    HW227681   1.316   1.577   6.513
 8928SOL     OW27682   1.760   0.115   5.528
 8928SOL    HW127683   1.717   0.117   5.438
 8928SOL    HW227684   1.858   0.095   5.518
 8929SOL     OW27685   0.069   1.893   3.277
 8929SOL    HW127686   7.005   1.931   3.325
 8929SOL    HW227687   0.077   1.795   3.296
 8930SOL     OW27688   2.286   5.194   3.119
 8930SOL    HW127689   2.355   5.122   3.130
 8930SOL    HW227690   2.250   5.219   3.209
 8931SOL     OW27691   4.202   3.329   0.040
 8931SOL    HW127692   4.164   3.421   0.043
 8931SOL    HW227693   4.131   3.265   0.010
 8932SOL     OW27694   0.769   4.045   3.284
 8932SOL    HW127695   0.703   4.084   3.220
 8932SOL    HW227696   0.828   3.980   3.236
 8933SOL     OW27697   4.806   1.993   6.330
 8933SOL    HW127698   4.736   1.934   6.371
 8933SOL    HW227699   4.782   2.013   6.235
 8934SOL     OW27700   2.550   5.885   3.017
 8934SOL    HW127701   2.489   5.959   3.047
 8934SOL    HW227702   2.544   5.874   2.918
 8935SOL     OW27703   6.860   5.255   6.951
 8935SOL    HW127704   6.960   5.257   6.953
 8935SOL    HW227705   6.824   5.284   0.025
 8936SOL     OW27706   3.888   3.012   1.050
 8936SOL    HW127707   3.867   3.007   1.148
 8936SOL    HW227708   3.984   3.038   1.038
 8937SOL     OW27709   0.877   0.921   6.227
 8937SOL    HW127710   0.921   0.923   6.317
 8937SOL    HW227711   0.900   1.004   6.177
 8938SOL     OW27712   4.653   6.080   1.856
 8938SOL    HW127713   4.664   6.014   1.782
 8938SOL    HW227714   4.625   6.169   1.819
 8939SOL     OW27715   5.771   2.088   4.544
 8939SOL    HW127716   5.672   2.079   4.533
 8939SOL    HW227717   5.799   2.181   4.519
 8940SOL     OW27718   5.842   6.887   2.605
 8940SOL    HW127719   5.916   6.952   2.622
 8940SOL    HW227720   5.855   6.843   2.516
 8941SOL     OW27721   3.748   1.316   0.019
 8941SOL    HW127722   3.699   1.230   0.001
 8941SOL    HW227723   3.683   1.387   0.046
 8942SOL     OW27724   1.252   2.147   5.275
 8942SOL    HW127725   1.339   2.118   5.316
 8942SOL    HW227726   1.246   2.111   5.181
 8943SOL     OW27727   5.276   3.651   0.750
 8943SOL    HW127728   5.254   3.726   0.689
 8943SOL    HW227729   5.357   3.602   0.716
 8944SOL     OW27730   4.257   6.060   1.262
 8944SOL    HW127731   4.317   6.132   1.225
 8944SOL    HW227732   4.275   5.975   1.214
 8945SOL     OW27733   2.417   0.895   3.888
 8945SOL    HW127734   2.463   0.906   3.977
 8945SOL    HW227735   2.443   0.971   3.829
 8946SOL     OW27736   4.100   0.566   4.655
 8946SOL    HW127737   4.058   0.657   4.649
 8946SOL    HW227738   4.115   0.543   4.751
 8947SOL     OW27739   3.916   4.041   5.145
 8947SOL    HW127740   3.914   4.125   5.199
 8947SOL    HW227741   3.829   3.993   5.154
 8948SOL     OW27742   5.606   5.015   3.393
 8948SOL    HW127743   5.675   4.951   3.428
 8948SOL    HW227744   5.594   5.001   3.295
 8949SOL     OW27745   1.434   5.510   5.883
 8949SOL    HW127746   1.438   5.511   5.983
 8949SOL    HW227747   1.523   5.480   5.847
 8950SOL     OW27748   4.770   2.901   4.589
 8950SOL    HW127749   4.817   2.917   4.502
 8950SOL    HW227750   4.703   2.827   4.577
 8951SOL     OW27751   2.747   2.378   5.674
 8951SOL    HW127752   2.776   2.393   5.580
 8951SOL    HW227753   2.719   2.465   5.715
 8952SOL     OW27754   6.385   6.590   3.550
 8952SOL    HW127755   6.479   6.559   3.566
 8952SOL    HW227756   6.384   6.688   3.533
 8953SOL     OW27757   1.641   5.443   5.720
 8953SOL    HW127758   1.639   5.353   5.677
 8953SOL    HW227759   1.688   5.508   5.661
 8954SOL     OW27760   2.472   5.907   6.109
 8954SOL    HW127761   2.471   5.841   6.184
 8954SOL    HW227762   2.389   5.963   6.113
 8955SOL     OW27763   6.796   3.623   4.479
 8955SOL    HW127764   6.753   3.545   4.433
 8955SOL    HW227765   6.780   3.706   4.427
 8956SOL     OW27766   1.255   0.643   4.492
 8956SOL    HW127767   1.295   0.635   4.584
 8956SOL    HW227768   1.318   0.694   4.433
 8957SOL     OW27769   2.946   6.051   1.698
 8957SOL    HW127770   2.858   6.002   1.692
 8957SOL    HW227771   2.967   6.070   1.794
 8958SOL     OW27772   2.713   0.501   4.447
 8958SOL    HW127773   2.770   0.582   4.438
 8958SOL    HW227774   2.764   0.429   4.494
 8959SOL     OW27775   3.871   5.531   0.273
 8959SOL    HW127776   3.785   5.510   0.320
 8959SOL    HW227777   3.948   5.500   0.329
 8960SOL     OW27778   4.352   6.012   0.944
 8960SOL    HW127779   4.274   6.074   0.949
 8960SOL    HW227780   4.320   5.917   0.943
 8961SOL     OW27781   0.695   2.928   4.255
 8961SOL    HW127782   0.754   2.992   4.305
 8961SOL    HW227783   0.738   2.838   4.253
 8962SOL     OW27784   4.930   0.723   3.858
 8962SOL    HW127785   4.896   0.761   3.944
 8962SOL    HW227786   4.933   0.795   3.788
 8963SOL     OW27787   0.734   1.011   3.731
 8963SOL    HW127788   0.649   1.059   3.754
 8963SOL    HW227789   0.812   1.072   3.747
 8964SOL     OW27790   6.728   3.299   2.924
 8964SOL    HW127791   6.824   3.309   2.950
 8964SOL    HW227792   6.708   3.359   2.847
 8965SOL     OW27793   1.851   5.162   1.493
 8965SOL    HW127794   1.871   5.254   1.527
 8965SOL    HW227795   1.753   5.144   1.501
 8966SOL     OW27796   3.953   1.865   5.160
 8966SOL    HW127797   3.992   1.950   5.123
 8966SOL    HW227798   3.858   1.857   5.129
 8967SOL     OW27799   5.334   6.220   0.800
 8967SOL    HW127800   5.301   6.128   0.821
 8967SOL    HW227801   5.427   6.230   0.833
 8968SOL     OW27802   5.313   4.398   3.418
 8968SOL    HW127803   5.402   4.399   3.463
 8968SOL    HW227804   5.241   4.401   3.488
 8969SOL     OW27805   6.728   0.158   4.430
 8969SOL    HW127806   6.724   0.188   4.335
 8969SOL    HW227807   6.797   0.211   4.479
 8970SOL     OW27808   2.827   2.382   1.550
 8970SOL    HW127809   2.866   2.295   1.579
 8970SOL    HW227810   2.742   2.364   1.499
 8971SOL     OW27811   3.817   6.135   2.830
 8971SOL    HW127812   3.820   6.065   2.902
 8971SOL    HW227813   3.751   6.109   2.760
 8972SOL     OW27814   4.836   0.381   4.773
 8972SOL    HW127815   4.919   0.340   4.811
 8972SOL    HW227816   4.855   0.416   4.682
 8973SOL     OW27817   2.348   5.204   6.117
 8973SOL    HW127818   2.271   5.209   6.053
 8973SOL    HW227819   2.361   5.109   6.146
 8974SOL     OW27820   0.580   2.922   3.955
 8974SOL    HW127821   0.623   2.860   3.889
 8974SOL    HW227822   0.646   2.989   3.987
 8975SOL     OW27823   3.685   0.947   6.087
 8975SOL    HW127824   3.603   0.891   6.078
 8975SOL    HW227825   3.748   0.904   6.151
 8976SOL     OW27826   1.631   5.373   4.258
 8976SOL    HW127827   1.581   5.374   4.345
 8976SOL    HW227828   1.566   5.365   4.182
 8977SOL     OW27829   5.529   1.350   0.085
 8977SOL    HW127830   5.432   1.332   0.071
 8977SOL    HW227831   5.569   1.277   0.141
 8978SOL     OW27832   5.672   4.996   1.126
 8978SOL    HW127833   5.673   5.095   1.114
 8978SOL    HW227834   5.747   4.969   1.186
 8979SOL     OW27835   1.108   4.409   5.028
 8979SOL    HW127836   1.043   4.344   4.988
 8979SOL    HW227837   1.113   4.395   5.127
 8980SOL     OW27838   4.000   3.069   4.707
 8980SOL    HW127839   4.036   2.978   4.688
 8980SOL    HW227840   3.949   3.102   4.627
 8981SOL     OW27841   2.618   1.611   5.358
 8981SOL    HW127842   2.713   1.643   5.353
 8981SOL    HW227843   2.559   1.675   5.309
 8982SOL     OW27844   3.582   4.559   0.673
 8982SOL    HW127845   3.509   4.616   0.636
 8982SOL    HW227846   3.548   4.466   0.688
 8983SOL     OW27847   4.791   4.404   0.906
 8983SOL    HW127848   4.731   4.378   0.830
 8983SOL    HW227849   4.781   4.339   0.981
 8984SOL     OW27850   1.251   6.501   3.292
 8984SOL    HW127851   1.301   6.429   3.340
 8984SOL    HW227852   1.155   6.500   3.320
 8985SOL     OW27853   3.198   3.548   6.055
 8985SOL    HW127854   3.109   3.508   6.032
 8985SOL    HW227855   3.269   3.477   6.051
 8986SOL     OW27856   2.901   6.307   2.225
 8986SOL    HW127857   2.885   6.385   2.165
 8986SOL    HW227858   2.995   6.275   2.213
 8987SOL     OW27859   5.401   6.727   2.459
 8987SOL    HW127860   5.427   6.820   2.488
 8987SOL    HW227861   5.385   6.670   2.540
 8988SOL     OW27862   0.638   4.650   4.735
 8988SOL    HW127863   0.582   4.706   4.796
 8988SOL    HW227864   0.608   4.662   4.641
 8989SOL     OW27865   2.424   2.339   6.948
 8989SOL    HW127866   2.354   2.315   6.880
 8989SOL    HW227867   2.512   2.352   6.903
 8990SOL     OW27868   0.001   4.970   3.299
 8990SOL    HW127869   6.935   4.911   3.293
 8990SOL    HW227870   6.988   5.065   3.285
 8991SOL     OW27871   1.575   2.105   5.145
 8991SOL    HW127872   1.662   2.057   5.137
 8991SOL    HW227873   1.544   2.132   5.053
 8992SOL     OW27874   6.702   2.429   1.455
 8992SOL    HW127875   6.747   2.355   1.505
 8992SOL    HW227876   6.738   2.433   1.362
 8993SOL     OW27877   3.845   2.389   0.577
 8993SOL    HW127878   3.826   2.361   0.671
 8993SOL    HW227879   3.796   2.474   0.557
 8994SOL     OW27880   1.656   5.612   2.592
 8994SOL    HW127881   1.638   5.518   2.620
 8994SOL    HW227882   1.730   5.650   2.649
 8995SOL     OW27883   0.401   0.251   1.565
 8995SOL    HW127884   0.477   0.186   1.563
 8995SOL    HW227885   0.322   0.209   1.609
 8996SOL     OW27886   4.011   6.386   5.675
 8996SOL    HW127887   4.010   6.342   5.585
 8996SOL    HW227888   3.919   6.382   5.714
 8997SOL     OW27889   6.281   0.203   4.790
 8997SOL    HW127890   6.292   0.187   4.692
 8997SOL    HW227891   6.349   0.269   4.821
 8998SOL     OW27892   6.814   4.181   4.401
 8998SOL    HW127893   6.825   4.217   4.493
 8998SOL    HW227894   6.904   4.172   4.358
 8999SOL     OW27895   4.145   6.483   6.028
 8999SOL    HW127896   4.152   6.390   5.990
 8999SOL    HW227897   4.206   6.544   5.978
 9000SOL     OW27898   1.042   3.772   1.297
 9000SOL    HW127899   1.047   3.791   1.395
 9000SOL    HW227900   1.133   3.751   1.262
 9001SOL     OW27901   1.383   5.599   0.960
 9001SOL    HW127902   1.465   5.585   0.905
 9001SOL    HW227903   1.408   5.643   1.046
 9002SOL     OW27904   0.088   4.704   6.312
 9002SOL    HW127905   0.117   4.774   6.247
 9002SOL    HW227906   7.003   4.700   6.314
 9003SOL     OW27907   5.354   6.934   0.440
 9003SOL    HW127908   5.390   6.931   0.347
 9003SOL    HW227909   5.399   6.864   0.496
 9004SOL     OW27910   5.856   4.913   1.333
 9004SOL    HW127911   5.820   4.948   1.420
 9004SOL    HW227912   5.956   4.904   1.340
 9005SOL     OW27913   5.165   0.632   5.502
 9005SOL    HW127914   5.162   0.673   5.411
 9005SOL    HW227915   5.260   0.622   5.530
 9006SOL     OW27916   4.340   5.562   0.382
 9006SOL    HW127917   4.373   5.645   0.428
 9006SOL    HW227918   4.376   5.558   0.289
 9007SOL     OW27919   1.424   1.225   3.079
 9007SOL    HW127920   1.402   1.157   3.010
 9007SOL    HW227921   1.488   1.291   3.042
 9008SOL     OW27922   0.472   5.442   2.315
 9008SOL    HW127923   0.435   5.366   2.261
 9008SOL    HW227924   0.417   5.524   2.300
 9009SOL     OW27925   3.187   6.617   2.158
 9009SOL    HW127926   3.249   6.682   2.114
 9009SOL    HW227927   3.104   6.607   2.104
 9010SOL     OW27928   1.461   5.705   4.753
 9010SOL    HW127929   1.549   5.658   4.761
 9010SOL    HW227930   1.422   5.719   4.844
 9011SOL     OW27931   1.895   2.293   2.375
 9011SOL    HW127932   1.984   2.319   2.337
 9011SOL    HW227933   1.897   2.305   2.474
 9012SOL     OW27934   2.823   5.792   6.933
 9012SOL    HW127935   2.872   5.721   6.983
 9012SOL    HW227936   2.881   5.874   6.925
 9013SOL     OW27937   1.834   0.001   4.324
 9013SOL    HW127938   1.922   0.030   4.287
 9013SOL    HW227939   1.823   6.917   4.308
 9014SOL     OW27940   5.489   3.074   3.717
 9014SOL    HW127941   5.501   3.056   3.619
 9014SOL    HW227942   5.512   3.169   3.737
 9015SOL     OW27943   4.474   0.175   6.399
 9015SOL    HW127944   4.512   0.267   6.390
 9015SOL    HW227945   4.403   0.176   6.469
 9016SOL     OW27946   4.649   5.093   5.689
 9016SOL    HW127947   4.673   5.020   5.625
 9016SOL    HW227948   4.729   5.152   5.704
 9017SOL     OW27949   3.664   6.991   5.337
 9017SOL    HW127950   3.605   0.028   5.399
 9017SOL    HW227951   3.607   6.930   5.281
 9018SOL     OW27952   3.479   4.641   0.365
 9018SOL    HW127953   3.468   4.692   0.450
 9018SOL    HW227954   3.536   4.560   0.382
 9019SOL     OW27955   0.755   3.444   3.538
 9019SOL    HW127956   0.677   3.418   3.594
 9019SOL    HW227957   0.754   3.543   3.524
 9020SOL     OW27958   5.286   4.762   3.508
 9020SOL    HW127959   5.382   4.736   3.509
 9020SOL    HW227960   5.234   4.701   3.568
 9021SOL     OW27961   0.589   1.231   3.830
 9021SOL    HW127962   0.591   1.302   3.901
 9021SOL    HW227963   0.627   1.267   3.745
 9022SOL     OW27964   4.114   3.832   6.446
 9022SOL    HW127965   4.087   3.891   6.370
 9022SOL    HW227966   4.142   3.888   6.524
 9023SOL     OW27967   6.903   4.727   0.494
 9023SOL    HW127968   6.962   4.685   0.563
 9023SOL    HW227969   6.839   4.789   0.537
 9024SOL     OW27970   2.244   5.367   6.319
 9024SOL    HW127971   2.291   5.293   6.271
 9024SOL    HW227972   2.279   5.373   6.412
 9025SOL     OW27973   0.844   5.762   1.132
 9025SOL    HW127974   0.907   5.835   1.154
 9025SOL    HW227975   0.767   5.799   1.080
 9026SOL     OW27976   5.554   1.270   0.543
 9026SOL    HW127977   5.592   1.338   0.480
 9026SOL    HW227978   5.531   1.314   0.630
 9027SOL     OW27979   0.569   3.898   3.634
 9027SOL    HW127980   0.510   3.896   3.553
 9027SOL    HW227981   0.636   3.972   3.626
 9028SOL     OW27982   3.278   4.864   6.315
 9028SOL    HW127983   3.321   4.796   6.374
 9028SOL    HW227984   3.303   4.956   6.345
 9029SOL     OW27985   4.505   6.648   4.529
 9029SOL    HW127986   4.529   6.742   4.505
 9029SOL    HW227987   4.466   6.603   4.448
 9030SOL     OW27988   2.855   2.011   2.293
 9030SOL    HW127989   2.907   2.026   2.209
 9030SOL    HW227990   2.774   2.068   2.293
 9031SOL     OW27991   4.782   6.935   5.008
 9031SOL    HW127992   4.736   6.851   5.036
 9031SOL    HW227993   4.721   7.013   5.020
 9032SOL     OW27994   5.365   2.489   0.966
 9032SOL    HW127995   5.277   2.462   1.005
 9032SOL    HW227996   5.377   2.588   0.978
 9033SOL     OW27997   1.089   6.523   2.682
 9033SOL    HW127998   1.104   6.568   2.770
 9033SOL    HW227999   1.153   6.447   2.672
 9034SOL     OW28000   4.591   6.910   4.405
 9034SOL    HW128001   4.554   7.002   4.415
 9034SOL    HW228002   4.573   6.877   4.312
 9035SOL     OW28003   3.120   5.322   6.327
 9035SOL    HW128004   3.173   5.243   6.355
 9035SOL    HW228005   3.025   5.312   6.358
 9036SOL     OW28006   1.059   4.696   5.029
 9036SOL    HW128007   1.101   4.605   5.031
 9036SOL    HW228008   0.965   4.689   5.063
 9037SOL     OW28009   0.123   0.772   2.205
 9037SOL    HW128010   0.046   0.834   2.195
 9037SOL    HW228011   0.197   0.800   2.144
 9038SOL     OW28012   4.080   3.674   5.692
 9038SOL    HW128013   4.089   3.593   5.634
 9038SOL    HW228014   4.045   3.750   5.638
 9039SOL     OW28015   4.475   6.393   6.585
 9039SOL    HW128016   4.533   6.457   6.535
 9039SOL    HW228017   4.531   6.334   6.644
 9040SOL     OW28018   1.959   2.421   1.590
 9040SOL    HW128019   2.049   2.443   1.553
 9040SOL    HW228020   1.969   2.357   1.666
 9041SOL     OW28021   5.856   1.941   2.902
 9041SOL    HW128022   5.924   1.913   2.970
 9041SOL    HW228023   5.785   1.997   2.946
 9042SOL     OW28024   5.012   5.587   0.005
 9042SOL    HW128025   4.929   5.640   7.006
 9042SOL    HW228026   5.001   5.496   6.979
 9043SOL     OW28027   2.712   2.662   1.370
 9043SOL    HW128028   2.617   2.645   1.343
 9043SOL    HW228029   2.764   2.577   1.367
 9044SOL     OW28030   1.269   0.714   0.546
 9044SOL    HW128031   1.305   0.804   0.568
 9044SOL    HW228032   1.201   0.723   0.473
 9045SOL     OW28033   4.020   0.427   4.034
 9045SOL    HW128034   4.016   0.520   4.071
 9045SOL    HW228035   4.067   0.429   3.946
 9046SOL     OW28036   3.840   2.903   2.281
 9046SOL    HW128037   3.798   2.991   2.261
 9046SOL    HW228038   3.934   2.902   2.246
 9047SOL     OW28039   0.998   4.573   5.880
 9047SOL    HW128040   0.997   4.473   5.875
 9047SOL    HW228041   0.911   4.606   5.918
 9048SOL     OW28042   6.910   1.753   5.548
 9048SOL    HW128043   6.861   1.666   5.561
 9048SOL    HW228044   6.905   1.807   5.632
 9049SOL     OW28045   2.278   6.435   5.355
 9049SOL    HW128046   2.214   6.511   5.350
 9049SOL    HW228047   2.324   6.436   5.444
 9050SOL     OW28048   0.541   4.545   0.560
 9050SOL    HW128049   0.442   4.557   0.559
 9050SOL    HW228050   0.567   4.489   0.639
 9051SOL     OW28051   2.105   0.857   1.811
 9051SOL    HW128052   2.092   0.950   1.846
 9051SOL    HW228053   2.041   0.795   1.856
 9052SOL     OW28054   2.062   3.781   6.339
 9052SOL    HW128055   1.971   3.822   6.349
 9052SOL    HW228056   2.078   3.718   6.415
 9053SOL     OW28057   1.063   0.771   6.759
 9053SOL    HW128058   1.139   0.708   6.743
 9053SOL    HW228059   1.083   0.827   6.839
 9054SOL     OW28060   1.414   5.470   2.900
 9054SOL    HW128061   1.389   5.522   2.818
 9054SOL    HW228062   1.503   5.502   2.934
 9055SOL     OW28063   0.636   2.708   5.754
 9055SOL    HW128064   0.632   2.615   5.790
 9055SOL    HW228065   0.657   2.704   5.656
 9056SOL     OW28066   5.850   1.739   4.005
 9056SOL    HW128067   5.783   1.673   4.039
 9056SOL    HW228068   5.816   1.832   4.020
 9057SOL     OW28069   4.740   2.234   3.782
 9057SOL    HW128070   4.661   2.294   3.774
 9057SOL    HW228071   4.798   2.265   3.857
 9058SOL     OW28072   2.283   6.972   5.868
 9058SOL    HW128073   2.319   6.992   5.777
 9058SOL    HW228074   2.220   6.894   5.862
 9059SOL     OW28075   1.074   2.337   3.558
 9059SOL    HW128076   1.041   2.243   3.560
 9059SOL    HW228077   1.004   2.397   3.520
 9060SOL     OW28078   4.898   3.072   5.049
 9060SOL    HW128079   4.871   3.032   4.961
 9060SOL    HW228080   4.981   3.027   5.082
 9061SOL     OW28081   1.518   4.721   3.213
 9061SOL    HW128082   1.423   4.727   3.244
 9061SOL    HW228083   1.569   4.659   3.272
 9062SOL     OW28084   1.810   6.323   1.665
 9062SOL    HW128085   1.753   6.254   1.709
 9062SOL    HW228086   1.902   6.287   1.649
 9063SOL     OW28087   3.036   1.590   2.368
 9063SOL    HW128088   3.006   1.522   2.300
 9063SOL    HW228089   2.970   1.593   2.443
 9064SOL     OW28090   5.120   4.159   6.917
 9064SOL    HW128091   5.049   4.113   6.864
 9064SOL    HW228092   5.082   4.188   7.005
 9065SOL     OW28093   2.860   0.795   1.386
 9065SOL    HW128094   2.923   0.872   1.383
 9065SOL    HW228095   2.769   0.827   1.359
 9066SOL     OW28096   5.321   6.819   6.741
 9066SOL    HW128097   5.260   6.899   6.743
 9066SOL    HW228098   5.340   6.789   6.834
 9067SOL     OW28099   1.049   0.358   1.311
 9067SOL    HW128100   0.988   0.282   1.332
 9067SOL    HW228101   1.048   0.423   1.387
 9068SOL     OW28102   1.522   5.916   6.516
 9068SOL    HW128103   1.621   5.904   6.526
 9068SOL    HW228104   1.496   5.901   6.421
 9069SOL     OW28105   1.308   2.603   6.258
 9069SOL    HW128106   1.353   2.514   6.252
 9069SOL    HW228107   1.372   2.669   6.297
 9070SOL     OW28108   1.573   4.535   3.785
 9070SOL    HW128109   1.502   4.466   3.768
 9070SOL    HW228110   1.656   4.511   3.734
 9071SOL     OW28111   4.863   5.959   6.838
 9071SOL    HW128112   4.824   5.867   6.832
 9071SOL    HW228113   4.925   5.974   6.761
 9072SOL     OW28114   4.795   4.432   0.397
 9072SOL    HW128115   4.831   4.517   0.436
 9072SOL    HW228116   4.796   4.360   0.466
 9073SOL     OW28117   2.538   0.571   1.295
 9073SOL    HW128118   2.493   0.588   1.383
 9073SOL    HW228119   2.489   0.502   1.244
 9074SOL     OW28120   0.385   0.742   1.985
 9074SOL    HW128121   0.347   0.652   2.008
 9074SOL    HW228122   0.475   0.730   1.944
 9075SOL     OW28123   6.751   0.184   1.700
 9075SOL    HW128124   6.704   0.097   1.684
 9075SOL    HW228125   6.773   0.226   1.612
 9076SOL     OW28126   1.228   1.950   5.043
 9076SOL    HW128127   1.305   1.995   4.999
 9076SOL    HW228128   1.182   1.890   4.978
 9077SOL     OW28129   5.786   6.548   1.856
 9077SOL    HW128130   5.750   6.530   1.947
 9077SOL    HW228131   5.711   6.575   1.795
 9078SOL     OW28132   4.752   3.083   5.835
 9078SOL    HW128133   4.686   3.158   5.839
 9078SOL    HW228134   4.753   3.034   5.922
 9079SOL     OW28135   3.174   0.504   5.568
 9079SOL    HW128136   3.144   0.503   5.472
 9079SOL    HW228137   3.105   0.550   5.624
 9080SOL     OW28138   4.456   1.321   0.103
 9080SOL    HW128139   4.377   1.372   0.067
 9080SOL    HW228140   4.479   1.247   0.040
 9081SOL     OW28141   5.464   6.737   3.399
 9081SOL    HW128142   5.414   6.704   3.479
 9081SOL    HW228143   5.469   6.837   3.401
 9082SOL     OW28144   2.531   0.633   2.080
 9082SOL    HW128145   2.462   0.696   2.115
 9082SOL    HW228146   2.524   0.545   2.128
 9083SOL     OW28147   4.540   4.754   3.782
 9083SOL    HW128148   4.627   4.803   3.788
 9083SOL    HW228149   4.473   4.798   3.841
 9084SOL     OW28150   4.077   3.491   2.619
 9084SOL    HW128151   3.990   3.502   2.667
 9084SOL    HW228152   4.105   3.395   2.623
 9085SOL     OW28153   1.086   2.800   0.904
 9085SOL    HW128154   1.043   2.771   0.819
 9085SOL    HW228155   1.154   2.732   0.932
 9086SOL     OW28156   6.620   3.625   6.650
 9086SOL    HW128157   6.716   3.644   6.669
 9086SOL    HW228158   6.599   3.650   6.555
 9087SOL     OW28159   5.178   3.430   2.149
 9087SOL    HW128160   5.217   3.339   2.136
 9087SOL    HW228161   5.211   3.490   2.076
 9088SOL     OW28162   5.484   5.246   1.421
 9088SOL    HW128163   5.423   5.297   1.481
 9088SOL    HW228164   5.539   5.182   1.475
 9089SOL     OW28165   4.211   0.828   5.480
 9089SOL    HW128166   4.142   0.886   5.438
 9089SOL    HW228167   4.275   0.884   5.532
 9090SOL     OW28168   6.151   1.649   3.476
 9090SOL    HW128169   6.100   1.724   3.434
 9090SOL    HW228170   6.145   1.655   3.575
 9091SOL     OW28171   3.939   2.860   5.918
 9091SOL    HW128172   4.028   2.854   5.962
 9091SOL    HW228173   3.901   2.952   5.930
 9092SOL     OW28174   6.811   3.138   5.966
 9092SOL    HW128175   6.856   3.088   6.040
 9092SOL    HW228176   6.802   3.234   5.990
 9093SOL     OW28177   1.903   6.325   4.957
 9093SOL    HW128178   1.975   6.388   4.929
 9093SOL    HW228179   1.888   6.258   4.885
 9094SOL     OW28180   1.775   3.707   0.671
 9094SOL    HW128181   1.710   3.766   0.622
 9094SOL    HW228182   1.861   3.703   0.621
 9095SOL     OW28183   0.193   6.705   6.248
 9095SOL    HW128184   0.281   6.749   6.265
 9095SOL    HW228185   0.194   6.664   6.157
 9096SOL     OW28186   6.030   5.253   3.662
 9096SOL    HW128187   6.107   5.315   3.650
 9096SOL    HW228188   6.028   5.220   3.757
 9097SOL     OW28189   1.172   3.097   6.343
 9097SOL    HW128190   1.133   3.009   6.315
 9097SOL    HW228191   1.130   3.127   6.428
 9098SOL     OW28192   2.020   4.564   3.907
 9098SOL    HW128193   1.960   4.644   3.903
 9098SOL    HW228194   1.980   4.489   3.854
 9099SOL     OW28195   2.429   1.601   0.094
 9099SOL    HW128196   2.357   1.618   0.162
 9099SOL    HW228197   2.413   1.512   0.051
 9100SOL     OW28198   1.625   4.879   4.360
 9100SOL    HW128199   1.695   4.818   4.323
 9100SOL    HW228200   1.572   4.830   4.429
 9101SOL     OW28201   0.422   1.921   0.770
 9101SOL    HW128202   0.371   1.942   0.687
 9101SOL    HW228203   0.520   1.918   0.749
 9102SOL     OW28204   3.725   1.055   3.111
 9102SOL    HW128205   3.787   1.118   3.157
 9102SOL    HW228206   3.637   1.100   3.093
 9103SOL     OW28207   6.345   0.346   1.271
 9103SOL    HW128208   6.391   0.350   1.360
 9103SOL    HW228209   6.316   0.252   1.253
 9104SOL     OW28210   6.078   2.242   6.034
 9104SOL    HW128211   6.095   2.179   6.110
 9104SOL    HW228212   6.092   2.336   6.064
 9105SOL     OW28213   2.927   0.818   6.947
 9105SOL    HW128214   2.880   0.747   7.000
 9105SOL    HW228215   3.015   0.783   6.915
 9106SOL     OW28216   2.467   2.977   6.461
 9106SOL    HW128217   2.508   3.068   6.451
 9106SOL    HW228218   2.415   2.955   6.379
 9107SOL     OW28219   3.394   0.752   1.007
 9107SOL    HW128220   3.334   0.786   1.079
 9107SOL    HW228221   3.408   0.823   0.939
 9108SOL     OW28222   6.718   5.887   6.122
 9108SOL    HW128223   6.672   5.975   6.108
 9108SOL    HW228224   6.649   5.814   6.128
 9109SOL     OW28225   5.260   4.231   3.168
 9109SOL    HW128226   5.202   4.201   3.093
 9109SOL    HW228227   5.284   4.327   3.155
 9110SOL     OW28228   1.301   6.763   2.344
 9110SOL    HW128229   1.253   6.806   2.420
 9110SOL    HW228230   1.237   6.708   2.290
 9111SOL     OW28231   4.115   2.967   5.590
 9111SOL    HW128232   4.206   2.941   5.621
 9111SOL    HW228233   4.113   2.971   5.490
 9112SOL     OW28234   0.648   4.857   2.201
 9112SOL    HW128235   0.728   4.870   2.259
 9112SOL    HW228236   0.627   4.942   2.153
 9113SOL     OW28237   5.924   0.135   4.452
 9113SOL    HW128238   5.861   0.126   4.375
 9113SOL    HW228239   5.876   0.114   4.537
 9114SOL     OW28240   1.263   1.175   6.347
 9114SOL    HW128241   1.351   1.220   6.334
 9114SOL    HW228242   1.230   1.139   6.260
 9115SOL     OW28243   5.175   3.518   4.900
 9115SOL    HW128244   5.269   3.550   4.894
 9115SOL    HW228245   5.153   3.495   4.995
 9116SOL     OW28246   1.000   5.700   3.566
 9116SOL    HW128247   1.041   5.730   3.652
 9116SOL    HW228248   0.986   5.601   3.569
 9117SOL     OW28249   2.229   6.955   0.054
 9117SOL    HW128250   2.134   6.975   0.078
 9117SOL    HW228251   2.274   0.024   0.025
 9118SOL     OW28252   6.469   4.781   1.510
 9118SOL    HW128253   6.406   4.808   1.583
 9118SOL    HW228254   6.554   4.832   1.518
 9119SOL     OW28255   3.533   1.006   1.155
 9119SOL    HW128256   3.511   1.099   1.125
 9119SOL    HW228257   3.594   0.964   1.088
 9120SOL     OW28258   6.698   3.983   4.565
 9120SOL    HW128259   6.711   4.082   4.567
 9120SOL    HW228260   6.608   3.960   4.603
 9121SOL     OW28261   4.102   1.155   4.210
 9121SOL    HW128262   4.140   1.218   4.143
 9121SOL    HW228263   4.119   1.061   4.181
 9122SOL     OW28264   0.053   1.952   2.213
 9122SOL    HW128265   7.007   1.983   2.140
 9122SOL    HW228266   0.036   1.856   2.232
 9123SOL     OW28267   0.531   6.546   4.552
 9123SOL    HW128268   0.479   6.470   4.512
 9123SOL    HW228269   0.607   6.510   4.606
 9124SOL     OW28270   4.025   5.798   0.577
 9124SOL    HW128271   4.010   5.739   0.656
 9124SOL    HW228272   4.034   5.742   0.494
 9125SOL     OW28273   5.264   6.794   1.548
 9125SOL    HW128274   5.300   6.886   1.562
 9125SOL    HW228275   5.192   6.776   1.615
 9126SOL     OW28276   3.980   5.049   0.596
 9126SOL    HW128277   4.040   5.071   0.673
 9126SOL    HW228278   3.922   4.972   0.620
 9127SOL     OW28279   6.798   4.219   5.246
 9127SOL    HW128280   6.794   4.224   5.146
 9127SOL    HW228281   6.732   4.151   5.278
 9128SOL     OW28282   5.491   4.084   6.139
 9128SOL    HW128283   5.435   4.004   6.160
 9128SOL    HW228284   5.477   4.154   6.209
 9129SOL     OW28285   6.835   3.149   0.978
 9129SOL    HW128286   6.767   3.160   0.905
 9129SOL    HW228287   6.844   3.052   1.001
 9130SOL     OW28288   3.369   3.142   6.035
 9130SOL    HW128289   3.372   3.130   5.936
 9130SOL    HW228290   3.373   3.240   6.057
 9131SOL     OW28291   6.282   3.096   0.844
 9131SOL    HW128292   6.337   3.062   0.768
 9131SOL    HW228293   6.201   3.038   0.855
 9132SOL     OW28294   1.244   4.109   3.754
 9132SOL    HW128295   1.152   4.147   3.761
 9132SOL    HW228296   1.260   4.046   3.830
 9133SOL     OW28297   5.143   0.393   1.034
 9133SOL    HW128298   5.068   0.343   1.077
 9133SOL    HW228299   5.193   0.332   0.973
 9134SOL     OW28300   4.830   4.536   6.515
 9134SOL    HW128301   4.864   4.628   6.493
 9134SOL    HW228302   4.820   4.483   6.431
 9135SOL     OW28303   6.613   5.256   2.545
 9135SOL    HW128304   6.677   5.188   2.507
 9135SOL    HW228305   6.533   5.262   2.485
 9136SOL     OW28306   0.905   4.890   6.663
 9136SOL    HW128307   0.983   4.953   6.660
 9136SOL    HW228308   0.878   4.874   6.757
 9137SOL     OW28309   5.671   5.604   6.309
 9137SOL    HW128310   5.647   5.512   6.340
 9137SOL    HW228311   5.614   5.671   6.356
 9138SOL     OW28312   1.564   4.358   6.484
 9138SOL    HW128313   1.640   4.402   6.533
 9138SOL    HW228314   1.493   4.426   6.467
 9139SOL     OW28315   0.100   0.259   1.181
 9139SOL    HW128316   0.041   0.339   1.194
 9139SOL    HW228317   0.195   0.283   1.200
 9140SOL     OW28318   1.435   4.087   2.484
 9140SOL    HW128319   1.347   4.101   2.529
 9140SOL    HW228320   1.456   3.989   2.482
 9141SOL     OW28321   0.413   5.922   4.624
 9141SOL    HW128322   0.485   5.927   4.555
 9141SOL    HW228323   0.325   5.949   4.583
 9142SOL     OW28324   1.446   4.762   3.706
 9142SOL    HW128325   1.497   4.834   3.753
 9142SOL    HW228326   1.495   4.676   3.714
 9143SOL     OW28327   5.606   3.723   2.526
 9143SOL    HW128328   5.598   3.666   2.607
 9143SOL    HW228329   5.536   3.795   2.529
 9144SOL     OW28330   2.726   4.171   5.431
 9144SOL    HW128331   2.637   4.167   5.385
 9144SOL    HW228332   2.786   4.232   5.380
 9145SOL     OW28333   2.947   6.560   6.364
 9145SOL    HW128334   3.031   6.522   6.325
 9145SOL    HW228335   2.952   6.556   6.464
 9146SOL     OW28336   5.901   1.862   4.309
 9146SOL    HW128337   5.922   1.954   4.344
 9146SOL    HW228338   5.802   1.852   4.301
 9147SOL     OW28339   4.426   0.551   6.167
 9147SOL    HW128340   4.509   0.498   6.152
 9147SOL    HW228341   4.439   0.615   6.243
 9148SOL     OW28342   4.001   5.487   2.253
 9148SOL    HW128343   3.952   5.545   2.318
 9148SOL    HW228344   4.002   5.393   2.285
 9149SOL     OW28345   0.342   4.213   1.438
 9149SOL    HW128346   0.363   4.246   1.530
 9149SOL    HW228347   0.426   4.182   1.393
 9150SOL     OW28348   3.275   3.677   7.006
 9150SOL    HW128349   3.215   3.729   0.053
 9150SOL    HW228350   3.226   3.661   6.920
 9151SOL     OW28351   1.952   3.345   4.045
 9151SOL    HW128352   1.965   3.342   3.946
 9151SOL    HW228353   1.859   3.377   4.065
 9152SOL     OW28354   1.780   5.227   1.770
 9152SOL    HW128355   1.749   5.275   1.852
 9152SOL    HW228356   1.704   5.173   1.733
 9153SOL     OW28357   0.654   3.780   0.389
 9153SOL    HW128358   0.652   3.703   0.452
 9153SOL    HW228359   0.694   3.752   0.302
 9154SOL     OW28360   4.493   5.548   3.132
 9154SOL    HW128361   4.510   5.644   3.154
 9154SOL    HW228362   4.528   5.528   3.041
 9155SOL     OW28363   1.271   6.300   2.604
 9155SOL    HW128364   1.261   6.206   2.572
 9155SOL    HW228365   1.264   6.362   2.525
 9156SOL     OW28366   7.011   4.256   5.589
 9156SOL    HW128367   0.005   4.355   5.598
 9156SOL    HW228368   0.037   4.226   5.503
 9157SOL     OW28369   1.847   4.439   5.044
 9157SOL    HW128370   1.941   4.418   5.017
 9157SOL    HW228371   1.792   4.453   4.962
 9158SOL     OW28372   0.050   2.479   4.350
 9158SOL    HW128373   0.001   2.456   4.434
 9158SOL    HW228374   7.014   2.549   4.300
 9159SOL     OW28375   1.966   0.820   3.801
 9159SOL    HW128376   1.909   0.745   3.768
 9159SOL    HW228377   1.917   0.906   3.788
 9160SOL     OW28378   0.566   3.694   6.262
 9160SOL    HW128379   0.618   3.634   6.322
 9160SOL    HW228380   0.611   3.699   6.173
 9161SOL     OW28381   5.873   3.231   2.480
 9161SOL    HW128382   5.792   3.215   2.423
 9161SOL    HW228383   5.954   3.230   2.422
 9162SOL     OW28384   4.606   2.024   2.347
 9162SOL    HW128385   4.572   1.934   2.319
 9162SOL    HW228386   4.566   2.094   2.288
 9163SOL     OW28387   2.082   3.480   3.472
 9163SOL    HW128388   2.072   3.381   3.480
 9163SOL    HW228389   2.120   3.516   3.558
 9164SOL     OW28390   3.426   0.051   0.762
 9164SOL    HW128391   3.443   0.037   0.859
 9164SOL    HW228392   3.489   0.121   0.727
 9165SOL     OW28393   5.880   0.592   6.860
 9165SOL    HW128394   5.930   0.677   6.880
 9165SOL    HW228395   5.792   0.615   6.819
 9166SOL     OW28396   4.282   6.182   1.529
 9166SOL    HW128397   4.320   6.170   1.438
 9166SOL    HW228398   4.221   6.106   1.550
 9167SOL     OW28399   1.222   2.514   4.809
 9167SOL    HW128400   1.123   2.509   4.818
 9167SOL    HW228401   1.261   2.560   4.889
 9168SOL     OW28402   6.380   5.858   4.695
 9168SOL    HW128403   6.410   5.808   4.614
 9168SOL    HW228404   6.297   5.816   4.732
 9169SOL     OW28405   6.289   5.818   0.310
 9169SOL    HW128406   6.245   5.822   0.400
 9169SOL    HW228407   6.220   5.822   0.238
 9170SOL     OW28408   1.950   0.817   5.841
 9170SOL    HW128409   2.028   0.880   5.844
 9170SOL    HW228410   1.975   0.731   5.887
 9171SOL     OW28411   4.437   5.574   0.130
 9171SOL    HW128412   4.507   5.503   0.132
 9171SOL    HW228413   4.417   5.599   0.036
 9172SOL     OW28414   5.387   1.127   5.931
 9172SOL    HW128415   5.317   1.199   5.930
 9172SOL    HW228416   5.344   1.039   5.952
 9173SOL     OW28417   5.815   4.529   5.599
 9173SOL    HW128418   5.885   4.501   5.664
 9173SOL    HW228419   5.847   4.513   5.506
 9174SOL     OW28420   5.794   4.552   6.805
 9174SOL    HW128421   5.765   4.619   6.874
 9174SOL    HW228422   5.861   4.594   6.743
 9175SOL     OW28423   2.044   1.201   1.659
 9175SOL    HW128424   2.005   1.257   1.733
 9175SOL    HW228425   1.970   1.155   1.610
 9176SOL     OW28426   1.451   0.243   2.409
 9176SOL    HW128427   1.421   0.308   2.339
 9176SOL    HW228428   1.523   0.185   2.371
 9177SOL     OW28429   0.673   5.869   3.683
 9177SOL    HW128430   0.729   5.883   3.601
 9177SOL    HW228431   0.600   5.937   3.684
 9178SOL     OW28432   1.260   3.492   0.706
 9178SOL    HW128433   1.332   3.559   0.688
 9178SOL    HW228434   1.284   3.439   0.787
 9179SOL     OW28435   4.010   5.095   2.956
 9179SOL    HW128436   4.069   5.072   3.033
 9179SOL    HW228437   4.034   5.040   2.877
 9180SOL     OW28438   0.334   0.846   5.009
 9180SOL    HW128439   0.247   0.810   4.975
 9180SOL    HW228440   0.368   0.915   4.945
 9181SOL     OW28441   2.718   2.222   3.393
 9181SOL    HW128442   2.803   2.236   3.341
 9181SOL    HW228443   2.706   2.124   3.410
 9182SOL     OW28444   6.635   1.699   2.997
 9182SOL    HW128445   6.719   1.653   2.969
 9182SOL    HW228446   6.587   1.643   3.065
 9183SOL     OW28447   3.007   1.807   5.938
 9183SOL    HW128448   2.937   1.817   6.009
 9183SOL    HW228449   2.964   1.787   5.850
 9184SOL     OW28450   2.810   4.842   1.147
 9184SOL    HW128451   2.815   4.916   1.214
 9184SOL    HW228452   2.888   4.780   1.159
 9185SOL     OW28453   0.961   0.960   5.423
 9185SOL    HW128454   0.863   0.950   5.435
 9185SOL    HW228455   1.002   0.872   5.401
 9186SOL     OW28456   5.977   0.071   5.897
 9186SOL    HW128457   6.027   0.155   5.916
 9186SOL    HW228458   5.921   0.046   5.976
 9187SOL     OW28459   5.400   3.000   0.965
 9187SOL    HW128460   5.369   3.074   0.905
 9187SOL    HW228461   5.370   3.018   1.058
 9188SOL     OW28462   0.968   0.599   2.515
 9188SOL    HW128463   1.022   0.680   2.492
 9188SOL    HW228464   1.027   0.518   2.513
 9189SOL     OW28465   2.943   0.889   6.573
 9189SOL    HW128466   2.853   0.927   6.552
 9189SOL    HW228467   2.993   0.952   6.632
 9190SOL     OW28468   4.162   0.916   5.863
 9190SOL    HW128469   4.214   0.843   5.908
 9190SOL    HW228470   4.064   0.901   5.877
 9191SOL     OW28471   5.547   0.289   1.513
 9191SOL    HW128472   5.519   0.207   1.564
 9191SOL    HW228473   5.494   0.368   1.544
 9192SOL     OW28474   4.740   4.565   4.119
 9192SOL    HW128475   4.691   4.569   4.206
 9192SOL    HW228476   4.676   4.545   4.045
 9193SOL     OW28477   3.911   3.040   2.538
 9193SOL    HW128478   3.931   2.946   2.510
 9193SOL    HW228479   3.900   3.097   2.456
 9194SOL     OW28480   3.106   5.144   3.104
 9194SOL    HW128481   3.143   5.076   3.168
 9194SOL    HW228482   3.139   5.125   3.012
 9195SOL     OW28483   0.810   3.074   3.993
 9195SOL    HW128484   0.908   3.053   4.005
 9195SOL    HW228485   0.781   3.135   4.066
 9196SOL     OW28486   5.292   5.849   3.123
 9196SOL    HW128487   5.360   5.903   3.073
 9196SOL    HW228488   5.281   5.760   3.080
 9197SOL     OW28489   4.541   2.492   6.956
 9197SOL    HW128490   4.571   2.578   6.915
 9197SOL    HW228491   4.539   2.421   6.886
 9198SOL     OW28492   6.188   3.215   5.196
 9198SOL    HW128493   6.257   3.227   5.268
 9198SOL    HW228494   6.192   3.121   5.161
 9199SOL     OW28495   0.882   3.745   6.675
 9199SOL    HW128496   0.918   3.680   6.609
 9199SOL    HW228497   0.927   3.731   6.763
 9200SOL     OW28498   4.757   6.275   2.044
 9200SOL    HW128499   4.739   6.221   1.962
 9200SOL    HW228500   4.740   6.220   2.126
 9201SOL     OW28501   6.910   3.209   2.290
 9201SOL    HW128502   6.966   3.173   2.216
 9201SOL    HW228503   6.962   3.277   2.341
 9202SOL     OW28504   1.754   5.981   3.849
 9202SOL    HW128505   1.835   6.035   3.872
 9202SOL    HW228506   1.675   6.042   3.841
 9203SOL     OW28507   5.304   2.095   1.005
 9203SOL    HW128508   5.209   2.068   0.990
 9203SOL    HW228509   5.366   2.026   0.968
 9204SOL     OW28510   4.945   4.720   2.165
 9204SOL    HW128511   4.989   4.797   2.210
 9204SOL    HW228512   5.002   4.689   2.088
 9205SOL     OW28513   4.372   2.420   1.263
 9205SOL    HW128514   4.410   2.432   1.172
 9205SOL    HW228515   4.277   2.453   1.264
 9206SOL     OW28516   0.032   6.495   5.313
 9206SOL    HW128517   0.099   6.562   5.343
 9206SOL    HW228518   0.027   6.421   5.381
 9207SOL     OW28519   5.404   6.730   6.998
 9207SOL    HW128520   5.422   6.802   0.050
 9207SOL    HW228521   5.487   6.676   6.984
 9208SOL     OW28522   5.238   4.521   1.275
 9208SOL    HW128523   5.262   4.588   1.345
 9208SOL    HW228524   5.179   4.564   1.206
 9209SOL     OW28525   4.874   0.312   4.494
 9209SOL    HW128526   4.971   0.336   4.487
 9209SOL    HW228527   4.866   0.213   4.507
 9210SOL     OW28528   1.229   0.043   0.171
 9210SOL    HW128529   1.306   7.001   0.196
 9210SOL    HW228530   1.160   0.040   0.243
 9211SOL     OW28531   5.256   1.921   6.129
 9211SOL    HW128532   5.209   1.898   6.214
 9211SOL    HW228533   5.274   1.838   6.076
 9212SOL     OW28534   5.997   3.626   6.259
 9212SOL    HW128535   5.992   3.622   6.358
 9212SOL    HW228536   6.080   3.674   6.231
 9213SOL     OW28537   0.282   5.595   2.905
 9213SOL    HW128538   0.249   5.500   2.909
 9213SOL    HW228539   0.209   5.654   2.872
 9214SOL     OW28540   2.148   1.249   5.887
 9214SOL    HW128541   2.057   1.269   5.923
 9214SOL    HW228542   2.217   1.295   5.944
 9215SOL     OW28543   0.099   4.316   3.511
 9215SOL    HW128544   0.126   4.400   3.464
 9215SOL    HW228545   0.085   4.243   3.444
 9216SOL     OW28546   2.081   6.548   4.010
 9216SOL    HW128547   1.996   6.528   3.961
 9216SOL    HW228548   2.159   6.534   3.949
 9217SOL     OW28549   3.071   2.577   0.404
 9217SOL    HW128550   3.079   2.586   0.305
 9217SOL    HW228551   3.009   2.501   0.426
 9218SOL     OW28552   4.419   6.047   5.578
 9218SOL    HW128553   4.410   5.979   5.506
 9218SOL    HW228554   4.393   6.006   5.666
 9219SOL     OW28555   3.847   3.295   6.548
 9219SOL    HW128556   3.765   3.330   6.592
 9219SOL    HW228557   3.853   3.330   6.455
 9220SOL     OW28558   0.917   6.888   3.622
 9220SOL    HW128559   0.866   6.893   3.708
 9220SOL    HW228560   1.002   6.940   3.631
 9221SOL     OW28561   2.513   1.684   2.220
 9221SOL    HW128562   2.505   1.586   2.237
 9221SOL    HW228563   2.482   1.704   2.127
 9222SOL     OW28564   1.849   5.657   3.557
 9222SOL    HW128565   1.777   5.588   3.568
 9222SOL    HW228566   1.868   5.701   3.645
 9223SOL     OW28567   6.235   2.298   4.695
 9223SOL    HW128568   6.227   2.375   4.759
 9223SOL    HW228569   6.276   2.220   4.742
 9224SOL     OW28570   1.650   5.616   2.974
 9224SOL    HW128571   1.662   5.697   3.031
 9224SOL    HW228572   1.723   5.614   2.905
 9225SOL     OW28573   0.405   5.325   5.543
 9225SOL    HW128574   0.451   5.253   5.595
 9225SOL    HW228575   0.306   5.307   5.543
 9226SOL     OW28576   0.962   6.999   4.881
 9226SOL    HW128577   0.946   0.074   4.921
 9226SOL    HW228578   0.923   6.995   4.790
 9227SOL     OW28579   3.812   3.318   0.548
 9227SOL    HW128580   3.825   3.221   0.566
 9227SOL    HW228581   3.714   3.340   0.550
 9228SOL     OW28582   3.775   3.384   4.807
 9228SOL    HW128583   3.704   3.367   4.738
 9228SOL    HW228584   3.860   3.410   4.762
 9229SOL     OW28585   0.298   5.593   1.114
 9229SOL    HW128586   0.297   5.494   1.101
 9229SOL    HW228587   0.276   5.614   1.210
 9230SOL     OW28588   3.431   0.285   6.323
 9230SOL    HW128589   3.442   0.186   6.337
 9230SOL    HW228590   3.438   0.332   6.411
 9231SOL     OW28591   5.844   6.541   1.401
 9231SOL    HW128592   5.900   6.458   1.396
 9231SOL    HW228593   5.792   6.552   1.316
 9232SOL     OW28594   0.856   5.056   2.134
 9232SOL    HW128595   0.844   4.980   2.070
 9232SOL    HW228596   0.934   5.112   2.105
 9233SOL     OW28597   1.427   0.360   5.798
 9233SOL    HW128598   1.387   0.364   5.707
 9233SOL    HW228599   1.490   0.437   5.810
 9234SOL     OW28600   2.970   4.013   6.468
 9234SOL    HW128601   3.053   3.997   6.522
 9234SOL    HW228602   2.985   4.088   6.404
 9235SOL     OW28603   2.196   2.418   3.492
 9235SOL    HW128604   2.125   2.436   3.424
 9235SOL    HW228605   2.273   2.371   3.447
 9236SOL     OW28606   1.805   4.156   6.434
 9236SOL    HW128607   1.853   4.171   6.348
 9236SOL    HW228608   1.771   4.243   6.470
 9237SOL     OW28609   6.983   5.167   3.995
 9237SOL    HW128610   0.011   5.234   3.934
 9237SOL    HW228611   6.884   5.171   3.984
 9238SOL     OW28612   1.641   2.298   5.397
 9238SOL    HW128613   1.589   2.242   5.332
 9238SOL    HW228614   1.736   2.304   5.367
 9239SOL     OW28615   1.814   5.954   6.387
 9239SOL    HW128616   1.848   6.030   6.332
 9239SOL    HW228617   1.866   5.872   6.366
 9240SOL     OW28618   3.824   1.644   4.858
 9240SOL    HW128619   3.920   1.669   4.848
 9240SOL    HW228620   3.816   1.568   4.922
 9241SOL     OW28621   5.964   6.446   0.058
 9241SOL    HW128622   5.937   6.538   0.028
 9241SOL    HW228623   6.033   6.410   7.011
 9242SOL     OW28624   2.452   2.730   6.904
 9242SOL    HW128625   2.445   2.775   6.815
 9242SOL    HW228626   2.530   2.668   6.905
 9243SOL     OW28627   2.385   0.534   0.313
 9243SOL    HW128628   2.437   0.449   0.326
 9243SOL    HW228629   2.397   0.567   0.220
 9244SOL     OW28630   2.574   6.355   0.216
 9244SOL    HW128631   2.494   6.351   0.155
 9244SOL    HW228632   2.654   6.322   0.167
 9245SOL     OW28633   0.714   4.231   2.641
 9245SOL    HW128634   0.733   4.179   2.557
 9245SOL    HW228635   0.616   4.232   2.658
 9246SOL     OW28636   5.240   0.459   6.993
 9246SOL    HW128637   5.245   0.371   0.027
 9246SOL    HW228638   5.144   0.480   6.973
 9247SOL     OW28639   3.175   6.687   2.687
 9247SOL    HW128640   3.176   6.694   2.587
 9247SOL    HW228641   3.255   6.636   2.718
 9248SOL     OW28642   3.025   0.318   6.767
 9248SOL    HW128643   3.012   0.316   6.668
 9248SOL    HW228644   3.120   0.295   6.789
 9249SOL     OW28645   3.719   1.054   0.871
 9249SOL    HW128646   3.644   1.116   0.893
 9249SOL    HW228647   3.695   0.961   0.900
 9250SOL     OW28648   0.462   3.685   2.239
 9250SOL    HW128649   0.558   3.712   2.241
 9250SOL    HW228650   0.445   3.627   2.159
 9251SOL     OW28651   4.076   2.130   0.874
 9251SOL    HW128652   3.985   2.139   0.914
 9251SOL    HW228653   4.106   2.035   0.881
 9252SOL     OW28654   5.251   1.639   4.683
 9252SOL    HW128655   5.350   1.631   4.697
 9252SOL    HW228656   5.232   1.646   4.585
 9253SOL     OW28657   2.499   4.910   3.679
 9253SOL    HW128658   2.421   4.913   3.617
 9253SOL    HW228659   2.567   4.847   3.644
 9254SOL     OW28660   6.897   6.211   2.387
 9254SOL    HW128661   6.975   6.257   2.346
 9254SOL    HW228662   6.920   6.185   2.481
 9255SOL     OW28663   6.682   3.441   0.906
 9255SOL    HW128664   6.615   3.504   0.944
 9255SOL    HW228665   6.767   3.447   0.960
 9256SOL     OW28666   2.385   6.436   1.377
 9256SOL    HW128667   2.448   6.501   1.336
 9256SOL    HW228668   2.389   6.349   1.328
 9257SOL     OW28669   6.275   6.122   4.910
 9257SOL    HW128670   6.344   6.098   4.977
 9257SOL    HW228671   6.191   6.070   4.928
 9258SOL     OW28672   5.299   4.105   2.750
 9258SOL    HW128673   5.225   4.128   2.813
 9258SOL    HW228674   5.371   4.055   2.800
 9259SOL     OW28675   0.832   2.736   6.687
 9259SOL    HW128676   0.869   2.661   6.742
 9259SOL    HW228677   0.869   2.823   6.720
 9260SOL     OW28678   5.043   4.500   4.855
 9260SOL    HW128679   4.966   4.484   4.917
 9260SOL    HW228680   5.038   4.436   4.778
 9261SOL     OW28681   1.762   3.330   1.261
 9261SOL    HW128682   1.801   3.391   1.192
 9261SOL    HW228683   1.828   3.259   1.284
 9262SOL     OW28684   0.710   6.415   5.958
 9262SOL    HW128685   0.773   6.477   5.911
 9262SOL    HW228686   0.688   6.453   6.049
 9263SOL     OW28687   2.502   4.528   2.811
 9263SOL    HW128688   2.573   4.560   2.873
 9263SOL    HW228689   2.529   4.547   2.716
 9264SOL     OW28690   5.073   3.521   5.572
 9264SOL    HW128691   5.086   3.593   5.641
 9264SOL    HW228692   5.140   3.448   5.587
 9265SOL     OW28693   4.834   0.158   2.105
 9265SOL    HW128694   4.881   0.106   2.176
 9265SOL    HW228695   4.737   0.166   2.128
 9266SOL     OW28696   0.165   4.603   1.386
 9266SOL    HW128697   0.207   4.686   1.347
 9266SOL    HW228698   0.082   4.581   1.335
 9267SOL     OW28699   0.184   1.084   3.514
 9267SOL    HW128700   0.283   1.075   3.515
 9267SOL    HW228701   0.152   1.096   3.420
 9268SOL     OW28702   0.395   0.785   1.116
 9268SOL    HW128703   0.437   0.835   1.192
 9268SOL    HW228704   0.436   0.694   1.109
 9269SOL     OW28705   3.188   6.584   0.900
 9269SOL    HW128706   3.161   6.511   0.838
 9269SOL    HW228707   3.283   6.571   0.929
 9270SOL     OW28708   2.319   1.254   5.087
 9270SOL    HW128709   2.416   1.281   5.084
 9270SOL    HW228710   2.287   1.236   4.994
 9271SOL     OW28711   1.581   4.577   5.515
 9271SOL    HW128712   1.673   4.553   5.483
 9271SOL    HW228713   1.588   4.630   5.600
 9272SOL     OW28714   6.911   6.734   5.554
 9272SOL    HW128715   6.830   6.675   5.552
 9272SOL    HW228716   6.906   6.795   5.633
 9273SOL     OW28717   6.344   3.547   3.608
 9273SOL    HW128718   6.356   3.449   3.627
 9273SOL    HW228719   6.427   3.597   3.635
 9274SOL     OW28720   0.021   3.324   0.208
 9274SOL    HW128721   0.019   3.375   0.122
 9274SOL    HW228722   6.944   3.289   0.228
 9275SOL     OW28723   4.622   1.812   0.474
 9275SOL    HW128724   4.579   1.868   0.544
 9275SOL    HW228725   4.554   1.753   0.431
 9276SOL     OW28726   1.686   4.319   0.271
 9276SOL    HW128727   1.783   4.333   0.294
 9276SOL    HW228728   1.664   4.222   0.278
 9277SOL     OW28729   3.109   5.830   2.653
 9277SOL    HW128730   3.149   5.897   2.590
 9277SOL    HW228731   3.010   5.845   2.659
 9278SOL     OW28732   1.395   6.791   5.755
 9278SOL    HW128733   1.350   6.702   5.764
 9278SOL    HW228734   1.328   6.860   5.731
 9279SOL     OW28735   3.330   6.030   1.808
 9279SOL    HW128736   3.276   6.094   1.754
 9279SOL    HW228737   3.406   6.078   1.851
 9280SOL     OW28738   1.361   4.722   1.179
 9280SOL    HW128739   1.378   4.670   1.263
 9280SOL    HW228740   1.370   4.661   1.100
 9281SOL     OW28741   1.275   5.506   0.729
 9281SOL    HW128742   1.311   5.546   0.814
 9281SOL    HW228743   1.261   5.578   0.661
 9282SOL     OW28744   1.839   0.269   4.436
 9282SOL    HW128745   1.828   0.179   4.394
 9282SOL    HW228746   1.873   0.334   4.368
 9283SOL     OW28747   5.234   5.187   6.681
 9283SOL    HW128748   5.300   5.197   6.606
 9283SOL    HW228749   5.230   5.091   6.708
 9284SOL     OW28750   4.408   6.302   1.232
 9284SOL    HW128751   4.406   6.375   1.301
 9284SOL    HW228752   4.491   6.312   1.176
 9285SOL     OW28753   0.081   5.823   3.369
 9285SOL    HW128754   0.114   5.731   3.387
 9285SOL    HW228755   0.133   5.864   3.294
 9286SOL     OW28756   5.370   6.085   1.652
 9286SOL    HW128757   5.312   6.144   1.707
 9286SOL    HW228758   5.343   6.090   1.556
 9287SOL     OW28759   4.390   4.127   0.237
 9287SOL    HW128760   4.373   4.063   0.312
 9287SOL    HW228761   4.307   4.180   0.218
 9288SOL     OW28762   4.037   1.176   3.003
 9288SOL    HW128763   3.999   1.083   3.006
 9288SOL    HW228764   3.999   1.230   3.077
 9289SOL     OW28765   4.429   5.892   2.501
 9289SOL    HW128766   4.455   5.795   2.496
 9289SOL    HW228767   4.376   5.916   2.420
 9290SOL     OW28768   5.143   1.092   4.056
 9290SOL    HW128769   5.049   1.106   4.086
 9290SOL    HW228770   5.144   1.061   3.961
 9291SOL     OW28771   0.761   4.417   5.615
 9291SOL    HW128772   0.720   4.433   5.705
 9291SOL    HW228773   0.857   4.389   5.627
 9292SOL     OW28774   1.882   1.949   0.001
 9292SOL    HW128775   1.836   1.991   0.080
 9292SOL    HW228776   1.922   1.862   0.028
 9293SOL     OW28777   4.246   0.663   5.248
 9293SOL    HW128778   4.242   0.731   5.321
 9293SOL    HW228779   4.290   0.580   5.282
 9294SOL     OW28780   5.082   6.248   5.750
 9294SOL    HW128781   5.149   6.179   5.777
 9294SOL    HW228782   5.022   6.268   5.828
 9295SOL     OW28783   6.479   0.197   2.844
 9295SOL    HW128784   6.443   0.105   2.825
 9295SOL    HW228785   6.546   0.221   2.774
 9296SOL     OW28786   2.063   3.501   5.308
 9296SOL    HW128787   2.147   3.539   5.347
 9296SOL    HW228788   2.074   3.494   5.209
 9297SOL     OW28789   6.749   5.344   2.154
 9297SOL    HW128790   6.810   5.389   2.089
 9297SOL    HW228791   6.694   5.413   2.201
 9298SOL     OW28792   0.049   4.707   6.652
 9298SOL    HW128793   6.969   4.734   6.637
 9298SOL    HW228794   0.091   4.685   6.564
 9299SOL     OW28795   3.052   2.208   4.130
 9299SOL    HW128796   3.034   2.249   4.040
 9299SOL    HW228797   3.138   2.158   4.127
 9300SOL     OW28798   2.980   5.912   6.188
 9300SOL    HW128799   2.940   5.899   6.097
 9300SOL    HW228800   3.080   5.904   6.181
 9301SOL     OW28801   0.272   3.341   4.197
 9301SOL    HW128802   0.203   3.320   4.266
 9301SOL    HW228803   0.354   3.286   4.213
 9302SOL     OW28804   3.029   5.439   3.638
 9302SOL    HW128805   2.996   5.487   3.557
 9302SOL    HW228806   2.972   5.463   3.716
 9303SOL     OW28807   2.657   4.765   6.756
 9303SOL    HW128808   2.571   4.723   6.726
 9303SOL    HW228809   2.713   4.696   6.803
 9304SOL     OW28810   5.976   5.741   5.890
 9304SOL    HW128811   5.910   5.707   5.957
 9304SOL    HW228812   5.951   5.834   5.862
 9305SOL     OW28813   2.036   1.444   1.106
 9305SOL    HW128814   2.015   1.382   1.182
 9305SOL    HW228815   2.051   1.536   1.142
 9306SOL     OW28816   6.685   6.210   4.054
 9306SOL    HW128817   6.644   6.261   3.979
 9306SOL    HW228818   6.781   6.236   4.064
 9307SOL     OW28819   2.178   3.812   0.993
 9307SOL    HW128820   2.094   3.760   1.011
 9307SOL    HW228821   2.207   3.857   1.078
 9308SOL     OW28822   2.383   3.530   1.188
 9308SOL    HW128823   2.406   3.531   1.091
 9308SOL    HW228824   2.335   3.615   1.212
 9309SOL     OW28825   4.178   5.447   5.751
 9309SOL    HW128826   4.258   5.416   5.802
 9309SOL    HW228827   4.148   5.374   5.689
 9310SOL     OW28828   6.936   6.727   6.015
 9310SOL    HW128829   6.871   6.657   5.986
 9310SOL    HW228830   0.014   6.690   6.011
 9311SOL     OW28831   5.593   4.400   0.323
 9311SOL    HW128832   5.609   4.405   0.422
 9311SOL    HW228833   5.669   4.352   0.279
 9312SOL     OW28834   5.572   3.521   4.128
 9312SOL    HW128835   5.580   3.433   4.175
 9312SOL    HW228836   5.475   3.538   4.106
 9313SOL     OW28837   0.203   0.609   1.790
 9313SOL    HW128838   0.283   0.579   1.739
 9313SOL    HW228839   0.180   0.703   1.765
 9314SOL     OW28840   5.007   4.943   1.094
 9314SOL    HW128841   4.979   4.997   1.015
 9314SOL    HW228842   4.928   4.927   1.153
 9315SOL     OW28843   6.013   5.513   5.687
 9315SOL    HW128844   5.995   5.570   5.767
 9315SOL    HW228845   6.108   5.525   5.658
 9316SOL     OW28846   5.157   6.085   0.551
 9316SOL    HW128847   5.231   6.019   0.564
 9316SOL    HW228848   5.192   6.167   0.506
 9317SOL     OW28849   2.924   6.547   3.064
 9317SOL    HW128850   2.923   6.549   2.964
 9317SOL    HW228851   2.980   6.623   3.098
 9318SOL     OW28852   3.153   0.071   3.247
 9318SOL    HW128853   3.182   0.058   3.152
 9318SOL    HW228854   3.197   0.003   3.305
 9319SOL     OW28855   3.573   2.392   0.345
 9319SOL    HW128856   3.518   2.359   0.421
 9319SOL    HW228857   3.620   2.476   0.372
 9320SOL     OW28858   6.697   6.838   6.922
 9320SOL    HW128859   6.712   6.836   0.006
 9320SOL    HW228860   6.647   6.921   6.898
 9321SOL     OW28861   1.048   2.126   4.214
 9321SOL    HW128862   1.104   2.168   4.143
 9321SOL    HW228863   1.078   2.157   4.304
 9322SOL     OW28864   5.455   3.067   0.576
 9322SOL    HW128865   5.392   3.139   0.605
 9322SOL    HW228866   5.524   3.104   0.515
 9323SOL     OW28867   0.783   2.383   4.938
 9323SOL    HW128868   0.719   2.329   4.992
 9323SOL    HW228869   0.875   2.347   4.950
 9324SOL     OW28870   0.296   4.363   1.202
 9324SOL    HW128871   0.346   4.337   1.285
 9324SOL    HW228872   0.198   4.364   1.222
 9325SOL     OW28873   1.323   4.360   2.953
 9325SOL    HW128874   1.295   4.270   2.986
 9325SOL    HW228875   1.395   4.396   3.012
 9326SOL     OW28876   4.813   4.869   1.259
 9326SOL    HW128877   4.777   4.781   1.230
 9326SOL    HW228878   4.742   4.939   1.248
 9327SOL     OW28879   2.110   1.628   3.367
 9327SOL    HW128880   2.064   1.547   3.329
 9327SOL    HW228881   2.144   1.685   3.292
 9328SOL     OW28882   1.346   6.833   3.178
 9328SOL    HW128883   1.367   6.927   3.206
 9328SOL    HW228884   1.247   6.820   3.175
 9329SOL     OW28885   1.615   5.093   6.197
 9329SOL    HW128886   1.628   5.116   6.100
 9329SOL    HW228887   1.518   5.073   6.213
 9330SOL     OW28888   0.772   6.573   0.763
 9330SOL    HW128889   0.734   6.487   0.797
 9330SOL    HW228890   0.711   6.611   0.693
 9331SOL     OW28891   1.739   4.824   4.888
 9331SOL    HW128892   1.643   4.798   4.876
 9331SOL    HW228893   1.767   4.803   4.981
 9332SOL     OW28894   6.136   5.261   0.396
 9332SOL    HW128895   6.056   5.212   0.360
 9332SOL    HW228896   6.110   5.354   0.419
 9333SOL     OW28897   1.695   5.125   0.579
 9333SOL    HW128898   1.706   5.056   0.507
 9333SOL    HW228899   1.610   5.108   0.629
 9334SOL     OW28900   0.048   5.398   0.478
 9334SOL    HW128901   0.095   5.369   0.562
 9334SOL    HW228902   6.977   5.441   0.502
 9335SOL     OW28903   0.261   3.875   1.022
 9335SOL    HW128904   0.231   3.786   1.056
 9335SOL    HW228905   0.350   3.898   1.060
 9336SOL     OW28906   4.082   5.602   5.393
 9336SOL    HW128907   4.109   5.643   5.480
 9336SOL    HW228908   4.124   5.512   5.384
 9337SOL     OW28909   3.521   1.624   4.273
 9337SOL    HW128910   3.525   1.635   4.372
 9337SOL    HW228911   3.434   1.660   4.238
 9338SOL     OW28912   4.719   6.807   0.942
 9338SOL    HW128913   4.638   6.826   0.887
 9338SOL    HW228914   4.788   6.878   0.927
 9339SOL     OW28915   6.920   3.454   5.185
 9339SOL    HW128916   6.905   3.392   5.108
 9339SOL    HW228917   6.868   3.421   5.264
 9340SOL     OW28918   2.314   4.803   2.339
 9340SOL    HW128919   2.246   4.794   2.266
 9340SOL    HW228920   2.395   4.849   2.304
 9341SOL     OW28921   6.189   5.570   0.658
 9341SOL    HW128922   6.277   5.605   0.692
 9341SOL    HW228923   6.155   5.500   0.719
 9342SOL     OW28924   2.572   0.446   4.885
 9342SOL    HW128925   2.647   0.500   4.924
 9342SOL    HW228926   2.491   0.503   4.877
 9343SOL     OW28927   5.434   3.706   1.460
 9343SOL    HW128928   5.370   3.689   1.535
 9343SOL    HW228929   5.523   3.664   1.483
 9344SOL     OW28930   5.749   0.055   4.688
 9344SOL    HW128931   5.720   0.067   4.782
 9344SOL    HW228932   5.669   0.062   4.627
 9345SOL     OW28933   6.729   4.403   6.361
 9345SOL    HW128934   6.722   4.503   6.368
 9345SOL    HW228935   6.820   4.374   6.389
 9346SOL     OW28936   5.027   0.573   1.844
 9346SOL    HW128937   5.011   0.494   1.903
 9346SOL    HW228938   4.969   0.649   1.873
 9347SOL     OW28939   4.757   6.868   1.899
 9347SOL    HW128940   4.679   6.878   1.962
 9347SOL    HW228941   4.763   6.948   1.840
 9348SOL     OW28942   2.017   5.432   1.718
 9348SOL    HW128943   2.065   5.519   1.715
 9348SOL    HW228944   2.057   5.369   1.651
 9349SOL     OW28945   6.259   5.549   1.405
 9349SOL    HW128946   6.325   5.475   1.417
 9349SOL    HW228947   6.234   5.556   1.309
 9350SOL     OW28948   6.351   0.477   6.810
 9350SOL    HW128949   6.263   0.445   6.844
 9350SOL    HW228950   6.410   0.502   6.887
 9351SOL     OW28951   4.989   3.873   6.257
 9351SOL    HW128952   4.994   3.910   6.350
 9351SOL    HW228953   4.915   3.919   6.207
 9352SOL     OW28954   2.634   2.071   0.402
 9352SOL    HW128955   2.618   2.113   0.491
 9352SOL    HW228956   2.549   2.071   0.349
 9353SOL     OW28957   1.109   3.037   2.087
 9353SOL    HW128958   1.026   3.080   2.054
 9353SOL    HW228959   1.117   2.944   2.050
 9354SOL     OW28960   5.589   2.250   2.561
 9354SOL    HW128961   5.549   2.334   2.524
 9354SOL    HW228962   5.679   2.235   2.520
 9355SOL     OW28963   6.733   1.582   2.334
 9355SOL    HW128964   6.811   1.624   2.379
 9355SOL    HW228965   6.749   1.483   2.324
 9356SOL     OW28966   4.584   2.614   2.468
 9356SOL    HW128967   4.673   2.592   2.428
 9356SOL    HW228968   4.583   2.586   2.564
 9357SOL     OW28969   2.710   4.727   6.368
 9357SOL    HW128970   2.722   4.688   6.276
 9357SOL    HW228971   2.613   4.731   6.390
 9358SOL     OW28972   5.150   4.088   2.178
 9358SOL    HW128973   5.155   4.050   2.085
 9358SOL    HW228974   5.056   4.078   2.213
 9359SOL     OW28975   4.756   5.428   6.031
 9359SOL    HW128976   4.685   5.369   6.069
 9359SOL    HW228977   4.750   5.519   6.073
 9360SOL     OW28978   1.227   1.246   5.117
 9360SOL    HW128979   1.277   1.195   5.047
 9360SOL    HW228980   1.152   1.190   5.152
 9361SOL     OW28981   1.803   1.251   2.448
 9361SOL    HW128982   1.776   1.285   2.358
 9361SOL    HW228983   1.903   1.252   2.456
 9362SOL     OW28984   1.612   1.374   2.955
 9362SOL    HW128985   1.591   1.453   2.898
 9362SOL    HW228986   1.648   1.300   2.898
 9363SOL     OW28987   1.334   6.282   1.904
 9363SOL    HW128988   1.325   6.319   1.996
 9363SOL    HW228989   1.402   6.336   1.853
 9364SOL     OW28990   5.317   4.152   1.122
 9364SOL    HW128991   5.402   4.104   1.141
 9364SOL    HW228992   5.337   4.247   1.099
 9365SOL     OW28993   2.088   1.366   3.852
 9365SOL    HW128994   2.104   1.287   3.794
 9365SOL    HW228995   2.066   1.445   3.796
 9366SOL     OW28996   2.733   1.579   1.897
 9366SOL    HW128997   2.747   1.630   1.983
 9366SOL    HW228998   2.789   1.620   1.825
 9367SOL     OW28999   5.756   6.654   3.664
 9367SOL    HW129000   5.778   6.750   3.644
 9367SOL    HW229001   5.673   6.650   3.720
 9368SOL     OW29002   5.070   3.015   0.455
 9368SOL    HW129003   5.168   3.000   0.458
 9368SOL    HW229004   5.042   3.067   0.536
 9369SOL     OW29005   0.154   1.748   5.165
 9369SOL    HW129006   0.251   1.725   5.174
 9369SOL    HW229007   0.098   1.667   5.182
 9370SOL     OW29008   5.534   5.512   2.510
 9370SOL    HW129009   5.458   5.466   2.557
 9370SOL    HW229010   5.497   5.572   2.438
 9371SOL     OW29011   1.773   6.835   0.583
 9371SOL    HW129012   1.833   6.867   0.657
 9371SOL    HW229013   1.683   6.814   0.621
 9372SOL     OW29014   5.654   5.573   0.154
 9372SOL    HW129015   5.738   5.524   0.131
 9372SOL    HW229016   5.578   5.535   0.101
 9373SOL     OW29017   5.258   2.701   4.228
 9373SOL    HW129018   5.177   2.685   4.171
 9373SOL    HW229019   5.262   2.797   4.254
 9374SOL     OW29020   5.097   4.338   6.702
 9374SOL    HW129021   5.100   4.270   6.629
 9374SOL    HW229022   5.109   4.292   6.790
 9375SOL     OW29023   6.255   0.440   4.423
 9375SOL    HW129024   6.318   0.516   4.436
 9375SOL    HW229025   6.176   0.471   4.369
 9376SOL     OW29026   2.472   3.271   1.652
 9376SOL    HW129027   2.528   3.194   1.681
 9376SOL    HW229028   2.453   3.331   1.730
 9377SOL     OW29029   6.183   4.716   3.686
 9377SOL    HW129030   6.110   4.706   3.753
 9377SOL    HW229031   6.199   4.813   3.668
 9378SOL     OW29032   4.132   6.170   0.993
 9378SOL    HW129033   4.061   6.163   0.922
 9378SOL    HW229034   4.100   6.229   1.067
 9379SOL     OW29035   5.203   5.320   5.535
 9379SOL    HW129036   5.106   5.303   5.555
 9379SOL    HW229037   5.229   5.269   5.453
 9380SOL     OW29038   6.269   5.868   5.820
 9380SOL    HW129039   6.266   5.929   5.899
 9380SOL    HW229040   6.221   5.783   5.841
 9381SOL     OW29041   1.368   0.674   6.847
 9381SOL    HW129042   1.384   0.670   6.946
 9381SOL    HW229043   1.389   0.765   6.814
 9382SOL     OW29044   5.498   1.557   2.941
 9382SOL    HW129045   5.506   1.469   2.892
 9382SOL    HW229046   5.423   1.610   2.901
 9383SOL     OW29047   6.528   4.890   6.427
 9383SOL    HW129048   6.595   4.944   6.478
 9383SOL    HW229049   6.457   4.950   6.391
 9384SOL     OW29050   4.168   6.790   3.000
 9384SOL    HW129051   4.080   6.790   2.952
 9384SOL    HW229052   4.225   6.716   2.966
 9385SOL     OW29053   3.832   0.675   3.991
 9385SOL    HW129054   3.919   0.700   4.034
 9385SOL    HW229055   3.846   0.597   3.930
 9386SOL     OW29056   4.071   0.131   5.361
 9386SOL    HW129057   4.058   0.032   5.373
 9386SOL    HW229058   4.162   0.157   5.394
 9387SOL     OW29059   4.762   5.529   0.574
 9387SOL    HW129060   4.776   5.575   0.486
 9387SOL    HW229061   4.824   5.452   0.582
 9388SOL     OW29062   6.498   0.140   1.809
 9388SOL    HW129063   6.591   0.159   1.841
 9388SOL    HW229064   6.503   0.086   1.725
 9389SOL     OW29065   2.929   0.990   0.660
 9389SOL    HW129066   2.876   0.955   0.738
 9389SOL    HW229067   2.929   0.923   0.586
 9390SOL     OW29068   3.867   5.198   0.958
 9390SOL    HW129069   3.880   5.194   1.056
 9390SOL    HW229070   3.824   5.114   0.926
 9391SOL     OW29071   5.968   1.173   4.117
 9391SOL    HW129072   5.923   1.115   4.049
 9391SOL    HW229073   6.067   1.173   4.102
 9392SOL     OW29074   0.777   6.498   4.642
 9392SOL    HW129075   0.865   6.522   4.682
 9392SOL    HW229076   0.781   6.406   4.604
 9393SOL     OW29077   4.027   1.632   5.508
 9393SOL    HW129078   3.956   1.593   5.567
 9393SOL    HW229079   3.989   1.709   5.457
 9394SOL     OW29080   6.044   2.113   1.913
 9394SOL    HW129081   6.081   2.190   1.964
 9394SOL    HW229082   6.081   2.027   1.950
 9395SOL     OW29083   2.044   2.934   6.575
 9395SOL    HW129084   1.986   2.900   6.650
 9395SOL    HW229085   2.028   2.880   6.493
 9396SOL     OW29086   0.181   1.103   6.295
 9396SOL    HW129087   0.272   1.144   6.298
 9396SOL    HW229088   0.178   1.035   6.222
 9397SOL     OW29089   2.032   1.928   0.405
 9397SOL    HW129090   2.092   2.006   0.425
 9397SOL    HW229091   1.977   1.907   0.486
 9398SOL     OW29092   2.235   1.747   1.826
 9398SOL    HW129093   2.229   1.695   1.741
 9398SOL    HW229094   2.146   1.749   1.870
 9399SOL     OW29095   0.290   0.275   6.048
 9399SOL    HW129096   0.281   0.182   6.085
 9399SOL    HW229097   0.383   0.308   6.063
 9400SOL     OW29098   3.588   1.739   3.496
 9400SOL    HW129099   3.535   1.655   3.500
 9400SOL    HW229100   3.654   1.740   3.571
 9401SOL     OW29101   4.582   6.670   3.849
 9401SOL    HW129102   4.640   6.748   3.822
 9401SOL    HW229103   4.618   6.630   3.934
 9402SOL     OW29104   2.903   5.454   6.586
 9402SOL    HW129105   2.923   5.547   6.557
 9402SOL    HW229106   2.906   5.392   6.508
 9403SOL     OW29107   5.669   0.135   4.310
 9403SOL    HW129108   5.717   0.048   4.297
 9403SOL    HW229109   5.664   0.184   4.222
 9404SOL     OW29110   1.397   3.839   5.837
 9404SOL    HW129111   1.317   3.888   5.803
 9404SOL    HW229112   1.479   3.875   5.792
 9405SOL     OW29113   0.566   0.516   1.276
 9405SOL    HW129114   0.470   0.513   1.250
 9405SOL    HW229115   0.608   0.428   1.256
 9406SOL     OW29116   6.712   1.161   5.267
 9406SOL    HW129117   6.637   1.156   5.333
 9406SOL    HW229118   6.675   1.173   5.175
 9407SOL     OW29119   3.765   5.542   2.964
 9407SOL    HW129120   3.846   5.494   2.929
 9407SOL    HW229121   3.716   5.482   3.027
 9408SOL     OW29122   3.894   1.825   6.774
 9408SOL    HW129123   3.907   1.856   6.868
 9408SOL    HW229124   3.957   1.873   6.714
 9409SOL     OW29125   5.974   3.809   3.363
 9409SOL    HW129126   6.022   3.863   3.432
 9409SOL    HW229127   5.920   3.870   3.305
 9410SOL     OW29128   4.480   6.712   1.391
 9410SOL    HW129129   4.397   6.661   1.412
 9410SOL    HW229130   4.553   6.649   1.366
 9411SOL     OW29131   4.777   5.485   1.888
 9411SOL    HW129132   4.769   5.397   1.935
 9411SOL    HW229133   4.722   5.553   1.937
 9412SOL     OW29134   6.273   2.802   3.351
 9412SOL    HW129135   6.365   2.777   3.321
 9412SOL    HW229136   6.273   2.897   3.382
 9413SOL     OW29137   3.888   5.142   3.496
 9413SOL    HW129138   3.876   5.166   3.399
 9413SOL    HW229139   3.853   5.050   3.513
 9414SOL     OW29140   2.283   0.083   2.560
 9414SOL    HW129141   2.295   6.999   2.567
 9414SOL    HW229142   2.301   0.125   2.649
 9415SOL     OW29143   1.741   0.990   2.481
 9415SOL    HW129144   1.816   0.942   2.435
 9415SOL    HW229145   1.767   1.085   2.495
 9416SOL     OW29146   1.669   2.755   1.743
 9416SOL    HW129147   1.673   2.665   1.785
 9416SOL    HW229148   1.644   2.823   1.812
 9417SOL     OW29149   1.534   0.130   4.975
 9417SOL    HW129150   1.452   0.155   5.026
 9417SOL    HW229151   1.545   0.192   4.897
 9418SOL     OW29152   4.514   3.984   1.041
 9418SOL    HW129153   4.506   3.891   1.077
 9418SOL    HW229154   4.457   4.045   1.096
 9419SOL     OW29155   2.689   5.200   3.772
 9419SOL    HW129156   2.673   5.105   3.800
 9419SOL    HW229157   2.606   5.253   3.786
 9420SOL     OW29158   1.786   0.383   4.016
 9420SOL    HW129159   1.730   0.459   3.984
 9420SOL    HW229160   1.848   0.415   4.087
 9421SOL     OW29161   1.816   5.065   4.765
 9421SOL    HW129162   1.810   4.972   4.801
 9421SOL    HW229163   1.911   5.094   4.762
 9422SOL     OW29164   4.302   1.177   2.996
 9422SOL    HW129165   4.315   1.080   3.017
 9422SOL    HW229166   4.205   1.198   2.996
 9423SOL     OW29167   4.401   0.344   4.843
 9423SOL    HW129168   4.410   0.434   4.886
 9423SOL    HW229169   4.486   0.320   4.797
 9424SOL     OW29170   3.720   5.863   3.739
 9424SOL    HW129171   3.710   5.853   3.640
 9424SOL    HW229172   3.754   5.777   3.778
 9425SOL     OW29173   0.649   5.312   3.067
 9425SOL    HW129174   0.557   5.282   3.093
 9425SOL    HW229175   0.642   5.392   3.008
 9426SOL     OW29176   3.590   5.846   0.748
 9426SOL    HW129177   3.663   5.910   0.725
 9426SOL    HW229178   3.592   5.827   0.846
 9427SOL     OW29179   3.225   4.915   4.298
 9427SOL    HW129180   3.129   4.939   4.287
 9427SOL    HW229181   3.240   4.874   4.388
 9428SOL     OW29182   4.839   6.374   2.337
 9428SOL    HW129183   4.774   6.304   2.307
 9428SOL    HW229184   4.812   6.462   2.299
 9429SOL     OW29185   0.789   3.833   2.799
 9429SOL    HW129186   0.829   3.748   2.833
 9429SOL    HW229187   0.750   3.818   2.708
 9430SOL     OW29188   6.050   6.977   1.604
 9430SOL    HW129189   6.045   0.021   1.684
 9430SOL    HW229190   5.964   6.926   1.594
 9431SOL     OW29191   6.412   4.352   6.912
 9431SOL    HW129192   6.492   4.407   6.936
 9431SOL    HW229193   6.328   4.402   6.936
 9432SOL     OW29194   6.580   6.754   4.329
 9432SOL    HW129195   6.508   6.708   4.382
 9432SOL    HW229196   6.538   6.824   4.271
 9433SOL     OW29197   2.548   5.553   3.957
 9433SOL    HW129198   2.498   5.513   3.880
 9433SOL    HW229199   2.553   5.487   4.032
 9434SOL     OW29200   5.553   4.377   3.525
 9434SOL    HW129201   5.621   4.335   3.584
 9434SOL    HW229202   5.593   4.393   3.434
 9435SOL     OW29203   2.464   2.282   5.277
 9435SOL    HW129204   2.407   2.291   5.196
 9435SOL    HW229205   2.467   2.187   5.307
 9436SOL     OW29206   3.083   1.720   5.495
 9436SOL    HW129207   2.990   1.754   5.512
 9436SOL    HW229208   3.147   1.796   5.495
 9437SOL     OW29209   0.169   5.661   4.546
 9437SOL    HW129210   0.256   5.668   4.595
 9437SOL    HW229211   0.093   5.668   4.611
 9438SOL     OW29212   0.728   6.421   1.948
 9438SOL    HW129213   0.765   6.377   1.866
 9438SOL    HW229214   0.798   6.477   1.991
 9439SOL     OW29215   1.452   3.816   0.882
 9439SOL    HW129216   1.518   3.890   0.868
 9439SOL    HW229217   1.488   3.752   0.950
 9440SOL     OW29218   3.412   5.366   4.384
 9440SOL    HW129219   3.349   5.368   4.462
 9440SOL    HW229220   3.422   5.459   4.347
 9441SOL     OW29221   1.772   5.754   5.252
 9441SOL    HW129222   1.746   5.663   5.220
 9441SOL    HW229223   1.742   5.765   5.347
 9442SOL     OW29224   0.910   3.339   0.831
 9442SOL    HW129225   0.987   3.403   0.836
 9442SOL    HW229226   0.837   3.370   0.892
 9443SOL     OW29227   1.412   2.896   1.485
 9443SOL    HW129228   1.370   2.985   1.467
 9443SOL    HW229229   1.403   2.874   1.582
 9444SOL     OW29230   1.351   4.495   5.780
 9444SOL    HW129231   1.362   4.406   5.734
 9444SOL    HW229232   1.332   4.481   5.877
 9445SOL     OW29233   6.301   2.632   1.696
 9445SOL    HW129234   6.266   2.564   1.761
 9445SOL    HW229235   6.238   2.710   1.692
 9446SOL     OW29236   5.745   4.012   6.968
 9446SOL    HW129237   5.793   3.961   0.024
 9446SOL    HW229238   5.698   4.090   7.010
 9447SOL     OW29239   5.863   1.588   1.851
 9447SOL    HW129240   5.782   1.548   1.809
 9447SOL    HW229241   5.840   1.621   1.943
 9448SOL     OW29242   6.375   6.074   0.369
 9448SOL    HW129243   6.335   6.143   0.308
 9448SOL    HW229244   6.359   5.983   0.331
 9449SOL     OW29245   5.848   5.392   5.469
 9449SOL    HW129246   5.884   5.475   5.512
 9449SOL    HW229247   5.905   5.368   5.390
 9450SOL     OW29248   2.347   6.187   3.914
 9450SOL    HW129249   2.416   6.125   3.877
 9450SOL    HW229250   2.290   6.222   3.840
 9451SOL     OW29251   3.894   3.631   5.373
 9451SOL    HW129252   3.824   3.588   5.316
 9451SOL    HW229253   3.920   3.569   5.447
 9452SOL     OW29254   3.294   3.802   0.688
 9452SOL    HW129255   3.229   3.847   0.749
 9452SOL    HW229256   3.272   3.826   0.593
 9453SOL     OW29257   3.052   5.587   1.324
 9453SOL    HW129258   3.138   5.539   1.340
 9453SOL    HW229259   2.975   5.525   1.342
 9454SOL     OW29260   2.042   2.219   5.870
 9454SOL    HW129261   2.119   2.281   5.890
 9454SOL    HW229262   2.076   2.125   5.864
 9455SOL     OW29263   2.108   2.180   2.966
 9455SOL    HW129264   2.123   2.230   2.881
 9455SOL    HW229265   2.099   2.083   2.947
 9456SOL     OW29266   1.303   3.128   0.490
 9456SOL    HW129267   1.290   3.038   0.450
 9456SOL    HW229268   1.214   3.164   0.521
 9457SOL     OW29269   6.554   3.500   6.891
 9457SOL    HW129270   6.478   3.444   6.859
 9457SOL    HW229271   6.604   3.536   6.812
 9458SOL     OW29272   1.078   6.180   4.386
 9458SOL    HW129273   1.099   6.100   4.443
 9458SOL    HW229274   1.013   6.155   4.315
 9459SOL     OW29275   4.919   5.998   1.465
 9459SOL    HW129276   4.823   5.979   1.444
 9459SOL    HW229277   4.968   5.912   1.480
 9460SOL     OW29278   0.993   3.424   5.914
 9460SOL    HW129279   1.033   3.460   5.998
 9460SOL    HW229280   1.057   3.361   5.870
 9461SOL     OW29281   1.755   0.408   3.095
 9461SOL    HW129282   1.728   0.317   3.127
 9461SOL    HW229283   1.743   0.474   3.169
 9462SOL     OW29284   0.583   3.203   3.102
 9462SOL    HW129285   0.488   3.231   3.086
 9462SOL    HW229286   0.601   3.203   3.201
 9463SOL     OW29287   5.739   2.040   6.890
 9463SOL    HW129288   5.658   2.022   6.834
 9463SOL    HW229289   5.813   2.073   6.832
 9464SOL     OW29290   4.291   6.506   5.615
 9464SOL    HW129291   4.195   6.492   5.591
 9464SOL    HW229292   4.342   6.422   5.599
 9465SOL     OW29293   5.322   6.393   4.250
 9465SOL    HW129294   5.228   6.417   4.275
 9465SOL    HW229295   5.384   6.429   4.320
 9466SOL     OW29296   3.686   1.623   0.155
 9466SOL    HW129297   3.782   1.598   0.169
 9466SOL    HW229298   3.627   1.551   0.191
 9467SOL     OW29299   1.586   3.159   2.308
 9467SOL    HW129300   1.685   3.151   2.297
 9467SOL    HW229301   1.564   3.162   2.405
 9468SOL     OW29302   0.681   2.186   5.839
 9468SOL    HW129303   0.657   2.151   5.748
 9468SOL    HW229304   0.693   2.109   5.902
 9469SOL     OW29305   6.783   4.235   2.727
 9469SOL    HW129306   6.818   4.184   2.648
 9469SOL    HW229307   6.705   4.186   2.766
 9470SOL     OW29308   6.802   3.787   0.993
 9470SOL    HW129309   6.867   3.718   1.024
 9470SOL    HW229310   6.844   3.878   0.995
 9471SOL     OW29311   0.308   2.412   6.116
 9471SOL    HW129312   0.230   2.453   6.070
 9471SOL    HW229313   0.288   2.402   6.214
 9472SOL     OW29314   6.757   2.198   5.188
 9472SOL    HW129315   6.743   2.194   5.089
 9472SOL    HW229316   6.752   2.105   5.226
 9473SOL     OW29317   3.159   5.630   5.132
 9473SOL    HW129318   3.231   5.688   5.095
 9473SOL    HW229319   3.199   5.565   5.197
 9474SOL     OW29320   3.264   5.466   3.507
 9474SOL    HW129321   3.330   5.482   3.580
 9474SOL    HW229322   3.174   5.451   3.546
 9475SOL     OW29323   1.907   3.190   1.642
 9475SOL    HW129324   1.984   3.139   1.680
 9475SOL    HW229325   1.937   3.281   1.615
 9476SOL     OW29326   2.602   3.589   5.404
 9476SOL    HW129327   2.589   3.676   5.356
 9476SOL    HW229328   2.665   3.531   5.351
 9477SOL     OW29329   0.742   2.249   0.557
 9477SOL    HW129330   0.642   2.244   0.559
 9477SOL    HW229331   0.775   2.289   0.643
 9478SOL     OW29332   5.564   4.295   5.678
 9478SOL    HW129333   5.514   4.282   5.764
 9478SOL    HW229334   5.647   4.239   5.678
 9479SOL     OW29335   5.748   5.355   4.947
 9479SOL    HW129336   5.843   5.335   4.924
 9479SOL    HW229337   5.738   5.452   4.970
 9480SOL     OW29338   6.254   4.035   6.245
 9480SOL    HW129339   6.161   4.060   6.272
 9480SOL    HW229340   6.320   4.089   6.298
 9481SOL     OW29341   6.964   2.863   2.807
 9481SOL    HW129342   6.943   2.771   2.840
 9481SOL    HW229343   6.878   2.912   2.789
 9482SOL     OW29344   4.391   0.241   2.318
 9482SOL    HW129345   4.308   0.185   2.312
 9482SOL    HW229346   4.429   0.235   2.410
 9483SOL     OW29347   1.278   1.574   1.048
 9483SOL    HW129348   1.265   1.612   0.957
 9483SOL    HW229349   1.372   1.593   1.078
 9484SOL     OW29350   6.260   0.336   3.127
 9484SOL    HW129351   6.250   0.420   3.180
 9484SOL    HW229352   6.329   0.278   3.171
 9485SOL     OW29353   0.903   6.730   2.070
 9485SOL    HW129354   0.906   6.830   2.082
 9485SOL    HW229355   0.827   6.692   2.122
 9486SOL     OW29356   2.622   6.722   2.025
 9486SOL    HW129357   2.527   6.742   2.050
 9486SOL    HW229358   2.678   6.715   2.107
 9487SOL     OW29359   3.185   3.550   3.910
 9487SOL    HW129360   3.223   3.493   3.983
 9487SOL    HW229361   3.087   3.559   3.923
 9488SOL     OW29362   1.407   1.233   1.746
 9488SOL    HW129363   1.353   1.160   1.704
 9488SOL    HW229364   1.366   1.259   1.833
 9489SOL     OW29365   2.896   4.153   0.450
 9489SOL    HW129366   2.955   4.142   0.531
 9489SOL    HW229367   2.801   4.137   0.476
 9490SOL     OW29368   4.883   1.397   0.013
 9490SOL    HW129369   4.854   1.458   6.954
 9490SOL    HW229370   4.937   1.322   6.991
 9491SOL     OW29371   6.492   5.414   6.071
 9491SOL    HW129372   6.440   5.348   6.017
 9491SOL    HW229373   6.541   5.477   6.010
 9492SOL     OW29374   2.347   4.564   1.540
 9492SOL    HW129375   2.398   4.620   1.475
 9492SOL    HW229376   2.402   4.484   1.564
 9493SOL     OW29377   5.388   6.609   2.717
 9493SOL    HW129378   5.479   6.578   2.745
 9493SOL    HW229379   5.318   6.561   2.769
 9494SOL     OW29380   3.448   3.376   6.399
 9494SOL    HW129381   3.377   3.398   6.467
 9494SOL    HW229382   3.471   3.279   6.406
 9495SOL     OW29383   5.474   2.432   4.256
 9495SOL    HW129384   5.421   2.517   4.249
 9495SOL    HW229385   5.444   2.369   4.184
 9496SOL     OW29386   6.409   4.111   0.403
 9496SOL    HW129387   6.376   4.130   0.310
 9496SOL    HW229388   6.480   4.041   0.400
 9497SOL     OW29389   0.945   5.935   5.852
 9497SOL    HW129390   1.003   5.865   5.893
 9497SOL    HW229391   0.856   5.937   5.899
 9498SOL     OW29392   3.961   0.093   6.930
 9498SOL    HW129393   4.038   0.079   6.867
 9498SOL    HW229394   3.910   0.174   6.902
 9499SOL     OW29395   4.554   3.855   5.694
 9499SOL    HW129396   4.629   3.920   5.708
 9499SOL    HW229397   4.467   3.900   5.713
 9500SOL     OW29398   5.141   5.399   1.510
 9500SOL    HW129399   5.073   5.405   1.583
 9500SOL    HW229400   5.159   5.303   1.489
 9501SOL     OW29401   3.329   2.120   5.037
 9501SOL    HW129402   3.307   2.050   5.105
 9501SOL    HW229403   3.248   2.175   5.018
 9502SOL     OW29404   3.491   3.436   5.465
 9502SOL    HW129405   3.539   3.349   5.462
 9502SOL    HW229406   3.428   3.443   5.388
 9503SOL     OW29407   1.169   6.627   1.556
 9503SOL    HW129408   1.167   6.722   1.525
 9503SOL    HW229409   1.264   6.598   1.570
 9504SOL     OW29410   0.796   3.220   0.212
 9504SOL    HW129411   0.715   3.228   0.270
 9504SOL    HW229412   0.856   3.148   0.249
 9505SOL     OW29413   5.106   3.091   2.823
 9505SOL    HW129414   5.111   3.022   2.751
 9505SOL    HW229415   5.135   3.179   2.786
 9506SOL     OW29416   6.912   1.935   1.058
 9506SOL    HW129417   6.962   1.867   1.113
 9506SOL    HW229418   6.883   2.010   1.117
 9507SOL     OW29419   1.426   2.324   4.868
 9507SOL    HW129420   1.361   2.388   4.827
 9507SOL    HW229421   1.454   2.357   4.958
 9508SOL     OW29422   4.817   1.464   6.458
 9508SOL    HW129423   4.859   1.555   6.454
 9508SOL    HW229424   4.836   1.423   6.547
 9509SOL     OW29425   3.193   0.217   6.173
 9509SOL    HW129426   3.185   0.223   6.073
 9509SOL    HW229427   3.288   0.230   6.200
 9510SOL     OW29428   6.517   4.147   2.900
 9510SOL    HW129429   6.433   4.113   2.942
 9510SOL    HW229430   6.502   4.163   2.803
 9511SOL     OW29431   2.474   1.209   1.391
 9511SOL    HW129432   2.523   1.122   1.387
 9511SOL    HW229433   2.511   1.271   1.322
 9512SOL     OW29434   1.201   3.448   5.419
 9512SOL    HW129435   1.218   3.523   5.355
 9512SOL    HW229436   1.142   3.480   5.492
 9513SOL     OW29437   2.354   4.362   4.529
 9513SOL    HW129438   2.349   4.328   4.435
 9513SOL    HW229439   2.346   4.285   4.592
 9514SOL     OW29440   3.047   3.212   6.402
 9514SOL    HW129441   3.094   3.141   6.351
 9514SOL    HW229442   3.103   3.295   6.404
 9515SOL     OW29443   2.185   5.235   5.892
 9515SOL    HW129444   2.126   5.301   5.845
 9515SOL    HW229445   2.191   5.151   5.837
 9516SOL     OW29446   5.405   4.379   4.926
 9516SOL    HW129447   5.448   4.437   4.995
 9516SOL    HW229448   5.471   4.314   4.891
 9517SOL     OW29449   0.995   5.287   2.339
 9517SOL    HW129450   0.971   5.368   2.393
 9517SOL    HW229451   0.939   5.285   2.256
 9518SOL     OW29452   0.579   2.989   5.534
 9518SOL    HW129453   0.670   2.987   5.493
 9518SOL    HW229454   0.587   2.983   5.633
 9519SOL     OW29455   3.096   2.998   2.864
 9519SOL    HW129456   3.088   2.949   2.951
 9519SOL    HW229457   3.059   3.090   2.874
 9520SOL     OW29458   5.574   0.966   6.672
 9520SOL    HW129459   5.627   0.964   6.587
 9520SOL    HW229460   5.512   1.044   6.670
 9521SOL     OW29461   3.694   1.204   1.382
 9521SOL    HW129462   3.725   1.156   1.300
 9521SOL    HW229463   3.654   1.292   1.356
 9522SOL     OW29464   3.714   6.214   1.495
 9522SOL    HW129465   3.782   6.194   1.424
 9522SOL    HW229466   3.692   6.312   1.492
 9523SOL     OW29467   2.329   5.265   4.339
 9523SOL    HW129468   2.303   5.180   4.292
 9523SOL    HW229469   2.364   5.243   4.430
 9524SOL     OW29470   1.958   4.305   0.265
 9524SOL    HW129471   1.951   4.208   0.288
 9524SOL    HW229472   1.970   4.315   0.166
 9525SOL     OW29473   2.248   3.361   6.346
 9525SOL    HW129474   2.188   3.285   6.372
 9525SOL    HW229475   2.313   3.330   6.277
 9526SOL     OW29476   5.470   5.480   6.682
 9526SOL    HW129477   5.474   5.413   6.607
 9526SOL    HW229478   5.510   5.566   6.651
 9527SOL     OW29479   3.993   6.810   4.654
 9527SOL    HW129480   4.053   6.761   4.591
 9527SOL    HW229481   4.044   6.836   4.736
 9528SOL     OW29482   4.912   2.714   0.706
 9528SOL    HW129483   5.010   2.696   0.706
 9528SOL    HW229484   4.864   2.639   0.660
 9529SOL     OW29485   5.721   1.370   1.685
 9529SOL    HW129486   5.687   1.279   1.662
 9529SOL    HW229487   5.676   1.438   1.627
 9530SOL     OW29488   1.151   5.936   3.461
 9530SOL    HW129489   1.088   5.859   3.447
 9530SOL    HW229490   1.098   6.020   3.469
 9531SOL     OW29491   3.370   5.199   1.975
 9531SOL    HW129492   3.287   5.254   1.980
 9531SOL    HW229493   3.395   5.185   1.879
 9532SOL     OW29494   6.775   4.811   3.738
 9532SOL    HW129495   6.809   4.722   3.706
 9532SOL    HW229496   6.851   4.863   3.777
 9533SOL     OW29497   1.459   3.887   3.518
 9533SOL    HW129498   1.545   3.837   3.531
 9533SOL    HW229499   1.383   3.832   3.553
 9534SOL     OW29500   4.344   5.867   4.272
 9534SOL    HW129501   4.342   5.842   4.175
 9534SOL    HW229502   4.431   5.838   4.312
 9535SOL     OW29503   6.928   1.142   4.606
 9535SOL    HW129504   6.987   1.213   4.644
 9535SOL    HW229505   6.983   1.061   4.587
 9536SOL     OW29506   3.439   3.990   5.533
 9536SOL    HW129507   3.538   3.981   5.536
 9536SOL    HW229508   3.402   3.981   5.625
 9537SOL     OW29509   6.815   1.012   3.867
 9537SOL    HW129510   6.807   1.081   3.939
 9537SOL    HW229511   6.898   1.029   3.814
 9538SOL     OW29512   5.247   0.161   4.583
 9538SOL    HW129513   5.164   0.109   4.562
 9538SOL    HW229514   5.244   0.248   4.535
 9539SOL     OW29515   3.919   4.002   3.029
 9539SOL    HW129516   3.947   3.959   3.115
 9539SOL    HW229517   3.945   3.944   2.953
 9540SOL     OW29518   4.110   4.810   3.630
 9540SOL    HW129519   4.136   4.829   3.536
 9540SOL    HW229520   4.013   4.830   3.643
 9541SOL     OW29521   1.639   5.859   5.494
 9541SOL    HW129522   1.552   5.884   5.538
 9541SOL    HW229523   1.696   5.940   5.485
 9542SOL     OW29524   6.249   4.168   2.964
 9542SOL    HW129525   6.231   4.266   2.967
 9542SOL    HW229526   6.162   4.119   2.952
 9543SOL     OW29527   2.530   0.725   6.107
 9543SOL    HW129528   2.488   0.699   6.020
 9543SOL    HW229529   2.478   0.685   6.183
 9544SOL     OW29530   6.262   3.449   4.519
 9544SOL    HW129531   6.192   3.509   4.480
 9544SOL    HW229532   6.310   3.402   4.445
 9545SOL     OW29533   6.565   4.471   2.276
 9545SOL    HW129534   6.487   4.416   2.245
 9545SOL    HW229535   6.559   4.563   2.236
 9546SOL     OW29536   2.897   2.844   1.257
 9546SOL    HW129537   2.812   2.834   1.309
 9546SOL    HW229538   2.957   2.766   1.276
 9547SOL     OW29539   4.709   0.241   3.687
 9547SOL    HW129540   4.778   0.305   3.721
 9547SOL    HW229541   4.755   0.165   3.641
 9548SOL     OW29542   0.819   5.070   6.269
 9548SOL    HW129543   0.816   5.159   6.314
 9548SOL    HW229544   0.897   5.067   6.206
 9549SOL     OW29545   3.924   1.513   1.589
 9549SOL    HW129546   3.999   1.530   1.654
 9549SOL    HW229547   3.917   1.415   1.572
 9550SOL     OW29548   5.928   2.845   1.750
 9550SOL    HW129549   5.957   2.785   1.675
 9550SOL    HW229550   5.974   2.817   1.834
 9551SOL     OW29551   5.929   2.845   6.391
 9551SOL    HW129552   6.013   2.861   6.443
 9551SOL    HW229553   5.948   2.851   6.293
 9552SOL     OW29554   3.083   1.945   0.417
 9552SOL    HW129555   3.008   1.986   0.366
 9552SOL    HW229556   3.102   2.000   0.499
 9553SOL     OW29557   5.846   1.515   0.113
 9553SOL    HW129558   5.823   1.429   0.160
 9553SOL    HW229559   5.824   1.592   0.173
 9554SOL     OW29560   3.008   0.995   4.235
 9554SOL    HW129561   2.987   1.091   4.254
 9554SOL    HW229562   2.929   0.953   4.190
 9555SOL     OW29563   0.593   6.599   3.607
 9555SOL    HW129564   0.682   6.605   3.651
 9555SOL    HW229565   0.541   6.684   3.625
 9556SOL     OW29566   2.417   4.687   6.384
 9556SOL    HW129567   2.331   4.691   6.434
 9556SOL    HW229568   2.404   4.723   6.291
 9557SOL     OW29569   5.811   0.967   0.914
 9557SOL    HW129570   5.820   0.992   0.818
 9557SOL    HW229571   5.859   0.881   0.931
 9558SOL     OW29572   4.987   6.354   6.031
 9558SOL    HW129573   4.948   6.445   6.016
 9558SOL    HW229574   5.084   6.363   6.054
 9559SOL     OW29575   2.319   5.055   0.022
 9559SOL    HW129576   2.244   5.079   6.975
 9559SOL    HW229577   2.406   5.056   6.986
 9560SOL     OW29578   2.609   0.591   2.795
 9560SOL    HW129579   2.628   0.505   2.843
 9560SOL    HW229580   2.559   0.571   2.710
 9561SOL     OW29581   0.468   0.293   0.092
 9561SOL    HW129582   0.438   0.216   0.034
 9561SOL    HW229583   0.565   0.311   0.076
 9562SOL     OW29584   2.170   5.901   3.243
 9562SOL    HW129585   2.226   5.977   3.207
 9562SOL    HW229586   2.192   5.817   3.193
 9563SOL     OW29587   1.280   6.050   6.192
 9563SOL    HW129588   1.223   6.094   6.123
 9563SOL    HW229589   1.305   5.958   6.161
 9564SOL     OW29590   1.730   1.070   0.895
 9564SOL    HW129591   1.697   1.102   0.807
 9564SOL    HW229592   1.827   1.093   0.905
 9565SOL     OW29593   2.586   1.529   4.422
 9565SOL    HW129594   2.516   1.599   4.418
 9565SOL    HW229595   2.675   1.571   4.439
 9566SOL     OW29596   2.939   0.018   0.250
 9566SOL    HW129597   2.945   6.946   0.299
 9566SOL    HW229598   3.028   0.042   0.212
 9567SOL     OW29599   6.973   4.025   1.046
 9567SOL    HW129600   0.027   4.023   0.974
 9567SOL    HW229601   7.014   4.058   1.131
 9568SOL     OW29602   4.342   1.696   6.401
 9568SOL    HW129603   4.365   1.686   6.498
 9568SOL    HW229604   4.244   1.689   6.388
 9569SOL     OW29605   5.772   0.440   1.966
 9569SOL    HW129606   5.676   0.459   1.985
 9569SOL    HW229607   5.781   0.354   1.917
 9570SOL     OW29608   0.429   3.476   1.743
 9570SOL    HW129609   0.408   3.563   1.697
 9570SOL    HW229610   0.462   3.410   1.675
 9571SOL     OW29611   1.615   1.379   0.165
 9571SOL    HW129612   1.546   1.443   0.129
 9571SOL    HW229613   1.581   1.286   0.157
 9572SOL     OW29614   2.329   4.952   4.686
 9572SOL    HW129615   2.290   4.872   4.641
 9572SOL    HW229616   2.328   4.939   4.785
 9573SOL     OW29617   6.359   0.193   4.341
 9573SOL    HW129618   6.306   0.197   4.257
 9573SOL    HW229619   6.348   0.279   4.392
 9574SOL     OW29620   4.202   3.150   0.662
 9574SOL    HW129621   4.232   3.116   0.573
 9574SOL    HW229622   4.182   3.248   0.656
 9575SOL     OW29623   5.428   0.227   1.983
 9575SOL    HW129624   5.478   0.313   1.977
 9575SOL    HW229625   5.432   0.179   1.895
 9576SOL     OW29626   1.115   1.015   6.938
 9576SOL    HW129627   1.194   1.077   6.941
 9576SOL    HW229628   1.038   1.062   6.893
 9577SOL     OW29629   6.093   5.228   3.014
 9577SOL    HW129630   6.064   5.304   3.071
 9577SOL    HW229631   6.018   5.202   2.953
 9578SOL     OW29632   1.810   3.451   2.066
 9578SOL    HW129633   1.755   3.413   1.992
 9578SOL    HW229634   1.754   3.511   2.123
 9579SOL     OW29635   5.884   5.803   2.257
 9579SOL    HW129636   5.915   5.713   2.287
 9579SOL    HW229637   5.955   5.846   2.201
 9580SOL     OW29638   4.615   4.336   3.427
 9580SOL    HW129639   4.651   4.244   3.440
 9580SOL    HW229640   4.575   4.370   3.512
 9581SOL     OW29641   5.434   2.133   6.841
 9581SOL    HW129642   5.475   2.196   6.775
 9581SOL    HW229643   5.400   2.052   6.792
 9582SOL     OW29644   5.291   6.526   4.787
 9582SOL    HW129645   5.388   6.524   4.811
 9582SOL    HW229646   5.247   6.443   4.821
 9583SOL     OW29647   3.653   4.970   1.759
 9583SOL    HW129648   3.643   4.900   1.830
 9583SOL    HW229649   3.718   4.939   1.690
 9584SOL     OW29650   2.620   5.053   4.079
 9584SOL    HW129651   2.585   5.043   4.172
 9584SOL    HW229652   2.613   4.965   4.032
 9585SOL     OW29653   4.585   6.305   0.648
 9585SOL    HW129654   4.566   6.213   0.681
 9585SOL    HW229655   4.519   6.369   0.687
 9586SOL     OW29656   3.560   5.538   2.755
 9586SOL    HW129657   3.636   5.489   2.798
 9586SOL    HW229658   3.596   5.607   2.692
 9587SOL     OW29659   3.699   6.028   0.995
 9587SOL    HW129660   3.712   6.103   0.931
 9587SOL    HW229661   3.617   6.045   1.050
 9588SOL     OW29662   6.414   5.608   6.936
 9588SOL    HW129663   6.469   5.529   6.910
 9588SOL    HW229664   6.412   5.617   0.020
 9589SOL     OW29665   1.706   2.490   6.349
 9589SOL    HW129666   1.670   2.578   6.379
 9589SOL    HW229667   1.667   2.417   6.406
 9590SOL     OW29668   6.471   0.218   0.874
 9590SOL    HW129669   6.560   0.204   0.918
 9590SOL    HW229670   6.421   0.131   0.870
 9591SOL     OW29671   5.214   1.003   0.651
 9591SOL    HW129672   5.123   0.962   0.641
 9591SOL    HW229673   5.214   1.095   0.611
 9592SOL     OW29674   2.116   6.326   5.782
 9592SOL    HW129675   2.211   6.333   5.813
 9592SOL    HW229676   2.115   6.304   5.685
 9593SOL     OW29677   1.939   2.571   4.054
 9593SOL    HW129678   1.952   2.653   3.999
 9593SOL    HW229679   1.856   2.524   4.026
 9594SOL     OW29680   0.166   6.114   3.431
 9594SOL    HW129681   0.106   6.037   3.408
 9594SOL    HW229682   0.210   6.097   3.520
 9595SOL     OW29683   0.414   3.391   3.313
 9595SOL    HW129684   0.496   3.345   3.347
 9595SOL    HW229685   0.416   3.392   3.213
 9596SOL     OW29686   1.169   6.828   0.550
 9596SOL    HW129687   1.166   6.911   0.494
 9596SOL    HW229688   1.189   6.852   0.645
 9597SOL     OW29689   1.259   3.419   1.702
 9597SOL    HW129690   1.164   3.388   1.704
 9597SOL    HW229691   1.310   3.372   1.774
 9598SOL     OW29692   2.355   4.231   4.262
 9598SOL    HW129693   2.402   4.264   4.180
 9598SOL    HW229694   2.292   4.158   4.237
 9599SOL     OW29695   4.399   6.606   4.115
 9599SOL    HW129696   4.440   6.536   4.057
 9599SOL    HW229697   4.428   6.696   4.083
 9600SOL     OW29698   3.596   1.458   1.332
 9600SOL    HW129699   3.506   1.490   1.304
 9600SOL    HW229700   3.636   1.523   1.396
 9601SOL     OW29701   1.017   3.609   0.655
 9601SOL    HW129702   1.100   3.556   0.674
 9601SOL    HW229703   1.014   3.689   0.714
 9602SOL     OW29704   4.241   4.861   5.404
 9602SOL    HW129705   4.197   4.817   5.326
 9602SOL    HW229706   4.333   4.823   5.416
 9603SOL     OW29707   5.167   6.809   5.711
 9603SOL    HW129708   5.165   6.852   5.621
 9603SOL    HW229709   5.095   6.848   5.769
 9604SOL     OW29710   4.923   6.977   0.834
 9604SOL    HW129711   4.864   0.006   0.766
 9604SOL    HW229712   5.016   6.969   0.799
 9605SOL     OW29713   5.475   5.302   1.864
 9605SOL    HW129714   5.437   5.284   1.955
 9605SOL    HW229715   5.436   5.237   1.799
 9606SOL     OW29716   1.505   1.130   0.115
 9606SOL    HW129717   1.558   1.046   0.109
 9606SOL    HW229718   1.457   1.145   0.029
 9607SOL     OW29719   1.899   2.174   6.362
 9607SOL    HW129720   1.862   2.095   6.314
 9607SOL    HW229721   1.951   2.231   6.298
 9608SOL     OW29722   6.016   2.702   4.600
 9608SOL    HW129723   6.038   2.616   4.553
 9608SOL    HW229724   5.958   2.683   4.679
 9609SOL     OW29725   4.687   3.045   6.973
 9609SOL    HW129726   4.610   3.109   6.975
 9609SOL    HW229727   4.770   3.092   7.005
 9610SOL     OW29728   0.872   4.815   2.738
 9610SOL    HW129729   0.802   4.839   2.671
 9610SOL    HW229730   0.872   4.881   2.812
 9611SOL     OW29731   2.527   1.008   0.659
 9611SOL    HW129732   2.494   0.946   0.730
 9611SOL    HW229733   2.541   0.957   0.574
 9612SOL     OW29734   0.189   1.775   4.096
 9612SOL    HW129735   0.146   1.828   4.169
 9612SOL    HW229736   0.142   1.688   4.087
 9613SOL     OW29737   5.954   5.015   3.474
 9613SOL    HW129738   5.915   5.107   3.475
 9613SOL    HW229739   6.046   5.017   3.513
 9614SOL     OW29740   4.723   2.529   3.402
 9614SOL    HW129741   4.710   2.450   3.342
 9614SOL    HW229742   4.784   2.595   3.358
 9615SOL     OW29743   1.458   4.577   1.393
 9615SOL    HW129744   1.476   4.493   1.342
 9615SOL    HW229745   1.394   4.558   1.468
 9616SOL     OW29746   3.791   3.680   6.601
 9616SOL    HW129747   3.721   3.683   6.672
 9616SOL    HW229748   3.869   3.626   6.633
 9617SOL     OW29749   1.888   3.086   3.006
 9617SOL    HW129750   1.883   3.047   2.914
 9617SOL    HW229751   1.982   3.117   3.024
 9618SOL     OW29752   2.302   1.747   0.997
 9618SOL    HW129753   2.202   1.751   0.986
 9618SOL    HW229754   2.326   1.671   1.057
 9619SOL     OW29755   2.555   0.485   6.476
 9619SOL    HW129756   2.652   0.504   6.483
 9619SOL    HW229757   2.540   0.412   6.409
 9620SOL     OW29758   5.419   1.090   5.344
 9620SOL    HW129759   5.412   0.992   5.362
 9620SOL    HW229760   5.488   1.106   5.273
 9621SOL     OW29761   1.685   3.608   3.001
 9621SOL    HW129762   1.663   3.706   2.993
 9621SOL    HW229763   1.765   3.588   2.945
 9622SOL     OW29764   5.197   0.089   0.607
 9622SOL    HW129765   5.180   0.048   0.696
 9622SOL    HW229766   5.246   0.023   0.549
 9623SOL     OW29767   2.233   4.106   6.691
 9623SOL    HW129768   2.169   4.183   6.691
 9623SOL    HW229769   2.208   4.042   6.619
 9624SOL     OW29770   6.205   2.769   4.044
 9624SOL    HW129771   6.192   2.728   3.954
 9624SOL    HW229772   6.288   2.824   4.043
 9625SOL     OW29773   5.643   5.705   1.027
 9625SOL    HW129774   5.638   5.805   1.033
 9625SOL    HW229775   5.675   5.669   1.115
 9626SOL     OW29776   3.668   6.582   0.562
 9626SOL    HW129777   3.682   6.624   0.473
 9626SOL    HW229778   3.746   6.601   0.621
 9627SOL     OW29779   1.355   0.050   6.801
 9627SOL    HW129780   1.408   0.097   6.731
 9627SOL    HW229781   1.353   0.104   6.885
 9628SOL     OW29782   2.934   6.889   2.186
 9628SOL    HW129783   2.952   6.868   2.090
 9628SOL    HW229784   2.882   6.814   2.227
 9629SOL     OW29785   2.359   0.378   1.239
 9629SOL    HW129786   2.338   0.330   1.154
 9629SOL    HW229787   2.370   0.311   1.313
 9630SOL     OW29788   6.435   1.779   6.344
 9630SOL    HW129789   6.471   1.823   6.426
 9630SOL    HW229790   6.511   1.746   6.288
 9631SOL     OW29791   6.672   6.101   0.145
 9631SOL    HW129792   6.752   6.129   0.091
 9631SOL    HW229793   6.659   6.003   0.137
 9632SOL     OW29794   0.645   5.354   2.084
 9632SOL    HW129795   0.611   5.446   2.106
 9632SOL    HW229796   0.743   5.349   2.106
 9633SOL     OW29797   6.950   4.945   6.014
 9633SOL    HW129798   6.940   5.021   6.078
 9633SOL    HW229799   0.022   4.900   6.029
 9634SOL     OW29800   1.153   6.160   5.950
 9634SOL    HW129801   1.188   6.240   5.902
 9634SOL    HW229802   1.090   6.110   5.890
 9635SOL     OW29803   0.280   5.987   5.459
 9635SOL    HW129804   0.278   6.085   5.438
 9635SOL    HW229805   0.327   5.938   5.385
 9636SOL     OW29806   4.111   1.070   0.143
 9636SOL    HW129807   4.048   1.061   0.221
 9636SOL    HW229808   4.069   1.127   0.073
 9637SOL     OW29809   2.071   1.311   6.678
 9637SOL    HW129810   2.109   1.393   6.636
 9637SOL    HW229811   1.984   1.289   6.634
 9638SOL     OW29812   6.786   2.290   6.762
 9638SOL    HW129813   6.694   2.292   6.723
 9638SOL    HW229814   6.852   2.265   6.691
 9639SOL     OW29815   4.012   1.072   2.096
 9639SOL    HW129816   4.027   1.047   2.192
 9639SOL    HW229817   3.960   1.157   2.092
 9640SOL     OW29818   1.295   1.949   2.506
 9640SOL    HW129819   1.294   1.882   2.431
 9640SOL    HW229820   1.333   2.035   2.473
 9641SOL     OW29821   5.723   5.703   6.888
 9641SOL    HW129822   5.642   5.652   6.916
 9641SOL    HW229823   5.735   5.781   6.950
 9642SOL     OW29824   3.833   0.456   3.788
 9642SOL    HW129825   3.743   0.494   3.768
 9642SOL    HW229826   3.822   0.363   3.825
 9643SOL     OW29827   4.289   4.648   3.047
 9643SOL    HW129828   4.285   4.657   3.146
 9643SOL    HW229829   4.372   4.692   3.012
 9644SOL     OW29830   3.168   1.666   0.426
 9644SOL    HW129831   3.119   1.753   0.434
 9644SOL    HW229832   3.140   1.620   0.342
 9645SOL     OW29833   2.663   5.701   4.900
 9645SOL    HW129834   2.699   5.677   4.809
 9645SOL    HW229835   2.614   5.623   4.938
 9646SOL     OW29836   3.693   5.295   4.296
 9646SOL    HW129837   3.761   5.366   4.311
 9646SOL    HW229838   3.603   5.330   4.321
 9647SOL     OW29839   6.452   2.659   5.985
 9647SOL    HW129840   6.394   2.589   5.942
 9647SOL    HW229841   6.455   2.740   5.926
 9648SOL     OW29842   4.100   3.784   0.764
 9648SOL    HW129843   4.197   3.768   0.782
 9648SOL    HW229844   4.053   3.800   0.851
 9649SOL     OW29845   2.271   5.175   1.831
 9649SOL    HW129846   2.234   5.177   1.924
 9649SOL    HW229847   2.196   5.165   1.766
 9650SOL     OW29848   0.858   0.229   1.078
 9650SOL    HW129849   0.817   0.320   1.072
 9650SOL    HW229850   0.948   0.230   1.033
 9651SOL     OW29851   0.510   1.571   6.501
 9651SOL    HW129852   0.544   1.505   6.434
 9651SOL    HW229853   0.432   1.532   6.550
 9652SOL     OW29854   0.630   4.718   1.764
 9652SOL    HW129855   0.547   4.743   1.815
 9652SOL    HW229856   0.634   4.772   1.680
 9653SOL     OW29857   6.090   6.480   4.184
 9653SOL    HW129858   6.097   6.496   4.282
 9653SOL    HW229859   6.057   6.387   4.168
 9654SOL     OW29860   2.174   3.040   2.800
 9654SOL    HW129861   2.202   3.124   2.847
 9654SOL    HW229862   2.098   3.060   2.739
 9655SOL     OW29863   6.153   1.568   6.766
 9655SOL    HW129864   6.061   1.582   6.729
 9655SOL    HW229865   6.193   1.657   6.790
 9656SOL     OW29866   2.896   1.671   3.086
 9656SOL    HW129867   2.976   1.630   3.129
 9656SOL    HW229868   2.917   1.692   2.991
 9657SOL     OW29869   0.135   6.849   4.758
 9657SOL    HW129870   0.228   6.814   4.769
 9657SOL    HW229871   0.078   6.815   4.833
 9658SOL     OW29872   5.627   2.037   3.049
 9658SOL    HW129873   5.620   1.978   3.130
 9658SOL    HW229874   5.556   2.012   2.983
 9659SOL     OW29875   1.121   5.141   6.609
 9659SOL    HW129876   1.100   5.142   6.707
 9659SOL    HW229877   1.208   5.187   6.593
 9660SOL     OW29878   1.260   5.354   0.363
 9660SOL    HW129879   1.198   5.297   0.417
 9660SOL    HW229880   1.237   5.450   0.375
 9661SOL     OW29881   4.160   7.005   0.618
 9661SOL    HW129882   4.152   6.990   0.717
 9661SOL    HW229883   4.069   7.004   0.577
 9662SOL     OW29884   5.271   1.562   4.425
 9662SOL    HW129885   5.190   1.590   4.374
 9662SOL    HW229886   5.353   1.592   4.376
 9663SOL     OW29887   2.210   6.225   3.261
 9663SOL    HW129888   2.211   6.239   3.360
 9663SOL    HW229889   2.118   6.199   3.232
 9664SOL     OW29890   2.270   5.950   1.614
 9664SOL    HW129891   2.348   5.927   1.672
 9664SOL    HW229892   2.293   5.931   1.518
 9665SOL     OW29893   5.108   4.144   3.924
 9665SOL    HW129894   5.183   4.143   3.859
 9665SOL    HW229895   5.031   4.092   3.887
 9666SOL     OW29896   5.410   5.045   4.831
 9666SOL    HW129897   5.420   5.134   4.876
 9666SOL    HW229898   5.318   5.039   4.791
 9667SOL     OW29899   3.110   3.124   3.667
 9667SOL    HW129900   3.172   3.046   3.663
 9667SOL    HW229901   3.055   3.129   3.584
 9668SOL     OW29902   0.481   1.002   5.299
 9668SOL    HW129903   0.385   1.031   5.300
 9668SOL    HW229904   0.485   0.903   5.285
 9669SOL     OW29905   1.283   6.374   6.737
 9669SOL    HW129906   1.371   6.399   6.776
 9669SOL    HW229907   1.294   6.354   6.639
 9670SOL     OW29908   5.561   4.645   6.360
 9670SOL    HW129909   5.623   4.614   6.432
 9670SOL    HW229910   5.602   4.624   6.270
 9671SOL     OW29911   6.936   0.500   0.004
 9671SOL    HW129912   6.874   0.570   0.037
 9671SOL    HW229913   0.016   0.527   0.024
 9672SOL     OW29914   1.522   6.147   5.242
 9672SOL    HW129915   1.490   6.229   5.193
 9672SOL    HW229916   1.449   6.114   5.302
 9673SOL     OW29917   2.353   2.939   6.230
 9673SOL    HW129918   2.304   2.855   6.207
 9673SOL    HW229919   2.308   3.017   6.186
 9674SOL     OW29920   2.765   6.707   2.280
 9674SOL    HW129921   2.678   6.663   2.300
 9674SOL    HW229922   2.840   6.642   2.300
 9675SOL     OW29923   0.078   2.372   2.549
 9675SOL    HW129924   7.011   2.315   2.555
 9675SOL    HW229925   0.071   2.432   2.469
 9676SOL     OW29926   0.260   2.397   4.937
 9676SOL    HW129927   0.218   2.427   5.023
 9676SOL    HW229928   0.335   2.458   4.913
 9677SOL     OW29929   1.361   3.371   5.651
 9677SOL    HW129930   1.318   3.361   5.561
 9677SOL    HW229931   1.459   3.353   5.643
 9678SOL     OW29932   3.201   3.227   3.221
 9678SOL    HW129933   3.242   3.138   3.201
 9678SOL    HW229934   3.173   3.271   3.136
 9679SOL     OW29935   0.600   3.622   1.114
 9679SOL    HW129936   0.632   3.680   1.190
 9679SOL    HW229937   0.500   3.620   1.114
 9680SOL     OW29938   4.809   5.293   3.149
 9680SOL    HW129939   4.882   5.249   3.201
 9680SOL    HW229940   4.746   5.338   3.212
 9681SOL     OW29941   1.047   0.460   4.361
 9681SOL    HW129942   1.124   0.516   4.389
 9681SOL    HW229943   1.060   0.430   4.266
 9682SOL     OW29944   0.609   4.717   3.221
 9682SOL    HW129945   0.519   4.760   3.224
 9682SOL    HW229946   0.599   4.619   3.236
 9683SOL     OW29947   5.048   6.736   6.058
 9683SOL    HW129948   5.088   6.658   6.010
 9683SOL    HW229949   5.115   6.810   6.065
 9684SOL     OW29950   0.933   4.414   3.338
 9684SOL    HW129951   0.982   4.472   3.402
 9684SOL    HW229952   0.991   4.396   3.258
 9685SOL     OW29953   1.934   1.734   6.772
 9685SOL    HW129954   1.951   1.826   6.736
 9685SOL    HW229955   2.021   1.693   6.800
 9686SOL     OW29956   5.209   2.318   1.591
 9686SOL    HW129957   5.157   2.362   1.517
 9686SOL    HW229958   5.237   2.387   1.657
 9687SOL     OW29959   3.679   1.466   4.540
 9687SOL    HW129960   3.695   1.422   4.452
 9687SOL    HW229961   3.583   1.493   4.547
 9688SOL     OW29962   6.285   1.845   3.907
 9688SOL    HW129963   6.369   1.860   3.960
 9688SOL    HW229964   6.215   1.908   3.939
 9689SOL     OW29965   2.319   5.317   5.403
 9689SOL    HW129966   2.401   5.301   5.458
 9689SOL    HW229967   2.272   5.231   5.387
 9690SOL     OW29968   6.069   3.835   0.337
 9690SOL    HW129969   6.106   3.883   0.416
 9690SOL    HW229970   6.138   3.831   0.265
 9691SOL     OW29971   1.532   4.440   0.483
 9691SOL    HW129972   1.515   4.387   0.566
 9691SOL    HW229973   1.564   4.379   0.410
 9692SOL     OW29974   3.336   5.869   0.613
 9692SOL    HW129975   3.246   5.863   0.655
 9692SOL    HW229976   3.406   5.837   0.677
 9693SOL     OW29977   5.969   6.027   1.675
 9693SOL    HW129978   5.927   6.074   1.752
 9693SOL    HW229979   5.955   5.929   1.683
 9694SOL     OW29980   1.162   1.936   1.063
 9694SOL    HW129981   1.236   1.939   0.996
 9694SOL    HW229982   1.076   1.914   1.018
 9695SOL     OW29983   6.741   4.392   0.432
 9695SOL    HW129984   6.740   4.298   0.398
 9695SOL    HW229985   6.673   4.446   0.383
 9696SOL     OW29986   3.743   4.545   0.437
 9696SOL    HW129987   3.732   4.530   0.535
 9696SOL    HW229988   3.758   4.643   0.420
 9697SOL     OW29989   0.701   5.873   5.957
 9697SOL    HW129990   0.677   5.851   6.051
 9697SOL    HW229991   0.618   5.891   5.904
 9698SOL     OW29992   4.656   1.569   5.358
 9698SOL    HW129993   4.588   1.637   5.384
 9698SOL    HW229994   4.741   1.615   5.332
 9699SOL     OW29995   1.835   2.252   6.622
 9699SOL    HW129996   1.867   2.236   6.529
 9699SOL    HW229997   1.737   2.230   6.628
 9700SOL     OW29998   4.059   3.636   3.436
 9700SOL    HW129999   3.959   3.644   3.441
 9700SOL    HW230000   4.087   3.548   3.476
 9701SOL     OW30001   4.539   4.438   4.594
 9701SOL    HW130002   4.547   4.367   4.664
 9701SOL    HW230003   4.630   4.461   4.559
 9702SOL     OW30004   5.395   0.271   0.473
 9702SOL    HW130005   5.327   0.207   0.509
 9702SOL    HW230006   5.427   0.330   0.547
 9703SOL     OW30007   2.643   5.788   3.861
 9703SOL    HW130008   2.733   5.815   3.894
 9703SOL    HW230009   2.626   5.692   3.887
 9704SOL     OW30010   2.366   1.344   3.856
 9704SOL    HW130011   2.427   1.397   3.915
 9704SOL    HW230012   2.271   1.368   3.875
 9705SOL     OW30013   3.699   4.260   0.929
 9705SOL    HW130014   3.782   4.208   0.908
 9705SOL    HW230015   3.650   4.280   0.844
 9706SOL     OW30016   6.701   2.535   3.663
 9706SOL    HW130017   6.739   2.561   3.752
 9706SOL    HW230018   6.623   2.474   3.677
 9707SOL     OW30019   2.421   4.947   2.591
 9707SOL    HW130020   2.322   4.934   2.578
 9707SOL    HW230021   2.468   4.927   2.505
 9708SOL     OW30022   1.763   2.058   2.309
 9708SOL    HW130023   1.822   2.132   2.340
 9708SOL    HW230024   1.745   1.996   2.385
 9709SOL     OW30025   1.452   5.691   3.345
 9709SOL    HW130026   1.472   5.750   3.267
 9709SOL    HW230027   1.505   5.606   3.338
 9710SOL     OW30028   0.916   0.586   4.036
 9710SOL    HW130029   0.858   0.650   3.986
 9710SOL    HW230030   0.864   0.546   4.112
 9711SOL     OW30031   1.371   3.018   6.525
 9711SOL    HW130032   1.450   3.075   6.550
 9711SOL    HW230033   1.311   3.069   6.463
 9712SOL     OW30034   4.969   3.877   4.496
 9712SOL    HW130035   4.932   3.785   4.507
 9712SOL    HW230036   5.068   3.871   4.480
 9713SOL     OW30037   6.746   4.892   2.873
 9713SOL    HW130038   6.697   4.883   2.786
 9713SOL    HW230039   6.742   4.987   2.904
 9714SOL     OW30040   2.254   2.252   2.743
 9714SOL    HW130041   2.287   2.177   2.686
 9714SOL    HW230042   2.207   2.320   2.686
 9715SOL     OW30043   6.124   5.153   5.905
 9715SOL    HW130044   6.113   5.149   5.806
 9715SOL    HW230045   6.219   5.176   5.927
 9716SOL     OW30046   3.745   1.351   6.254
 9716SOL    HW130047   3.821   1.286   6.256
 9716SOL    HW230048   3.679   1.326   6.325
 9717SOL     OW30049   5.719   5.591   3.280
 9717SOL    HW130050   5.702   5.661   3.211
 9717SOL    HW230051   5.768   5.631   3.357
 9718SOL     OW30052   4.673   3.137   1.628
 9718SOL    HW130053   4.668   3.087   1.714
 9718SOL    HW230054   4.681   3.073   1.552
 9719SOL     OW30055   0.446   1.014   0.477
 9719SOL    HW130056   0.391   1.018   0.394
 9719SOL    HW230057   0.416   1.086   0.540
 9720SOL     OW30058   0.908   0.479   0.605
 9720SOL    HW130059   0.921   0.480   0.704
 9720SOL    HW230060   0.982   0.429   0.562
 9721SOL     OW30061   6.999   2.810   3.590
 9721SOL    HW130062   0.049   2.867   3.541
 9721SOL    HW230063   0.032   2.751   3.655
 9722SOL     OW30064   0.220   0.160   4.545
 9722SOL    HW130065   0.293   0.096   4.524
 9722SOL    HW230066   0.132   0.114   4.538
 9723SOL     OW30067   0.131   0.749   3.796
 9723SOL    HW130068   0.224   0.715   3.813
 9723SOL    HW230069   0.083   0.759   3.883
 9724SOL     OW30070   3.938   2.444   1.662
 9724SOL    HW130071   3.991   2.363   1.687
 9724SOL    HW230072   3.841   2.422   1.661
 9725SOL     OW30073   4.090   3.433   5.566
 9725SOL    HW130074   4.045   3.378   5.496
 9725SOL    HW230075   4.185   3.405   5.574
 9726SOL     OW30076   5.773   5.831   4.506
 9726SOL    HW130077   5.711   5.763   4.546
 9726SOL    HW230078   5.866   5.814   4.538
 9727SOL     OW30079   1.644   0.271   7.013
 9727SOL    HW130080   1.646   0.328   6.931
 9727SOL    HW230081   1.688   0.183   6.994
 9728SOL     OW30082   3.561   6.193   6.669
 9728SOL    HW130083   3.507   6.162   6.591
 9728SOL    HW230084   3.519   6.275   6.708
 9729SOL     OW30085   3.100   5.291   1.957
 9729SOL    HW130086   3.112   5.388   1.980
 9729SOL    HW230087   3.007   5.263   1.981
 9730SOL     OW30088   5.740   3.367   3.193
 9730SOL    HW130089   5.674   3.297   3.166
 9730SOL    HW230090   5.811   3.326   3.250
 9731SOL     OW30091   5.238   5.138   1.462
 9731SOL    HW130092   5.172   5.062   1.462
 9731SOL    HW230093   5.296   5.132   1.381
 9732SOL     OW30094   5.065   6.197   4.660
 9732SOL    HW130095   4.993   6.256   4.624
 9732SOL    HW230096   5.127   6.172   4.586
 9733SOL     OW30097   5.132   4.816   5.853
 9733SOL    HW130098   5.178   4.814   5.942
 9733SOL    HW230099   5.197   4.847   5.783
 9734SOL     OW30100   6.098   1.841   5.681
 9734SOL    HW130101   6.002   1.860   5.700
 9734SOL    HW230102   6.153   1.858   5.762
 9735SOL     OW30103   3.356   4.739   0.908
 9735SOL    HW130104   3.350   4.691   0.995
 9735SOL    HW230105   3.272   4.793   0.894
 9736SOL     OW30106   3.162   1.881   1.905
 9736SOL    HW130107   3.124   1.837   1.986
 9736SOL    HW230108   3.088   1.926   1.854
 9737SOL     OW30109   4.171   2.172   4.505
 9737SOL    HW130110   4.263   2.138   4.527
 9737SOL    HW230111   4.134   2.221   4.584
 9738SOL     OW30112   2.480   1.200   1.848
 9738SOL    HW130113   2.480   1.299   1.840
 9738SOL    HW230114   2.517   1.174   1.938
 9739SOL     OW30115   5.847   4.265   1.594
 9739SOL    HW130116   5.827   4.168   1.598
 9739SOL    HW230117   5.769   4.317   1.627
 9740SOL     OW30118   6.517   2.948   2.678
 9740SOL    HW130119   6.430   2.993   2.698
 9740SOL    HW230120   6.545   2.969   2.584
 9741SOL     OW30121   3.861   1.554   2.501
 9741SOL    HW130122   3.781   1.558   2.562
 9741SOL    HW230123   3.877   1.459   2.473
 9742SOL     OW30124   4.484   1.568   3.801
 9742SOL    HW130125   4.546   1.494   3.828
 9742SOL    HW230126   4.528   1.656   3.821
 9743SOL     OW30127   1.230   1.448   5.293
 9743SOL    HW130128   1.216   1.392   5.212
 9743SOL    HW230129   1.283   1.529   5.269
 9744SOL     OW30130   2.497   0.338   1.688
 9744SOL    HW130131   2.550   0.380   1.761
 9744SOL    HW230132   2.476   0.406   1.618
 9745SOL     OW30133   0.436   0.701   4.712
 9745SOL    HW130134   0.356   0.740   4.666
 9745SOL    HW230135   0.500   0.775   4.735
 9746SOL     OW30136   6.548   0.683   4.155
 9746SOL    HW130137   6.588   0.728   4.075
 9746SOL    HW230138   6.530   0.751   4.226
 9747SOL     OW30139   0.617   0.198   6.345
 9747SOL    HW130140   0.518   0.201   6.335
 9747SOL    HW230141   0.642   0.126   6.410
 9748SOL     OW30142   0.967   4.122   4.646
 9748SOL    HW130143   0.908   4.179   4.704
 9748SOL    HW230144   1.058   4.161   4.644
 9749SOL     OW30145   0.509   5.038   4.314
 9749SOL    HW130146   0.438   5.005   4.375
 9749SOL    HW230147   0.526   4.970   4.242
 9750SOL     OW30148   2.973   5.375   2.486
 9750SOL    HW130149   2.890   5.392   2.434
 9750SOL    HW230150   2.956   5.304   2.554
 9751SOL     OW30151   1.639   2.464   0.769
 9751SOL    HW130152   1.668   2.428   0.680
 9751SOL    HW230153   1.589   2.394   0.819
 9752SOL     OW30154   4.231   0.459   5.769
 9752SOL    HW130155   4.173   0.511   5.705
 9752SOL    HW230156   4.255   0.517   5.847
 9753SOL     OW30157   0.046   6.721   6.858
 9753SOL    HW130158   0.014   6.762   6.943
 9753SOL    HW230159   0.106   6.644   6.878
 9754SOL     OW30160   0.214   2.961   6.116
 9754SOL    HW130161   0.151   3.011   6.175
 9754SOL    HW230162   0.261   3.026   6.055
 9755SOL     OW30163   3.656   5.674   5.419
 9755SOL    HW130164   3.573   5.712   5.377
 9755SOL    HW230165   3.731   5.676   5.353
 9756SOL     OW30166   5.116   2.645   5.763
 9756SOL    HW130167   5.025   2.654   5.722
 9756SOL    HW230168   5.185   2.635   5.690
 9757SOL     OW30169   6.576   0.852   3.927
 9757SOL    HW130170   6.645   0.915   3.890
 9757SOL    HW230171   6.527   0.897   4.002
 9758SOL     OW30172   3.653   0.454   0.266
 9758SOL    HW130173   3.657   0.524   0.337
 9758SOL    HW230174   3.673   0.364   0.306
 9759SOL     OW30175   3.124   5.919   1.539
 9759SOL    HW130176   3.191   5.871   1.595
 9759SOL    HW230177   3.058   5.967   1.597
 9760SOL     OW30178   5.787   4.842   5.903
 9760SOL    HW130179   5.745   4.756   5.875
 9760SOL    HW230180   5.860   4.865   5.838
 9761SOL     OW30181   5.298   5.365   2.566
 9761SOL    HW130182   5.296   5.335   2.662
 9761SOL    HW230183   5.222   5.427   2.549
 9762SOL     OW30184   3.368   0.505   2.865
 9762SOL    HW130185   3.323   0.583   2.908
 9762SOL    HW230186   3.423   0.456   2.932
 9763SOL     OW30187   2.136   1.947   2.038
 9763SOL    HW130188   2.048   1.993   2.044
 9763SOL    HW230189   2.204   1.997   2.092
 9764SOL     OW30190   0.968   2.557   2.908
 9764SOL    HW130191   1.063   2.526   2.902
 9764SOL    HW230192   0.926   2.520   2.991
 9765SOL     OW30193   0.248   0.582   5.743
 9765SOL    HW130194   0.326   0.532   5.781
 9765SOL    HW230195   0.197   0.627   5.816
 9766SOL     OW30196   2.379   0.721   3.246
 9766SOL    HW130197   2.453   0.764   3.193
 9766SOL    HW230198   2.416   0.682   3.329
 9767SOL     OW30199   4.971   0.292   5.542
 9767SOL    HW130200   4.878   0.296   5.504
 9767SOL    HW230201   5.033   0.254   5.474
 9768SOL     OW30202   4.389   2.433   4.031
 9768SOL    HW130203   4.331   2.396   4.103
 9768SOL    HW230204   4.463   2.487   4.072
 9769SOL     OW30205   0.629   2.233   0.918
 9769SOL    HW130206   0.591   2.184   0.997
 9769SOL    HW230207   0.559   2.292   0.878
 9770SOL     OW30208   0.546   2.957   5.806
 9770SOL    HW130209   0.566   2.860   5.790
 9770SOL    HW230210   0.504   2.968   5.896
 9771SOL     OW30211   2.634   5.609   3.410
 9771SOL    HW130212   2.637   5.701   3.449
 9771SOL    HW230213   2.640   5.614   3.311
 9772SOL     OW30214   6.036   6.880   0.458
 9772SOL    HW130215   6.109   6.863   0.391
 9772SOL    HW230216   6.011   6.977   0.457
 9773SOL     OW30217   4.728   5.459   4.001
 9773SOL    HW130218   4.785   5.500   4.071
 9773SOL    HW230219   4.777   5.382   3.959
 9774SOL     OW30220   6.858   4.962   4.561
 9774SOL    HW130221   6.928   4.962   4.489
 9774SOL    HW230222   6.902   4.948   4.650
 9775SOL     OW30223   2.939   2.021   4.992
 9775SOL    HW130224   2.873   2.066   4.932
 9775SOL    HW230225   2.928   2.055   5.085
 9776SOL     OW30226   0.128   4.730   4.236
 9776SOL    HW130227   0.184   4.713   4.154
 9776SOL    HW230228   0.093   4.643   4.271
 9777SOL     OW30229   5.002   5.922   6.348
 9777SOL    HW130230   5.056   6.003   6.327
 9777SOL    HW230231   4.999   5.862   6.268
 9778SOL     OW30232   3.820   0.533   4.540
 9778SOL    HW130233   3.785   0.612   4.491
 9778SOL    HW230234   3.893   0.561   4.602
 9779SOL     OW30235   3.272   2.017   6.622
 9779SOL    HW130236   3.315   1.986   6.537
 9779SOL    HW230237   3.177   1.985   6.625
 9780SOL     OW30238   2.482   3.978   1.041
 9780SOL    HW130239   2.413   4.049   1.055
 9780SOL    HW230240   2.491   3.923   1.124
 9781SOL     OW30241   1.224   6.645   4.364
 9781SOL    HW130242   1.287   6.690   4.427
 9781SOL    HW230243   1.165   6.583   4.415
 9782SOL     OW30244   5.693   0.077   0.553
 9782SOL    HW130245   5.671   0.168   0.589
 9782SOL    HW230246   5.768   0.085   0.486
 9783SOL     OW30247   6.085   0.100   3.203
 9783SOL    HW130248   6.177   0.065   3.221
 9783SOL    HW230249   6.090   0.174   3.136
 9784SOL     OW30250   5.519   0.108   4.559
 9784SOL    HW130251   5.553   0.126   4.467
 9784SOL    HW230252   5.420   0.118   4.561
 9785SOL     OW30253   1.106   2.769   1.548
 9785SOL    HW130254   1.178   2.832   1.518
 9785SOL    HW230255   1.042   2.818   1.606
 9786SOL     OW30256   2.565   6.850   4.304
 9786SOL    HW130257   2.585   6.752   4.302
 9786SOL    HW230258   2.582   6.886   4.396
 9787SOL     OW30259   5.683   4.277   1.313
 9787SOL    HW130260   5.668   4.207   1.382
 9787SOL    HW230261   5.780   4.296   1.304
 9788SOL     OW30262   6.637   0.677   5.838
 9788SOL    HW130263   6.731   0.708   5.855
 9788SOL    HW230264   6.639   0.584   5.799
 9789SOL     OW30265   1.792   4.726   4.627
 9789SOL    HW130266   1.886   4.745   4.599
 9789SOL    HW230267   1.774   4.769   4.715
 9790SOL     OW30268   6.969   1.352   3.691
 9790SOL    HW130269   6.901   1.351   3.765
 9790SOL    HW230270   0.046   1.355   3.731
 9791SOL     OW30271   1.261   2.876   1.205
 9791SOL    HW130272   1.303   2.901   1.117
 9791SOL    HW230273   1.333   2.858   1.272
 9792SOL     OW30274   3.565   5.670   1.907
 9792SOL    HW130275   3.574   5.628   1.998
 9792SOL    HW230276   3.577   5.769   1.915
 9793SOL     OW30277   5.225   6.394   2.470
 9793SOL    HW130278   5.258   6.379   2.563
 9793SOL    HW230279   5.159   6.322   2.447
 9794SOL     OW30280   3.474   3.158   6.772
 9794SOL    HW130281   3.386   3.202   6.750
 9794SOL    HW230282   3.471   3.124   6.866
 9795SOL     OW30283   1.917   5.257   3.229
 9795SOL    HW130284   2.003   5.259   3.279
 9795SOL    HW230285   1.916   5.329   3.159
 9796SOL     OW30286   3.675   5.350   6.994
 9796SOL    HW130287   3.760   5.395   0.007
 9796SOL    HW230288   3.676   5.336   6.895
 9797SOL     OW30289   5.596   3.332   5.363
 9797SOL    HW130290   5.531   3.259   5.340
 9797SOL    HW230291   5.643   3.309   5.448
 9798SOL     OW30292   2.475   1.782   1.953
 9798SOL    HW130293   2.535   1.808   1.877
 9798SOL    HW230294   2.383   1.767   1.919
 9799SOL     OW30295   3.680   3.760   2.836
 9799SOL    HW130296   3.605   3.782   2.899
 9799SOL    HW230297   3.767   3.784   2.878
 9800SOL     OW30298   4.075   5.433   0.419
 9800SOL    HW130299   4.105   5.339   0.434
 9800SOL    HW230300   4.151   5.488   0.385
 9801SOL     OW30301   5.189   4.915   1.294
 9801SOL    HW130302   5.118   4.934   1.225
 9801SOL    HW230303   5.274   4.959   1.266
 9802SOL     OW30304   0.813   5.752   1.880
 9802SOL    HW130305   0.764   5.834   1.908
 9802SOL    HW230306   0.858   5.768   1.792
 9803SOL     OW30307   5.103   6.853   6.334
 9803SOL    HW130308   5.130   6.843   6.238
 9803SOL    HW230309   5.047   6.935   6.344
 9804SOL     OW30310   4.806   5.120   4.706
 9804SOL    HW130311   4.875   5.191   4.691
 9804SOL    HW230312   4.776   5.083   4.618
 9805SOL     OW30313   3.756   3.879   0.887
 9805SOL    HW130314   3.779   3.784   0.866
 9805SOL    HW230315   3.700   3.882   0.971
 9806SOL     OW30316   6.919   1.749   2.459
 9806SOL    HW130317   6.997   1.802   2.491
 9806SOL    HW230318   6.885   1.787   2.374
 9807SOL     OW30319   2.010   3.194   1.303
 9807SOL    HW130320   2.053   3.145   1.378
 9807SOL    HW230321   2.039   3.155   1.216
 9808SOL     OW30322   2.086   1.649   4.080
 9808SOL    HW130323   2.064   1.742   4.052
 9808SOL    HW230324   2.005   1.592   4.074
 9809SOL     OW30325   0.565   0.898   4.089
 9809SOL    HW130326   0.531   0.984   4.050
 9809SOL    HW230327   0.621   0.917   4.169
 9810SOL     OW30328   4.347   1.551   2.707
 9810SOL    HW130329   4.348   1.627   2.773
 9810SOL    HW230330   4.271   1.563   2.644
 9811SOL     OW30331   0.978   0.412   3.021
 9811SOL    HW130332   1.006   0.321   2.990
 9811SOL    HW230333   0.966   0.471   2.941
 9812SOL     OW30334   5.768   3.403   5.866
 9812SOL    HW130335   5.860   3.382   5.833
 9812SOL    HW230336   5.773   3.473   5.937
 9813SOL     OW30337   6.449   4.417   0.379
 9813SOL    HW130338   6.376   4.434   0.446
 9813SOL    HW230339   6.470   4.320   0.376
 9814SOL     OW30340   6.416   0.828   5.798
 9814SOL    HW130341   6.427   0.919   5.838
 9814SOL    HW230342   6.501   0.776   5.808
 9815SOL     OW30343   0.037   4.771   2.127
 9815SOL    HW130344   0.038   4.672   2.143
 9815SOL    HW230345   6.970   4.795   2.074
 9816SOL     OW30346   6.341   1.559   5.221
 9816SOL    HW130347   6.383   1.469   5.236
 9816SOL    HW230348   6.356   1.587   5.126
 9817SOL     OW30349   2.729   1.183   0.628
 9817SOL    HW130350   2.810   1.128   0.609
 9817SOL    HW230351   2.663   1.129   0.680
 9818SOL     OW30352   0.705   0.046   2.188
 9818SOL    HW130353   0.698   0.134   2.235
 9818SOL    HW230354   0.634   0.040   2.118
 9819SOL     OW30355   6.011   1.594   4.269
 9819SOL    HW130356   6.106   1.607   4.244
 9819SOL    HW230357   5.977   1.674   4.318
 9820SOL     OW30358   3.860   1.029   6.487
 9820SOL    HW130359   3.955   1.059   6.493
 9820SOL    HW230360   3.809   1.065   6.565
 9821SOL     OW30361   4.886   3.784   6.897
 9821SOL    HW130362   4.946   3.704   6.900
 9821SOL    HW230363   4.892   3.833   6.984
 9822SOL     OW30364   3.133   5.219   4.158
 9822SOL    HW130365   3.222   5.223   4.112
 9822SOL    HW230366   3.135   5.148   4.228
 9823SOL     OW30367   4.539   6.612   3.144
 9823SOL    HW130368   4.502   6.532   3.190
 9823SOL    HW230369   4.637   6.620   3.165
 9824SOL     OW30370   1.171   5.560   5.871
 9824SOL    HW130371   1.270   5.552   5.857
 9824SOL    HW230372   1.125   5.563   5.783
 9825SOL     OW30373   1.072   6.348   4.716
 9825SOL    HW130374   1.080   6.378   4.811
 9825SOL    HW230375   1.074   6.248   4.713
 9826SOL     OW30376   2.029   5.762   6.338
 9826SOL    HW130377   2.096   5.814   6.390
 9826SOL    HW230378   2.043   5.664   6.353
 9827SOL     OW30379   1.846   4.519   1.443
 9827SOL    HW130380   1.833   4.611   1.479
 9827SOL    HW230381   1.921   4.518   1.377
 9828SOL     OW30382   4.560   2.142   4.250
 9828SOL    HW130383   4.554   2.137   4.150
 9828SOL    HW230384   4.472   2.170   4.287
 9829SOL     OW30385   5.383   5.010   5.943
 9829SOL    HW130386   5.358   4.924   5.988
 9829SOL    HW230387   5.346   5.011   5.850
 9830SOL     OW30388   6.591   1.144   3.394
 9830SOL    HW130389   6.519   1.075   3.402
 9830SOL    HW230390   6.642   1.150   3.479
 9831SOL     OW30391   0.316   4.930   2.088
 9831SOL    HW130392   0.236   4.903   2.143
 9831SOL    HW230393   0.363   5.006   2.132
 9832SOL     OW30394   4.618   6.238   5.044
 9832SOL    HW130395   4.541   6.220   5.106
 9832SOL    HW230396   4.692   6.173   5.063
 9833SOL     OW30397   4.180   3.516   4.826
 9833SOL    HW130398   4.276   3.508   4.801
 9833SOL    HW230399   4.134   3.429   4.811
 9834SOL     OW30400   3.223   6.137   6.056
 9834SOL    HW130401   3.236   6.234   6.078
 9834SOL    HW230402   3.188   6.129   5.963
 9835SOL     OW30403   3.722   3.352   3.707
 9835SOL    HW130404   3.785   3.417   3.752
 9835SOL    HW230405   3.731   3.262   3.751
 9836SOL     OW30406   6.245   3.158   5.675
 9836SOL    HW130407   6.294   3.186   5.593
 9836SOL    HW230408   6.285   3.203   5.755
 9837SOL     OW30409   6.687   0.584   3.718
 9837SOL    HW130410   6.732   0.539   3.795
 9837SOL    HW230411   6.659   0.676   3.744
 9838SOL     OW30412   0.313   5.811   0.945
 9838SOL    HW130413   0.299   5.736   1.010
 9838SOL    HW230414   0.293   5.898   0.989
 9839SOL     OW30415   4.005   6.657   3.459
 9839SOL    HW130416   3.920   6.646   3.406
 9839SOL    HW230417   3.983   6.682   3.553
 9840SOL     OW30418   6.486   2.003   6.853
 9840SOL    HW130419   6.406   2.042   6.898
 9840SOL    HW230420   6.569   2.027   6.904
 9841SOL     OW30421   0.207   5.957   2.259
 9841SOL    HW130422   0.286   6.015   2.241
 9841SOL    HW230423   0.223   5.903   2.342
 9842SOL     OW30424   3.809   0.304   0.417
 9842SOL    HW130425   3.861   0.386   0.441
 9842SOL    HW230426   3.865   0.223   0.437
 9843SOL     OW30427   0.511   0.146   0.497
 9843SOL    HW130428   0.585   0.213   0.495
 9843SOL    HW230429   0.546   0.056   0.472
 9844SOL     OW30430   4.933   0.751   5.012
 9844SOL    HW130431   4.865   0.824   5.001
 9844SOL    HW230432   5.023   0.784   4.985
 9845SOL     OW30433   0.984   3.496   1.917
 9845SOL    HW130434   0.907   3.482   1.980
 9845SOL    HW230435   1.069   3.498   1.969
 9846SOL     OW30436   5.738   2.119   2.153
 9846SOL    HW130437   5.832   2.133   2.186
 9846SOL    HW230438   5.683   2.075   2.224
 9847SOL     OW30439   3.867   4.291   6.909
 9847SOL    HW130440   3.856   4.323   6.815
 9847SOL    HW230441   3.797   4.333   6.967
 9848SOL     OW30442   2.438   3.987   5.550
 9848SOL    HW130443   2.389   4.061   5.504
 9848SOL    HW230444   2.488   3.933   5.482
 9849SOL     OW30445   1.480   2.245   2.914
 9849SOL    HW130446   1.511   2.275   3.004
 9849SOL    HW230447   1.437   2.155   2.922
 9850SOL     OW30448   1.538   0.068   4.524
 9850SOL    HW130449   1.560   0.107   4.435
 9850SOL    HW230450   1.572   0.127   4.597
 9851SOL     OW30451   3.457   5.186   3.507
 9851SOL    HW130452   3.515   5.267   3.515
 9851SOL    HW230453   3.383   5.204   3.442
 9852SOL     OW30454   2.527   6.757   0.440
 9852SOL    HW130455   2.556   6.767   0.345
 9852SOL    HW230456   2.600   6.712   0.492
 9853SOL     OW30457   0.531   4.162   3.818
 9853SOL    HW130458   0.521   4.147   3.720
 9853SOL    HW230459   0.442   4.186   3.857
 9854SOL     OW30460   6.257   3.754   6.541
 9854SOL    HW130461   6.275   3.659   6.565
 9854SOL    HW230462   6.341   3.797   6.508
 9855SOL     OW30463   1.032   5.861   0.506
 9855SOL    HW130464   1.069   5.930   0.569
 9855SOL    HW230465   0.950   5.897   0.462
 9856SOL     OW30466   5.125   3.987   3.653
 9856SOL    HW130467   5.201   3.992   3.588
 9856SOL    HW230468   5.149   3.924   3.727
 9857SOL     OW30469   5.377   0.118   6.088
 9857SOL    HW130470   5.411   0.206   6.055
 9857SOL    HW230471   5.449   0.050   6.081
 9858SOL     OW30472   0.019   5.171   2.515
 9858SOL    HW130473   0.108   5.149   2.475
 9858SOL    HW230474   0.030   5.230   2.594
 9859SOL     OW30475   0.724   5.080   2.372
 9859SOL    HW130476   0.764   5.079   2.280
 9859SOL    HW230477   0.702   5.174   2.398
 9860SOL     OW30478   1.714   3.374   3.582
 9860SOL    HW130479   1.680   3.317   3.656
 9860SOL    HW230480   1.689   3.334   3.494
 9861SOL     OW30481   3.574   2.067   4.229
 9861SOL    HW130482   3.579   1.987   4.169
 9861SOL    HW230483   3.649   2.064   4.295
 9862SOL     OW30484   1.793   2.688   6.725
 9862SOL    HW130485   1.851   2.736   6.791
 9862SOL    HW230486   1.840   2.606   6.693
 9863SOL     OW30487   4.002   6.175   1.833
 9863SOL    HW130488   4.086   6.225   1.857
 9863SOL    HW230489   3.923   6.228   1.864
 9864SOL     OW30490   3.094   6.052   5.058
 9864SOL    HW130491   3.042   6.133   5.085
 9864SOL    HW230492   3.176   6.044   5.115
 9865SOL     OW30493   2.291   6.128   6.100
 9865SOL    HW130494   2.261   6.086   6.186
 9865SOL    HW230495   2.350   6.206   6.119
 9866SOL     OW30496   6.950   5.380   6.337
 9866SOL    HW130497   6.874   5.389   6.401
 9866SOL    HW230498   0.021   5.377   6.387
 9867SOL     OW30499   4.591   1.136   2.594
 9867SOL    HW130500   4.660   1.071   2.626
 9867SOL    HW230501   4.526   1.155   2.668
 9868SOL     OW30502   2.324   4.318   2.778
 9868SOL    HW130503   2.374   4.252   2.834
 9868SOL    HW230504   2.351   4.411   2.803
 9869SOL     OW30505   5.979   2.491   3.160
 9869SOL    HW130506   6.051   2.529   3.219
 9869SOL    HW230507   6.021   2.459   3.075
 9870SOL     OW30508   1.786   2.806   3.054
 9870SOL    HW130509   1.796   2.904   3.037
 9870SOL    HW230510   1.876   2.762   3.055
 9871SOL     OW30511   5.716   5.812   3.101
 9871SOL    HW130512   5.642   5.878   3.102
 9871SOL    HW230513   5.755   5.805   3.009
 9872SOL     OW30514   1.148   6.389   5.270
 9872SOL    HW130515   1.217   6.461   5.282
 9872SOL    HW230516   1.138   6.338   5.356
 9873SOL     OW30517   0.267   0.553   4.873
 9873SOL    HW130518   0.335   0.603   4.820
 9873SOL    HW230519   0.218   0.617   4.933
 9874SOL     OW30520   6.938   1.890   3.702
 9874SOL    HW130521   6.972   1.808   3.657
 9874SOL    HW230522   6.848   1.915   3.665
 9875SOL     OW30523   6.392   6.067   0.831
 9875SOL    HW130524   6.467   6.067   0.765
 9875SOL    HW230525   6.374   6.160   0.861
 9876SOL     OW30526   0.354   0.031   3.411
 9876SOL    HW130527   0.350   0.066   3.318
 9876SOL    HW230528   0.446   0.043   3.448
 9877SOL     OW30529   1.604   5.910   5.119
 9877SOL    HW130530   1.601   6.004   5.152
 9877SOL    HW230531   1.683   5.863   5.159
 9878SOL     OW30532   4.473   3.229   0.016
 9878SOL    HW130533   4.540   3.256   0.085
 9878SOL    HW230534   4.388   3.280   0.031
 9879SOL     OW30535   5.421   5.875   4.746
 9879SOL    HW130536   5.415   5.816   4.827
 9879SOL    HW230537   5.413   5.970   4.773
 9880SOL     OW30538   3.174   1.318   1.124
 9880SOL    HW130539   3.243   1.390   1.124
 9880SOL    HW230540   3.220   1.229   1.119
 9881SOL     OW30541   6.633   6.877   3.005
 9881SOL    HW130542   6.617   6.899   2.909
 9881SOL    HW230543   6.625   6.779   3.019
 9882SOL     OW30544   3.234   3.377   4.405
 9882SOL    HW130545   3.147   3.417   4.377
 9882SOL    HW230546   3.285   3.442   4.460
 9883SOL     OW30547   1.748   6.055   2.406
 9883SOL    HW130548   1.725   6.034   2.502
 9883SOL    HW230549   1.842   6.088   2.402
 9884SOL     OW30550   3.325   2.637   5.251
 9884SOL    HW130551   3.408   2.606   5.298
 9884SOL    HW230552   3.291   2.563   5.193
 9885SOL     OW30553   5.257   2.217   5.086
 9885SOL    HW130554   5.205   2.217   5.001
 9885SOL    HW230555   5.267   2.123   5.119
 9886SOL     OW30556   3.047   6.117   1.211
 9886SOL    HW130557   3.012   6.163   1.130
 9886SOL    HW230558   3.146   6.108   1.205
 9887SOL     OW30559   4.315   0.918   0.056
 9887SOL    HW130560   4.269   0.968   0.129
 9887SOL    HW230561   4.249   0.856   0.013
 9888SOL     OW30562   6.213   6.619   3.992
 9888SOL    HW130563   6.147   6.576   4.055
 9888SOL    HW230564   6.246   6.550   3.928
 9889SOL     OW30565   6.248   5.781   2.014
 9889SOL    HW130566   6.156   5.816   2.035
 9889SOL    HW230567   6.287   5.833   1.938
 9890SOL     OW30568   1.649   3.189   3.123
 9890SOL    HW130569   1.634   3.117   3.192
 9890SOL    HW230570   1.740   3.178   3.083
 9891SOL     OW30571   4.008   6.550   1.681
 9891SOL    HW130572   4.076   6.599   1.735
 9891SOL    HW230573   3.995   6.458   1.719
 9892SOL     OW30574   1.968   6.106   3.151
 9892SOL    HW130575   1.915   6.107   3.066
 9892SOL    HW230576   1.992   6.012   3.174
 9893SOL     OW30577   5.668   4.269   5.059
 9893SOL    HW130578   5.611   4.314   5.129
 9893SOL    HW230579   5.739   4.333   5.028
 9894SOL     OW30580   4.210   3.781   5.903
 9894SOL    HW130581   4.223   3.880   5.912
 9894SOL    HW230582   4.178   3.759   5.811
 9895SOL     OW30583   5.232   2.042   5.658
 9895SOL    HW130584   5.178   1.980   5.602
 9895SOL    HW230585   5.316   1.995   5.687
 9896SOL     OW30586   4.073   4.038   0.576
 9896SOL    HW130587   4.147   3.991   0.625
 9896SOL    HW230588   4.072   4.008   0.481
 9897SOL     OW30589   1.179   1.562   2.395
 9897SOL    HW130590   1.233   1.583   2.477
 9897SOL    HW230591   1.083   1.550   2.420
 9898SOL     OW30592   0.503   5.143   0.133
 9898SOL    HW130593   0.404   5.148   0.148
 9898SOL    HW230594   0.550   5.148   0.221
 9899SOL     OW30595   4.083   5.569   1.614
 9899SOL    HW130596   3.998   5.578   1.667
 9899SOL    HW230597   4.065   5.588   1.518
 9900SOL     OW30598   2.080   5.025   3.533
 9900SOL    HW130599   2.068   5.123   3.553
 9900SOL    HW230600   1.997   4.991   3.488
 9901SOL     OW30601   3.132   1.543   5.856
 9901SOL    HW130602   3.097   1.548   5.762
 9901SOL    HW230603   3.074   1.598   5.916
 9902SOL     OW30604   4.049   4.020   0.315
 9902SOL    HW130605   3.950   4.008   0.322
 9902SOL    HW230606   4.069   4.112   0.282
 9903SOL     OW30607   2.805   1.009   1.086
 9903SOL    HW130608   2.746   0.950   1.140
 9903SOL    HW230609   2.888   0.959   1.061
 9904SOL     OW30610   6.799   6.319   2.102
 9904SOL    HW130611   6.714   6.350   2.145
 9904SOL    HW230612   6.844   6.254   2.162
 9905SOL     OW30613   2.525   6.994   6.542
 9905SOL    HW130614   2.518   6.901   6.507
 9905SOL    HW230615   2.619   0.011   6.534
 9906SOL     OW30616   3.552   3.997   5.794
 9906SOL    HW130617   3.579   3.902   5.810
 9906SOL    HW230618   3.473   4.019   5.851
 9907SOL     OW30619   0.827   6.519   2.631
 9907SOL    HW130620   0.793   6.464   2.707
 9907SOL    HW230621   0.927   6.521   2.634
 9908SOL     OW30622   6.750   2.888   4.598
 9908SOL    HW130623   6.787   2.974   4.632
 9908SOL    HW230624   6.652   2.898   4.578
 9909SOL     OW30625   2.367   6.077   3.054
 9909SOL    HW130626   2.334   6.151   3.113
 9909SOL    HW230627   2.379   6.111   2.961
 9910SOL     OW30628   0.567   5.538   0.699
 9910SOL    HW130629   0.528   5.509   0.611
 9910SOL    HW230630   0.541   5.633   0.718
 9911SOL     OW30631   3.954   4.816   2.754
 9911SOL    HW130632   3.861   4.845   2.735
 9911SOL    HW230633   3.996   4.782   2.670
 9912SOL     OW30634   5.897   6.675   6.896
 9912SOL    HW130635   5.937   6.755   6.851
 9912SOL    HW230636   5.816   6.646   6.844
 9913SOL     OW30637   5.413   1.930   2.886
 9913SOL    HW130638   5.332   1.887   2.926
 9913SOL    HW230639   5.395   1.953   2.791
 9914SOL     OW30640   1.735   5.202   3.948
 9914SOL    HW130641   1.714   5.174   4.042
 9914SOL    HW230642   1.703   5.295   3.933
 9915SOL     OW30643   6.191   4.716   4.376
 9915SOL    HW130644   6.198   4.616   4.371
 9915SOL    HW230645   6.259   4.751   4.441
 9916SOL     OW30646   1.938   3.328   0.520
 9916SOL    HW130647   2.012   3.289   0.465
 9916SOL    HW230648   1.962   3.422   0.545
 9917SOL     OW30649   1.916   3.506   4.528
 9917SOL    HW130650   1.886   3.557   4.447
 9917SOL    HW230651   1.881   3.550   4.611
 9918SOL     OW30652   1.973   1.608   4.792
 9918SOL    HW130653   1.903   1.658   4.742
 9918SOL    HW230654   1.998   1.659   4.875
 9919SOL     OW30655   1.131   5.550   1.204
 9919SOL    HW130656   1.163   5.483   1.137
 9919SOL    HW230657   1.139   5.642   1.165
 9920SOL     OW30658   3.355   0.595   3.141
 9920SOL    HW130659   3.271   0.620   3.189
 9920SOL    HW230660   3.395   0.677   3.099
 9921SOL     OW30661   4.941   0.889   2.426
 9921SOL    HW130662   4.946   0.812   2.361
 9921SOL    HW230663   4.917   0.972   2.376
 9922SOL     OW30664   5.720   2.955   2.102
 9922SOL    HW130665   5.811   2.922   2.129
 9922SOL    HW230666   5.724   2.988   2.007
 9923SOL     OW30667   6.193   0.143   6.616
 9923SOL    HW130668   6.162   0.234   6.590
 9923SOL    HW230669   6.230   0.096   6.537
 9924SOL     OW30670   5.279   0.978   3.819
 9924SOL    HW130671   5.297   0.944   3.726
 9924SOL    HW230672   5.240   1.070   3.814
 9925SOL     OW30673   3.964   2.158   5.087
 9925SOL    HW130674   4.049   2.204   5.061
 9925SOL    HW230675   3.911   2.136   5.005
 9926SOL     OW30676   2.453   1.082   5.707
 9926SOL    HW130677   2.361   1.109   5.680
 9926SOL    HW230678   2.477   0.995   5.664
 9927SOL     OW30679   1.360   3.513   3.907
 9927SOL    HW130680   1.431   3.535   3.839
 9927SOL    HW230681   1.388   3.433   3.959
 9928SOL     OW30682   6.745   2.694   1.902
 9928SOL    HW130683   6.654   2.729   1.881
 9928SOL    HW230684   6.809   2.722   1.831
 9929SOL     OW30685   0.910   4.968   4.931
 9929SOL    HW130686   0.992   4.912   4.940
 9929SOL    HW230687   0.873   4.959   4.838
 9930SOL     OW30688   0.021   5.067   6.498
 9930SOL    HW130689   0.095   5.109   6.446
 9930SOL    HW230690   0.054   5.041   6.589
 9931SOL     OW30691   2.090   4.261   6.991
 9931SOL    HW130692   2.142   4.189   0.021
 9931SOL    HW230693   2.047   4.226   6.908
 9932SOL     OW30694   2.070   2.184   1.409
 9932SOL    HW130695   2.070   2.084   1.423
 9932SOL    HW230696   2.096   2.228   1.495
 9933SOL     OW30697   1.012   1.447   3.360
 9933SOL    HW130698   1.067   1.364   3.359
 9933SOL    HW230699   1.024   1.497   3.275
 9934SOL     OW30700   5.087   0.736   6.149
 9934SOL    HW130701   5.158   0.764   6.084
 9934SOL    HW230702   5.129   0.691   6.228
 9935SOL     OW30703   2.862   3.110   0.323
 9935SOL    HW130704   2.836   3.064   0.238
 9935SOL    HW230705   2.829   3.205   0.320
 9936SOL     OW30706   4.912   6.327   6.808
 9936SOL    HW130707   4.962   6.414   6.814
 9936SOL    HW230708   4.948   6.274   6.731
 9937SOL     OW30709   1.542   6.671   4.332
 9937SOL    HW130710   1.499   6.584   4.358
 9937SOL    HW230711   1.497   6.746   4.381
 9938SOL     OW30712   0.194   1.777   3.055
 9938SOL    HW130713   0.172   1.689   3.098
 9938SOL    HW230714   0.111   1.832   3.046
 9939SOL     OW30715   3.006   3.810   1.292
 9939SOL    HW130716   3.090   3.757   1.284
 9939SOL    HW230717   2.930   3.748   1.316
 9940SOL     OW30718   0.105   0.788   2.896
 9940SOL    HW130719   0.159   0.866   2.927
 9940SOL    HW230720   0.140   0.755   2.809
 9941SOL     OW30721   6.129   3.332   0.440
 9941SOL    HW130722   6.034   3.330   0.411
 9941SOL    HW230723   6.184   3.384   0.374
 9942SOL     OW30724   5.872   5.338   2.533
 9942SOL    HW130725   5.852   5.417   2.589
 9942SOL    HW230726   5.797   5.323   2.468
 9943SOL     OW30727   1.167   4.861   5.214
 9943SOL    HW130728   1.100   4.848   5.288
 9943SOL    HW230729   1.142   4.802   5.137
 9944SOL     OW30730   2.733   5.955   6.666
 9944SOL    HW130731   2.828   5.936   6.643
 9944SOL    HW230732   2.715   6.053   6.656
 9945SOL     OW30733   6.346   3.303   5.900
 9945SOL    HW130734   6.395   3.364   5.838
 9945SOL    HW230735   6.283   3.356   5.957
 9946SOL     OW30736   5.990   2.065   1.401
 9946SOL    HW130737   6.074   2.119   1.396
 9946SOL    HW230738   6.010   1.970   1.379
 9947SOL     OW30739   0.643   0.426   2.922
 9947SOL    HW130740   0.696   0.424   2.838
 9947SOL    HW230741   0.546   0.440   2.900
 9948SOL     OW30742   5.444   0.819   5.408
 9948SOL    HW130743   5.350   0.794   5.386
 9948SOL    HW230744   5.507   0.754   5.365
 9949SOL     OW30745   6.708   2.982   2.884
 9949SOL    HW130746   6.634   2.963   2.820
 9949SOL    HW230747   6.726   3.081   2.884
 9950SOL     OW30748   4.945   5.170   6.440
 9950SOL    HW130749   4.995   5.255   6.457
 9950SOL    HW230750   5.011   5.097   6.419
 9951SOL     OW30751   0.237   2.172   2.606
 9951SOL    HW130752   0.179   2.130   2.676
 9951SOL    HW230753   0.197   2.259   2.578
 9952SOL     OW30754   1.543   4.793   1.565
 9952SOL    HW130755   1.478   4.869   1.560
 9952SOL    HW230756   1.554   4.752   1.475
 9953SOL     OW30757   5.816   4.735   4.865
 9953SOL    HW130758   5.854   4.660   4.810
 9953SOL    HW230759   5.730   4.705   4.906
 9954SOL     OW30760   4.492   1.639   1.556
 9954SOL    HW130761   4.514   1.556   1.506
 9954SOL    HW230762   4.572   1.670   1.607
 9955SOL     OW30763   6.287   5.127   1.332
 9955SOL    HW130764   6.379   5.130   1.292
 9955SOL    HW230765   6.236   5.208   1.303
 9956SOL     OW30766   1.735   3.845   3.519
 9956SOL    HW130767   1.743   3.778   3.445
 9956SOL    HW230768   1.801   3.919   3.504
 9957SOL     OW30769   5.672   6.889   6.913
 9957SOL    HW130770   5.603   6.960   6.928
 9957SOL    HW230771   5.726   6.877   6.996
 9958SOL     OW30772   6.524   5.947   5.734
 9958SOL    HW130773   6.532   5.993   5.645
 9958SOL    HW230774   6.427   5.938   5.757
 9959SOL     OW30775   5.856   5.149   6.683
 9959SOL    HW130776   5.760   5.123   6.693
 9959SOL    HW230777   5.910   5.106   6.756
 9960SOL     OW30778   0.082   0.108   6.217
 9960SOL    HW130779   0.051   0.074   6.306
 9960SOL    HW230780   0.007   0.100   6.150
 9961SOL     OW30781   3.261   6.906   0.387
 9961SOL    HW130782   3.274   6.837   0.316
 9961SOL    HW230783   3.185   6.880   0.446
 9962SOL     OW30784   3.474   0.307   1.341
 9962SOL    HW130785   3.489   0.400   1.307
 9962SOL    HW230786   3.379   0.281   1.325
 9963SOL     OW30787   1.326   0.360   6.467
 9963SOL    HW130788   1.253   0.310   6.513
 9963SOL    HW230789   1.361   0.432   6.527
 9964SOL     OW30790   4.473   5.265   5.483
 9964SOL    HW130791   4.440   5.251   5.576
 9964SOL    HW230792   4.435   5.194   5.423
 9965SOL     OW30793   1.980   5.199   4.408
 9965SOL    HW130794   2.015   5.233   4.320
 9965SOL    HW230795   2.047   5.136   4.448
 9966SOL     OW30796   2.543   5.263   1.839
 9966SOL    HW130797   2.562   5.180   1.787
 9966SOL    HW230798   2.445   5.274   1.849
 9967SOL     OW30799   0.382   0.607   2.348
 9967SOL    HW130800   0.346   0.698   2.370
 9967SOL    HW230801   0.310   0.539   2.360
 9968SOL     OW30802   4.913   6.191   0.366
 9968SOL    HW130803   4.953   6.273   0.407
 9968SOL    HW230804   4.983   6.141   0.315
 9969SOL     OW30805   0.472   6.291   2.973
 9969SOL    HW130806   0.426   6.289   3.062
 9969SOL    HW230807   0.467   6.201   2.931
 9970SOL     OW30808   6.671   3.687   1.516
 9970SOL    HW130809   6.624   3.760   1.465
 9970SOL    HW230810   6.758   3.667   1.472
 9971SOL     OW30811   6.649   5.197   5.847
 9971SOL    HW130812   6.688   5.112   5.882
 9971SOL    HW230813   6.663   5.271   5.913
 9972SOL     OW30814   2.802   4.446   5.617
 9972SOL    HW130815   2.806   4.543   5.592
 9972SOL    HW230816   2.766   4.393   5.540
 9973SOL     OW30817   2.941   2.286   3.246
 9973SOL    HW130818   2.935   2.254   3.152
 9973SOL    HW230819   2.982   2.377   3.247
 9974SOL     OW30820   0.776   2.935   3.355
 9974SOL    HW130821   0.764   2.842   3.322
 9974SOL    HW230822   0.836   2.986   3.292
 9975SOL     OW30823   1.264   4.282   0.418
 9975SOL    HW130824   1.316   4.361   0.451
 9975SOL    HW230825   1.201   4.251   0.489
 9976SOL     OW30826   4.159   6.074   5.356
 9976SOL    HW130827   4.209   6.040   5.435
 9976SOL    HW230828   4.078   6.124   5.387
 9977SOL     OW30829   4.311   0.109   5.502
 9977SOL    HW130830   4.296   0.044   5.577
 9977SOL    HW230831   4.343   0.196   5.539
 9978SOL     OW30832   6.368   2.623   0.345
 9978SOL    HW130833   6.460   2.620   0.384
 9978SOL    HW230834   6.305   2.663   0.411
 9979SOL     OW30835   3.984   3.974   3.644
 9979SOL    HW130836   4.009   3.891   3.692
 9979SOL    HW230837   3.975   3.955   3.546
 9980SOL     OW30838   0.436   6.954   0.149
 9980SOL    HW130839   0.526   6.995   0.133
 9980SOL    HW230840   0.396   6.924   0.062
 9981SOL     OW30841   5.719   1.583   0.933
 9981SOL    HW130842   5.755   1.494   0.904
 9981SOL    HW230843   5.692   1.636   0.853
 9982SOL     OW30844   2.468   2.106   5.012
 9982SOL    HW130845   2.562   2.140   5.008
 9982SOL    HW230846   2.462   2.020   4.960
 9983SOL     OW30847   6.824   2.956   2.327
 9983SOL    HW130848   6.903   2.902   2.355
 9983SOL    HW230849   6.852   3.050   2.310
 9984SOL     OW30850   0.650   4.475   1.078
 9984SOL    HW130851   0.730   4.529   1.108
 9984SOL    HW230852   0.661   4.380   1.108
 9985SOL     OW30853   4.857   4.117   6.299
 9985SOL    HW130854   4.918   4.152   6.228
 9985SOL    HW230855   4.767   4.100   6.259
 9986SOL     OW30856   5.367   4.584   6.625
 9986SOL    HW130857   5.455   4.560   6.583
 9986SOL    HW230858   5.294   4.534   6.579
 9987SOL     OW30859   4.600   2.552   1.066
 9987SOL    HW130860   4.541   2.609   1.123
 9987SOL    HW230861   4.653   2.610   1.005
 9988SOL     OW30862   5.761   6.385   3.562
 9988SOL    HW130863   5.769   6.474   3.607
 9988SOL    HW230864   5.710   6.322   3.621
 9989SOL     OW30865   5.598   5.732   1.652
 9989SOL    HW130866   5.523   5.798   1.649
 9989SOL    HW230867   5.561   5.640   1.665
 9990SOL     OW30868   0.504   5.899   2.689
 9990SOL    HW130869   0.485   5.936   2.779
 9990SOL    HW230870   0.481   5.802   2.687
 9991SOL     OW30871   1.809   3.519   1.678
 9991SOL    HW130872   1.848   3.535   1.587
 9991SOL    HW230873   1.883   3.512   1.745
 9992SOL     OW30874   2.160   4.767   0.042
 9992SOL    HW130875   2.164   4.669   0.019
 9992SOL    HW230876   2.253   4.804   0.041
 9993SOL     OW30877   3.495   6.902   4.765
 9993SOL    HW130878   3.582   6.870   4.802
 9993SOL    HW230879   3.428   6.829   4.769
 9994SOL     OW30880   5.631   4.973   5.091
 9994SOL    HW130881   5.590   4.884   5.112
 9994SOL    HW230882   5.621   5.034   5.170
 9995SOL     OW30883   4.417   1.426   6.523
 9995SOL    HW130884   4.439   1.522   6.538
 9995SOL    HW230885   4.415   1.378   6.611
 9996SOL     OW30886   2.507   4.769   0.631
 9996SOL    HW130887   2.550   4.682   0.653
 9996SOL    HW230888   2.576   4.841   0.631
 9997SOL     OW30889   6.445   0.442   2.946
 9997SOL    HW130890   6.473   0.355   2.905
 9997SOL    HW230891   6.365   0.426   3.005
 9998SOL     OW30892   5.189   3.762   2.473
 9998SOL    HW130893   5.220   3.667   2.476
 9998SOL    HW230894   5.112   3.769   2.410
 9999SOL     OW30895   0.798   6.803   5.059
 9999SOL    HW130896   0.894   6.779   5.043
 9999SOL    HW230897   0.739   6.732   5.021
10000SOL     OW30898   4.593   2.996   1.179
10000SOL    HW130899   4.555   3.047   1.256
10000SOL    HW230900   4.562   3.038   1.093
10001SOL     OW30901   3.854   6.689   1.477
10001SOL    HW130902   3.818   6.774   1.516
10001SOL    HW230903   3.921   6.649   1.540
10002SOL     OW30904   1.969   6.582   2.531
10002SOL    HW130905   1.973   6.578   2.631
10002SOL    HW230906   1.930   6.670   2.503
10003SOL     OW30907   1.030   0.863   2.114
10003SOL    HW130908   1.100   0.913   2.166
10003SOL    HW230909   0.946   0.858   2.167
10004SOL     OW30910   7.003   3.094   3.677
10004SOL    HW130911   0.062   3.033   3.650
10004SOL    HW230912   0.016   3.189   3.666
10005SOL     OW30913   2.284   5.777   2.762
10005SOL    HW130914   2.299   5.697   2.704
10005SOL    HW230915   2.367   5.833   2.764
10006SOL     OW30916   5.526   2.102   5.922
10006SOL    HW130917   5.426   2.108   5.922
10006SOL    HW230918   5.563   2.174   5.981
10007SOL     OW30919   1.310   5.140   3.760
10007SOL    HW130920   1.408   5.150   3.742
10007SOL    HW230921   1.297   5.097   3.850
10008SOL     OW30922   4.091   0.622   5.622
10008SOL    HW130923   3.998   0.659   5.629
10008SOL    HW230924   4.144   0.678   5.559
10009SOL     OW30925   0.854   4.906   1.892
10009SOL    HW130926   0.950   4.887   1.871
10009SOL    HW230927   0.798   4.827   1.866
10010SOL     OW30928   1.885   4.367   1.106
10010SOL    HW130929   1.946   4.441   1.133
10010SOL    HW230930   1.805   4.365   1.166
10011SOL     OW30931   3.218   3.935   0.399
10011SOL    HW130932   3.244   3.841   0.379
10011SOL    HW230933   3.280   3.998   0.352
10012SOL     OW30934   5.339   1.984   3.670
10012SOL    HW130935   5.317   1.890   3.694
10012SOL    HW230936   5.339   1.994   3.571
10013SOL     OW30937   0.805   6.062   5.235
10013SOL    HW130938   0.868   6.124   5.188
10013SOL    HW230939   0.715   6.068   5.192
10014SOL     OW30940   1.385   0.827   3.381
10014SOL    HW130941   1.448   0.896   3.346
10014SOL    HW230942   1.325   0.796   3.307
10015SOL     OW30943   4.492   0.010   6.704
10015SOL    HW130944   4.409   0.066   6.709
10015SOL    HW230945   4.524   7.005   6.796
10016SOL     OW30946   3.002   1.243   4.531
10016SOL    HW130947   3.077   1.177   4.531
10016SOL    HW230948   2.970   1.257   4.625
10017SOL     OW30949   2.707   1.411   2.809
10017SOL    HW130950   2.747   1.443   2.895
10017SOL    HW230951   2.676   1.490   2.756
10018SOL     OW30952   6.690   4.799   5.226
10018SOL    HW130953   6.706   4.704   5.255
10018SOL    HW230954   6.771   4.832   5.177
10019SOL     OW30955   6.516   1.730   2.750
10019SOL    HW130956   6.551   1.741   2.844
10019SOL    HW230957   6.581   1.771   2.686
10020SOL     OW30958   6.303   0.735   2.580
10020SOL    HW130959   6.392   0.761   2.543
10020SOL    HW230960   6.231   0.764   2.517
10021SOL     OW30961   1.244   3.693   1.656
10021SOL    HW130962   1.342   3.715   1.658
10021SOL    HW230963   1.232   3.594   1.668
10022SOL     OW30964   1.506   6.608   6.145
10022SOL    HW130965   1.523   6.514   6.174
10022SOL    HW230966   1.593   6.651   6.118
10023SOL     OW30967   0.982   1.670   5.630
10023SOL    HW130968   0.912   1.726   5.586
10023SOL    HW230969   1.071   1.693   5.592
10024SOL     OW30970   2.316   4.152   3.617
10024SOL    HW130971   2.353   4.244   3.633
10024SOL    HW230972   2.287   4.143   3.522
10025SOL     OW30973   0.895   2.532   1.289
10025SOL    HW130974   0.958   2.606   1.265
10025SOL    HW230975   0.948   2.448   1.305
10026SOL     OW30976   6.443   0.938   5.167
10026SOL    HW130977   6.387   0.945   5.250
10026SOL    HW230978   6.504   0.859   5.174
10027SOL     OW30979   3.576   0.798   5.566
10027SOL    HW130980   3.606   0.848   5.485
10027SOL    HW230981   3.477   0.806   5.576
10028SOL     OW30982   4.023   6.694   2.194
10028SOL    HW130983   3.982   6.715   2.283
10028SOL    HW230984   4.040   6.596   2.187
10029SOL     OW30985   6.601   4.984   3.870
10029SOL    HW130986   6.644   5.062   3.915
10029SOL    HW230987   6.671   4.918   3.841
10030SOL     OW30988   2.680   6.952   4.028
10030SOL    HW130989   2.628   6.924   4.109
10030SOL    HW230990   2.768   6.906   4.028
10031SOL     OW30991   2.156   6.270   3.755
10031SOL    HW130992   2.131   6.236   3.664
10031SOL    HW230993   2.073   6.276   3.812
10032SOL     OW30994   3.016   6.026   3.902
10032SOL    HW130995   3.082   6.001   3.832
10032SOL    HW230996   3.007   5.951   3.968
10033SOL     OW30997   2.812   1.468   5.031
10033SOL    HW130998   2.897   1.440   4.987
10033SOL    HW230999   2.832   1.537   5.101
10034SOL     OW31000   2.200   1.116   1.942
10034SOL    HW131001   2.273   1.126   1.875
10034SOL    HW231002   2.231   1.060   2.018
10035SOL     OW31003   0.066   3.217   2.636
10035SOL    HW131004   0.067   3.305   2.588
10035SOL    HW231005   6.993   3.173   2.623
10036SOL     OW31006   0.398   0.890   0.000
10036SOL    HW131007   0.471   0.949   0.034
10036SOL    HW231008   0.437   0.807   6.976
10037SOL     OW31009   6.070   0.301   6.084
10037SOL    HW131010   6.099   0.241   6.158
10037SOL    HW231011   5.996   0.361   6.116
10038SOL     OW31012   5.661   6.488   6.633
10038SOL    HW131013   5.633   6.578   6.667
10038SOL    HW231014   5.657   6.488   6.533
10039SOL     OW31015   6.920   5.481   1.969
10039SOL    HW131016   6.974   5.536   2.034
10039SOL    HW231017   6.975   5.404   1.938
10040SOL     OW31018   2.465   0.060   0.282
10040SOL    HW131019   2.491   0.057   0.379
10040SOL    HW231020   2.383   0.004   0.268
10041SOL     OW31021   5.367   4.823   4.978
10041SOL    HW131022   5.269   4.806   4.978
10041SOL    HW231023   5.387   4.909   4.931
10042SOL     OW31024   6.504   0.514   5.360
10042SOL    HW131025   6.418   0.502   5.311
10042SOL    HW231026   6.490   0.577   5.437
10043SOL     OW31027   0.705   0.611   2.550
10043SOL    HW131028   0.803   0.625   2.538
10043SOL    HW231029   0.665   0.581   2.463
10044SOL     OW31030   2.812   2.066   6.844
10044SOL    HW131031   2.768   1.979   6.867
10044SOL    HW231032   2.870   2.095   6.920
10045SOL     OW31033   4.066   6.709   3.968
10045SOL    HW131034   4.120   6.755   4.039
10045SOL    HW231035   4.064   6.611   3.985
10046SOL     OW31036   0.105   2.431   1.452
10046SOL    HW131037   0.166   2.361   1.417
10046SOL    HW231038   0.073   2.405   1.543
10047SOL     OW31039   1.410   2.642   3.229
10047SOL    HW131040   1.401   2.741   3.228
10047SOL    HW231041   1.319   2.600   3.236
10048SOL     OW31042   3.671   2.435   1.696
10048SOL    HW131043   3.629   2.523   1.717
10048SOL    HW231044   3.640   2.366   1.762
10049SOL     OW31045   1.884   5.864   4.427
10049SOL    HW131046   1.831   5.780   4.411
10049SOL    HW231047   1.925   5.861   4.518
10050SOL     OW31048   5.783   1.428   4.606
10050SOL    HW131049   5.761   1.519   4.569
10050SOL    HW231050   5.876   1.403   4.577
10051SOL     OW31051   6.409   2.373   0.724
10051SOL    HW131052   6.502   2.347   0.750
10051SOL    HW231053   6.388   2.336   0.634
10052SOL     OW31054   1.928   5.155   0.985
10052SOL    HW131055   1.968   5.064   1.001
10052SOL    HW231056   1.946   5.183   0.891
10053SOL     OW31057   3.007   6.329   3.224
10053SOL    HW131058   3.046   6.361   3.311
10053SOL    HW231059   2.977   6.408   3.170
10054SOL     OW31060   4.603   5.496   3.662
10054SOL    HW131061   4.556   5.436   3.726
10054SOL    HW231062   4.701   5.494   3.681
10055SOL     OW31063   5.930   2.768   6.767
10055SOL    HW131064   6.009   2.820   6.734
10055SOL    HW231065   5.854   2.830   6.785
10056SOL     OW31066   5.456   4.358   2.682
10056SOL    HW131067   5.408   4.271   2.676
10056SOL    HW231068   5.429   4.417   2.606
10057SOL     OW31069   2.201   2.780   3.395
10057SOL    HW131070   2.232   2.756   3.487
10057SOL    HW231071   2.277   2.770   3.331
10058SOL     OW31072   0.605   4.886   4.100
10058SOL    HW131073   0.628   4.899   4.004
10058SOL    HW231074   0.689   4.885   4.155
10059SOL     OW31075   5.071   0.125   1.509
10059SOL    HW131076   5.044   0.118   1.605
10059SOL    HW231077   5.080   0.222   1.484
10060SOL     OW31078   2.463   2.320   2.074
10060SOL    HW131079   2.553   2.327   2.117
10060SOL    HW231080   2.461   2.378   1.992
10061SOL     OW31081   6.289   1.925   4.880
10061SOL    HW131082   6.314   1.879   4.795
10061SOL    HW231083   6.190   1.919   4.894
10062SOL     OW31084   5.737   6.271   3.026
10062SOL    HW131085   5.654   6.325   3.012
10062SOL    HW231086   5.787   6.263   2.939
10063SOL     OW31087   0.592   2.792   2.292
10063SOL    HW131088   0.555   2.772   2.202
10063SOL    HW231089   0.677   2.844   2.283
10064SOL     OW31090   4.792   5.702   5.450
10064SOL    HW131091   4.742   5.618   5.429
10064SOL    HW231092   4.875   5.680   5.501
10065SOL     OW31093   0.809   6.846   2.604
10065SOL    HW131094   0.765   6.858   2.515
10065SOL    HW231095   0.860   6.760   2.605
10066SOL     OW31096   0.309   0.650   3.337
10066SOL    HW131097   0.330   0.584   3.410
10066SOL    HW231098   0.210   0.657   3.326
10067SOL     OW31099   4.915   6.607   3.674
10067SOL    HW131100   4.936   6.655   3.589
10067SOL    HW231101   4.994   6.609   3.735
10068SOL     OW31102   4.946   3.954   5.496
10068SOL    HW131103   4.943   3.934   5.398
10068SOL    HW231104   4.907   3.877   5.546
10069SOL     OW31105   5.181   1.077   4.331
10069SOL    HW131106   5.183   1.081   4.231
10069SOL    HW231107   5.096   1.034   4.361
10070SOL     OW31108   1.355   6.821   4.534
10070SOL    HW131109   1.357   6.831   4.634
10070SOL    HW231110   1.322   6.906   4.493
10071SOL     OW31111   4.982   5.091   5.233
10071SOL    HW131112   5.028   5.003   5.224
10071SOL    HW231113   4.890   5.076   5.271
10072SOL     OW31114   1.253   6.549   4.117
10072SOL    HW131115   1.193   6.573   4.193
10072SOL    HW231116   1.304   6.466   4.140
10073SOL     OW31117   6.759   5.962   6.480
10073SOL    HW131118   6.821   5.894   6.441
10073SOL    HW231119   6.697   5.995   6.410
10074SOL     OW31120   2.481   6.958   5.660
10074SOL    HW131121   2.505   6.874   5.709
10074SOL    HW231122   2.412   6.938   5.591
10075SOL     OW31123   1.448   2.383   4.143
10075SOL    HW131124   1.359   2.406   4.183
10075SOL    HW231125   1.519   2.398   4.212
10076SOL     OW31126   5.903   0.187   3.898
10076SOL    HW131127   5.994   0.224   3.878
10076SOL    HW231128   5.847   0.189   3.815
10077SOL     OW31129   2.613   1.589   6.829
10077SOL    HW131130   2.671   1.671   6.832
10077SOL    HW231131   2.631   1.532   6.909
10078SOL     OW31132   5.539   6.009   5.543
10078SOL    HW131133   5.457   5.997   5.487
10078SOL    HW231134   5.620   6.013   5.484
10079SOL     OW31135   0.130   2.479   6.461
10079SOL    HW131136   0.129   2.578   6.473
10079SOL    HW231137   0.040   2.449   6.430
10080SOL     OW31138   0.928   2.761   5.469
10080SOL    HW131139   0.892   2.679   5.425
10080SOL    HW231140   0.905   2.758   5.567
10081SOL     OW31141   0.437   1.368   0.305
10081SOL    HW131142   0.521   1.324   0.335
10081SOL    HW231143   0.415   1.443   0.367
10082SOL     OW31144   0.068   0.352   0.385
10082SOL    HW131145   0.040   0.295   0.462
10082SOL    HW231146   0.152   0.315   0.345
10083SOL     OW31147   5.524   1.625   4.362
10083SOL    HW131148   5.581   1.543   4.364
10083SOL    HW231149   5.581   1.706   4.374
10084SOL     OW31150   2.532   0.915   7.002
10084SOL    HW131151   2.488   0.875   6.922
10084SOL    HW231152   2.627   0.938   6.979
10085SOL     OW31153   0.803   5.198   2.730
10085SOL    HW131154   0.773   5.133   2.800
10085SOL    HW231155   0.727   5.259   2.706
10086SOL     OW31156   6.707   3.556   2.160
10086SOL    HW131157   6.664   3.564   2.070
10086SOL    HW231158   6.794   3.507   2.151
10087SOL     OW31159   1.839   0.105   3.518
10087SOL    HW131160   1.902   0.028   3.519
10087SOL    HW231161   1.771   0.093   3.590
10088SOL     OW31162   6.449   0.380   4.890
10088SOL    HW131163   6.394   0.418   4.964
10088SOL    HW231164   6.540   0.357   4.924
10089SOL     OW31165   2.208   2.494   2.101
10089SOL    HW131166   2.290   2.476   2.155
10089SOL    HW231167   2.148   2.415   2.105
10090SOL     OW31168   6.804   5.098   2.382
10090SOL    HW131169   6.789   5.182   2.332
10090SOL    HW231170   6.876   5.111   2.450
10091SOL     OW31171   0.328   2.119   3.899
10091SOL    HW131172   0.232   2.097   3.917
10091SOL    HW231173   0.339   2.142   3.802
10092SOL     OW31174   1.560   2.765   5.073
10092SOL    HW131175   1.593   2.748   4.981
10092SOL    HW231176   1.530   2.860   5.081
10093SOL     OW31177   0.157   5.936   5.966
10093SOL    HW131178   0.082   5.973   6.022
10093SOL    HW231179   0.166   5.991   5.883
10094SOL     OW31180   1.796   1.121   2.074
10094SOL    HW131181   1.750   1.083   1.993
10094SOL    HW231182   1.841   1.047   2.124
10095SOL     OW31183   0.263   1.993   5.229
10095SOL    HW131184   0.203   2.070   5.249
10095SOL    HW231185   0.209   1.909   5.223
10096SOL     OW31186   0.187   5.779   2.510
10096SOL    HW131187   0.224   5.791   2.602
10096SOL    HW231188   0.093   5.745   2.516
10097SOL     OW31189   1.201   2.443   5.809
10097SOL    HW131190   1.284   2.431   5.863
10097SOL    HW231191   1.170   2.538   5.816
10098SOL     OW31192   3.690   5.108   6.455
10098SOL    HW131193   3.761   5.057   6.407
10098SOL    HW231194   3.647   5.173   6.392
10099SOL     OW31195   6.672   4.832   4.803
10099SOL    HW131196   6.731   4.831   4.722
10099SOL    HW231197   6.688   4.916   4.854
10100SOL     OW31198   5.237   0.854   5.706
10100SOL    HW131199   5.163   0.911   5.669
10100SOL    HW231200   5.214   0.757   5.693
10101SOL     OW31201   6.837   4.505   2.729
10101SOL    HW131202   6.778   4.427   2.749
10101SOL    HW231203   6.790   4.569   2.669
10102SOL     OW31204   3.760   0.270   4.147
10102SOL    HW131205   3.673   0.229   4.121
10102SOL    HW231206   3.788   0.336   4.078
10103SOL     OW31207   0.998   2.081   0.568
10103SOL    HW131208   1.055   2.097   0.650
10103SOL    HW231209   0.959   2.168   0.538
10104SOL     OW31210   1.894   5.979   5.794
10104SOL    HW131211   1.896   6.013   5.888
10104SOL    HW231212   1.828   6.033   5.741
10105SOL     OW31213   3.248   0.528   0.033
10105SOL    HW131214   3.228   0.624   0.051
10105SOL    HW231215   3.322   0.498   0.092
10106SOL     OW31216   4.636   5.177   1.681
10106SOL    HW131217   4.671   5.265   1.649
10106SOL    HW231218   4.712   5.118   1.708
10107SOL     OW31219   5.868   1.165   5.738
10107SOL    HW131220   5.794   1.108   5.773
10107SOL    HW231221   5.956   1.122   5.761
10108SOL     OW31222   5.899   6.103   6.523
10108SOL    HW131223   5.830   6.031   6.515
10108SOL    HW231224   5.990   6.061   6.525
10109SOL     OW31225   4.400   5.972   3.387
10109SOL    HW131226   4.349   5.909   3.444
10109SOL    HW231227   4.458   6.030   3.445
10110SOL     OW31228   3.283   1.485   5.355
10110SOL    HW131229   3.370   1.439   5.338
10110SOL    HW231230   3.294   1.583   5.343
10111SOL     OW31231   0.219   2.672   2.432
10111SOL    HW131232   0.248   2.635   2.520
10111SOL    HW231233   0.149   2.742   2.447
10112SOL     OW31234   4.030   3.495   5.919
10112SOL    HW131235   4.065   3.550   5.843
10112SOL    HW231236   3.968   3.551   5.974
10113SOL     OW31237   4.513   6.801   0.326
10113SOL    HW131238   4.532   6.727   0.391
10113SOL    HW231239   4.435   6.855   0.359
10114SOL     OW31240   4.414   1.430   1.727
10114SOL    HW131241   4.428   1.519   1.683
10114SOL    HW231242   4.491   1.412   1.789
10115SOL     OW31243   1.200   1.578   4.240
10115SOL    HW131244   1.171   1.607   4.149
10115SOL    HW231245   1.198   1.656   4.303
10116SOL     OW31246   0.683   0.387   0.462
10116SOL    HW131247   0.751   0.406   0.533
10116SOL    HW231248   0.593   0.418   0.493
10117SOL     OW31249   4.620   0.633   5.617
10117SOL    HW131250   4.523   0.654   5.630
10117SOL    HW231251   4.651   0.674   5.531
10118SOL     OW31252   5.938   4.980   2.333
10118SOL    HW131253   5.926   5.020   2.424
10118SOL    HW231254   5.874   5.022   2.269
10119SOL     OW31255   2.156   0.311   6.017
10119SOL    HW131256   2.135   0.362   6.101
10119SOL    HW231257   2.114   0.358   5.939
10120SOL     OW31258   5.674   3.077   3.445
10120SOL    HW131259   5.618   3.160   3.451
10120SOL    HW231260   5.715   3.071   3.354
10121SOL     OW31261   5.717   5.043   3.827
10121SOL    HW131262   5.716   5.091   3.739
10121SOL    HW231263   5.807   5.001   3.841
10122SOL     OW31264   5.120   3.088   6.825
10122SOL    HW131265   5.127   3.126   6.917
10122SOL    HW231266   5.023   3.083   6.799
10123SOL     OW31267   0.194   6.649   0.405
10123SOL    HW131268   0.231   6.610   0.489
10123SOL    HW231269   0.156   6.577   0.347
10124SOL     OW31270   3.022   4.351   1.237
10124SOL    HW131271   3.013   4.252   1.229
10124SOL    HW231272   2.965   4.384   1.312
10125SOL     OW31273   2.205   0.639   0.776
10125SOL    HW131274   2.178   0.649   0.681
10125SOL    HW231275   2.302   0.615   0.781
10126SOL     OW31276   5.483   4.825   6.939
10126SOL    HW131277   5.434   4.737   6.937
10126SOL    HW231278   5.579   4.809   6.959
10127SOL     OW31279   3.548   5.155   5.114
10127SOL    HW131280   3.510   5.132   5.024
10127SOL    HW231281   3.644   5.182   5.103
10128SOL     OW31282   0.238   2.059   1.443
10128SOL    HW131283   0.226   1.963   1.469
10128SOL    HW231284   0.268   2.112   1.522
10129SOL     OW31285   5.233   2.454   3.365
10129SOL    HW131286   5.240   2.553   3.377
10129SOL    HW231287   5.321   2.418   3.332
10130SOL     OW31288   6.226   6.347   1.256
10130SOL    HW131289   6.259   6.279   1.321
10130SOL    HW231290   6.126   6.347   1.256
10131SOL     OW31291   0.292   0.223   0.311
10131SOL    HW131292   0.358   0.201   0.383
10131SOL    HW231293   0.339   0.265   0.234
10132SOL     OW31294   2.539   0.143   2.744
10132SOL    HW131295   2.551   0.052   2.785
10132SOL    HW231296   2.603   0.207   2.787
10133SOL     OW31297   5.900   4.673   2.334
10133SOL    HW131298   5.902   4.610   2.256
10133SOL    HW231299   5.971   4.742   2.322
10134SOL     OW31300   0.367   1.434   2.103
10134SOL    HW131301   0.351   1.530   2.080
10134SOL    HW231302   0.360   1.379   2.020
10135SOL     OW31303   3.243   6.202   3.141
10135SOL    HW131304   3.200   6.291   3.144
10135SOL    HW231305   3.338   6.209   3.174
10136SOL     OW31306   6.412   6.618   2.172
10136SOL    HW131307   6.483   6.689   2.178
10136SOL    HW231308   6.374   6.617   2.080
10137SOL     OW31309   5.527   5.099   4.390
10137SOL    HW131310   5.568   5.054   4.312
10137SOL    HW231311   5.568   5.066   4.475
10138SOL     OW31312   5.429   2.253   6.188
10138SOL    HW131313   5.367   2.176   6.206
10138SOL    HW231314   5.380   2.339   6.203
10139SOL     OW31315   3.570   2.864   3.554
10139SOL    HW131316   3.565   2.766   3.575
10139SOL    HW231317   3.575   2.877   3.455
10140SOL     OW31318   1.182   5.395   4.458
10140SOL    HW131319   1.176   5.488   4.495
10140SOL    HW231320   1.171   5.397   4.359
10141SOL     OW31321   2.334   0.581   3.798
10141SOL    HW131322   2.292   0.659   3.751
10141SOL    HW231323   2.352   0.606   3.894
10142SOL     OW31324   4.985   5.959   4.370
10142SOL    HW131325   5.054   6.015   4.417
10142SOL    HW231326   4.962   5.880   4.426
10143SOL     OW31327   4.718   5.840   1.702
10143SOL    HW131328   4.681   5.855   1.611
10143SOL    HW231329   4.659   5.774   1.751
10144SOL     OW31330   2.678   4.694   2.927
10144SOL    HW131331   2.664   4.755   2.849
10144SOL    HW231332   2.695   4.748   3.009
10145SOL     OW31333   2.821   6.904   5.926
10145SOL    HW131334   2.847   6.999   5.909
10145SOL    HW231335   2.773   6.897   6.013
10146SOL     OW31336   5.088   5.007   4.153
10146SOL    HW131337   5.068   5.099   4.190
10146SOL    HW231338   5.003   4.955   4.149
10147SOL     OW31339   4.573   5.802   4.410
10147SOL    HW131340   4.592   5.883   4.465
10147SOL    HW231341   4.552   5.725   4.469
10148SOL     OW31342   6.281   5.037   0.471
10148SOL    HW131343   6.260   5.024   0.568
10148SOL    HW231344   6.215   5.102   0.432
10149SOL     OW31345   4.392   3.430   0.974
10149SOL    HW131346   4.456   3.384   0.913
10149SOL    HW231347   4.320   3.366   1.002
10150SOL     OW31348   5.258   4.029   0.872
10150SOL    HW131349   5.319   4.065   0.802
10150SOL    HW231350   5.266   4.084   0.955
10151SOL     OW31351   1.116   5.962   5.609
10151SOL    HW131352   1.033   5.940   5.559
10151SOL    HW231353   1.110   5.926   5.702
10152SOL     OW31354   0.140   5.652   4.263
10152SOL    HW131355   0.181   5.568   4.227
10152SOL    HW231356   0.142   5.649   4.363
10153SOL     OW31357   5.135   5.823   4.122
10153SOL    HW131358   5.073   5.758   4.165
10153SOL    HW231359   5.101   5.847   4.031
10154SOL     OW31360   6.711   5.780   5.840
10154SOL    HW131361   6.646   5.843   5.797
10154SOL    HW231362   6.752   5.825   5.920
10155SOL     OW31363   3.692   1.709   6.198
10155SOL    HW131364   3.787   1.713   6.167
10155SOL    HW231365   3.661   1.614   6.200
10156SOL     OW31366   5.762   0.186   2.245
10156SOL    HW131367   5.821   0.205   2.166
10156SOL    HW231368   5.817   0.184   2.328
10157SOL     OW31369   4.834   0.750   4.666
10157SOL    HW131370   4.734   0.740   4.666
10157SOL    HW231371   4.863   0.792   4.752
10158SOL     OW31372   4.839   3.402   5.989
10158SOL    HW131373   4.878   3.412   5.897
10158SOL    HW231374   4.811   3.492   6.023
10159SOL     OW31375   1.747   1.278   6.274
10159SOL    HW131376   1.747   1.205   6.343
10159SOL    HW231377   1.805   1.353   6.306
10160SOL     OW31378   0.791   5.991   3.177
10160SOL    HW131379   0.738   5.932   3.115
10160SOL    HW231380   0.807   5.942   3.263
10161SOL     OW31381   2.144   5.843   5.723
10161SOL    HW131382   2.049   5.872   5.736
10161SOL    HW231383   2.205   5.914   5.760
10162SOL     OW31384   3.274   2.659   6.699
10162SOL    HW131385   3.285   2.602   6.617
10162SOL    HW231386   3.274   2.755   6.672
10163SOL     OW31387   0.170   2.789   5.709
10163SOL    HW131388   0.101   2.717   5.709
10163SOL    HW231389   0.239   2.769   5.778
10164SOL     OW31390   1.462   2.560   5.305
10164SOL    HW131391   1.511   2.479   5.339
10164SOL    HW231392   1.413   2.603   5.381
10165SOL     OW31393   0.219   2.121   3.165
10165SOL    HW131394   0.165   2.185   3.110
10165SOL    HW231395   0.158   2.074   3.229
10166SOL     OW31396   0.618   1.289   2.140
10166SOL    HW131397   0.702   1.337   2.117
10166SOL    HW231398   0.544   1.356   2.153
10167SOL     OW31399   4.816   0.714   0.870
10167SOL    HW131400   4.868   0.651   0.812
10167SOL    HW231401   4.785   0.791   0.816
10168SOL     OW31402   6.535   4.500   4.725
10168SOL    HW131403   6.501   4.585   4.766
10168SOL    HW231404   6.632   4.511   4.702
10169SOL     OW31405   6.585   4.233   4.261
10169SOL    HW131406   6.672   4.191   4.286
10169SOL    HW231407   6.556   4.296   4.333
10170SOL     OW31408   1.269   3.831   4.774
10170SOL    HW131409   1.234   3.918   4.809
10170SOL    HW231410   1.217   3.755   4.814
10171SOL     OW31411   5.789   3.065   6.100
10171SOL    HW131412   5.715   3.000   6.123
10171SOL    HW231413   5.802   3.129   6.176
10172SOL     OW31414   4.472   1.105   4.274
10172SOL    HW131415   4.441   1.054   4.354
10172SOL    HW231416   4.531   1.047   4.218
10173SOL     OW31417   2.547   2.177   3.035
10173SOL    HW131418   2.541   2.152   3.132
10173SOL    HW231419   2.521   2.273   3.024
10174SOL     OW31420   5.832   4.132   0.916
10174SOL    HW131421   5.907   4.190   0.947
10174SOL    HW231422   5.864   4.038   0.905
10175SOL     OW31423   6.155   2.511   6.144
10175SOL    HW131424   6.130   2.608   6.151
10175SOL    HW231425   6.254   2.503   6.137
10176SOL     OW31426   2.358   3.546   0.179
10176SOL    HW131427   2.392   3.639   0.164
10176SOL    HW231428   2.381   3.516   0.272
10177SOL     OW31429   2.030   0.102   5.822
10177SOL    HW131430   2.116   0.106   5.872
10177SOL    HW231431   2.047   0.115   5.725
10178SOL     OW31432   5.347   3.072   5.683
10178SOL    HW131433   5.341   3.165   5.646
10178SOL    HW231434   5.350   3.006   5.608
10179SOL     OW31435   7.012   3.479   6.191
10179SOL    HW131436   6.979   3.548   6.128
10179SOL    HW231437   0.084   3.508   6.230
10180SOL     OW31438   2.397   6.355   5.877
10180SOL    HW131439   2.464   6.301   5.825
10180SOL    HW231440   2.445   6.420   5.936
10181SOL     OW31441   5.910   3.443   1.627
10181SOL    HW131442   5.950   3.528   1.661
10181SOL    HW231443   5.909   3.376   1.700
10182SOL     OW31444   4.256   1.167   0.395
10182SOL    HW131445   4.235   1.134   0.303
10182SOL    HW231446   4.348   1.205   0.397
10183SOL     OW31447   1.640   1.400   6.758
10183SOL    HW131448   1.654   1.411   6.857
10183SOL    HW231449   1.712   1.450   6.710
10184SOL     OW31450   4.853   0.364   6.737
10184SOL    HW131451   4.804   0.422   6.672
10184SOL    HW231452   4.840   0.268   6.714
10185SOL     OW31453   4.832   1.099   0.144
10185SOL    HW131454   4.753   1.072   0.089
10185SOL    HW231455   4.850   1.196   0.131
10186SOL     OW31456   4.618   2.056   2.898
10186SOL    HW131457   4.586   2.148   2.922
10186SOL    HW231458   4.540   1.993   2.899
10187SOL     OW31459   0.390   2.090   2.014
10187SOL    HW131460   0.468   2.125   2.067
10187SOL    HW231461   0.323   2.051   2.077
10188SOL     OW31462   3.827   4.817   0.661
10188SOL    HW131463   3.764   4.799   0.585
10188SOL    HW231464   3.860   4.730   0.697
10189SOL     OW31465   1.669   6.707   5.768
10189SOL    HW131466   1.713   6.796   5.758
10189SOL    HW231467   1.575   6.712   5.736
10190SOL     OW31468   4.658   2.454   0.170
10190SOL    HW131469   4.596   2.401   0.229
10190SOL    HW231470   4.617   2.463   0.079
10191SOL     OW31471   6.780   4.785   6.556
10191SOL    HW131472   6.791   4.878   6.520
10191SOL    HW231473   6.751   4.725   6.482
10192SOL     OW31474   3.909   1.457   0.461
10192SOL    HW131475   3.888   1.544   0.416
10192SOL    HW231476   3.924   1.386   0.393
10193SOL     OW31477   4.154   4.277   0.669
10193SOL    HW131478   4.110   4.188   0.661
10193SOL    HW231479   4.190   4.305   0.580
10194SOL     OW31480   4.908   2.807   5.233
10194SOL    HW131481   4.927   2.731   5.295
10194SOL    HW231482   4.967   2.800   5.152
10195SOL     OW31483   6.117   4.236   1.704
10195SOL    HW131484   6.027   4.246   1.662
10195SOL    HW231485   6.180   4.194   1.637
10196SOL     OW31486   0.505   1.612   4.779
10196SOL    HW131487   0.421   1.568   4.808
10196SOL    HW231488   0.488   1.710   4.765
10197SOL     OW31489   5.609   0.574   6.798
10197SOL    HW131490   5.585   0.486   6.755
10197SOL    HW231491   5.526   0.620   6.829
10198SOL     OW31492   4.459   6.721   3.432
10198SOL    HW131493   4.379   6.730   3.491
10198SOL    HW231494   4.438   6.759   3.342
10199SOL     OW31495   0.824   2.054   5.250
10199SOL    HW131496   0.802   2.131   5.309
10199SOL    HW231497   0.851   1.976   5.306
10200SOL     OW31498   5.127   1.725   1.839
10200SOL    HW131499   5.132   1.824   1.851
10200SOL    HW231500   5.161   1.700   1.748
10201SOL     OW31501   1.072   3.951   0.690
10201SOL    HW131502   1.112   3.881   0.749
10201SOL    HW231503   1.035   3.909   0.608
10202SOL     OW31504   5.331   0.658   4.345
10202SOL    HW131505   5.400   0.588   4.359
10202SOL    HW231506   5.376   0.746   4.326
10203SOL     OW31507   6.917   2.681   4.550
10203SOL    HW131508   6.845   2.751   4.556
10203SOL    HW231509   6.884   2.596   4.590
10204SOL     OW31510   5.534   5.028   6.389
10204SOL    HW131511   5.497   4.959   6.450
10204SOL    HW231512   5.633   5.034   6.402
10205SOL     OW31513   0.613   1.164   6.405
10205SOL    HW131514   0.656   1.103   6.471
10205SOL    HW231515   0.664   1.250   6.400
10206SOL     OW31516   1.927   1.244   4.973
10206SOL    HW131517   1.880   1.167   5.016
10206SOL    HW231518   1.912   1.327   5.027
10207SOL     OW31519   2.355   2.567   5.783
10207SOL    HW131520   2.384   2.480   5.742
10207SOL    HW231521   2.257   2.580   5.769
10208SOL     OW31522   0.076   6.272   5.508
10208SOL    HW131523   0.176   6.279   5.509
10208SOL    HW231524   0.049   6.193   5.453
10209SOL     OW31525   0.340   6.444   5.862
10209SOL    HW131526   0.395   6.383   5.920
10209SOL    HW231527   0.401   6.508   5.815
10210SOL     OW31528   3.510   0.219   1.780
10210SOL    HW131529   3.561   0.227   1.694
10210SOL    HW231530   3.520   0.303   1.833
10211SOL     OW31531   5.184   5.635   5.908
10211SOL    HW131532   5.135   5.558   5.949
10211SOL    HW231533   5.217   5.608   5.817
10212SOL     OW31534   0.985   0.496   6.496
10212SOL    HW131535   0.921   0.473   6.423
10212SOL    HW231536   1.017   0.411   6.540
10213SOL     OW31537   6.713   2.386   0.685
10213SOL    HW131538   6.696   2.319   0.758
10213SOL    HW231539   6.679   2.475   0.714
10214SOL     OW31540   1.422   2.597   0.056
10214SOL    HW131541   1.499   2.538   0.031
10214SOL    HW231542   1.351   2.590   7.001
10215SOL     OW31543   3.094   3.989   2.536
10215SOL    HW131544   3.027   3.957   2.602
10215SOL    HW231545   3.061   3.969   2.443
10216SOL     OW31546   0.698   6.023   1.870
10216SOL    HW131547   0.723   6.061   1.781
10216SOL    HW231548   0.602   6.045   1.889
10217SOL     OW31549   4.053   1.612   5.190
10217SOL    HW131550   3.960   1.587   5.218
10217SOL    HW231551   4.057   1.711   5.173
10218SOL     OW31552   0.999   3.326   2.679
10218SOL    HW131553   0.971   3.231   2.663
10218SOL    HW231554   1.057   3.357   2.603
10219SOL     OW31555   0.197   5.858   3.078
10219SOL    HW131556   0.143   5.812   3.006
10219SOL    HW231557   0.168   5.953   3.084
10220SOL     OW31558   3.278   3.350   0.260
10220SOL    HW131559   3.375   3.367   0.280
10220SOL    HW231560   3.235   3.309   0.339
10221SOL     OW31561   0.912   5.179   3.584
10221SOL    HW131562   0.996   5.126   3.586
10221SOL    HW231563   0.865   5.172   3.672
10222SOL     OW31564   3.566   3.863   3.759
10222SOL    HW131565   3.580   3.874   3.660
10222SOL    HW231566   3.626   3.926   3.808
10223SOL     OW31567   2.590   6.492   1.130
10223SOL    HW131568   2.631   6.407   1.163
10223SOL    HW231569   2.546   6.476   1.042
10224SOL     OW31570   6.439   3.456   3.075
10224SOL    HW131571   6.419   3.424   2.982
10224SOL    HW231572   6.485   3.544   3.070
10225SOL     OW31573   1.948   3.679   5.768
10225SOL    HW131574   2.006   3.738   5.712
10225SOL    HW231575   1.980   3.584   5.762
10226SOL     OW31576   5.061   4.183   0.168
10226SOL    HW131577   5.003   4.262   0.184
10226SOL    HW231578   5.087   4.143   0.256
10227SOL     OW31579   5.741   3.604   1.374
10227SOL    HW131580   5.658   3.592   1.321
10227SOL    HW231581   5.805   3.530   1.353
10228SOL     OW31582   4.984   0.504   0.775
10228SOL    HW131583   4.980   0.423   0.718
10228SOL    HW231584   5.018   0.480   0.866
10229SOL     OW31585   0.382   2.700   5.149
10229SOL    HW131586   0.467   2.649   5.157
10229SOL    HW231587   0.314   2.645   5.100
10230SOL     OW31588   6.635   6.365   1.351
10230SOL    HW131589   6.617   6.406   1.441
10230SOL    HW231590   6.556   6.311   1.323
10231SOL     OW31591   0.064   4.595   2.592
10231SOL    HW131592   0.008   4.582   2.674
10231SOL    HW231593   0.011   4.647   2.524
10232SOL     OW31594   4.796   4.406   2.921
10232SOL    HW131595   4.790   4.364   3.012
10232SOL    HW231596   4.704   4.434   2.892
10233SOL     OW31597   2.465   4.212   5.302
10233SOL    HW131598   2.378   4.227   5.347
10233SOL    HW231599   2.462   4.126   5.250
10234SOL     OW31600   0.822   1.116   1.970
10234SOL    HW131601   0.731   1.138   2.005
10234SOL    HW231602   0.889   1.121   2.044
10235SOL     OW31603   1.079   1.081   3.085
10235SOL    HW131604   1.142   1.076   3.007
10235SOL    HW231605   1.020   1.161   3.075
10236SOL     OW31606   1.225   0.125   2.486
10236SOL    HW131607   1.314   0.161   2.459
10236SOL    HW231608   1.236   0.057   2.558
10237SOL     OW31609   0.068   3.329   4.372
10237SOL    HW131610   0.038   3.256   4.434
10237SOL    HW231611   0.070   3.416   4.421
10238SOL     OW31612   2.921   6.559   1.284
10238SOL    HW131613   2.830   6.595   1.304
10238SOL    HW231614   2.979   6.632   1.248
10239SOL     OW31615   1.007   2.220   4.760
10239SOL    HW131616   0.933   2.285   4.742
10239SOL    HW231617   0.999   2.184   4.853
10240SOL     OW31618   2.077   6.177   0.870
10240SOL    HW131619   2.113   6.234   0.797
10240SOL    HW231620   2.006   6.117   0.833
10241SOL     OW31621   4.578   3.809   1.697
10241SOL    HW131622   4.522   3.864   1.758
10241SOL    HW231623   4.560   3.836   1.602
10242SOL     OW31624   0.036   3.086   0.696
10242SOL    HW131625   6.956   3.091   0.667
10242SOL    HW231626   0.041   3.080   0.796
10243SOL     OW31627   2.842   5.991   2.372
10243SOL    HW131628   2.935   5.957   2.364
10243SOL    HW231629   2.843   6.091   2.384
10244SOL     OW31630   2.808   4.997   1.861
10244SOL    HW131631   2.851   4.913   1.893
10244SOL    HW231632   2.876   5.071   1.858
10245SOL     OW31633   5.406   4.427   1.097
10245SOL    HW131634   5.349   4.473   1.165
10245SOL    HW231635   5.501   4.430   1.126
10246SOL     OW31636   3.517   3.210   4.121
10246SOL    HW131637   3.435   3.267   4.111
10246SOL    HW231638   3.556   3.223   4.212
10247SOL     OW31639   0.719   2.699   4.491
10247SOL    HW131640   0.802   2.697   4.547
10247SOL    HW231641   0.682   2.607   4.482
10248SOL     OW31642   0.266   1.260   5.324
10248SOL    HW131643   0.188   1.216   5.280
10248SOL    HW231644   0.240   1.352   5.353
10249SOL     OW31645   2.342   4.848   6.164
10249SOL    HW131646   2.246   4.824   6.151
10249SOL    HW231647   2.388   4.851   6.075
10250SOL     OW31648   3.159   2.252   0.817
10250SOL    HW131649   3.204   2.242   0.906
10250SOL    HW231650   3.152   2.349   0.794
10251SOL     OW31651   1.500   0.678   4.690
10251SOL    HW131652   1.497   0.616   4.768
10251SOL    HW231653   1.551   0.635   4.615
10252SOL     OW31654   4.475   4.698   5.763
10252SOL    HW131655   4.431   4.618   5.722
10252SOL    HW231656   4.406   4.768   5.781
10253SOL     OW31657   3.829   6.262   6.565
10253SOL    HW131658   3.732   6.241   6.575
10253SOL    HW231659   3.877   6.183   6.526
10254SOL     OW31660   6.780   1.578   5.857
10254SOL    HW131661   6.719   1.499   5.863
10254SOL    HW231662   6.870   1.553   5.894
10255SOL     OW31663   3.913   4.397   1.676
10255SOL    HW131664   3.990   4.333   1.670
10255SOL    HW231665   3.831   4.347   1.705
10256SOL     OW31666   3.375   1.383   4.653
10256SOL    HW131667   3.333   1.458   4.704
10256SOL    HW231668   3.318   1.361   4.574
10257SOL     OW31669   3.853   5.801   2.926
10257SOL    HW131670   3.952   5.785   2.921
10257SOL    HW231671   3.806   5.713   2.941
10258SOL     OW31672   2.613   1.628   2.691
10258SOL    HW131673   2.530   1.600   2.643
10258SOL    HW231674   2.588   1.684   2.770
10259SOL     OW31675   1.595   3.993   4.408
10259SOL    HW131676   1.570   3.922   4.342
10259SOL    HW231677   1.555   3.971   4.497
10260SOL     OW31678   0.412   0.095   3.143
10260SOL    HW131679   0.474   0.022   3.116
10260SOL    HW231680   0.338   0.103   3.077
10261SOL     OW31681   0.205   4.258   0.764
10261SOL    HW131682   0.264   4.262   0.844
10261SOL    HW231683   0.111   4.279   0.792
10262SOL     OW31684   3.869   0.774   6.587
10262SOL    HW131685   3.850   0.863   6.546
10262SOL    HW231686   3.967   0.763   6.599
10263SOL     OW31687   5.749   0.806   2.814
10263SOL    HW131688   5.741   0.822   2.912
10263SOL    HW231689   5.832   0.850   2.780
10264SOL     OW31690   6.773   0.267   6.249
10264SOL    HW131691   6.759   0.250   6.151
10264SOL    HW231692   6.782   0.179   6.296
10265SOL     OW31693   1.893   1.730   2.128
10265SOL    HW131694   1.857   1.678   2.205
10265SOL    HW231695   1.914   1.823   2.157
10266SOL     OW31696   2.841   3.308   1.698
10266SOL    HW131697   2.840   3.338   1.603
10266SOL    HW231698   2.791   3.222   1.706
10267SOL     OW31699   6.539   0.315   0.443
10267SOL    HW131700   6.532   0.216   0.446
10267SOL    HW231701   6.632   0.341   0.415
10268SOL     OW31702   3.326   5.655   2.510
10268SOL    HW131703   3.305   5.579   2.571
10268SOL    HW231704   3.284   5.739   2.546
10269SOL     OW31705   1.970   1.473   0.649
10269SOL    HW131706   2.061   1.512   0.661
10269SOL    HW231707   1.967   1.420   0.564
10270SOL     OW31708   2.739   0.336   3.399
10270SOL    HW131709   2.651   0.327   3.353
10270SOL    HW231710   2.725   0.378   3.489
10271SOL     OW31711   2.245   1.213   6.866
10271SOL    HW131712   2.249   1.114   6.876
10271SOL    HW231713   2.170   1.239   6.806
10272SOL     OW31714   6.106   6.778   4.568
10272SOL    HW131715   6.058   6.732   4.644
10272SOL    HW231716   6.134   6.869   4.597
10273SOL     OW31717   1.913   5.472   3.770
10273SOL    HW131718   1.885   5.568   3.781
10273SOL    HW231719   1.833   5.413   3.777
10274SOL     OW31720   0.875   3.995   5.093
10274SOL    HW131721   0.832   3.907   5.076
10274SOL    HW231722   0.841   4.033   5.179
10275SOL     OW31723   6.422   1.495   2.144
10275SOL    HW131724   6.332   1.507   2.102
10275SOL    HW231725   6.469   1.418   2.101
10276SOL     OW31726   2.713   5.795   5.180
10276SOL    HW131727   2.785   5.864   5.186
10276SOL    HW231728   2.684   5.785   5.085
10277SOL     OW31729   1.165   5.840   3.729
10277SOL    HW131730   1.259   5.818   3.756
10277SOL    HW231731   1.165   5.881   3.638
10278SOL     OW31732   6.501   0.026   4.531
10278SOL    HW131733   6.432   0.066   4.471
10278SOL    HW231734   6.591   0.060   4.504
10279SOL     OW31735   1.034   5.036   3.909
10279SOL    HW131736   1.118   5.042   3.962
10279SOL    HW231737   0.964   5.094   3.951
10280SOL     OW31738   6.542   5.005   0.436
10280SOL    HW131739   6.443   5.022   0.440
10280SOL    HW231740   6.560   4.928   0.375
10281SOL     OW31741   6.518   0.880   3.618
10281SOL    HW131742   6.606   0.842   3.592
10281SOL    HW231743   6.522   0.914   3.712
10282SOL     OW31744   5.074   2.910   3.347
10282SOL    HW131745   5.150   2.950   3.398
10282SOL    HW231746   5.085   2.930   3.249
10283SOL     OW31747   0.683   2.753   1.257
10283SOL    HW131748   0.768   2.702   1.244
10283SOL    HW231749   0.693   2.845   1.220
10284SOL     OW31750   0.341   4.493   4.033
10284SOL    HW131751   0.349   4.488   3.934
10284SOL    HW231752   0.342   4.589   4.062
10285SOL     OW31753   0.233   6.337   6.265
10285SOL    HW131754   0.176   6.300   6.192
10285SOL    HW231755   0.174   6.380   6.334
10286SOL     OW31756   2.634   1.543   3.055
10286SOL    HW131757   2.573   1.590   2.991
10286SOL    HW231758   2.712   1.602   3.074
10287SOL     OW31759   1.279   5.335   2.603
10287SOL    HW131760   1.191   5.302   2.638
10287SOL    HW231761   1.347   5.261   2.611
10288SOL     OW31762   3.874   5.932   4.651
10288SOL    HW131763   3.905   5.904   4.560
10288SOL    HW231764   3.918   6.019   4.675
10289SOL     OW31765   4.200   6.349   0.180
10289SOL    HW131766   4.166   6.395   0.262
10289SOL    HW231767   4.295   6.321   0.194
10290SOL     OW31768   3.007   3.488   2.109
10290SOL    HW131769   2.934   3.482   2.041
10290SOL    HW231770   3.072   3.559   2.083
10291SOL     OW31771   2.306   2.095   2.482
10291SOL    HW131772   2.365   2.175   2.477
10291SOL    HW231773   2.362   2.012   2.482
10292SOL     OW31774   0.166   6.614   5.995
10292SOL    HW131775   0.182   6.515   5.999
10292SOL    HW231776   0.229   6.655   5.929
10293SOL     OW31777   1.287   3.610   5.186
10293SOL    HW131778   1.372   3.577   5.145
10293SOL    HW231779   1.287   3.710   5.187
10294SOL     OW31780   3.076   0.327   2.241
10294SOL    HW131781   2.979   0.309   2.254
10294SOL    HW231782   3.093   0.425   2.249
10295SOL     OW31783   1.177   1.338   0.416
10295SOL    HW131784   1.171   1.430   0.377
10295SOL    HW231785   1.137   1.272   0.352
10296SOL     OW31786   6.456   2.063   5.651
10296SOL    HW131787   6.358   2.077   5.661
10296SOL    HW231788   6.475   1.967   5.630
10297SOL     OW31789   4.031   1.103   0.930
10297SOL    HW131790   3.991   1.180   0.879
10297SOL    HW231791   4.060   1.032   0.866
10298SOL     OW31792   0.625   2.179   2.181
10298SOL    HW131793   0.570   2.182   2.265
10298SOL    HW231794   0.707   2.123   2.197
10299SOL     OW31795   4.464   0.282   2.582
10299SOL    HW131796   4.553   0.325   2.601
10299SOL    HW231797   4.419   0.259   2.668
10300SOL     OW31798   1.359   3.164   0.765
10300SOL    HW131799   1.278   3.121   0.803
10300SOL    HW231800   1.349   3.174   0.666
10301SOL     OW31801   3.930   0.713   0.163
10301SOL    HW131802   3.957   0.720   0.259
10301SOL    HW231803   3.915   0.618   0.139
10302SOL     OW31804   3.243   6.424   4.929
10302SOL    HW131805   3.192   6.380   4.855
10302SOL    HW231806   3.183   6.438   5.007
10303SOL     OW31807   0.230   4.883   4.444
10303SOL    HW131808   0.187   4.864   4.356
10303SOL    HW231809   0.194   4.969   4.481
10304SOL     OW31810   5.649   6.436   0.637
10304SOL    HW131811   5.717   6.508   0.653
10304SOL    HW231812   5.577   6.470   0.576
10305SOL     OW31813   2.977   3.818   5.515
10305SOL    HW131814   3.042   3.776   5.578
10305SOL    HW231815   2.897   3.850   5.566
10306SOL     OW31816   3.858   0.727   0.759
10306SOL    HW131817   3.878   0.677   0.843
10306SOL    HW231818   3.759   0.729   0.743
10307SOL     OW31819   1.933   0.209   5.253
10307SOL    HW131820   2.016   0.207   5.310
10307SOL    HW231821   1.956   0.244   5.162
10308SOL     OW31822   3.017   4.623   1.624
10308SOL    HW131823   3.108   4.579   1.626
10308SOL    HW231824   2.958   4.578   1.691
10309SOL     OW31825   0.265   0.936   5.696
10309SOL    HW131826   0.227   0.974   5.781
10309SOL    HW231827   0.192   0.927   5.628
10310SOL     OW31828   2.879   3.766   5.782
10310SOL    HW131829   2.815   3.831   5.740
10310SOL    HW231830   2.964   3.813   5.804
10311SOL     OW31831   5.334   5.630   7.001
10311SOL    HW131832   5.387   5.550   6.973
10311SOL    HW231833   5.238   5.617   6.976
10312SOL     OW31834   3.464   6.522   2.533
10312SOL    HW131835   3.517   6.539   2.449
10312SOL    HW231836   3.509   6.568   2.610
10313SOL     OW31837   4.900   6.834   2.666
10313SOL    HW131838   4.838   6.798   2.596
10313SOL    HW231839   4.988   6.786   2.660
10314SOL     OW31840   0.527   0.116   1.038
10314SOL    HW131841   0.484   0.151   1.121
10314SOL    HW231842   0.621   0.149   1.033
10315SOL     OW31843   5.398   5.390   3.362
10315SOL    HW131844   5.476   5.327   3.369
10315SOL    HW231845   5.399   5.453   3.439
10316SOL     OW31846   0.469   1.429   6.986
10316SOL    HW131847   0.526   1.419   0.052
10316SOL    HW231848   0.526   1.420   6.904
10317SOL     OW31849   3.600   5.947   5.224
10317SOL    HW131850   3.692   5.913   5.204
10317SOL    HW231851   3.538   5.870   5.239
10318SOL     OW31852   6.352   0.395   0.245
10318SOL    HW131853   6.414   0.381   0.322
10318SOL    HW231854   6.277   0.330   0.250
10319SOL     OW31855   0.656   4.306   4.024
10319SOL    HW131856   0.651   4.306   3.924
10319SOL    HW231857   0.568   4.333   4.062
10320SOL     OW31858   0.103   6.797   3.152
10320SOL    HW131859   0.197   6.761   3.153
10320SOL    HW231860   0.054   6.764   3.232
10321SOL     OW31861   6.123   3.023   2.252
10321SOL    HW131862   6.213   2.982   2.258
10321SOL    HW231863   6.054   2.951   2.241
10322SOL     OW31864   4.533   4.584   4.920
10322SOL    HW131865   4.529   4.547   4.827
10322SOL    HW231866   4.450   4.559   4.969
10323SOL     OW31867   1.077   3.974   5.887
10323SOL    HW131868   1.156   4.008   5.835
10323SOL    HW231869   1.073   4.020   5.976
10324SOL     OW31870   3.277   3.069   2.659
10324SOL    HW131871   3.195   3.043   2.710
10324SOL    HW231872   3.311   2.990   2.608
10325SOL     OW31873   5.993   5.914   4.643
10325SOL    HW131874   5.955   5.988   4.699
10325SOL    HW231875   6.040   5.848   4.703
10326SOL     OW31876   5.256   3.248   6.646
10326SOL    HW131877   5.201   3.211   6.721
10326SOL    HW231878   5.272   3.178   6.578
10327SOL     OW31879   2.542   5.305   6.961
10327SOL    HW131880   2.577   5.304   6.868
10327SOL    HW231881   2.560   5.394   7.003
10328SOL     OW31882   5.225   2.412   2.083
10328SOL    HW131883   5.174   2.326   2.088
10328SOL    HW231884   5.264   2.433   2.173
10329SOL     OW31885   3.339   1.894   2.173
10329SOL    HW131886   3.286   1.971   2.138
10329SOL    HW231887   3.358   1.830   2.099
10330SOL     OW31888   5.474   0.863   1.761
10330SOL    HW131889   5.533   0.900   1.833
10330SOL    HW231890   5.526   0.796   1.708
10331SOL     OW31891   5.749   6.148   5.971
10331SOL    HW131892   5.745   6.114   6.064
10331SOL    HW231893   5.797   6.236   5.969
10332SOL     OW31894   1.359   1.843   6.208
10332SOL    HW131895   1.380   1.930   6.165
10332SOL    HW231896   1.322   1.860   6.300
10333SOL     OW31897   1.366   3.464   4.612
10333SOL    HW131898   1.363   3.371   4.649
10333SOL    HW231899   1.438   3.471   4.543
10334SOL     OW31900   3.234   1.719   4.232
10334SOL    HW131901   3.193   1.783   4.167
10334SOL    HW231902   3.215   1.749   4.325
10335SOL     OW31903   1.560   2.443   5.084
10335SOL    HW131904   1.507   2.467   5.166
10335SOL    HW231905   1.617   2.521   5.058
10336SOL     OW31906   5.616   6.767   3.010
10336SOL    HW131907   5.625   6.858   2.970
10336SOL    HW231908   5.651   6.699   2.946
10337SOL     OW31909   6.586   5.396   6.944
10337SOL    HW131910   6.520   5.359   7.010
10337SOL    HW231911   6.649   5.323   6.916
10338SOL     OW31912   1.285   6.542   1.269
10338SOL    HW131913   1.305   6.465   1.329
10338SOL    HW231914   1.371   6.585   1.240
10339SOL     OW31915   5.801   2.575   5.886
10339SOL    HW131916   5.777   2.545   5.978
10339SOL    HW231917   5.753   2.519   5.819
10340SOL     OW31918   2.121   4.146   6.054
10340SOL    HW131919   2.120   4.072   5.986
10340SOL    HW231920   2.212   4.186   6.058
10341SOL     OW31921   2.389   4.400   3.700
10341SOL    HW131922   2.468   4.456   3.675
10341SOL    HW231923   2.383   4.393   3.800
10342SOL     OW31924   0.683   0.820   3.456
10342SOL    HW131925   0.665   0.904   3.507
10342SOL    HW231926   0.688   0.743   3.519
10343SOL     OW31927   3.876   5.314   1.845
10343SOL    HW131928   3.935   5.234   1.840
10343SOL    HW231929   3.922   5.386   1.898
10344SOL     OW31930   4.811   6.821   0.086
10344SOL    HW131931   4.811   6.771   0.173
10344SOL    HW231932   4.730   6.879   0.081
10345SOL     OW31933   2.126   4.088   4.218
10345SOL    HW131934   2.068   4.115   4.294
10345SOL    HW231935   2.100   4.141   4.137
10346SOL     OW31936   0.083   6.226   0.108
10346SOL    HW131937   0.052   6.271   0.024
10346SOL    HW231938   0.145   6.151   0.084
10347SOL     OW31939   5.502   1.853   4.874
10347SOL    HW131940   5.584   1.910   4.870
10347SOL    HW231941   5.451   1.861   4.789
10348SOL     OW31942   6.834   5.278   1.262
10348SOL    HW131943   6.780   5.303   1.342
10348SOL    HW231944   6.925   5.320   1.268
10349SOL     OW31945   0.650   6.800   6.090
10349SOL    HW131946   0.630   6.807   5.992
10349SOL    HW231947   0.734   6.851   6.110
10350SOL     OW31948   3.199   0.982   6.398
10350SOL    HW131949   3.147   1.017   6.476
10350SOL    HW231950   3.296   0.981   6.421
10351SOL     OW31951   4.023   5.368   6.216
10351SOL    HW131952   4.071   5.345   6.301
10351SOL    HW231953   4.077   5.435   6.164
10352SOL     OW31954   3.831   3.984   6.439
10352SOL    HW131955   3.850   4.015   6.532
10352SOL    HW231956   3.917   3.961   6.394
10353SOL     OW31957   0.197   2.901   5.131
10353SOL    HW131958   0.242   2.990   5.139
10353SOL    HW231959   0.264   2.828   5.142
10354SOL     OW31960   5.420   1.846   1.236
10354SOL    HW131961   5.446   1.751   1.256
10354SOL    HW231962   5.484   1.885   1.170
10355SOL     OW31963   1.225   4.748   3.185
10355SOL    HW131964   1.168   4.826   3.212
10355SOL    HW231965   1.196   4.666   3.235
10356SOL     OW31966   0.295   2.136   4.865
10356SOL    HW131967   0.373   2.089   4.904
10356SOL    HW231968   0.299   2.233   4.889
10357SOL     OW31969   3.245   2.864   6.950
10357SOL    HW131970   3.286   2.851   0.025
10357SOL    HW231971   3.290   2.803   6.884
10358SOL     OW31972   6.813   1.301   2.337
10358SOL    HW131973   6.909   1.302   2.308
10358SOL    HW231974   6.776   1.209   2.329
10359SOL     OW31975   0.803   1.274   0.863
10359SOL    HW131976   0.876   1.222   0.819
10359SOL    HW231977   0.715   1.250   0.821
10360SOL     OW31978   0.443   4.841   2.890
10360SOL    HW131979   0.424   4.938   2.905
10360SOL    HW231980   0.371   4.802   2.833
10361SOL     OW31981   2.036   4.894   1.021
10361SOL    HW131982   2.116   4.878   0.963
10361SOL    HW231983   2.062   4.883   1.117
10362SOL     OW31984   1.419   4.411   5.338
10362SOL    HW131985   1.457   4.496   5.375
10362SOL    HW231986   1.402   4.422   5.240
10363SOL     OW31987   5.802   6.916   3.575
10363SOL    HW131988   5.716   6.916   3.524
10363SOL    HW231989   5.850   7.002   3.560
10364SOL     OW31990   1.807   4.011   0.904
10364SOL    HW131991   1.834   3.974   0.994
10364SOL    HW231992   1.742   4.086   0.917
10365SOL     OW31993   4.856   5.232   0.010
10365SOL    HW131994   4.946   5.190   7.015
10365SOL    HW231995   4.837   5.291   6.947
10366SOL     OW31996   3.845   6.375   3.622
10366SOL    HW131997   3.844   6.318   3.539
10366SOL    HW231998   3.939   6.379   3.657
10367SOL     OW31999   0.037   1.597   3.194
10367SOL    HW132000   0.021   1.514   3.249
10367SOL    HW232001   6.978   1.607   3.128
10368SOL     OW32002   2.427   0.568   1.558
10368SOL    HW132003   2.466   0.650   1.600
10368SOL    HW232004   2.329   0.565   1.577
10369SOL     OW32005   4.344   2.785   6.902
10369SOL    HW132006   4.339   2.854   6.975
10369SOL    HW232007   4.256   2.737   6.896
10370SOL     OW32008   3.883   1.218   5.162
10370SOL    HW132009   3.897   1.127   5.122
10370SOL    HW232010   3.859   1.208   5.259
10371SOL     OW32011   5.249   6.382   5.576
10371SOL    HW132012   5.186   6.314   5.614
10371SOL    HW232013   5.198   6.448   5.522
10372SOL     OW32014   1.279   0.670   3.867
10372SOL    HW132015   1.223   0.589   3.853
10372SOL    HW232016   1.302   0.711   3.778
10373SOL     OW32017   1.221   5.165   4.977
10373SOL    HW132018   1.172   5.106   4.913
10373SOL    HW232019   1.293   5.113   5.023
10374SOL     OW32020   3.069   1.918   4.094
10374SOL    HW132021   3.008   1.907   4.016
10374SOL    HW232022   3.027   1.978   4.162
10375SOL     OW32023   0.149   1.590   0.765
10375SOL    HW132024   0.246   1.580   0.790
10375SOL    HW232025   0.131   1.540   0.681
10376SOL     OW32026   6.657   0.024   3.329
10376SOL    HW132027   6.723   6.995   3.267
10376SOL    HW232028   6.603   0.091   3.278
10377SOL     OW32029   0.256   6.358   4.253
10377SOL    HW132030   0.329   6.350   4.185
10377SOL    HW232031   0.295   6.357   4.345
10378SOL     OW32032   6.308   6.369   5.802
10378SOL    HW132033   6.263   6.308   5.866
10378SOL    HW232034   6.252   6.451   5.788
10379SOL     OW32035   4.367   1.876   4.381
10379SOL    HW132036   4.407   1.963   4.409
10379SOL    HW232037   4.268   1.886   4.374
10380SOL     OW32038   4.045   1.028   3.696
10380SOL    HW132039   4.069   0.971   3.618
10380SOL    HW232040   3.978   0.981   3.753
10381SOL     OW32041   3.731   5.136   4.854
10381SOL    HW132042   3.641   5.122   4.813
10381SOL    HW232043   3.789   5.056   4.837
10382SOL     OW32044   0.728   5.553   0.311
10382SOL    HW132045   0.777   5.638   0.295
10382SOL    HW232046   0.706   5.509   0.224
10383SOL     OW32047   5.441   2.647   0.563
10383SOL    HW132048   5.503   2.674   0.637
10383SOL    HW232049   5.479   2.568   0.516
10384SOL     OW32050   5.789   1.221   6.926
10384SOL    HW132051   5.730   1.154   6.880
10384SOL    HW232052   5.737   1.266   6.998
10385SOL     OW32053   0.207   2.326   6.727
10385SOL    HW132054   0.191   2.364   6.636
10385SOL    HW232055   0.217   2.227   6.721
10386SOL     OW32056   6.659   1.785   6.121
10386SOL    HW132057   6.752   1.823   6.108
10386SOL    HW232058   6.592   1.856   6.099
10387SOL     OW32059   1.458   3.828   2.542
10387SOL    HW132060   1.464   3.733   2.512
10387SOL    HW232061   1.368   3.844   2.582
10388SOL     OW32062   1.942   4.438   2.400
10388SOL    HW132063   1.846   4.466   2.407
10388SOL    HW232064   1.999   4.497   2.456
10389SOL     OW32065   0.812   5.848   3.423
10389SOL    HW132066   0.759   5.774   3.382
10389SOL    HW232067   0.879   5.811   3.487
10390SOL     OW32068   2.100   4.003   3.725
10390SOL    HW132069   2.114   3.976   3.820
10390SOL    HW232070   2.189   4.017   3.681
10391SOL     OW32071   3.766   6.371   4.559
10391SOL    HW132072   3.720   6.325   4.484
10391SOL    HW232073   3.715   6.452   4.586
10392SOL     OW32074   6.234   5.291   6.411
10392SOL    HW132075   6.198   5.235   6.486
10392SOL    HW232076   6.171   5.366   6.392
10393SOL     OW32077   0.474   1.035   4.847
10393SOL    HW132078   0.416   1.102   4.801
10393SOL    HW232079   0.564   1.033   4.804
10394SOL     OW32080   3.452   0.039   1.013
10394SOL    HW132081   3.366   0.064   1.058
10394SOL    HW232082   3.480   6.963   1.042
10395SOL     OW32083   1.460   0.941   4.053
10395SOL    HW132084   1.396   1.006   4.012
10395SOL    HW232085   1.409   0.867   4.097
10396SOL     OW32086   0.459   0.031   4.807
10396SOL    HW132087   0.408   7.010   4.729
10396SOL    HW232088   0.488   0.124   4.788
10397SOL     OW32089   4.113   1.891   2.332
10397SOL    HW132090   4.025   1.844   2.329
10397SOL    HW232091   4.109   1.966   2.398
10398SOL     OW32092   6.749   3.015   1.977
10398SOL    HW132093   6.820   3.013   2.048
10398SOL    HW232094   6.721   2.922   1.955
10399SOL     OW32095   6.654   3.242   5.591
10399SOL    HW132096   6.656   3.154   5.545
10399SOL    HW232097   6.660   3.229   5.690
10400SOL     OW32098   1.570   4.751   1.844
10400SOL    HW132099   1.555   4.743   1.745
10400SOL    HW232100   1.661   4.717   1.867
10401SOL     OW32101   1.250   5.200   1.247
10401SOL    HW132102   1.317   5.127   1.229
10401SOL    HW232103   1.218   5.238   1.161
10402SOL     OW32104   1.087   2.202   4.473
10402SOL    HW132105   1.083   2.205   4.573
10402SOL    HW232106   1.045   2.284   4.435
10403SOL     OW32107   5.613   0.840   2.557
10403SOL    HW132108   5.681   0.802   2.493
10403SOL    HW232109   5.574   0.766   2.612
10404SOL     OW32110   0.028   0.292   4.236
10404SOL    HW132111   0.090   0.357   4.193
10404SOL    HW232112   0.017   0.314   4.333
10405SOL     OW32113   3.001   6.735   0.044
10405SOL    HW132114   2.963   6.671   0.111
10405SOL    HW232115   2.937   6.745   6.983
10406SOL     OW32116   2.027   5.907   5.043
10406SOL    HW132117   2.038   5.843   5.118
10406SOL    HW232118   2.116   5.935   5.008
10407SOL     OW32119   2.219   1.020   6.651
10407SOL    HW132120   2.219   1.120   6.646
10407SOL    HW232121   2.308   0.985   6.621
10408SOL     OW32122   3.927   6.773   2.860
10408SOL    HW132123   3.876   6.837   2.917
10408SOL    HW232124   3.931   6.807   2.767
10409SOL     OW32125   6.624   4.814   2.517
10409SOL    HW132126   6.588   4.864   2.438
10409SOL    HW232127   6.617   4.871   2.599
10410SOL     OW32128   4.709   5.634   1.381
10410SOL    HW132129   4.739   5.618   1.287
10410SOL    HW232130   4.785   5.670   1.435
10411SOL     OW32131   1.864   4.880   2.674
10411SOL    HW132132   1.901   4.852   2.585
10411SOL    HW232133   1.939   4.896   2.738
10412SOL     OW32134   0.620   2.673   6.944
10412SOL    HW132135   0.554   2.691   0.002
10412SOL    HW232136   0.576   2.686   6.856
10413SOL     OW32137   6.605   1.687   4.758
10413SOL    HW132138   6.674   1.622   4.792
10413SOL    HW232139   6.583   1.753   4.829
10414SOL     OW32140   5.777   6.144   5.414
10414SOL    HW132141   5.877   6.146   5.414
10414SOL    HW232142   5.742   6.237   5.419
10415SOL     OW32143   6.907   5.216   3.246
10415SOL    HW132144   6.935   5.309   3.222
10415SOL    HW232145   6.850   5.178   3.174
10416SOL     OW32146   5.207   0.724   0.345
10416SOL    HW132147   5.158   0.713   0.431
10416SOL    HW232148   5.280   0.791   0.356
10417SOL     OW32149   4.565   4.432   4.313
10417SOL    HW132150   4.638   4.369   4.287
10417SOL    HW232151   4.539   4.416   4.408
10418SOL     OW32152   5.967   3.353   6.938
10418SOL    HW132153   5.947   3.327   6.843
10418SOL    HW232154   6.066   3.360   6.950
10419SOL     OW32155   1.453   0.306   4.737
10419SOL    HW132156   1.521   0.343   4.674
10419SOL    HW232157   1.391   0.379   4.764
10420SOL     OW32158   6.286   3.919   4.276
10420SOL    HW132159   6.366   3.921   4.215
10420SOL    HW232160   6.239   4.007   4.272
10421SOL     OW32161   0.340   3.594   4.438
10421SOL    HW132162   0.349   3.664   4.367
10421SOL    HW232163   0.251   3.604   4.482
10422SOL     OW32164   5.704   3.257   5.636
10422SOL    HW132165   5.773   3.185   5.648
10422SOL    HW232166   5.691   3.306   5.722
10423SOL     OW32167   2.354   5.598   2.531
10423SOL    HW132168   2.341   5.513   2.582
10423SOL    HW232169   2.288   5.602   2.455
10424SOL     OW32170   4.409   0.784   2.246
10424SOL    HW132171   4.466   0.716   2.293
10424SOL    HW232172   4.467   0.844   2.191
10425SOL     OW32173   0.957   4.145   0.476
10425SOL    HW132174   0.966   4.047   0.459
10425SOL    HW232175   0.864   4.174   0.453
10426SOL     OW32176   6.579   2.019   0.449
10426SOL    HW132177   6.670   2.031   0.487
10426SOL    HW232178   6.553   1.922   0.454
10427SOL     OW32179   5.928   0.568   3.833
10427SOL    HW132180   5.996   0.496   3.819
10427SOL    HW232181   5.942   0.641   3.766
10428SOL     OW32182   1.817   6.540   4.693
10428SOL    HW132183   1.767   6.621   4.659
10428SOL    HW232184   1.753   6.465   4.707
10429SOL     OW32185   2.453   4.056   1.716
10429SOL    HW132186   2.455   4.156   1.728
10429SOL    HW232187   2.543   4.018   1.734
10430SOL     OW32188   3.145   0.303   4.107
10430SOL    HW132189   3.204   0.273   4.032
10430SOL    HW232190   3.182   0.270   4.194
10431SOL     OW32191   4.158   2.183   4.046
10431SOL    HW132192   4.138   2.200   3.949
10431SOL    HW232193   4.238   2.123   4.053
10432SOL     OW32194   0.269   4.946   0.855
10432SOL    HW132195   0.326   4.907   0.783
10432SOL    HW232196   0.192   4.885   0.874
10433SOL     OW32197   3.689   6.599   4.265
10433SOL    HW132198   3.608   6.645   4.299
10433SOL    HW232199   3.761   6.602   4.334
10434SOL     OW32200   4.020   1.274   6.987
10434SOL    HW132201   4.050   1.326   6.907
10434SOL    HW232202   3.921   1.282   6.996
10435SOL     OW32203   2.459   1.464   1.881
10435SOL    HW132204   2.536   1.511   1.924
10435SOL    HW232205   2.386   1.530   1.863
10436SOL     OW32206   0.717   3.671   5.321
10436SOL    HW132207   0.747   3.575   5.328
10436SOL    HW232208   0.727   3.702   5.227
10437SOL     OW32209   6.875   6.863   4.997
10437SOL    HW132210   6.889   6.962   4.999
10437SOL    HW232211   6.819   6.838   4.918
10438SOL     OW32212   6.879   5.472   6.732
10438SOL    HW132213   6.896   5.562   6.772
10438SOL    HW232214   6.895   5.401   6.800
10439SOL     OW32215   6.021   5.569   4.498
10439SOL    HW132216   5.928   5.531   4.494
10439SOL    HW232217   6.065   5.541   4.584
10440SOL     OW32218   6.046   2.522   1.209
10440SOL    HW132219   5.971   2.541   1.146
10440SOL    HW232220   6.114   2.595   1.205
10441SOL     OW32221   4.620   1.849   6.472
10441SOL    HW132222   4.625   1.884   6.566
10441SOL    HW232223   4.542   1.787   6.464
10442SOL     OW32224   2.202   1.026   5.267
10442SOL    HW132225   2.258   1.017   5.350
10442SOL    HW232226   2.238   1.101   5.211
10443SOL     OW32227   0.811   0.771   0.126
10443SOL    HW132228   0.768   0.720   0.052
10443SOL    HW232229   0.820   0.712   0.206
10444SOL     OW32230   4.327   5.355   3.546
10444SOL    HW132231   4.334   5.419   3.623
10444SOL    HW232232   4.358   5.264   3.576
10445SOL     OW32233   0.977   3.670   4.070
10445SOL    HW132234   0.917   3.611   4.015
10445SOL    HW232235   1.063   3.685   4.021
10446SOL     OW32236   2.461   4.639   4.681
10446SOL    HW132237   2.509   4.705   4.739
10446SOL    HW232238   2.425   4.565   4.737
10447SOL     OW32239   1.158   2.044   2.729
10447SOL    HW132240   1.135   1.966   2.788
10447SOL    HW232241   1.194   2.010   2.642
10448SOL     OW32242   0.908   5.465   2.539
10448SOL    HW132243   0.970   5.410   2.595
10448SOL    HW232244   0.929   5.562   2.552
10449SOL     OW32245   3.790   4.876   4.620
10449SOL    HW132246   3.838   4.851   4.704
10449SOL    HW232247   3.693   4.856   4.631
10450SOL     OW32248   0.561   2.097   4.090
10450SOL    HW132249   0.553   2.142   4.001
10450SOL    HW232250   0.492   2.133   4.152
10451SOL     OW32251   3.011   1.925   4.736
10451SOL    HW132252   3.028   2.021   4.761
10451SOL    HW232253   2.921   1.898   4.769
10452SOL     OW32254   6.669   2.479   4.395
10452SOL    HW132255   6.718   2.421   4.461
10452SOL    HW232256   6.573   2.486   4.421
10453SOL     OW32257   3.133   5.472   4.103
10453SOL    HW132258   3.112   5.377   4.124
10453SOL    HW232259   3.231   5.488   4.113
10454SOL     OW32260   6.506   1.244   6.796
10454SOL    HW132261   6.506   1.251   6.697
10454SOL    HW232262   6.481   1.333   6.835
10455SOL     OW32263   0.461   6.085   2.251
10455SOL    HW132264   0.509   6.163   2.210
10455SOL    HW232265   0.444   6.104   2.348
10456SOL     OW32266   1.865   5.344   6.563
10456SOL    HW132267   1.915   5.267   6.602
10456SOL    HW232268   1.822   5.315   6.477
10457SOL     OW32269   3.876   1.340   0.828
10457SOL    HW132270   3.796   1.352   0.886
10457SOL    HW232271   3.897   1.426   0.782
10458SOL     OW32272   1.415   6.496   0.163
10458SOL    HW132273   1.356   6.522   0.239
10458SOL    HW232274   1.510   6.491   0.195
10459SOL     OW32275   5.650   5.916   1.212
10459SOL    HW132276   5.678   5.862   1.291
10459SOL    HW232277   5.555   5.945   1.224
10460SOL     OW32278   6.325   0.961   6.182
10460SOL    HW132279   6.327   0.866   6.151
10460SOL    HW232280   6.261   1.013   6.126
10461SOL     OW32281   6.883   3.922   5.370
10461SOL    HW132282   6.916   3.832   5.399
10461SOL    HW232283   6.835   3.966   5.446
10462SOL     OW32284   4.272   3.888   6.694
10462SOL    HW132285   4.221   3.839   6.765
10462SOL    HW232286   4.359   3.842   6.678
10463SOL     OW32287   4.550   2.225   5.285
10463SOL    HW132288   4.496   2.255   5.207
10463SOL    HW232289   4.570   2.128   5.276
10464SOL     OW32290   6.368   4.689   1.923
10464SOL    HW132291   6.463   4.660   1.933
10464SOL    HW232292   6.313   4.611   1.891
10465SOL     OW32293   5.114   3.995   1.185
10465SOL    HW132294   5.056   4.053   1.241
10465SOL    HW232295   5.186   4.050   1.143
10466SOL     OW32296   5.979   4.153   4.996
10466SOL    HW132297   5.923   4.115   5.070
10466SOL    HW232298   6.066   4.105   4.992
10467SOL     OW32299   0.431   2.891   6.495
10467SOL    HW132300   0.503   2.860   6.434
10467SOL    HW232301   0.447   2.987   6.520
10468SOL     OW32302   1.542   3.560   3.722
10468SOL    HW132303   1.490   3.524   3.644
10468SOL    HW232304   1.640   3.544   3.708
10469SOL     OW32305   1.302   1.188   3.932
10469SOL    HW132306   1.358   1.268   3.913
10469SOL    HW232307   1.242   1.170   3.854
10470SOL     OW32308   2.103   3.834   1.919
10470SOL    HW132309   2.006   3.828   1.894
10470SOL    HW232310   2.116   3.802   2.013
10471SOL     OW32311   2.740   4.675   5.868
10471SOL    HW132312   2.729   4.577   5.852
10471SOL    HW232313   2.818   4.709   5.815
10472SOL     OW32314   4.430   5.361   5.906
10472SOL    HW132315   4.482   5.305   5.970
10472SOL    HW232316   4.435   5.457   5.934
10473SOL     OW32317   6.418   5.270   0.250
10473SOL    HW132318   6.433   5.355   0.300
10473SOL    HW232319   6.349   5.215   0.298
10474SOL     OW32320   6.184   5.625   5.424
10474SOL    HW132321   6.157   5.711   5.466
10474SOL    HW232322   6.240   5.572   5.488
10475SOL     OW32323   0.730   5.592   1.356
10475SOL    HW132324   0.742   5.656   1.281
10475SOL    HW232325   0.637   5.553   1.353
10476SOL     OW32326   5.203   6.672   1.188
10476SOL    HW132327   5.160   6.760   1.170
10476SOL    HW232328   5.161   6.602   1.131
10477SOL     OW32329   6.917   5.505   3.684
10477SOL    HW132330   6.846   5.576   3.675
10477SOL    HW232331   6.893   5.427   3.626
10478SOL     OW32332   0.206   0.673   6.359
10478SOL    HW132333   0.199   0.581   6.321
10478SOL    HW232334   0.172   0.740   6.293
10479SOL     OW32335   0.101   4.162   2.509
10479SOL    HW132336   0.020   4.220   2.511
10479SOL    HW232337   0.182   4.219   2.492
10480SOL     OW32338   2.543   0.615   3.448
10480SOL    HW132339   2.633   0.643   3.416
10480SOL    HW232340   2.550   0.584   3.543
10481SOL     OW32341   6.389   0.994   1.452
10481SOL    HW132342   6.431   0.905   1.467
10481SOL    HW232343   6.427   1.036   1.370
10482SOL     OW32344   5.626   4.112   3.971
10482SOL    HW132345   5.691   4.046   3.933
10482SOL    HW232346   5.672   4.170   4.038
10483SOL     OW32347   6.088   0.798   6.838
10483SOL    HW132348   6.172   0.778   6.788
10483SOL    HW232349   6.063   0.894   6.825
10484SOL     OW32350   5.897   0.919   1.829
10484SOL    HW132351   5.898   0.927   1.730
10484SOL    HW232352   5.967   0.978   1.869
10485SOL     OW32353   5.944   3.196   5.435
10485SOL    HW132354   5.920   3.184   5.338
10485SOL    HW232355   5.894   3.128   5.490
10486SOL     OW32356   5.601   2.711   2.138
10486SOL    HW132357   5.653   2.796   2.143
10486SOL    HW232358   5.573   2.694   2.044
10487SOL     OW32359   4.434   6.852   2.273
10487SOL    HW132360   4.354   6.894   2.230
10487SOL    HW232361   4.426   6.753   2.269
10488SOL     OW32362   4.100   4.100   6.655
10488SOL    HW132363   4.023   4.050   6.696
10488SOL    HW232364   4.180   4.041   6.651
10489SOL     OW32365   1.676   4.817   5.323
10489SOL    HW132366   1.629   4.828   5.410
10489SOL    HW232367   1.624   4.862   5.250
10490SOL     OW32368   6.184   0.048   4.536
10490SOL    HW132369   6.241   0.099   4.472
10490SOL    HW232370   6.088   0.058   4.511
10491SOL     OW32371   6.521   5.747   5.450
10491SOL    HW132372   6.457   5.788   5.385
10491SOL    HW232373   6.607   5.799   5.450
10492SOL     OW32374   5.246   4.522   5.704
10492SOL    HW132375   5.165   4.572   5.671
10492SOL    HW232376   5.219   4.430   5.732
10493SOL     OW32377   3.275   1.611   1.032
10493SOL    HW132378   3.204   1.576   0.972
10493SOL    HW232379   3.276   1.711   1.028
10494SOL     OW32380   5.625   1.705   5.653
10494SOL    HW132381   5.640   1.642   5.577
10494SOL    HW232382   5.577   1.657   5.726
10495SOL     OW32383   1.975   0.013   6.442
10495SOL    HW132384   2.074   0.010   6.428
10495SOL    HW232385   1.932   0.065   6.368
10496SOL     OW32386   6.276   6.989   5.564
10496SOL    HW132387   6.231   6.926   5.501
10496SOL    HW232388   6.375   6.990   5.545
10497SOL     OW32389   1.588   1.656   6.455
10497SOL    HW132390   1.681   1.625   6.470
10497SOL    HW232391   1.575   1.745   6.497
10498SOL     OW32392   3.359   5.291   6.018
10498SOL    HW132393   3.399   5.283   6.110
10498SOL    HW232394   3.261   5.304   6.026
10499SOL     OW32395   3.139   5.905   3.046
10499SOL    HW132396   3.067   5.938   2.985
10499SOL    HW232397   3.162   5.976   3.112
10500SOL     OW32398   2.318   2.331   6.665
10500SOL    HW132399   2.267   2.378   6.593
10500SOL    HW232400   2.416   2.335   6.644
10501SOL     OW32401   1.948   3.688   2.909
10501SOL    HW132402   1.988   3.684   2.817
10501SOL    HW232403   1.988   3.765   2.959
10502SOL     OW32404   3.253   5.750   4.446
10502SOL    HW132405   3.224   5.765   4.540
10502SOL    HW232406   3.352   5.759   4.439
10503SOL     OW32407   2.254   3.115   6.047
10503SOL    HW132408   2.196   3.172   5.988
10503SOL    HW232409   2.317   3.174   6.098
10504SOL     OW32410   2.052   3.479   1.286
10504SOL    HW132411   2.048   3.379   1.296
10504SOL    HW232412   2.139   3.513   1.320
10505SOL     OW32413   1.146   6.450   0.440
10505SOL    HW132414   1.169   6.360   0.404
10505SOL    HW232415   1.052   6.474   0.412
10506SOL     OW32416   6.790   4.635   5.503
10506SOL    HW132417   6.873   4.687   5.527
10506SOL    HW232418   6.807   4.584   5.419
10507SOL     OW32419   2.313   6.949   3.489
10507SOL    HW132420   2.325   0.030   3.514
10507SOL    HW232421   2.391   6.917   3.436
10508SOL     OW32422   5.992   4.070   2.949
10508SOL    HW132423   6.010   4.071   2.850
10508SOL    HW232424   5.899   4.103   2.966
10509SOL     OW32425   1.937   0.992   5.269
10509SOL    HW132426   1.927   0.912   5.327
10509SOL    HW232427   2.035   1.010   5.254
10510SOL     OW32428   5.877   0.567   6.502
10510SOL    HW132429   5.787   0.527   6.487
10510SOL    HW232430   5.885   0.653   6.452
10511SOL     OW32431   6.717   2.674   1.547
10511SOL    HW132432   6.718   2.575   1.528
10511SOL    HW232433   6.796   2.697   1.604
10512SOL     OW32434   2.394   0.640   6.336
10512SOL    HW132435   2.365   0.725   6.380
10512SOL    HW232436   2.463   0.595   6.392
10513SOL     OW32437   0.199   1.940   0.579
10513SOL    HW132438   0.213   2.031   0.539
10513SOL    HW232439   0.215   1.871   0.509
10514SOL     OW32440   0.628   3.047   2.036
10514SOL    HW132441   0.633   2.963   1.982
10514SOL    HW232442   0.533   3.077   2.043
10515SOL     OW32443   0.135   3.122   4.837
10515SOL    HW132444   0.220   3.071   4.849
10515SOL    HW232445   0.156   3.215   4.807
10516SOL     OW32446   2.365   6.844   1.103
10516SOL    HW132447   2.367   6.829   1.202
10516SOL    HW232448   2.446   6.896   1.075
10517SOL     OW32449   0.607   2.712   3.220
10517SOL    HW132450   0.560   2.716   3.308
10517SOL    HW232451   0.587   2.795   3.168
10518SOL     OW32452   0.667   5.729   2.435
10518SOL    HW132453   0.757   5.735   2.393
10518SOL    HW232454   0.669   5.662   2.510
10519SOL     OW32455   4.330   3.110   5.933
10519SOL    HW132456   4.271   3.188   5.955
10519SOL    HW232457   4.426   3.137   5.942
10520SOL     OW32458   3.153   4.945   6.080
10520SOL    HW132459   3.216   4.994   6.021
10520SOL    HW232460   3.202   4.911   6.161
10521SOL     OW32461   6.604   5.545   2.291
10521SOL    HW132462   6.507   5.550   2.266
10521SOL    HW232463   6.637   5.636   2.314
10522SOL     OW32464   0.175   7.014   1.957
10522SOL    HW132465   0.151   6.927   1.915
10522SOL    HW232466   0.132   0.005   2.048
10523SOL     OW32467   6.672   6.181   6.062
10523SOL    HW132468   6.592   6.237   6.041
10523SOL    HW232469   6.749   6.208   6.004
10524SOL     OW32470   4.753   0.995   4.551
10524SOL    HW132471   4.795   1.009   4.640
10524SOL    HW232472   4.709   0.905   4.547
10525SOL     OW32473   3.091   6.831   4.875
10525SOL    HW132474   3.044   6.875   4.798
10525SOL    HW232475   3.068   6.880   4.959
10526SOL     OW32476   4.628   6.699   2.748
10526SOL    HW132477   4.623   6.757   2.667
10526SOL    HW232478   4.720   6.661   2.757
10527SOL     OW32479   1.665   2.679   4.850
10527SOL    HW132480   1.658   2.691   4.751
10527SOL    HW232481   1.762   2.673   4.876
10528SOL     OW32482   5.697   4.883   5.495
10528SOL    HW132483   5.739   4.959   5.444
10528SOL    HW232484   5.751   4.864   5.577
10529SOL     OW32485   0.220   6.093   4.410
10529SOL    HW132486   0.120   6.091   4.406
10529SOL    HW232487   0.257   6.085   4.317
10530SOL     OW32488   2.059   2.186   5.122
10530SOL    HW132489   1.972   2.234   5.137
10530SOL    HW232490   2.132   2.252   5.109
10531SOL     OW32491   1.933   2.385   4.892
10531SOL    HW132492   1.880   2.315   4.939
10531SOL    HW232493   2.007   2.342   4.840
10532SOL     OW32494   3.433   3.528   4.860
10532SOL    HW132495   3.363   3.463   4.830
10532SOL    HW232496   3.397   3.584   4.934
10533SOL     OW32497   3.028   1.257   6.302
10533SOL    HW132498   2.962   1.278   6.230
10533SOL    HW232499   2.980   1.231   6.385
10534SOL     OW32500   5.622   4.728   1.482
10534SOL    HW132501   5.714   4.698   1.459
10534SOL    HW232502   5.625   4.820   1.520
10535SOL     OW32503   6.765   0.685   1.809
10535SOL    HW132504   6.671   0.716   1.823
10535SOL    HW232505   6.780   0.666   1.711
10536SOL     OW32506   5.464   6.062   3.011
10536SOL    HW132507   5.492   6.136   2.949
10536SOL    HW232508   5.524   6.062   3.092
10537SOL     OW32509   6.229   5.626   1.122
10537SOL    HW132510   6.249   5.699   1.057
10537SOL    HW232511   6.135   5.593   1.108
10538SOL     OW32512   4.065   3.813   6.951
10538SOL    HW132513   4.056   3.882   0.007
10538SOL    HW232514   3.974   3.792   6.913
10539SOL     OW32515   0.780   3.100   4.971
10539SOL    HW132516   0.809   3.051   4.889
10539SOL    HW232517   0.832   3.185   4.979
10540SOL     OW32518   3.599   0.766   0.000
10540SOL    HW132519   3.590   0.713   6.931
10540SOL    HW232520   3.693   0.796   0.011
10541SOL     OW32521   3.688   2.672   1.309
10541SOL    HW132522   3.693   2.742   1.238
10541SOL    HW232523   3.639   2.709   1.388
10542SOL     OW32524   1.659   2.116   0.462
10542SOL    HW132525   1.562   2.115   0.489
10542SOL    HW232526   1.716   2.125   0.543
10543SOL     OW32527   2.310   0.120   4.621
10543SOL    HW132528   2.258   0.205   4.612
10543SOL    HW232529   2.284   0.057   4.548
10544SOL     OW32530   0.160   2.725   1.527
10544SOL    HW132531   0.161   2.628   1.501
10544SOL    HW232532   0.205   2.778   1.455
10545SOL     OW32533   4.667   1.645   2.934
10545SOL    HW132534   4.569   1.645   2.955
10545SOL    HW232535   4.709   1.726   2.975
10546SOL     OW32536   4.377   1.484   5.579
10546SOL    HW132537   4.312   1.468   5.505
10546SOL    HW232538   4.391   1.583   5.591
10547SOL     OW32539   4.946   6.501   1.774
10547SOL    HW132540   5.013   6.432   1.802
10547SOL    HW232541   4.964   6.587   1.821
10548SOL     OW32542   4.171   4.160   5.272
10548SOL    HW132543   4.230   4.231   5.233
10548SOL    HW232544   4.076   4.177   5.247
10549SOL     OW32545   1.064   1.694   1.543
10549SOL    HW132546   1.130   1.675   1.470
10549SOL    HW232547   1.030   1.607   1.579
10550SOL     OW32548   5.134   6.797   4.767
10550SOL    HW132549   5.195   6.796   4.687
10550SOL    HW232550   5.174   6.740   4.839
10551SOL     OW32551   1.027   2.854   6.330
10551SOL    HW132552   1.049   2.773   6.276
10551SOL    HW232553   0.929   2.855   6.350
10552SOL     OW32554   3.287   1.913   5.259
10552SOL    HW132555   3.312   1.887   5.352
10552SOL    HW232556   3.347   1.866   5.194
10553SOL     OW32557   2.880   5.083   6.132
10553SOL    HW132558   2.973   5.054   6.107
10553SOL    HW232559   2.871   5.084   6.232
10554SOL     OW32560   6.059   4.084   5.667
10554SOL    HW132561   6.045   4.051   5.761
10554SOL    HW232562   6.148   4.054   5.634
10555SOL     OW32563   3.620   2.843   1.509
10555SOL    HW132564   3.655   2.901   1.436
10555SOL    HW232565   3.651   2.879   1.597
10556SOL     OW32566   1.211   3.721   3.957
10556SOL    HW132567   1.281   3.660   3.919
10556SOL    HW232568   1.254   3.809   3.980
10557SOL     OW32569   5.296   1.238   3.531
10557SOL    HW132570   5.217   1.236   3.470
10557SOL    HW232571   5.370   1.184   3.491
10558SOL     OW32572   4.858   6.074   5.086
10558SOL    HW132573   4.911   6.086   5.002
10558SOL    HW232574   4.851   5.976   5.108
10559SOL     OW32575   4.257   2.765   0.568
10559SOL    HW132576   4.338   2.743   0.514
10559SOL    HW232577   4.200   2.829   0.516
10560SOL     OW32578   0.052   2.211   4.219
10560SOL    HW132579   0.115   2.199   4.142
10560SOL    HW232580   0.065   2.301   4.260
10561SOL     OW32581   2.141   4.383   6.581
10561SOL    HW132582   2.146   4.471   6.628
10561SOL    HW232583   2.192   4.387   6.496
10562SOL     OW32584   3.836   1.736   0.406
10562SOL    HW132585   3.736   1.726   0.406
10562SOL    HW232586   3.863   1.792   0.327
10563SOL     OW32587   1.102   2.291   2.724
10563SOL    HW132588   1.127   2.195   2.728
10563SOL    HW232589   1.156   2.336   2.652
10564SOL     OW32590   6.259   2.342   2.568
10564SOL    HW132591   6.355   2.340   2.594
10564SOL    HW232592   6.231   2.252   2.536
10565SOL     OW32593   5.097   1.687   4.887
10565SOL    HW132594   5.023   1.621   4.896
10565SOL    HW232595   5.143   1.674   4.799
10566SOL     OW32596   4.602   5.351   6.624
10566SOL    HW132597   4.640   5.336   6.533
10566SOL    HW232598   4.536   5.279   6.645
10567SOL     OW32599   2.674   5.290   4.350
10567SOL    HW132600   2.627   5.203   4.363
10567SOL    HW232601   2.625   5.344   4.281
10568SOL     OW32602   3.515   1.219   3.049
10568SOL    HW132603   3.575   1.258   2.980
10568SOL    HW232604   3.434   1.276   3.060
10569SOL     OW32605   6.724   2.314   3.216
10569SOL    HW132606   6.783   2.305   3.297
10569SOL    HW232607   6.654   2.243   3.218
10570SOL     OW32608   1.535   4.153   0.958
10570SOL    HW132609   1.564   4.174   0.865
10570SOL    HW232610   1.517   4.239   1.007
10571SOL     OW32611   6.456   6.829   4.717
10571SOL    HW132612   6.546   6.789   4.731
10571SOL    HW232613   6.466   6.919   4.674
10572SOL     OW32614   6.918   3.576   1.395
10572SOL    HW132615   6.955   3.669   1.401
10572SOL    HW232616   6.976   3.514   1.448
10573SOL     OW32617   6.101   4.670   5.606
10573SOL    HW132618   6.111   4.574   5.581
10573SOL    HW232619   6.174   4.723   5.564
10574SOL     OW32620   0.405   2.560   3.107
10574SOL    HW132621   0.466   2.632   3.139
10574SOL    HW232622   0.411   2.552   3.007
10575SOL     OW32623   0.951   6.703   6.636
10575SOL    HW132624   1.024   6.738   6.577
10575SOL    HW232625   0.962   6.605   6.647
10576SOL     OW32626   1.266   5.443   3.154
10576SOL    HW132627   1.322   5.462   3.235
10576SOL    HW232628   1.325   5.431   3.074
10577SOL     OW32629   0.531   2.295   5.576
10577SOL    HW132630   0.436   2.293   5.543
10577SOL    HW232631   0.534   2.344   5.663
10578SOL     OW32632   5.045   1.402   5.527
10578SOL    HW132633   4.975   1.338   5.559
10578SOL    HW232634   5.129   1.352   5.505
10579SOL     OW32635   5.435   6.732   0.598
10579SOL    HW132636   5.441   6.638   0.564
10579SOL    HW232637   5.366   6.738   0.670
10580SOL     OW32638   0.476   5.461   6.849
10580SOL    HW132639   0.377   5.460   6.864
10580SOL    HW232640   0.494   5.464   6.751
10581SOL     OW32641   4.803   2.738   3.602
10581SOL    HW132642   4.816   2.826   3.558
10581SOL    HW232643   4.754   2.676   3.541
10582SOL     OW32644   3.241   4.753   0.080
10582SOL    HW132645   3.260   4.674   0.022
10582SOL    HW232646   3.216   4.722   0.172
10583SOL     OW32647   4.556   1.158   1.486
10583SOL    HW132648   4.654   1.156   1.502
10583SOL    HW232649   4.529   1.080   1.429
10584SOL     OW32650   5.816   6.584   1.084
10584SOL    HW132651   5.855   6.495   1.061
10584SOL    HW232652   5.794   6.634   1.000
10585SOL     OW32653   2.661   4.164   6.192
10585SOL    HW132654   2.659   4.253   6.147
10585SOL    HW232655   2.606   4.167   6.275
10586SOL     OW32656   4.643   1.863   1.224
10586SOL    HW132657   4.635   1.905   1.315
10586SOL    HW232658   4.706   1.785   1.229
10587SOL     OW32659   6.389   3.165   0.448
10587SOL    HW132660   6.413   3.073   0.418
10587SOL    HW232661   6.292   3.183   0.428
10588SOL     OW32662   1.544   5.027   3.360
10588SOL    HW132663   1.541   4.944   3.303
10588SOL    HW232664   1.453   5.069   3.362
10589SOL     OW32665   5.769   1.407   3.551
10589SOL    HW132666   5.799   1.368   3.638
10589SOL    HW232667   5.849   1.432   3.497
10590SOL     OW32668   1.643   0.121   5.287
10590SOL    HW132669   1.648   0.022   5.275
10590SOL    HW232670   1.727   0.163   5.254
10591SOL     OW32671   1.611   2.520   1.892
10591SOL    HW132672   1.695   2.508   1.945
10591SOL    HW232673   1.550   2.442   1.907
10592SOL     OW32674   5.612   1.518   6.073
10592SOL    HW132675   5.698   1.547   6.032
10592SOL    HW232676   5.616   1.419   6.092
10593SOL     OW32677   0.993   4.457   1.527
10593SOL    HW132678   0.997   4.517   1.447
10593SOL    HW232679   1.084   4.420   1.546
10594SOL     OW32680   1.343   1.240   4.587
10594SOL    HW132681   1.269   1.174   4.588
10594SOL    HW232682   1.344   1.289   4.500
10595SOL     OW32683   2.268   5.881   4.645
10595SOL    HW132684   2.365   5.895   4.663
10595SOL    HW232685   2.248   5.905   4.550
10596SOL     OW32686   3.144   1.217   2.028
10596SOL    HW132687   3.142   1.177   2.119
10596SOL    HW232688   3.231   1.196   1.984
10597SOL     OW32689   1.302   0.364   3.977
10597SOL    HW132690   1.232   0.405   3.920
10597SOL    HW232691   1.382   0.341   3.922
10598SOL     OW32692   2.471   0.580   0.776
10598SOL    HW132693   2.488   0.481   0.782
10598SOL    HW232694   2.492   0.612   0.684
10599SOL     OW32695   4.748   0.501   6.545
10599SOL    HW132696   4.779   0.594   6.524
10599SOL    HW232697   4.755   0.444   6.464
10600SOL     OW32698   1.669   3.300   4.701
10600SOL    HW132699   1.712   3.242   4.632
10600SOL    HW232700   1.571   3.284   4.702
10601SOL     OW32701   3.225   6.246   5.329
10601SOL    HW132702   3.324   6.237   5.317
10601SOL    HW232703   3.185   6.155   5.341
10602SOL     OW32704   4.624   1.975   1.486
10602SOL    HW132705   4.531   1.983   1.451
10602SOL    HW232706   4.651   2.062   1.528
10603SOL     OW32707   0.669   5.036   5.411
10603SOL    HW132708   0.603   4.968   5.379
10603SOL    HW232709   0.746   5.042   5.348
10604SOL     OW32710   0.515   4.095   6.171
10604SOL    HW132711   0.491   4.160   6.098
10604SOL    HW232712   0.540   4.145   6.253
10605SOL     OW32713   1.968   5.099   6.622
10605SOL    HW132714   1.984   5.063   6.529
10605SOL    HW232715   1.945   5.023   6.683
10606SOL     OW32716   0.285   1.225   2.275
10606SOL    HW132717   0.301   1.259   2.367
10606SOL    HW232718   0.314   1.294   2.208
10607SOL     OW32719   5.521   4.303   6.308
10607SOL    HW132720   5.583   4.364   6.259
10607SOL    HW232721   5.549   4.297   6.404
10608SOL     OW32722   5.572   6.914   2.603
10608SOL    HW132723   5.546   7.010   2.594
10608SOL    HW232724   5.671   6.906   2.600
10609SOL     OW32725   4.242   6.986   2.610
10609SOL    HW132726   4.201   0.026   2.683
10609SOL    HW232727   4.272   6.899   2.648
10610SOL     OW32728   2.091   4.322   4.935
10610SOL    HW132729   2.122   4.284   5.023
10610SOL    HW232730   2.170   4.349   4.881
10611SOL     OW32731   5.007   2.347   5.873
10611SOL    HW132732   4.952   2.264   5.882
10611SOL    HW232733   5.061   2.342   5.789
10612SOL     OW32734   1.876   0.225   1.098
10612SOL    HW132735   1.870   0.253   1.193
10612SOL    HW232736   1.930   0.141   1.090
10613SOL     OW32737   0.792   6.430   7.002
10613SOL    HW132738   0.841   6.470   6.924
10613SOL    HW232739   0.731   6.499   0.026
10614SOL     OW32740   0.225   0.749   2.640
10614SOL    HW132741   0.323   0.734   2.649
10614SOL    HW232742   0.207   0.806   2.560
10615SOL     OW32743   0.276   6.663   5.294
10615SOL    HW132744   0.352   6.605   5.263
10615SOL    HW232745   0.222   6.691   5.215
10616SOL     OW32746   2.870   5.634   1.087
10616SOL    HW132747   2.933   5.603   1.158
10616SOL    HW232748   2.811   5.558   1.060
10617SOL     OW32749   0.695   0.913   6.553
10617SOL    HW132750   0.757   0.835   6.556
10617SOL    HW232751   0.602   0.881   6.534
10618SOL     OW32752   6.441   4.089   0.701
10618SOL    HW132753   6.469   4.077   0.605
10618SOL    HW232754   6.502   4.036   0.760
10619SOL     OW32755   0.407   3.611   3.564
10619SOL    HW132756   0.375   3.703   3.588
10619SOL    HW232757   0.402   3.599   3.465
10620SOL     OW32758   1.340   5.157   4.231
10620SOL    HW132759   1.391   5.135   4.314
10620SOL    HW232760   1.368   5.247   4.197
10621SOL     OW32761   3.808   6.385   0.724
10621SOL    HW132762   3.770   6.380   0.816
10621SOL    HW232763   3.737   6.363   0.657
10622SOL     OW32764   3.978   2.160   0.618
10622SOL    HW132765   4.021   2.165   0.708
10622SOL    HW232766   3.931   2.246   0.599
10623SOL     OW32767   6.803   1.478   4.837
10623SOL    HW132768   6.902   1.489   4.842
10623SOL    HW232769   6.772   1.412   4.906
10624SOL     OW32770   2.902   1.245   4.277
10624SOL    HW132771   2.804   1.266   4.280
10624SOL    HW232772   2.939   1.244   4.370
10625SOL     OW32773   1.016   2.721   0.631
10625SOL    HW132774   1.094   2.690   0.577
10625SOL    HW232775   0.940   2.656   0.620
10626SOL     OW32776   6.516   2.314   2.719
10626SOL    HW132777   6.581   2.266   2.659
10626SOL    HW232778   6.491   2.254   2.795
10627SOL     OW32779   5.344   5.764   4.983
10627SOL    HW132780   5.348   5.781   5.081
10627SOL    HW232781   5.307   5.673   4.966
10628SOL     OW32782   6.656   5.477   5.369
10628SOL    HW132783   6.684   5.384   5.392
10628SOL    HW232784   6.580   5.504   5.428
10629SOL     OW32785   2.550   4.460   6.521
10629SOL    HW132786   2.551   4.451   6.621
10629SOL    HW232787   2.547   4.557   6.497
10630SOL     OW32788   5.247   1.031   1.842
10630SOL    HW132789   5.253   1.113   1.785
10630SOL    HW232790   5.338   1.004   1.872
10631SOL     OW32791   1.317   6.812   4.799
10631SOL    HW132792   1.337   6.715   4.809
10631SOL    HW232793   1.263   6.843   4.877
10632SOL     OW32794   0.081   3.168   6.542
10632SOL    HW132795   0.134   3.241   6.586
10632SOL    HW232796   0.066   3.094   6.607
10633SOL     OW32797   1.200   5.146   0.164
10633SOL    HW132798   1.240   5.202   0.237
10633SOL    HW232799   1.150   5.069   0.205
10634SOL     OW32800   3.681   6.509   2.358
10634SOL    HW132801   3.685   6.520   2.259
10634SOL    HW232802   3.714   6.418   2.383
10635SOL     OW32803   1.778   1.346   1.617
10635SOL    HW132804   1.840   1.315   1.546
10635SOL    HW232805   1.794   1.444   1.635
10636SOL     OW32806   4.904   1.774   0.188
10636SOL    HW132807   4.998   1.783   0.221
10636SOL    HW232808   4.864   1.688   0.222
10637SOL     OW32809   3.095   4.014   6.112
10637SOL    HW132810   3.084   4.111   6.091
10637SOL    HW232811   3.005   3.973   6.125
10638SOL     OW32812   6.441   0.651   5.585
10638SOL    HW132813   6.416   0.570   5.638
10638SOL    HW232814   6.437   0.732   5.643
10639SOL     OW32815   3.583   2.077   5.354
10639SOL    HW132816   3.515   2.149   5.364
10639SOL    HW232817   3.541   1.988   5.372
10640SOL     OW32818   5.040   6.155   0.782
10640SOL    HW132819   5.088   6.138   0.696
10640SOL    HW232820   5.077   6.096   0.853
10641SOL     OW32821   3.462   6.983   0.063
10641SOL    HW132822   3.370   6.942   0.060
10641SOL    HW232823   3.528   6.919   0.024
10642SOL     OW32824   0.067   5.047   0.639
10642SOL    HW132825   0.025   5.058   0.549
10642SOL    HW232826   0.043   4.957   0.677
10643SOL     OW32827   4.239   3.243   5.367
10643SOL    HW132828   4.233   3.326   5.312
10643SOL    HW232829   4.328   3.239   5.412
10644SOL     OW32830   3.886   1.202   5.446
10644SOL    HW132831   3.879   1.103   5.447
10644SOL    HW232832   3.938   1.232   5.527
10645SOL     OW32833   2.317   6.950   4.856
10645SOL    HW132834   2.238   6.890   4.845
10645SOL    HW232835   2.310   0.012   4.793
10646SOL     OW32836   6.904   4.993   6.925
10646SOL    HW132837   6.985   4.984   6.867
10646SOL    HW232838   6.859   5.080   6.907
10647SOL     OW32839   0.493   5.795   0.668
10647SOL    HW132840   0.521   5.891   0.671
10647SOL    HW232841   0.395   5.788   0.685
10648SOL     OW32842   5.190   4.264   5.849
10648SOL    HW132843   5.122   4.305   5.910
10648SOL    HW232844   5.145   4.202   5.785
10649SOL     OW32845   0.346   4.689   6.651
10649SOL    HW132846   0.248   4.697   6.671
10649SOL    HW232847   0.398   4.744   6.716
10650SOL     OW32848   2.480   0.301   5.664
10650SOL    HW132849   2.579   0.310   5.674
10650SOL    HW232850   2.453   0.206   5.680
10651SOL     OW32851   2.304   0.548   4.923
10651SOL    HW132852   2.268   0.455   4.932
10651SOL    HW232853   2.229   0.613   4.921
10652SOL     OW32854   4.545   1.213   0.852
10652SOL    HW132855   4.518   1.143   0.919
10652SOL    HW232856   4.484   1.291   0.858
10653SOL     OW32857   6.402   3.862   3.863
10653SOL    HW132858   6.394   3.781   3.805
10653SOL    HW232859   6.316   3.877   3.912
10654SOL     OW32860   4.825   0.846   1.732
10654SOL    HW132861   4.887   0.913   1.772
10654SOL    HW232862   4.734   0.885   1.723
10655SOL     OW32863   2.331   5.459   0.937
10655SOL    HW132864   2.271   5.403   0.994
10655SOL    HW232865   2.332   5.553   0.971
10656SOL     OW32866   6.458   2.579   6.430
10656SOL    HW132867   6.444   2.483   6.454
10656SOL    HW232868   6.486   2.631   6.511
10657SOL     OW32869   6.639   0.551   0.939
10657SOL    HW132870   6.649   0.619   0.867
10657SOL    HW232871   6.604   0.466   0.900
10658SOL     OW32872   7.008   6.359   4.294
10658SOL    HW132873   0.090   6.335   4.287
10658SOL    HW232874   6.968   6.367   4.203
10659SOL     OW32875   4.823   1.014   1.018
10659SOL    HW132876   4.769   1.017   1.103
10659SOL    HW232877   4.856   0.921   1.003
10660SOL     OW32878   4.961   5.550   5.647
10660SOL    HW132879   5.040   5.607   5.667
10660SOL    HW232880   4.987   5.453   5.655
10661SOL     OW32881   6.876   0.842   2.030
10661SOL    HW132882   6.853   0.801   1.942
10661SOL    HW232883   6.830   0.793   2.103
10662SOL     OW32884   6.972   1.662   0.469
10662SOL    HW132885   6.984   1.693   0.375
10662SOL    HW232886   6.974   1.741   0.530
10663SOL     OW32887   0.920   2.194   1.012
10663SOL    HW132888   0.827   2.229   1.022
10663SOL    HW232889   0.983   2.251   1.065
10664SOL     OW32890   2.539   5.470   6.206
10664SOL    HW132891   2.566   5.560   6.172
10664SOL    HW232892   2.539   5.470   6.306
10665SOL     OW32893   5.622   1.941   0.129
10665SOL    HW132894   5.596   1.859   0.078
10665SOL    HW232895   5.654   2.011   0.066
10666SOL     OW32896   0.907   6.516   0.335
10666SOL    HW132897   0.816   6.477   0.348
10666SOL    HW232898   0.898   6.614   0.315
10667SOL     OW32899   3.044   2.553   5.659
10667SOL    HW132900   3.028   2.651   5.664
10667SOL    HW232901   3.051   2.525   5.563
10668SOL     OW32902   1.756   0.801   6.095
10668SOL    HW132903   1.821   0.872   6.068
10668SOL    HW232904   1.675   0.843   6.136
10669SOL     OW32905   1.835   6.067   6.645
10669SOL    HW132906   1.908   6.027   6.701
10669SOL    HW232907   1.834   6.021   6.556
10670SOL     OW32908   6.209   4.235   4.590
10670SOL    HW132909   6.242   4.157   4.644
10670SOL    HW232910   6.193   4.312   4.651
10671SOL     OW32911   1.740   2.610   3.311
10671SOL    HW132912   1.652   2.598   3.356
10671SOL    HW232913   1.792   2.681   3.359
10672SOL     OW32914   6.990   2.215   0.630
10672SOL    HW132915   0.038   2.171   0.693
10672SOL    HW232916   6.909   2.246   0.680
10673SOL     OW32917   3.460   4.191   4.324
10673SOL    HW132918   3.506   4.172   4.411
10673SOL    HW232919   3.522   4.242   4.265
10674SOL     OW32920   4.336   1.439   2.380
10674SOL    HW132921   4.396   1.453   2.458
10674SOL    HW232922   4.256   1.498   2.388
10675SOL     OW32923   1.336   1.450   6.066
10675SOL    HW132924   1.283   1.534   6.072
10675SOL    HW232925   1.284   1.382   6.013
10676SOL     OW32926   6.763   0.707   0.050
10676SOL    HW132927   6.688   0.738   7.007
10676SOL    HW232928   6.818   0.786   0.077
10677SOL     OW32929   5.602   1.481   0.349
10677SOL    HW132930   5.601   1.472   0.249
10677SOL    HW232931   5.601   1.578   0.373
10678SOL     OW32932   1.400   5.552   3.664
10678SOL    HW132933   1.392   5.638   3.715
10678SOL    HW232934   1.323   5.543   3.601
10679SOL     OW32935   5.690   5.424   3.782
10679SOL    HW132936   5.655   5.376   3.863
10679SOL    HW232937   5.694   5.362   3.705
10680SOL     OW32938   0.430   2.650   4.007
10680SOL    HW132939   0.333   2.666   4.024
10680SOL    HW232940   0.441   2.567   3.952
10681SOL     OW32941   0.617   3.098   0.037
10681SOL    HW132942   0.683   3.141   0.098
10681SOL    HW232943   0.659   3.018   7.009
10682SOL     OW32944   5.972   2.166   3.424
10682SOL    HW132945   5.961   2.265   3.419
10682SOL    HW232946   5.979   2.138   3.520
10683SOL     OW32947   1.130   0.877   4.047
10683SOL    HW132948   1.146   0.881   4.145
10683SOL    HW232949   1.153   0.786   4.013
10684SOL     OW32950   5.290   5.941   0.876
10684SOL    HW132951   5.322   5.851   0.845
10684SOL    HW232952   5.253   5.933   0.969
10685SOL     OW32953   6.306   2.781   2.497
10685SOL    HW132954   6.387   2.798   2.552
10685SOL    HW232955   6.326   2.801   2.401
10686SOL     OW32956   4.519   4.240   1.245
10686SOL    HW132957   4.421   4.238   1.225
10686SOL    HW232958   4.533   4.243   1.344
10687SOL     OW32959   0.067   5.376   1.313
10687SOL    HW132960   0.093   5.458   1.263
10687SOL    HW232961   0.149   5.325   1.340
10688SOL     OW32962   1.363   4.703   0.847
10688SOL    HW132963   1.295   4.712   0.775
10688SOL    HW232964   1.359   4.782   0.908
10689SOL     OW32965   0.995   0.506   0.874
10689SOL    HW132966   1.035   0.592   0.843
10689SOL    HW232967   1.043   0.476   0.957
10690SOL     OW32968   4.269   0.161   3.566
10690SOL    HW132969   4.335   0.199   3.630
10690SOL    HW232970   4.220   0.235   3.520
10691SOL     OW32971   5.033   1.629   1.506
10691SOL    HW132972   5.040   1.693   1.429
10691SOL    HW232973   4.952   1.650   1.560
10692SOL     OW32974   6.054   6.203   4.170
10692SOL    HW132975   6.030   6.177   4.077
10692SOL    HW232976   6.022   6.133   4.234
10693SOL     OW32977   4.768   2.775   4.055
10693SOL    HW132978   4.786   2.873   4.060
10693SOL    HW232979   4.671   2.758   4.074
10694SOL     OW32980   2.665   6.016   0.029
10694SOL    HW132981   2.586   6.015   0.090
10694SOL    HW232982   2.696   5.922   0.013
10695SOL     OW32983   5.599   3.288   6.051
10695SOL    HW132984   5.639   3.201   6.082
10695SOL    HW232985   5.645   3.318   5.968
10696SOL     OW32986   6.580   0.044   0.449
10696SOL    HW132987   6.554   7.007   0.530
10696SOL    HW232988   6.678   0.032   0.432
10697SOL     OW32989   2.190   6.033   3.542
10697SOL    HW132990   2.243   5.975   3.480
10697SOL    HW232991   2.184   5.990   3.632
10698SOL     OW32992   3.131   0.473   4.592
10698SOL    HW132993   3.068   0.459   4.668
10698SOL    HW232994   3.082   0.459   4.505
10699SOL     OW32995   1.149   2.747   3.574
10699SOL    HW132996   1.061   2.778   3.610
10699SOL    HW232997   1.144   2.649   3.553
10700SOL     OW32998   1.046   3.186   2.319
10700SOL    HW132999   1.120   3.207   2.382
10700SOL    HW233000   1.083   3.142   2.237
10701SOL     OW33001   2.914   6.983   1.080
10701SOL    HW133002   2.851   6.908   1.096
10701SOL    HW233003   2.879   0.026   1.006
10702SOL     OW33004   4.677   2.210   0.485
10702SOL    HW133005   4.723   2.130   0.447
10702SOL    HW233006   4.597   2.232   0.430
10703SOL     OW33007   3.823   3.993   4.077
10703SOL    HW133008   3.833   4.034   4.168
10703SOL    HW233009   3.790   3.899   4.086
10704SOL     OW33010   5.228   5.689   1.973
10704SOL    HW133011   5.205   5.592   1.965
10704SOL    HW233012   5.328   5.700   1.970
10705SOL     OW33013   1.325   2.987   6.939
10705SOL    HW133014   1.377   3.052   6.884
10705SOL    HW233015   1.281   2.920   6.879
10706SOL     OW33016   3.624   3.553   0.775
10706SOL    HW133017   3.536   3.552   0.824
10706SOL    HW233018   3.696   3.583   0.838
10707SOL     OW33019   5.643   0.385   6.508
10707SOL    HW133020   5.725   0.330   6.524
10707SOL    HW233021   5.587   0.385   6.591
10708SOL     OW33022   4.507   2.164   1.932
10708SOL    HW133023   4.506   2.071   1.895
10708SOL    HW233024   4.572   2.220   1.881
10709SOL     OW33025   1.220   0.658   6.467
10709SOL    HW133026   1.267   0.597   6.403
10709SOL    HW233027   1.128   0.623   6.486
10710SOL     OW33028   0.145   6.510   3.508
10710SOL    HW133029   0.183   6.446   3.575
10710SOL    HW233030   0.215   6.578   3.483
10711SOL     OW33031   1.978   4.001   5.366
10711SOL    HW133032   2.038   3.943   5.312
10711SOL    HW233033   1.895   4.022   5.314
10712SOL     OW33034   3.345   1.957   6.877
10712SOL    HW133035   3.440   1.941   6.902
10712SOL    HW233036   3.341   2.011   6.792
10713SOL     OW33037   2.610   6.709   0.045
10713SOL    HW133038   2.520   6.732   0.081
10713SOL    HW233039   2.672   6.787   0.056
10714SOL     OW33040   4.946   5.604   4.227
10714SOL    HW133041   5.032   5.560   4.202
10714SOL    HW233042   4.911   5.565   4.312
10715SOL     OW33043   6.028   0.050   2.680
10715SOL    HW133044   6.020   0.126   2.744
10715SOL    HW233045   6.121   0.047   2.643
10716SOL     OW33046   6.659   1.078   2.115
10716SOL    HW133047   6.725   1.074   2.190
10716SOL    HW233048   6.628   0.986   2.092
10717SOL     OW33049   0.646   6.676   1.768
10717SOL    HW133050   0.626   6.598   1.827
10717SOL    HW233051   0.742   6.701   1.777
10718SOL     OW33052   0.181   4.823   5.050
10718SOL    HW133053   0.225   4.737   5.022
10718SOL    HW233054   0.165   4.821   5.149
10719SOL     OW33055   3.509   6.686   3.326
10719SOL    HW133056   3.562   6.629   3.263
10719SOL    HW233057   3.515   6.648   3.419
10720SOL     OW33058   0.334   2.731   6.207
10720SOL    HW133059   0.292   2.821   6.193
10720SOL    HW233060   0.292   2.687   6.286
10721SOL     OW33061   5.410   1.300   4.008
10721SOL    HW133062   5.394   1.215   4.058
10721SOL    HW233063   5.358   1.299   3.922
10722SOL     OW33064   0.933   5.443   0.466
10722SOL    HW133065   0.917   5.435   0.564
10722SOL    HW233066   0.845   5.440   0.417
10723SOL     OW33067   6.940   3.909   6.229
10723SOL    HW133068   6.917   3.874   6.319
10723SOL    HW233069   7.009   3.981   6.238
10724SOL     OW33070   3.474   6.257   5.877
10724SOL    HW133071   3.481   6.219   5.969
10724SOL    HW233072   3.379   6.277   5.856
10725SOL     OW33073   6.943   0.041   5.563
10725SOL    HW133074   6.982   0.001   5.480
10725SOL    HW233075   6.977   7.007   5.643
10726SOL     OW33076   0.048   0.046   3.175
10726SOL    HW133077   0.063   6.962   3.169
10726SOL    HW233078   0.117   0.087   3.235
10727SOL     OW33079   4.825   6.296   6.294
10727SOL    HW133080   4.836   6.205   6.256
10727SOL    HW233081   4.831   6.364   6.220
10728SOL     OW33082   5.394   5.882   4.039
10728SOL    HW133083   5.416   5.975   4.070
10728SOL    HW233084   5.307   5.853   4.081
10729SOL     OW33085   0.093   3.057   4.091
10729SOL    HW133086   0.029   2.982   4.075
10729SOL    HW233087   0.138   3.043   4.179
10730SOL     OW33088   1.619   5.954   4.437
10730SOL    HW133089   1.594   6.012   4.360
10730SOL    HW233090   1.718   5.937   4.435
10731SOL     OW33091   4.989   4.364   5.209
10731SOL    HW133092   4.925   4.358   5.286
10731SOL    HW233093   4.986   4.280   5.156
10732SOL     OW33094   5.859   6.125   1.905
10732SOL    HW133095   5.767   6.119   1.868
10732SOL    HW233096   5.860   6.185   1.985
10733SOL     OW33097   0.333   1.616   5.884
10733SOL    HW133098   0.327   1.626   5.984
10733SOL    HW233099   0.300   1.525   5.858
10734SOL     OW33100   0.446   0.623   4.426
10734SOL    HW133101   0.430   0.525   4.415
10734SOL    HW233102   0.431   0.648   4.522
10735SOL     OW33103   6.485   0.703   1.842
10735SOL    HW133104   6.449   0.731   1.753
10735SOL    HW233105   6.462   0.607   1.858
10736SOL     OW33106   5.527   5.814   3.523
10736SOL    HW133107   5.471   5.820   3.606
10736SOL    HW233108   5.482   5.863   3.448
10737SOL     OW33109   0.045   0.594   0.526
10737SOL    HW133110   0.081   0.507   0.493
10737SOL    HW233111   6.976   0.579   0.577
10738SOL     OW33112   1.394   6.545   1.730
10738SOL    HW133113   1.465   6.489   1.774
10738SOL    HW233114   1.436   6.602   1.660
10739SOL     OW33115   5.074   2.650   4.026
10739SOL    HW133116   4.982   2.689   4.029
10739SOL    HW233117   5.077   2.576   3.959
10740SOL     OW33118   2.730   0.563   6.164
10740SOL    HW133119   2.796   0.626   6.204
10740SOL    HW233120   2.652   0.614   6.129
10741SOL     OW33121   1.732   2.733   4.319
10741SOL    HW133122   1.661   2.711   4.251
10741SOL    HW233123   1.783   2.813   4.288
10742SOL     OW33124   0.456   0.258   1.886
10742SOL    HW133125   0.454   0.265   1.786
10742SOL    HW233126   0.372   0.297   1.924
10743SOL     OW33127   3.833   2.711   6.246
10743SOL    HW133128   3.930   2.723   6.222
10743SOL    HW233129   3.817   2.745   6.338
10744SOL     OW33130   1.826   1.924   1.230
10744SOL    HW133131   1.912   1.922   1.180
10744SOL    HW233132   1.806   2.017   1.259
10745SOL     OW33133   2.834   5.431   1.372
10745SOL    HW133134   2.754   5.485   1.397
10745SOL    HW233135   2.864   5.377   1.451
10746SOL     OW33136   2.647   5.686   6.080
10746SOL    HW133137   2.687   5.641   6.000
10746SOL    HW233138   2.616   5.778   6.055
10747SOL     OW33139   6.958   6.987   4.620
10747SOL    HW133140   6.925   6.973   4.526
10747SOL    HW233141   7.014   6.909   4.648
10748SOL     OW33142   2.811   6.219   2.668
10748SOL    HW133143   2.768   6.255   2.750
10748SOL    HW233144   2.787   6.123   2.656
10749SOL     OW33145   4.892   3.123   2.264
10749SOL    HW133146   4.824   3.067   2.216
10749SOL    HW233147   4.936   3.069   2.336
10750SOL     OW33148   3.769   1.491   4.184
10750SOL    HW133149   3.753   1.588   4.204
10750SOL    HW233150   3.776   1.478   4.085
10751SOL     OW33151   6.363   6.001   3.563
10751SOL    HW133152   6.336   5.924   3.505
10751SOL    HW233153   6.434   6.054   3.517
10752SOL     OW33154   0.344   5.945   6.727
10752SOL    HW133155   0.254   5.973   6.696
10752SOL    HW233156   0.362   5.851   6.698
10753SOL     OW33157   5.315   0.001   5.166
10753SOL    HW133158   5.326   6.928   5.212
10753SOL    HW233159   5.226   0.040   5.189
10754SOL     OW33160   6.912   5.723   2.409
10754SOL    HW133161   6.830   5.771   2.439
10754SOL    HW233162   6.946   5.765   2.324
10755SOL     OW33163   0.586   1.965   2.402
10755SOL    HW133164   0.508   1.954   2.342
10755SOL    HW233165   0.557   1.954   2.497
10756SOL     OW33166   1.328   0.052   6.365
10756SOL    HW133167   1.384   6.984   6.363
10756SOL    HW233168   1.386   0.131   6.383
10757SOL     OW33169   6.943   2.731   1.700
10757SOL    HW133170   6.960   2.819   1.745
10757SOL    HW233171   0.001   2.713   1.635
10758SOL     OW33172   0.620   1.742   0.375
10758SOL    HW133173   0.583   1.717   0.285
10758SOL    HW233174   0.551   1.726   0.445
10759SOL     OW33175   3.731   4.426   5.676
10759SOL    HW133176   3.816   4.381   5.649
10759SOL    HW233177   3.661   4.357   5.692
10760SOL     OW33178   0.654   4.900   0.194
10760SOL    HW133179   0.612   4.880   0.283
10760SOL    HW233180   0.595   4.963   0.143
10761SOL     OW33181   1.377   1.361   6.722
10761SOL    HW133182   1.469   1.383   6.754
10761SOL    HW233183   1.368   1.389   6.626
10762SOL     OW33184   1.742   6.189   1.166
10762SOL    HW133185   1.807   6.123   1.203
10762SOL    HW233186   1.720   6.258   1.235
10763SOL     OW33187   4.974   1.130   2.109
10763SOL    HW133188   5.067   1.121   2.145
10763SOL    HW233189   4.908   1.115   2.183
10764SOL     OW33190   5.275   6.407   5.145
10764SOL    HW133191   5.300   6.316   5.181
10764SOL    HW233192   5.251   6.399   5.049
10765SOL     OW33193   6.746   2.712   1.246
10765SOL    HW133194   6.843   2.737   1.250
10765SOL    HW233195   6.708   2.712   1.338
10766SOL     OW33196   3.290   5.212   6.660
10766SOL    HW133197   3.286   5.261   6.747
10766SOL    HW233198   3.203   5.164   6.645
10767SOL     OW33199   1.826   4.774   6.549
10767SOL    HW133200   1.761   4.831   6.499
10767SOL    HW233201   1.819   4.680   6.517
10768SOL     OW33202   5.707   6.244   0.287
10768SOL    HW133203   5.779   6.175   0.282
10768SOL    HW233204   5.673   6.264   0.195
10769SOL     OW33205   3.110   3.614   4.952
10769SOL    HW133206   3.116   3.605   5.051
10769SOL    HW233207   3.049   3.690   4.929
10770SOL     OW33208   4.668   6.948   3.888
10770SOL    HW133209   4.659   0.027   3.920
10770SOL    HW233210   4.712   6.948   3.798
10771SOL     OW33211   4.838   5.793   5.808
10771SOL    HW133212   4.764   5.860   5.807
10771SOL    HW233213   4.801   5.702   5.788
10772SOL     OW33214   4.936   3.787   3.484
10772SOL    HW133215   4.919   3.699   3.530
10772SOL    HW233216   5.017   3.829   3.524
10773SOL     OW33217   0.377   4.228   0.994
10773SOL    HW133218   0.351   4.287   1.071
10773SOL    HW233219   0.406   4.139   1.028
10774SOL     OW33220   6.745   2.937   0.419
10774SOL    HW133221   6.774   3.014   0.478
10774SOL    HW233222   6.816   2.867   0.419
10775SOL     OW33223   3.033   4.647   6.737
10775SOL    HW133224   2.998   4.718   6.676
10775SOL    HW233225   2.960   4.618   6.800
10776SOL     OW33226   0.766   3.735   3.563
10776SOL    HW133227   0.840   3.731   3.630
10776SOL    HW233228   0.703   3.809   3.587
10777SOL     OW33229   1.176   6.642   1.898
10777SOL    HW133230   1.241   6.591   1.842
10777SOL    HW233231   1.174   6.737   1.869
10778SOL     OW33232   5.042   0.486   3.968
10778SOL    HW133233   4.990   0.551   3.913
10778SOL    HW233234   5.061   0.525   4.058
10779SOL     OW33235   5.422   3.199   6.262
10779SOL    HW133236   5.498   3.141   6.233
10779SOL    HW233237   5.359   3.212   6.185
10780SOL     OW33238   0.939   5.090   4.530
10780SOL    HW133239   0.879   5.160   4.570
10780SOL    HW233240   0.916   5.001   4.568
10781SOL     OW33241   6.300   2.580   5.638
10781SOL    HW133242   6.279   2.678   5.647
10781SOL    HW233243   6.215   2.529   5.625
10782SOL     OW33244   0.982   3.266   5.368
10782SOL    HW133245   1.057   3.319   5.329
10782SOL    HW233246   1.003   3.245   5.464
10783SOL     OW33247   1.350   3.954   3.978
10783SOL    HW133248   1.439   3.930   3.938
10783SOL    HW233249   1.355   4.044   4.020
10784SOL     OW33250   4.873   5.244   3.897
10784SOL    HW133251   4.844   5.257   3.802
10784SOL    HW233252   4.813   5.178   3.942
10785SOL     OW33253   1.525   5.025   1.799
10785SOL    HW133254   1.496   5.061   1.888
10785SOL    HW233255   1.546   4.927   1.808
10786SOL     OW33256   5.194   1.442   2.453
10786SOL    HW133257   5.191   1.427   2.354
10786SOL    HW233258   5.235   1.532   2.471
10787SOL     OW33259   3.055   1.580   3.891
10787SOL    HW133260   3.090   1.665   3.853
10787SOL    HW233261   3.122   1.542   3.956
10788SOL     OW33262   1.651   2.976   0.341
10788SOL    HW133263   1.562   3.021   0.346
10788SOL    HW233264   1.638   2.877   0.340
10789SOL     OW33265   5.948   2.148   2.758
10789SOL    HW133266   6.001   2.215   2.810
10789SOL    HW233267   5.911   2.079   2.820
10790SOL     OW33268   0.108   2.214   5.288
10790SOL    HW133269   0.013   2.234   5.262
10790SOL    HW233270   0.167   2.288   5.256
10791SOL     OW33271   1.796   3.639   3.373
10791SOL    HW133272   1.878   3.584   3.386
10791SOL    HW233273   1.719   3.580   3.347
10792SOL     OW33274   3.967   1.393   2.252
10792SOL    HW133275   3.942   1.325   2.321
10792SOL    HW233276   3.885   1.425   2.206
10793SOL     OW33277   3.790   2.103   4.396
10793SOL    HW133278   3.851   2.085   4.319
10793SOL    HW233279   3.792   2.201   4.418
10794SOL     OW33280   4.663   2.882   6.547
10794SOL    HW133281   4.595   2.821   6.586
10794SOL    HW233282   4.714   2.834   6.475
10795SOL     OW33283   6.306   3.079   3.380
10795SOL    HW133284   6.284   3.136   3.301
10795SOL    HW233285   6.395   3.104   3.417
10796SOL     OW33286   0.161   1.217   6.649
10796SOL    HW133287   0.100   1.140   6.632
10796SOL    HW233288   0.253   1.183   6.668
10797SOL     OW33289   5.464   4.850   6.618
10797SOL    HW133290   5.561   4.828   6.607
10797SOL    HW233291   5.410   4.769   6.597
10798SOL     OW33292   2.379   5.619   0.431
10798SOL    HW133293   2.385   5.553   0.506
10798SOL    HW233294   2.340   5.574   0.351
10799SOL     OW33295   2.466   0.370   3.321
10799SOL    HW133296   2.496   0.459   3.354
10799SOL    HW233297   2.430   0.379   3.228
10800SOL     OW33298   1.828   0.816   4.856
10800SOL    HW133299   1.823   0.793   4.759
10800SOL    HW233300   1.768   0.754   4.908
10801SOL     OW33301   2.867   6.245   6.631
10801SOL    HW133302   2.842   6.325   6.686
10801SOL    HW233303   2.788   6.213   6.580
10802SOL     OW33304   0.812   4.623   4.093
10802SOL    HW133305   0.847   4.715   4.107
10802SOL    HW233306   0.863   4.578   4.019
10803SOL     OW33307   6.797   4.532   4.709
10803SOL    HW133308   6.888   4.544   4.750
10803SOL    HW233309   6.801   4.557   4.612
10804SOL     OW33310   4.202   4.966   6.709
10804SOL    HW133311   4.214   4.941   6.613
10804SOL    HW233312   4.251   4.900   6.766
10805SOL     OW33313   4.881   5.939   0.500
10805SOL    HW133314   4.809   5.987   0.450
10805SOL    HW233315   4.964   5.994   0.498
10806SOL     OW33316   5.332   2.881   5.491
10806SOL    HW133317   5.243   2.838   5.474
10806SOL    HW233318   5.389   2.875   5.409
10807SOL     OW33319   4.480   2.897   5.393
10807SOL    HW133320   4.437   2.957   5.461
10807SOL    HW233321   4.570   2.933   5.368
10808SOL     OW33322   0.618   2.835   0.932
10808SOL    HW133323   0.656   2.753   0.889
10808SOL    HW233324   0.665   2.851   1.019
10809SOL     OW33325   1.238   1.031   2.876
10809SOL    HW133326   1.284   1.074   2.798
10809SOL    HW233327   1.233   0.932   2.860
10810SOL     OW33328   1.945   1.739   6.174
10810SOL    HW133329   1.948   1.828   6.130
10810SOL    HW233330   1.851   1.719   6.203
10811SOL     OW33331   4.085   6.031   6.473
10811SOL    HW133332   4.147   6.101   6.507
10811SOL    HW233333   4.104   5.944   6.519
10812SOL     OW33334   6.455   3.124   3.001
10812SOL    HW133335   6.515   3.081   3.068
10812SOL    HW233336   6.366   3.142   3.044
10813SOL     OW33337   3.122   5.919   2.340
10813SOL    HW133338   3.128   5.820   2.325
10813SOL    HW233339   3.136   5.966   2.253
10814SOL     OW33340   2.054   6.076   4.415
10814SOL    HW133341   2.021   6.128   4.494
10814SOL    HW233342   2.003   5.991   4.407
10815SOL     OW33343   5.725   2.228   5.743
10815SOL    HW133344   5.671   2.308   5.720
10815SOL    HW233345   5.681   2.179   5.819
10816SOL     OW33346   2.295   2.297   1.052
10816SOL    HW133347   2.282   2.332   1.145
10816SOL    HW233348   2.313   2.199   1.055
10817SOL     OW33349   3.827   1.752   1.829
10817SOL    HW133350   3.742   1.789   1.792
10817SOL    HW233351   3.882   1.827   1.865
10818SOL     OW33352   4.434   3.277   6.186
10818SOL    HW133353   4.359   3.287   6.120
10818SOL    HW233354   4.428   3.187   6.229
10819SOL     OW33355   2.220   3.232   5.129
10819SOL    HW133356   2.144   3.181   5.170
10819SOL    HW233357   2.306   3.193   5.160
10820SOL     OW33358   1.489   6.276   5.844
10820SOL    HW133359   1.518   6.184   5.868
10820SOL    HW233360   1.568   6.328   5.809
10821SOL     OW33361   0.049   0.255   6.932
10821SOL    HW133362   7.003   0.239   6.854
10821SOL    HW233363   0.020   0.338   6.980
10822SOL     OW33364   0.370   4.677   5.932
10822SOL    HW133365   0.447   4.734   5.902
10822SOL    HW233366   0.397   4.623   6.011
10823SOL     OW33367   1.706   1.686   0.985
10823SOL    HW133368   1.637   1.692   1.057
10823SOL    HW233369   1.710   1.593   0.950
10824SOL     OW33370   5.271   1.294   4.700
10824SOL    HW133371   5.249   1.387   4.673
10824SOL    HW233372   5.361   1.269   4.663
10825SOL     OW33373   3.744   1.090   2.478
10825SOL    HW133374   3.693   1.006   2.491
10825SOL    HW233375   3.711   1.136   2.395
10826SOL     OW33376   6.982   3.506   1.105
10826SOL    HW133377   0.019   3.423   1.085
10826SOL    HW233378   6.949   3.503   1.199
10827SOL     OW33379   0.668   2.420   4.431
10827SOL    HW133380   0.598   2.444   4.363
10827SOL    HW233381   0.625   2.414   4.521
10828SOL     OW33382   2.820   4.767   0.115
10828SOL    HW133383   2.748   4.834   0.128
10828SOL    HW233384   2.787   4.694   0.054
10829SOL     OW33385   2.251   3.831   1.683
10829SOL    HW133386   2.327   3.894   1.699
10829SOL    HW233387   2.192   3.830   1.763
10830SOL     OW33388   6.543   0.467   3.483
10830SOL    HW133389   6.607   0.393   3.460
10830SOL    HW233390   6.589   0.534   3.541
10831SOL     OW33391   5.177   2.812   1.983
10831SOL    HW133392   5.250   2.866   2.026
10831SOL    HW233393   5.177   2.830   1.884
10832SOL     OW33394   1.716   2.862   2.268
10832SOL    HW133395   1.628   2.848   2.313
10832SOL    HW233396   1.745   2.957   2.279
10833SOL     OW33397   3.400   0.109   4.906
10833SOL    HW133398   3.437   0.028   4.862
10833SOL    HW233399   3.395   0.184   4.839
10834SOL     OW33400   0.016   1.894   5.851
10834SOL    HW133401   6.957   1.948   5.812
10834SOL    HW233402   0.042   1.821   5.787
10835SOL     OW33403   0.405   1.316   0.596
10835SOL    HW133404   0.401   1.402   0.544
10835SOL    HW233405   0.315   1.297   0.635
10836SOL     OW33406   0.523   2.523   1.150
10836SOL    HW133407   0.485   2.469   1.225
10836SOL    HW233408   0.573   2.601   1.187
10837SOL     OW33409   1.474   5.322   0.698
10837SOL    HW133410   1.503   5.313   0.603
10837SOL    HW233411   1.424   5.409   0.710
10838SOL     OW33412   6.747   5.856   0.411
10838SOL    HW133413   6.785   5.948   0.417
10838SOL    HW233414   6.697   5.847   0.325
10839SOL     OW33415   2.210   2.126   6.796
10839SOL    HW133416   2.253   2.203   6.749
10839SOL    HW233417   2.240   2.040   6.754
10840SOL     OW33418   1.937   0.327   3.366
10840SOL    HW133419   1.991   0.393   3.418
10840SOL    HW233420   1.918   0.247   3.423
10841SOL     OW33421   4.525   3.905   0.096
10841SOL    HW133422   4.448   3.934   0.153
10841SOL    HW233423   4.598   3.974   0.101
10842SOL     OW33424   6.053   1.782   1.966
10842SOL    HW133425   6.073   1.688   1.937
10842SOL    HW233426   6.110   1.804   2.046
10843SOL     OW33427   1.077   2.355   1.171
10843SOL    HW133428   1.146   2.287   1.197
10843SOL    HW233429   1.123   2.436   1.135
10844SOL     OW33430   4.873   6.937   4.134
10844SOL    HW133431   4.904   0.009   4.170
10844SOL    HW233432   4.776   6.944   4.110
10845SOL     OW33433   2.545   3.565   1.415
10845SOL    HW133434   2.508   3.537   1.503
10845SOL    HW233435   2.484   3.534   1.342
10846SOL     OW33436   3.481   2.755   1.844
10846SOL    HW133437   3.491   2.701   1.928
10846SOL    HW233438   3.541   2.836   1.850
10847SOL     OW33439   5.404   1.860   5.311
10847SOL    HW133440   5.397   1.781   5.371
10847SOL    HW233441   5.383   1.943   5.362
10848SOL     OW33442   1.871   1.061   6.842
10848SOL    HW133443   1.863   1.096   6.935
10848SOL    HW233444   1.931   1.121   6.789
10849SOL     OW33445   0.907   4.244   4.944
10849SOL    HW133446   0.875   4.186   5.019
10849SOL    HW233447   0.851   4.327   4.940
10850SOL     OW33448   6.088   0.292   2.849
10850SOL    HW133449   6.141   0.274   2.932
10850SOL    HW233450   6.109   0.384   2.816
10851SOL     OW33451   4.518   2.733   0.160
10851SOL    HW133452   4.442   2.708   0.100
10851SOL    HW233453   4.504   2.826   0.195
10852SOL     OW33454   6.370   1.425   5.777
10852SOL    HW133455   6.332   1.341   5.740
10852SOL    HW233456   6.466   1.410   5.804
10853SOL     OW33457   2.749   0.348   5.651
10853SOL    HW133458   2.743   0.349   5.551
10853SOL    HW233459   2.763   0.254   5.683
10854SOL     OW33460   6.281   0.052   6.870
10854SOL    HW133461   6.247   0.089   6.783
10854SOL    HW233462   6.203   0.029   6.928
10855SOL     OW33463   1.157   6.117   0.424
10855SOL    HW133464   1.137   6.100   0.521
10855SOL    HW233465   1.086   6.077   0.367
10856SOL     OW33466   4.965   6.903   6.599
10856SOL    HW133467   4.993   6.886   6.504
10856SOL    HW233468   4.919   6.822   6.635
10857SOL     OW33469   6.307   6.783   4.919
10857SOL    HW133470   6.351   6.805   4.832
10857SOL    HW233471   6.301   6.683   4.928
10858SOL     OW33472   2.156   2.603   0.791
10858SOL    HW133473   2.132   2.668   0.863
10858SOL    HW233474   2.076   2.546   0.770
10859SOL     OW33475   2.453   5.748   1.666
10859SOL    HW133476   2.428   5.707   1.754
10859SOL    HW233477   2.492   5.678   1.606
10860SOL     OW33478   5.925   1.513   1.548
10860SOL    HW133479   5.945   1.611   1.554
10860SOL    HW233480   5.892   1.481   1.637
10861SOL     OW33481   1.797   4.752   0.879
10861SOL    HW133482   1.842   4.805   0.951
10861SOL    HW233483   1.721   4.700   0.918
10862SOL     OW33484   3.654   4.363   5.300
10862SOL    HW133485   3.576   4.302   5.317
10862SOL    HW233486   3.621   4.457   5.289
10863SOL     OW33487   0.773   6.838   3.327
10863SOL    HW133488   0.857   6.891   3.316
10863SOL    HW233489   0.715   6.849   3.247
10864SOL     OW33490   2.973   3.730   2.407
10864SOL    HW133491   3.058   3.726   2.459
10864SOL    HW233492   2.993   3.727   2.309
10865SOL     OW33493   2.981   1.909   2.536
10865SOL    HW133494   2.957   1.950   2.448
10865SOL    HW233495   3.060   1.850   2.525
10866SOL     OW33496   0.463   3.388   4.569
10866SOL    HW133497   0.415   3.463   4.524
10866SOL    HW233498   0.521   3.424   4.642
10867SOL     OW33499   4.610   2.852   0.509
10867SOL    HW133500   4.636   2.840   0.604
10867SOL    HW233501   4.564   2.769   0.476
10868SOL     OW33502   0.740   6.948   5.549
10868SOL    HW133503   0.791   6.884   5.491
10868SOL    HW233504   0.664   6.987   5.497
10869NA      NA33505   0.101   0.718   6.611
10870NA      NA33506   4.615   4.795   5.009
10871NA      NA33507   0.882   4.553   2.725
10872NA      NA33508   6.171   3.584   3.453
10873NA      NA33509   4.160   2.355   5.341
10874NA      NA33510   2.382   3.461   6.962
10875NA      NA33511   1.631   5.708   0.215
10876NA      NA33512   4.239   4.760   1.962
10877NA      NA33513   5.354   3.589   1.270
10878NA      NA33514   3.841   1.954   0.544
10879NA      NA33515   5.354   6.666   1.376
10880NA      NA33516   2.913   6.508   4.601
10881NA      NA33517   3.337   5.505   2.872
10882NA      NA33518   4.049   4.906   6.176
   7.01511   7.01511   7.01511
